Membrane in water
40155
    1TCq1    O1    1   0.982   1.330  11.120  0.0857 -0.6895  0.2351
    1TCq1    C1    2   0.930   1.326  10.997  0.4325 -0.0409 -0.2524
    1TCq1    O2    3   0.998   1.333  10.898  0.2066  0.2877 -0.4073
    1TCq1    C2    4   0.809   1.407  10.996 -0.2867  0.2666 -0.4359
    1TCq1    C3    5   0.790   1.499  10.894  0.2750  0.3293 -0.2449
    1TCq1    C4    6   0.678   1.567  10.887 -0.5224 -0.8746  0.1224
    1TCq1    C5    7   0.575   1.544  10.976  0.4236  0.3037  0.2015
    1TCq1    C6    8   0.593   1.446  11.073 -0.5069  0.0562 -0.0262
    1TCq1    C7    9   0.713   1.383  11.085 -0.1426 -0.4981  0.7263
    1TCq1    C8   10   0.506   1.454  11.191 -0.3522  0.3092 -0.4920
    1TCq1    O4   11   0.426   1.542  11.193 -0.1180  0.0782  0.6125
    1TCq1    C9   12   0.676   1.676  10.791  0.9965 -0.0413  0.4097
    1TCq1    O5   13   0.585   1.758  10.818 -0.1281  0.5297 -0.2311
    1TCq1    O6   14   0.754   1.682  10.695 -0.7233 -0.3805  0.2362
    1TCq1    H1   15   0.913   1.369  11.178 -0.1806 -0.3712 -0.2890
    1TCq1    H2   16   0.876   1.529  10.834  1.3536 -2.1470  0.0634
    1TCq1    H3   17   0.489   1.610  10.979 -0.2374 -0.4256 -2.5125
    1TCq1    H4   18   0.727   1.309  11.164  1.1638 -1.7944 -0.7207
    2MPD2     C   19   0.437   1.392  11.695 -0.6172  0.1927  0.1839
    2MPD2    C1   20   0.370   1.477  11.611  0.7033  0.1228  0.7691
    2MPD2    C2   21   0.384   1.460  11.471  0.2183 -0.4906  0.6531
    2MPD2    C3   22   0.475   1.366  11.424 -0.1005  0.5903  0.3031
    2MPD2    C4   23   0.538   1.278  11.518  0.7816 -0.5177  0.1037
    2MPD2    C5   24   0.514   1.287  11.653 -0.7225  0.3288  1.0899
    2MPD2     H   25   0.330   1.529  11.408 -0.8834 -1.9762 -0.0182
    2MPD2    H1   26   0.602   1.197  11.486  0.2571 -0.8506 -0.0992
    2MPD2    H2   27   0.432   1.400  11.803 -2.7409 -0.7357  0.1487
    2MPD2    H3   28   0.546   1.207  11.718 -0.2928 -0.0699  0.3821
    2MPD2     N   29   0.525   1.358  11.288 -0.1366  0.3524 -0.4168
    2MPD2    H5   30   0.586   1.280  11.264 -0.1233 -0.5115  2.4244
    2MPD2    N1   31   0.276   1.576  11.642  0.1283  0.4652 -0.0307
    2MPD2    H7   32   0.225   1.607  11.560 -1.2545  1.9699  1.3902
    3TCq1    O1   33   4.640   2.557  10.258  0.7116  0.3746 -0.4491
    3TCq1    C1   34   4.682   2.682  10.262  1.0220 -0.2053 -0.1088
    3TCq1    O2   35   0.033   2.731  10.178  1.0746  0.3376  0.1447
    3TCq1    C2   36   4.655   2.758  10.384  0.5271 -0.5601 -0.2268
    3TCq1    C3   37   4.714   2.881  10.396 -0.2339  0.1045 -0.1675
    3TCq1    C4   38   4.710   2.954  10.511  0.7001  0.5917 -0.1082
    3TCq1    C5   39   4.644   2.908  10.620  0.7518 -0.1798 -0.3486
    3TCq1    C6   40   4.582   2.787  10.603  0.0353 -0.9674  0.5888
    3TCq1    C7   41   4.579   2.713  10.489  0.1012  0.2995 -0.0670
    3TCq1    C8   42   4.503   2.745  10.707 -0.2852 -0.1153 -0.5377
    3TCq1    O4   43   4.478   2.630  10.713  0.3127 -0.3566  0.4847
    3TCq1    C9   44   0.051   3.085  10.515  0.5050  0.1347 -0.6080
    3TCq1    O5   45   0.075   3.146  10.408 -0.1478  0.3221 -0.0757
    3TCq1    O6   46   0.022   3.153  10.615 -0.4625 -0.3177  0.6906
    3TCq1    H1   47   4.576   2.526  10.325 -0.8851  0.4836 -1.9388
    3TCq1    H2   48   0.044   2.922  10.312 -0.2048  2.5376  1.0420
    3TCq1    H3   49   4.657   2.940  10.723  2.1493 -1.3138 -0.1663
    3TCq1    H4   50   4.524   2.620  10.484  4.0177 -2.0478  0.0864
    4MPD2     C   51   4.096   2.886  10.977  0.0777 -0.2595 -0.1167
    4MPD2    C1   52   4.171   3.002  10.951  0.3404  0.2223 -0.9610
    4MPD2    C2   53   4.293   2.986  10.886 -0.1688  0.9374  0.0435
    4MPD2    C3   54   4.330   2.860  10.840  0.3167 -0.8522 -0.1909
    4MPD2    C4   55   4.250   2.752  10.847  0.1386  0.4282 -0.4126
    4MPD2    C5   56   4.135   2.766  10.928 -0.1522  0.2856 -0.2375
    4MPD2     H   57   4.355   3.070  10.857  0.5713 -0.0901 -1.3734
    4MPD2    H1   58   4.278   2.653  10.812 -0.1839  0.4514 -0.7300
    4MPD2    H2   59   3.999   2.896  11.023 -1.3155 -0.0117 -3.1340
    4MPD2    H3   60   4.070   2.683  10.954  0.2877  0.3932  1.1857
    4MPD2     N   61   4.450   2.856  10.769 -0.4229 -0.2751  0.3264
    4MPD2    H5   62   4.493   2.947  10.755 -1.0760 -0.2034 -1.2694
    4MPD2    N1   63   4.132   3.135  10.989  0.9852 -1.0006 -0.0459
    4MPD2    H7   64   4.189   3.212  10.955  0.8067 -0.4474  0.9122
    5TCq1    O1   65   4.440   4.227  11.393 -0.1775 -0.6825 -0.4707
    5TCq1    C1   66   4.478   4.350  11.429 -0.4070  0.7740  0.0140
    5TCq1    O2   67   4.495   4.398  11.542  0.5770 -0.8784 -0.7997
    5TCq1    C2   68   4.498   4.426  11.294  0.0285 -0.3031  0.2406
    5TCq1    C3   69   4.443   4.552  11.284  0.0653  1.1620 -0.3794
    5TCq1    C4   70   4.453   4.622  11.161  0.9362  0.5100  1.0579
    5TCq1    C5   71   4.516   4.561  11.051  0.2984  0.1054  0.8353
    5TCq1    C6   72   4.561   4.433  11.069 -0.2639 -0.4725 -0.3230
    5TCq1    C7   73   4.552   4.362  11.190 -0.2701  0.1324 -0.1261
    5TCq1    C8   74   4.628   4.356  10.963  0.5763  0.1668 -1.1823
    5TCq1    O4   75   4.691   4.257  10.998 -0.0867  0.3596  0.0871
    5TCq1    C9   76   4.405   0.037  11.154  0.4146 -0.1766 -0.1519
    5TCq1    O5   77   4.429   0.099  11.047 -0.2475 -0.0443  0.2782
    5TCq1    O6   78   4.354   0.094  11.255 -0.1704 -0.1468  0.2994
    5TCq1    H1   79   4.415   4.204  11.301 -0.2554 -1.0915 -0.3493
    5TCq1    H2   80   4.403   4.607  11.369 -0.9040  0.4496 -0.3775
    5TCq1    H3   81   4.534   4.626  10.967 -0.2843 -0.4796  0.2555
    5TCq1    H4   82   4.586   4.260  11.195 -0.1284 -0.0265 -3.9018
    6MPD2     C   83   4.641   4.414  10.597 -0.0759  0.6022  0.5773
    6MPD2    C1   84   4.680   4.358  10.719 -0.6459  0.0307 -0.3941
    6MPD2    C2   85   0.046   4.254  10.711  0.1802  0.4199 -0.3606
    6MPD2    C3   86   0.118   4.224  10.590  0.0460 -0.2795 -0.4054
    6MPD2    C4   87   0.072   4.281  10.474  0.4617 -0.0421  0.4130
    6MPD2    C5   88   4.692   4.369  10.488 -0.6543  0.1268 -1.0310
    6MPD2     H   89   0.075   4.199  10.800 -3.3330  0.1128  0.5679
    6MPD2    H1   90   0.107   4.259  10.374 -0.7125  0.5204 -0.1187
    6MPD2    H2   91   4.570   4.495  10.593 -0.0054  0.6104 -0.4876
    6MPD2    H3   92   4.650   4.405  10.395 -1.5032  1.1343 -0.2564
    6MPD2     N   93   0.225   4.125  10.591  0.2007 -0.3497 -0.4461
    6MPD2    H5   94   0.241   4.072  10.677 -0.2765 -1.0773 -0.8030
    6MPD2    N1   95   4.612   4.399  10.832  0.3836  0.4471 -0.0825
    6MPD2    H7   96   4.554   4.482  10.820  1.7834  1.2294 -1.4486
    7TCq1    O1   97   1.751   2.950  12.346 -0.0453  0.0319 -0.2763
    7TCq1    C1   98   1.837   2.895  12.444  0.7871  0.0556  0.2473
    7TCq1    O2   99   1.859   2.781  12.477  0.5184 -0.0150  0.3795
    7TCq1    C2  100   1.866   3.002  12.541  0.1284 -0.3653 -0.0362
    7TCq1    C3  101   1.803   3.121  12.536  0.2859  0.1260 -0.7797
    7TCq1    C4  102   1.864   3.235  12.590 -0.1297 -0.1840  1.0503
    7TCq1    C5  103   1.997   3.220  12.630  0.9726 -0.1273 -0.1933
    7TCq1    C6  104   2.046   3.095  12.642 -0.1470 -0.4545  0.0302
    7TCq1    C7  105   1.986   2.985  12.597  0.0705  0.5321  0.2772
    7TCq1    C8  106   2.175   3.073  12.712  0.4033 -0.2404 -0.0881
    7TCq1    O4  107   2.201   2.957  12.722 -0.1299  0.4686 -0.7115
    7TCq1    C9  108   1.804   3.362  12.592 -0.5778 -0.2426 -0.4574
    7TCq1    O5  109   1.855   3.449  12.669  0.4106  0.1728  0.0470
    7TCq1    O6  110   1.701   3.369  12.522 -0.2920  0.2336 -0.0432
    7TCq1    H1  111   1.762   3.047  12.338 -1.8081  0.3620  1.2588
    7TCq1    H2  112   1.700   3.141  12.506 -0.3813 -0.6506  0.9909
    7TCq1    H3  113   2.054   3.308  12.656 -0.6337  1.0559 -0.6143
    7TCq1    H4  114   2.026   2.884  12.594 -0.4760  0.3369 -0.6072
    8MPD2     C  115   2.526   3.232  13.049  0.3350 -1.4560  0.1690
    8MPD2    C1  116   2.508   3.111  12.999 -0.5834  0.2668  0.4016
    8MPD2    C2  117   2.405   3.091  12.910  0.2968 -0.3889  0.3078
    8MPD2    C3  118   2.324   3.197  12.869  0.6749  0.2900  0.3748
    8MPD2    C4  119   2.344   3.318  12.936  0.0791 -0.3950 -0.0353
    8MPD2    C5  120   2.442   3.329  13.020 -0.0506 -0.5214 -0.1590
    8MPD2     H  121   2.382   2.993  12.871  0.7478 -1.3197  2.3675
    8MPD2    H1  122   2.278   3.402  12.919 -1.1282 -0.7872  2.7993
    8MPD2    H2  123   2.608   3.254  13.117 -0.2727 -0.1261  0.4834
    8MPD2    H3  124   2.465   3.420  13.075 -0.6977 -1.9739  2.5094
    8MPD2     N  125   2.220   3.187  12.776  0.0828  0.1525 -0.0662
    8MPD2    H5  126   2.169   3.274  12.767 -1.7112 -0.8905  0.0972
    8MPD2    N1  127   2.588   3.004  13.051  0.3549  0.6096  0.1929
    8MPD2    H7  128   2.672   3.028  13.102  0.6086 -1.7567  0.8608
    9TCq1    O1  129   0.557   2.353  10.904 -0.7349 -0.0533 -0.0566
    9TCq1    C1  130   0.502   2.351  11.025  0.5176  0.3995  0.3240
    9TCq1    O2  131   0.381   2.348  11.041  0.5817  0.0079  0.5878
    9TCq1    C2  132   0.581   2.454  11.095  0.5542 -0.3489  0.7129
    9TCq1    C3  133   0.716   2.439  11.086 -0.5347 -0.5846 -0.3174
    9TCq1    C4  134   0.790   2.549  11.125  0.0665 -0.4997 -0.2416
    9TCq1    C5  135   0.736   2.663  11.172  0.5308  0.5637 -0.5182
    9TCq1    C6  136   0.605   2.690  11.150  0.1046 -0.1024  0.2480
    9TCq1    C7  137   0.526   2.578  11.109 -0.8450 -0.6169  0.1822
    9TCq1    C8  138   0.545   2.827  11.173 -0.9244  0.5497  0.1310
    9TCq1    O4  139   0.625   2.916  11.168  0.1277  0.2994  0.0357
    9TCq1    C9  140   0.929   2.540  11.118  0.0209  0.2336  0.0877
    9TCq1    O5  141   0.975   2.433  11.074  0.6990  0.1742 -0.1573
    9TCq1    O6  142   0.992   2.648  11.130  0.0112  0.7804 -0.2320
    9TCq1    H1  143   0.643   2.399  10.901 -0.4780 -0.5379 -0.0981
    9TCq1    H2  144   0.762   2.347  11.051  0.1164 -0.5490  0.4443
    9TCq1    H3  145   0.793   2.753  11.195  2.1194 -0.8336  0.9174
    9TCq1    H4  146   0.421   2.597  11.088 -1.3746 -0.7239  2.6580
   10MPD2     C  147   0.395   3.074  11.240 -0.3270  0.8153  0.2948
   10MPD2    C1  148   0.341   2.948  11.241 -0.3419  0.1726  0.2741
   10MPD2    C2  149   0.218   2.934  11.302  0.0391  0.5384 -0.2782
   10MPD2    C3  150   0.148   3.044  11.354  0.4849  0.4976  0.0223
   10MPD2    C4  151   0.199   3.172  11.330 -0.2678  0.0524 -0.4101
   10MPD2    C5  152   0.322   3.186  11.271  0.6178  0.2822  0.0961
   10MPD2     H  153   0.174   2.835  11.305  1.0646  0.2024  3.0806
   10MPD2    H1  154   0.143   3.261  11.358 -2.0908 -1.4431  0.7088
   10MPD2    H2  155   0.491   3.091  11.193  0.3837 -0.1038  1.4148
   10MPD2    H3  156   0.351   3.286  11.242  0.1519  0.3358 -0.1872
   10MPD2     N  157   0.014   3.052  11.405  0.0418 -0.4531 -0.0404
   10MPD2    H5  158   4.704   3.147  11.415 -1.4958 -0.9220 -0.9538
   10MPD2    N1  159   0.409   2.831  11.199  0.0867  0.1575 -0.1810
   10MPD2    H7  160   0.361   2.742  11.211  1.1757 -0.4117 -0.0536
   11TCq1    O1  161   1.773   1.954  13.484  0.0999  0.2799  0.2869
   11TCq1    C1  162   1.839   1.917  13.593 -0.6500 -0.6796  0.2239
   11TCq1    O2  163   1.960   1.909  13.594 -0.1838 -0.1857 -0.2562
   11TCq1    C2  164   1.760   1.950  13.714  0.2231  0.1445 -0.1534
   11TCq1    C3  165   1.842   1.997  13.817  0.1540 -0.2407  0.0506
   11TCq1    C4  166   1.773   2.033  13.926 -0.0158  1.0738  0.6878
   11TCq1    C5  167   1.637   2.038  13.930 -0.7683 -0.6940  0.0941
   11TCq1    C6  168   1.559   2.000  13.824 -0.4554 -0.4914  0.1395
   11TCq1    C7  169   1.623   1.950  13.720 -0.1993  0.1850  0.2640
   11TCq1    C8  170   1.420   2.023  13.831 -0.9163  0.5174 -0.4448
   11TCq1    O4  171   1.387   2.099  13.921 -0.5440  0.3418  0.2865
   11TCq1    C9  172   1.850   2.058  14.052 -0.4404  0.0469  0.6101
   11TCq1    O5  173   1.783   2.073  14.152  0.2620 -0.1584 -0.4399
   11TCq1    O6  174   1.974   2.069  14.043  0.1943 -0.2454 -0.3292
   11TCq1    H1  175   1.694   2.007  13.505 -1.1477 -0.9494 -1.3274
   11TCq1    H2  176   1.950   2.002  13.816  0.1572 -0.1234  2.2052
   11TCq1    H3  177   1.587   2.058  14.024 -0.0727 -1.3897  0.6025
   11TCq1    H4  178   1.560   1.926  13.634  0.1541  0.9085 -0.1939
   12MPD2     C  179   1.153   2.114  13.730  0.0914 -0.1030 -0.0463
   12MPD2    C1  180   1.221   2.005  13.677  0.2141 -0.5212  0.7309
   12MPD2    C2  181   1.159   1.937  13.576  0.4089  0.3584 -0.0525
   12MPD2    C3  182   1.034   1.988  13.525  0.0406 -0.0925 -0.1698
   12MPD2    C4  183   0.968   2.097  13.577 -0.2249 -0.4636 -0.9810
   12MPD2    C5  184   1.031   2.164  13.678 -0.3516 -0.0127  0.0753
   12MPD2     H  185   1.222   1.863  13.529  0.8931  1.2141 -0.7683
   12MPD2    H1  186   0.877   2.144  13.541 -0.2775 -0.2366 -0.5506
   12MPD2    H2  187   1.206   2.172  13.805  0.1039 -0.6844  0.3970
   12MPD2    H3  188   0.986   2.250  13.727 -0.3274  0.3885 -0.6135
   12MPD2     N  189   0.962   1.923  13.419  0.3612 -0.0149  0.3560
   12MPD2    H5  190   0.868   1.955  13.399  1.1050  1.2641 -1.1185
   12MPD2    N1  191   1.353   1.968  13.722 -0.8756 -0.0049 -1.1736
   12MPD2    H7  192   1.403   1.897  13.670  0.3581  1.5260 -2.0994
   13TCq1    O1  193   0.503   2.859  10.325  0.4242  0.4712 -0.1674
   13TCq1    C1  194   0.364   2.856  10.346 -0.5814 -1.2920  0.9730
   13TCq1    O2  195   0.292   2.948  10.381 -0.0841  0.2391  0.0225
   13TCq1    C2  196   0.324   2.720  10.307 -0.2920  0.3235  0.1183
   13TCq1    C3  197   0.364   2.659  10.195  0.3004 -0.2823  0.1323
   13TCq1    C4  198   0.331   2.531  10.178  0.1737  0.8086  0.2081
   13TCq1    C5  199   0.263   2.461  10.278 -0.5729  1.0437 -0.5059
   13TCq1    C6  200   0.244   2.522  10.399  1.0559 -0.1246  0.2516
   13TCq1    C7  201   0.270   2.654  10.413  0.5059  0.0138  0.0665
   13TCq1    C8  202   0.141   2.484  10.495 -0.5242  0.3433  0.1837
   13TCq1    O4  203   0.109   2.561  10.583 -0.1156 -0.4557 -0.1524
   13TCq1    C9  204   0.355   2.466  10.050 -0.7672  0.6024  0.8075
   13TCq1    O5  205   0.380   2.343  10.047  0.1528  0.4874  0.1311
   13TCq1    O6  206   0.345   2.537   9.947 -0.3835 -0.2417 -0.5033
   13TCq1    H1  207   0.535   2.769  10.304 -1.5165 -0.1509 -0.4807
   13TCq1    H2  208   0.417   2.710  10.115 -2.4985 -0.2847 -1.7306
   13TCq1    H3  209   0.231   2.359  10.260  0.3633  0.7879 -0.7243
   13TCq1    H4  210   0.252   2.701  10.509  0.4259  0.1380 -0.0096
   14MPD2     C  211   4.701   2.157  10.482 -0.4600  0.3451 -0.3836
   14MPD2    C1  212   4.722   2.284  10.532  0.4422  0.3067  0.2344
   14MPD2    C2  213   4.645   2.334  10.635  0.6270 -0.6160  0.6625
   14MPD2    C3  214   4.542   2.258  10.694  0.0381 -0.4410  0.2399
   14MPD2    C4  215   4.519   2.136  10.637  0.1677  0.8297  1.0642
   14MPD2    C5  216   4.600   2.079  10.541  0.3104 -0.0097 -1.3799
   14MPD2     H  217   4.657   2.435  10.672 -0.5637  0.3038 -1.5071
   14MPD2    H1  218   4.438   2.068  10.659  1.6346 -0.5946  2.0645
   14MPD2    H2  219   0.035   2.111  10.404 -1.9345 -3.7532  0.9451
   14MPD2    H3  220   4.567   1.982  10.505 -0.0831  0.1958 -1.5731
   14MPD2     N  221   4.466   2.314  10.801  0.2505  0.3406  0.7330
   14MPD2    H5  222   4.503   2.403  10.832  1.4339  0.7855 -1.9488
   14MPD2    N1  223   0.103   2.354  10.470 -0.6447 -0.3778 -0.0158
   14MPD2    H7  224   0.152   2.309  10.393  3.4157  3.3249  0.4201
   15TCq1    O1  225   1.730   1.816   1.186  0.5054  0.1306  0.0074
   15TCq1    C1  226   1.846   1.774   1.135  0.3115  0.1596 -0.4893
   15TCq1    O2  227   1.861   1.746   1.017  0.3117  0.0087  0.4141
   15TCq1    C2  228   1.885   1.670   1.226  0.8635  0.1264 -0.8140
   15TCq1    C3  229   1.876   1.697   1.357  0.1003  0.1546 -0.1236
   15TCq1    C4  230   1.887   1.585   1.445  0.3021 -0.1568  0.5300
   15TCq1    C5  231   1.917   1.468   1.390  0.2141 -0.1027 -0.0802
   15TCq1    C6  232   1.931   1.441   1.253 -0.9117 -0.6621  0.1771
   15TCq1    C7  233   1.913   1.547   1.166  0.5978  0.2041 -0.0401
   15TCq1    C8  234   1.980   1.312   1.213  0.4907 -0.1917  0.2765
   15TCq1    O4  235   2.019   1.237   1.301  0.0901 -0.5605  0.0526
   15TCq1    C9  236   1.864   1.595   1.585  0.6724 -1.1881  0.6650
   15TCq1    O5  237   1.902   1.501   1.661  0.6788  0.4007 -0.0097
   15TCq1    O6  238   1.826   1.708   1.623  0.5958  0.5028  0.0274
   15TCq1    H1  239   1.714   1.792   1.279  0.5655  1.2710  0.3172
   15TCq1    H2  240   1.866   1.797   1.398  0.8005 -0.1294  0.7437
   15TCq1    H3  241   1.928   1.380   1.453  2.2736 -1.4795 -2.3452
   15TCq1    H4  242   1.920   1.529   1.059 -1.9982  1.7111 -0.4419
   16MPD2     C  243   1.949   1.163   0.883  0.0870  0.3367  0.0298
   16MPD2    C1  244   1.993   1.171   1.011  0.1646 -0.4166 -0.1267
   16MPD2    C2  245   2.058   1.067   1.070 -0.2477  0.4544 -0.3872
   16MPD2    C3  246   2.094   0.963   0.987 -0.3989 -0.0750 -0.7321
   16MPD2    C4  247   2.042   0.953   0.860  0.1774  0.6084 -0.0803
   16MPD2    C5  248   1.975   1.057   0.805 -0.0201 -0.0458 -0.6825
   16MPD2     H  249   2.112   1.082   1.162  1.0256 -2.0029 -0.7247
   16MPD2    H1  250   2.065   0.871   0.794  0.1956 -0.4795  1.2816
   16MPD2    H2  251   1.875   1.236   0.852 -1.4900 -0.6410  1.4354
   16MPD2    H3  252   1.940   1.048   0.703 -1.9260 -0.2847 -0.0076
   16MPD2     N  253   2.192   0.872   1.041  0.6917 -0.5819 -0.5328
   16MPD2    H5  254   2.224   0.891   1.135  1.0564  0.7053 -0.9071
   16MPD2    N1  255   1.957   1.290   1.076 -0.2360 -0.2878  0.0435
   16MPD2    H7  256   1.921   1.370   1.026  2.9348  1.7497  0.9979
   17TCq1    O1  257   0.051   1.366  11.029  0.2369  0.1383  0.2553
   17TCq1    C1  258   0.176   1.332  11.064 -0.3208 -0.4062  0.0240
   17TCq1    O2  259   0.189   1.244  11.148  0.3094 -0.1263  0.2812
   17TCq1    C2  260   0.265   1.367  10.956 -0.2073  0.4849 -0.1006
   17TCq1    C3  261   0.245   1.471  10.875  0.0765  0.9120  0.3634
   17TCq1    C4  262   0.318   1.484  10.768 -0.5635 -0.5382 -0.3622
   17TCq1    C5  263   0.415   1.394  10.736 -0.2239 -0.7696 -0.2684
   17TCq1    C6  264   0.436   1.290  10.821 -0.4350  0.3039 -0.0764
   17TCq1    C7  265   0.364   1.275  10.935  0.1758 -0.4569  0.1383
   17TCq1    C8  266   0.493   1.168  10.767 -0.3977 -0.1539 -0.2934
   17TCq1    O4  267   0.448   1.062  10.810  0.1503  0.6428  0.1077
   17TCq1    C9  268   0.277   1.580  10.666  0.1474 -0.2728 -0.4187
   17TCq1    O5  269   0.343   1.576  10.559  0.4462  0.6021  0.5009
   17TCq1    O6  270   0.176   1.646  10.692 -0.4441  0.6845 -0.0866
   17TCq1    H1  271   0.060   1.422  10.948  0.5995  1.5229  1.2531
   17TCq1    H2  272   0.174   1.553  10.888  2.1823  2.8627 -0.4645
   17TCq1    H3  273   0.462   1.390  10.638  1.9186 -0.7521  0.7666
   17TCq1    H4  274   0.378   1.192  11.003  0.9803 -1.4110 -1.1908
   18MPD2     C  275   0.625   0.958  10.597  0.4981  0.1561 -0.1656
   18MPD2    C1  276   0.657   1.089  10.600  0.4828 -0.4901 -0.4938
   18MPD2    C2  277   0.744   1.133  10.504 -0.1500  0.6841 -0.5355
   18MPD2    C3  278   0.817   1.049  10.418 -0.0316  0.7492 -0.0602
   18MPD2    C4  279   0.789   0.917  10.430 -0.4199 -0.1379 -0.4890
   18MPD2    C5  280   0.697   0.868  10.516  0.0419  0.3933  0.2115
   18MPD2     H  281   0.778   1.236  10.501 -3.4367  1.7754  0.0375
   18MPD2    H1  282   0.837   0.849  10.360  2.2558  2.1219 -0.8568
   18MPD2    H2  283   0.544   0.919  10.657  0.7799 -0.2349 -0.0390
   18MPD2    H3  284   0.675   0.762  10.513 -1.5034  0.7227 -0.1278
   18MPD2     N  285   0.897   1.108  10.317  0.1294  0.4394 -0.2906
   18MPD2    H5  286   0.942   1.042  10.254  0.2184  0.3918 -0.1778
   18MPD2    N1  287   0.592   1.188  10.673  0.2435 -0.5935 -0.9492
   18MPD2    H7  288   0.618   1.283  10.648  1.5036 -1.0447 -1.3320
   19TMC2    C1  289   1.805   1.356  13.757 -0.2980 -1.3627 -0.6049
   19TMC2    C2  290   1.677   1.402  13.775  0.2522 -0.3619  0.0846
   19TMC2    C3  291   1.585   1.314  13.806 -0.5614  0.1393 -0.2585
   19TMC2    C4  292   1.845   1.226  13.781 -0.2653  0.0266  0.3760
   19TMC2    C5  293   1.746   1.135  13.806  0.0656 -0.4441  0.1571
   19TMC2    C6  294   1.615   1.179  13.821 -0.8002  0.1177 -0.6149
   19TMC2     C  295   1.896   1.451  13.706  0.9538 -0.0185  0.6615
   19TMC2     O  296   1.857   1.535  13.625  0.2592 -0.0278  0.1290
   19TMC2     H  297   1.662   1.507  13.753 -0.7412 -0.8929 -1.7427
   19TMC2    H1  298   1.947   1.201  13.754  0.2374  0.9911  1.3503
   19TMC2    H2  299   1.536   1.105  13.833  0.4555 -1.1015  0.2146
   19TMC2    C7  300   1.755   0.992  13.757 -0.2636 -0.0543 -0.5756
   19TMC2    C8  301   1.450   1.350  13.777  0.4028 -0.3437  0.1164
   19TMC2    O1  302   1.661   0.918  13.778 -0.1425 -0.0499 -0.1692
   19TMC2    O2  303   1.410   1.416  13.686  0.1735 -0.3611 -0.1499
   19TMC2    O5  304   1.374   1.303  13.878 -0.0681  0.0169 -0.3860
   19TMC2    H5  305   1.434   1.261  13.943 -0.7336  0.1467  0.3041
   20MPD2     C  306   2.139   1.614  13.671 -0.1517 -0.0594 -0.6634
   20MPD2    C1  307   2.117   1.533  13.784 -0.9802 -0.0601 -0.3043
   20MPD2    C2  308   2.208   1.524  13.887 -0.1075 -0.4001 -0.1414
   20MPD2    C3  309   2.331   1.588  13.879 -0.0258  0.5746 -0.7880
   20MPD2    C4  310   2.346   1.673  13.775  0.1891  0.3542  0.8443
   20MPD2    C5  311   2.249   1.690  13.673  0.5477  0.5070  0.0587
   20MPD2     H  312   2.185   1.459  13.971  1.0800  1.1724  1.3778
   20MPD2    H1  313   2.439   1.728  13.762  1.3748 -1.3685  1.9892
   20MPD2    H2  314   2.067   1.627  13.590  0.1381 -0.9448 -1.0632
   20MPD2    H3  315   2.286   1.752  13.592  1.5857 -0.0730  0.0915
   20MPD2     N  316   2.433   1.583  13.978  0.7808 -0.5661 -0.2777
   20MPD2    H5  317   2.499   1.660  13.966  0.3076 -0.6092 -3.3141
   20MPD2    N1  318   2.009   1.448  13.782 -0.2053  0.1349 -0.2030
   20MPD2    H7  319   2.012   1.375  13.853 -2.2549 -0.0802 -0.3520
   21MPD2     C  320   4.647   2.404  14.246 -0.6369  0.1213  0.2828
   21MPD2    C1  321   4.658   2.277  14.294  0.1820  0.7161  0.2778
   21MPD2    C2  322   4.554   2.229  14.373  0.0376  1.1549  0.1555
   21MPD2    C3  323   4.450   2.307  14.424 -0.1299 -0.1210 -0.2450
   21MPD2    C4  324   4.448   2.438  14.373  0.5831 -0.2175  0.2093
   21MPD2    C5  325   4.543   2.481  14.287  0.3321  0.1166  0.8358
   21MPD2     H  326   4.565   2.122  14.389 -2.4329  0.8218 -0.3739
   21MPD2    H1  327   4.365   2.505  14.392  0.9102  0.5097 -0.9177
   21MPD2    H2  328   4.705   2.448  14.166  0.2884  0.1201  0.9557
   21MPD2    H3  329   4.536   2.579  14.240  1.0591 -0.5884 -0.7589
   21MPD2     N  330   4.352   2.270  14.524  0.1253  0.4828  0.3896
   21MPD2    H5  331   4.279   2.338  14.542 -0.5237 -0.2524  0.5351
   21MPD2    N1  332   0.035   2.187  14.254  0.2966  0.6039 -0.9653
   21MPD2    H7  333   0.015   2.089  14.271 -1.6776  1.1199 -0.3239
   22TCq2    C1  334   4.349   2.146  14.582  0.3021  0.3091  0.0742
   22TCq2    O2  335   4.426   2.055  14.556 -0.4784  0.3648  0.4798
   22TCq2    C2  336   4.230   2.113  14.660 -0.0117 -0.1644  0.7204
   22TCq2    C3  337   4.232   1.994  14.739  0.2467  0.2273 -1.2411
   22TCq2    C4  338   4.173   1.989  14.859 -0.5059  0.3138 -0.2938
   22TCq2    C5  339   4.093   2.081  14.911 -0.3265 -0.3085  0.7217
   22TCq2    C6  340   4.087   2.197  14.837  0.0230  0.3632  0.0063
   22TCq2    C7  341   4.158   2.215  14.715  0.6313 -0.2374 -0.5173
   22TCq2    C8  342   4.022   2.307  14.904  0.3234 -0.6001 -0.1821
   22TCq2    O4  343   4.009   2.308  15.028  0.7153 -0.2412 -0.6764
   22TCq2    C9  344   4.196   1.865  14.929 -0.2996 -0.7130 -0.2790
   22TCq2    O5  345   4.161   1.857  15.047  0.3052  0.1067 -0.1580
   22TCq2    O6  346   4.248   1.775  14.858 -0.7814  0.1256  0.4618
   22TCq2    H2  347   4.285   1.908  14.700  1.4357  0.1632  0.4992
   22TCq2    H3  348   4.028   2.064  14.996 -0.5203 -3.5743 -0.0594
   22TCq2    H4  349   4.152   2.302  14.651 -0.3349 -0.4458 -0.7055
   23MPD2     C  350   0.923   2.726  14.155 -0.2778  0.3891 -0.4932
   23MPD2    C1  351   0.860   2.744  14.279  0.5975 -0.3897 -0.4694
   23MPD2    C2  352   0.725   2.782  14.280 -0.0485 -0.3032  0.1018
   23MPD2    C3  353   0.652   2.785  14.159 -0.2892  0.4969 -0.0352
   23MPD2    C4  354   0.721   2.774  14.042  0.3804  0.2721 -0.6906
   23MPD2    C5  355   0.855   2.742  14.037  0.3896 -0.5163  0.4134
   23MPD2     H  356   0.682   2.797  14.378  4.1686  1.0767  1.7091
   23MPD2    H1  357   0.682   2.786  13.942  0.9356  1.9200 -0.7145
   23MPD2    H2  358   1.026   2.691  14.152 -0.1531  0.8043 -1.0678
   23MPD2    H3  359   0.902   2.724  13.942  0.9895  3.0075  0.0375
   23MPD2     N  360   0.511   2.819  14.151  0.4414  0.1405  0.1137
   23MPD2    H5  361   0.468   2.829  14.060  0.2875  0.3399  0.2116
   23MPD2    N1  362   0.936   2.743  14.401  0.3536  0.5097 -0.0786
   23MPD2    H7  363   0.896   2.780  14.487 -1.5728  1.2269 -1.2758
   24TCq2    C1  364   0.427   2.828  14.258 -0.3381 -0.1789  0.0742
   24TCq2    O2  365   0.432   2.770  14.365 -0.2309 -0.0881  0.6606
   24TCq2    C2  366   0.301   2.882  14.214 -0.7869  0.4619 -0.4812
   24TCq2    C3  367   0.303   2.991  14.139  0.0779 -0.0623  0.3489
   24TCq2    C4  368   0.200   3.081  14.148 -0.3669 -0.3845 -0.0735
   24TCq2    C5  369   0.091   3.060  14.231  0.7870  0.0516  1.1481
   24TCq2    C6  370   0.080   2.937  14.289  0.0117 -0.1432  0.1618
   24TCq2    C7  371   0.182   2.849  14.289  0.4910  0.4763  0.1802
   24TCq2    C8  372   4.666   2.889  14.305  0.0272  0.4835  0.0296
   24TCq2    O4  373   4.659   2.781  14.363  0.0086 -0.1020  0.5803
   24TCq2    C9  374   0.210   3.207  14.076  0.1743 -0.5792  0.0086
   24TCq2    O5  375   0.123   3.297  14.107 -0.3464  0.0539  0.1578
   24TCq2    O6  376   0.322   3.243  14.028  0.4451  0.6011 -0.2933
   24TCq2    H2  377   0.381   3.014  14.067 -0.9377  0.1458 -0.6838
   24TCq2    H3  378   0.014   3.136  14.233 -0.4557 -1.1408 -0.2650
   24TCq2    H4  379   0.179   2.751  14.336 -2.4428  0.3844 -0.1611
   25TMC2    C1  380   4.668   0.930  11.172 -0.5862  0.4509  0.7637
   25TMC2    C2  381   0.067   0.973  11.206 -0.1138 -0.3228  0.3497
   25TMC2    C3  382   0.068   1.024  11.337  0.2012 -1.3402  0.3826
   25TMC2    C4  383   4.572   0.902  11.260 -0.2433 -0.7448  0.3426
   25TMC2    C5  384   4.589   0.931  11.393 -0.5387  0.2956  0.1345
   25TMC2    C6  385   4.696   1.011  11.430  0.7172  0.3857  0.9222
   25TMC2     C  386   4.635   0.934  11.031  0.6441  0.6505  0.0947
   25TMC2     O  387   4.713   1.005  10.961  0.0242 -0.8349  0.4636
   25TMC2     H  388   0.152   0.989  11.141 -0.6876 -3.1943 -1.1319
   25TMC2    H1  389   4.478   0.859  11.229  0.0274 -1.7589  0.9064
   25TMC2    H2  390   4.711   1.038  11.534  1.2914 -2.6156  1.6206
   25TMC2    C7  391   4.518   0.857  11.490 -0.5402  0.2074 -0.2301
   25TMC2    C8  392   0.198   1.014  11.405 -0.1262 -0.0625  0.5873
   25TMC2    O1  393   4.571   0.853  11.597  0.4148  0.7369 -0.1102
   25TMC2    O2  394   0.211   0.969  11.516 -0.1032 -0.1199  0.0441
   25TMC2    O5  395   0.287   1.083  11.328 -0.1559 -0.0868  0.1771
   25TMC2    H5  396   0.242   1.149  11.272 -0.7593 -0.9420 -0.3514
   26MPD2     C  397   4.414   0.747  10.612  0.4878 -0.6494  0.0453
   26MPD2    C1  398   4.369   0.680  10.724  0.6760  0.0582 -0.3379
   26MPD2    C2  399   4.412   0.718  10.851  0.0197  0.6344 -0.3850
   26MPD2    C3  400   4.492   0.829  10.864  0.2059  0.6972  0.7326
   26MPD2    C4  401   4.530   0.901  10.756  0.2183 -1.3492 -0.0469
   26MPD2    C5  402   4.496   0.858  10.633  0.4640 -0.0764 -0.2626
   26MPD2     H  403   4.369   0.674  10.940  2.6811 -1.2070 -0.0111
   26MPD2    H1  404   4.589   0.992  10.755 -0.3492 -0.9988 -3.0240
   26MPD2    H2  405   4.401   0.708  10.512  1.1124 -1.6064  0.3412
   26MPD2    H3  406   4.546   0.894  10.544 -2.0644 -2.1658 -2.5012
   26MPD2     N  407   4.535   0.851  10.994  0.2745 -1.1622 -0.0975
   26MPD2    H5  408   4.486   0.788  11.056  0.0601 -1.3105 -0.4193
   26MPD2    N1  409   4.274   0.573  10.701 -0.1767 -0.4740 -0.4053
   26MPD2    H7  410   4.265   0.531  10.609 -0.4646 -0.1484 -0.5292
   27TMC2    C1  411   3.178   2.630  11.840 -0.1263  0.1291  0.6128
   27TMC2    C2  412   3.092   2.573  11.750  0.5671 -0.5571  0.5928
   27TMC2    C3  413   3.000   2.664  11.701  0.0674  0.0253 -0.0962
   27TMC2    C4  414   3.177   2.760  11.873  0.3182  0.0195 -0.0655
   27TMC2    C5  415   3.069   2.833  11.835  0.0874 -0.0377  0.9145
   27TMC2    C6  416   2.978   2.792  11.746 -0.4330  0.8048  0.0270
   27TMC2     C  417   3.195   2.546  11.950 -0.0633 -0.0829 -0.0884
   27TMC2     O  418   3.228   2.431  11.934 -0.1880 -0.1884 -0.0157
   27TMC2     H  419   3.092   2.468  11.722 -2.6674 -0.7450  1.2576
   27TMC2    H1  420   3.235   2.808  11.951 -3.1637  1.3427  1.6854
   27TMC2    H2  421   2.888   2.849  11.723 -1.0269 -0.3470 -0.5152
   27TMC2    C7  422   3.031   2.906  11.951 -0.0936  0.6124  1.0234
   27TMC2    C8  423   2.877   2.597  11.650  0.7957  0.2406 -0.8124
   27TMC2    O1  424   3.036   2.843  12.055 -0.3310  0.3889  0.2712
   27TMC2    O2  425   2.856   2.477  11.644 -0.1878 -0.4075 -0.1625
   27TMC2    O5  426   2.865   2.678  11.538 -0.1651  0.2911 -0.4623
   27TMC2    H5  427   2.926   2.754  11.540  0.4216 -0.2410  2.3837
   28MPD2     C  428   3.069   2.474  12.450  0.1544  0.7323 -0.1103
   28MPD2    C1  429   3.010   2.591  12.404  0.4569  0.2064 -0.7235
   28MPD2    C2  430   3.037   2.618  12.272  0.0334 -0.2402 -0.0928
   28MPD2    C3  431   3.120   2.547  12.192 -0.1141  0.4012  0.2997
   28MPD2    C4  432   3.192   2.440  12.243 -0.3746  0.1671 -0.2824
   28MPD2    C5  433   3.160   2.394  12.367 -0.0146  0.1190 -0.3841
   28MPD2     H  434   2.982   2.699  12.226 -0.4914 -1.3811 -1.4865
   28MPD2    H1  435   3.268   2.384  12.188  0.2548 -2.2428  3.0626
   28MPD2    H2  436   3.048   2.438  12.550 -0.3295  2.5291  0.4308
   28MPD2    H3  437   3.216   2.312  12.411 -0.7303 -0.5798 -0.7763
   28MPD2     N  438   3.138   2.600  12.064  0.6274 -0.7077 -0.1156
   28MPD2    H5  439   3.102   2.693  12.048  1.0027 -0.2999  1.4293
   28MPD2    N1  440   2.909   2.648  12.482  0.6469 -0.2670 -0.7832
   28MPD2    H7  441   2.889   2.601  12.570  0.7967  3.0678  1.0281
   29MPD2     C  442   2.482   0.228  13.922 -0.1622  0.2016 -0.1185
   29MPD2    C1  443   2.618   0.194  13.945 -0.0574  0.1574 -0.4836
   29MPD2    C2  444   2.690   0.293  14.003 -0.2456 -0.4756  0.2836
   29MPD2    C3  445   2.644   0.421  14.025 -0.3648  0.4022 -0.5432
   29MPD2    C4  446   2.513   0.439  14.005  0.0028 -0.4398  1.2592
   29MPD2    C5  447   2.435   0.346  13.952  0.1229 -0.0586 -0.3496
   29MPD2     H  448   2.783   0.263  14.049 -0.8721 -0.7345  1.3766
   29MPD2    H1  449   2.468   0.534  14.028 -1.7313 -1.0262  0.2896
   29MPD2    H2  450   2.408   0.159  13.883  0.6799 -0.9414  0.3082
   29MPD2    H3  451   2.330   0.368  13.940 -0.0295 -0.6827 -0.1719
   29MPD2     N  452   2.713   0.522  14.087 -0.4775  0.0802  0.4669
   29MPD2    H5  453   2.654   0.599  14.117  0.5181  1.2249 -0.5281
   29MPD2    N1  454   2.667   0.066  13.937  0.3220 -0.1579 -0.6821
   29MPD2    H7  455   2.765   0.055  13.961 -0.4656 -0.0850  2.6294
   30TCq2    C1  456   2.847   0.533  14.084  0.1775  0.1732  0.1476
   30TCq2    O2  457   2.927   0.456  14.028  0.0657  0.0387  0.1273
   30TCq2    C2  458   2.904   0.648  14.157  0.7328 -0.0588 -0.8793
   30TCq2    C3  459   2.859   0.677  14.281  0.2121  0.3844 -0.4150
   30TCq2    C4  460   2.936   0.760  14.356  0.0437  0.0962  0.6467
   30TCq2    C5  461   3.054   0.814  14.315 -0.1652  0.4348  0.2568
   30TCq2    C6  462   3.079   0.805  14.178 -0.2481 -0.2603 -0.0898
   30TCq2    C7  463   3.007   0.718  14.102 -0.5298 -0.2447 -0.0746
   30TCq2    C8  464   3.183   0.891  14.120 -0.4139  0.0844 -1.0420
   30TCq2    O4  465   3.180   0.902  14.001 -0.4168 -0.6987 -0.0749
   30TCq2    C9  466   2.899   0.783  14.492  0.1350 -0.4747  0.1169
   30TCq2    O5  467   2.985   0.832  14.570 -0.5321 -0.1799 -0.1106
   30TCq2    O6  468   2.772   0.806  14.514  0.1006  0.1571 -0.3292
   30TCq2    H2  469   2.771   0.628  14.320  1.6073 -2.6832 -1.1671
   30TCq2    H3  470   3.112   0.878  14.381 -0.1519  0.1515  0.5158
   30TCq2    H4  471   3.033   0.677  14.005 -1.8856 -1.7744  0.2064
   31MPD2     C  472   0.745   4.120  14.455 -0.8520  0.2103  0.5136
   31MPD2    C1  473   0.614   4.161  14.467 -0.1845  0.1614 -0.2930
   31MPD2    C2  474   0.542   4.107  14.571  0.0377 -0.2659 -0.0682
   31MPD2    C3  475   0.608   4.030  14.666  0.2629 -0.3962 -0.2277
   31MPD2    C4  476   0.743   3.983  14.647  0.4294 -1.0897 -0.3782
   31MPD2    C5  477   0.810   4.027  14.534  0.3266  0.3713  0.5852
   31MPD2     H  478   0.438   4.137  14.584 -0.5664 -1.1085 -2.9306
   31MPD2    H1  479   0.794   3.930  14.726  1.0248  1.3789  0.8747
   31MPD2    H2  480   0.800   4.162  14.371  0.3118  0.9978  1.6780
   31MPD2    H3  481   0.911   3.991  14.514 -0.6303 -2.0481  0.1237
   31MPD2     N  482   0.538   3.975  14.778  0.8457  0.0496  0.3295
   31MPD2    H5  483   0.589   3.907  14.834 -0.6444 -0.8834  0.5718
   31MPD2    N1  484   0.574   4.255  14.373 -0.6961 -0.1916 -0.0972
   31MPD2    H7  485   0.644   4.305  14.320  1.0458 -2.8111 -0.3051
   32TCq2    C1  486   0.400   3.993  14.800 -0.6312  0.6194 -0.4764
   32TCq2    O2  487   0.311   4.042  14.734  0.6094 -0.0477  0.8618
   32TCq2    C2  488   0.353   3.924  14.927  0.3716 -0.6718  0.2212
   32TCq2    C3  489   0.221   3.906  14.932  0.5295  0.7219  0.3550
   32TCq2    C4  490   0.156   3.881  15.052 -1.3747 -0.1587 -0.7447
   32TCq2    C5  491   0.234   3.876  15.161 -0.1314  0.6902  0.4913
   32TCq2    C6  492   0.364   3.911  15.160 -0.6459  0.2605 -0.2292
   32TCq2    C7  493   0.426   3.933  15.039 -0.1578  0.1834  0.9832
   32TCq2    C8  494   0.420   3.945  15.286 -0.1791  0.1858  0.6616
   32TCq2    O4  495   0.389   3.881  15.386 -0.5835 -0.1738 -0.3150
   32TCq2    C9  496   0.012   3.875  15.055 -0.0510  0.6897  0.2231
   32TCq2    O5  497   4.682   3.893  15.166 -0.2010  0.3373  0.4138
   32TCq2    O6  498   4.674   3.867  14.944  0.1995  0.4205  0.4112
   32TCq2    H2  499   0.164   3.906  14.840  0.2319 -1.1926  0.5438
   32TCq2    H3  500   0.189   3.865  15.259  0.9780  1.4709  1.0831
   32TCq2    H4  501   0.529   3.968  15.032 -0.6032  1.0160 -1.3418
   33MPD2     C  502   1.459   1.766   9.961 -0.3479 -0.5266 -0.8292
   33MPD2    C1  503   1.327   1.729   9.969  0.2756  0.1784  0.9696
   33MPD2    C2  504   1.230   1.817   9.913 -0.2060  0.0157 -0.1776
   33MPD2    C3  505   1.270   1.939   9.863 -0.2807  0.1246  0.6096
   33MPD2    C4  506   1.405   1.975   9.869  0.2422  0.5063  0.0206
   33MPD2    C5  507   1.496   1.883   9.901  0.4993  0.5285  0.5732
   33MPD2     H  508   1.124   1.792   9.914  0.3226 -2.1262  2.7274
   33MPD2    H1  509   1.434   2.073   9.833 -1.2371  0.9624  0.0884
   33MPD2    H2  510   1.535   1.694   9.988  0.6313  0.4235 -1.0425
   33MPD2    H3  511   1.599   1.917   9.896  0.7799 -0.4660 -0.2487
   33MPD2     N  512   1.172   2.036   9.822  0.6716  0.0552  0.1457
   33MPD2    H5  513   1.210   2.124   9.789  2.9711 -1.1061 -0.3141
   33MPD2    N1  514   1.300   1.603  10.022  0.5148 -0.4115 -0.1010
   33MPD2    H7  515   1.381   1.555  10.058  0.8580  0.7953  0.7325
   34TCq2    C1  516   1.034   2.034   9.809 -0.4434  0.2185 -0.6785
   34TCq2    O2  517   0.951   1.950   9.849  0.4325  0.3033  0.2234
   34TCq2    C2  518   0.975   2.152   9.755 -0.2261 -0.8182 -0.2647
   34TCq2    C3  519   0.846   2.174   9.783 -0.0864 -0.3474  0.5586
   34TCq2    C4  520   0.779   2.288   9.741 -0.1578 -0.0107  0.2066
   34TCq2    C5  521   0.851   2.382   9.674 -0.2639  0.5232  0.7898
   34TCq2    C6  522   0.983   2.353   9.649  0.1136  0.3864 -0.2047
   34TCq2    C7  523   1.058   2.242   9.694  0.0269 -0.0579 -0.3911
   34TCq2    C8  524   1.063   2.454   9.589 -0.1755 -0.8937 -0.1183
   34TCq2    O4  525   1.182   2.453   9.603  0.2199  0.0045 -0.1336
   34TCq2    C9  526   0.641   2.311   9.760  0.9192 -0.1792 -0.2772
   34TCq2    O5  527   0.579   2.392   9.685  0.2123  0.7322  0.0580
   34TCq2    O6  528   0.580   2.236   9.840  0.1539  0.0350  0.2593
   34TCq2    H2  529   0.788   2.107   9.845 -0.0117 -0.4561  0.5098
   34TCq2    H3  530   0.797   2.467   9.634 -0.0551  0.4594  0.3673
   34TCq2    H4  531   1.166   2.239   9.687  0.0914  0.4850  0.3689
   35MPD2     C  532   2.578   3.406  11.631 -0.0654 -0.4139  0.0489
   35MPD2    C1  533   2.610   3.278  11.669  0.3655 -0.0803 -0.3370
   35MPD2    C2  534   2.575   3.176  11.578 -0.1578 -0.0378  0.0427
   35MPD2    C3  535   2.518   3.196  11.457 -0.8642 -0.1945  0.7417
   35MPD2    C4  536   2.495   3.329  11.423 -0.3842 -0.3687  0.3298
   35MPD2    C5  537   2.515   3.432  11.512 -0.2710  0.1227 -0.0851
   35MPD2     H  538   2.581   3.072  11.605  0.7895  0.1129  0.4142
   35MPD2    H1  539   2.446   3.357  11.331 -0.7740 -0.9822  0.3505
   35MPD2    H2  540   2.615   3.494  11.683  1.0410 -0.1731 -1.1423
   35MPD2    H3  541   2.487   3.533  11.484 -1.1894  0.1210  0.8222
   35MPD2     N  542   2.472   3.090  11.385  0.5690  0.8972 -0.1190
   35MPD2    H5  543   2.490   2.994  11.415  0.9493  1.1526  0.4541
   35MPD2    N1  544   2.656   3.246  11.798 -0.3119 -0.1325  0.9639
   35MPD2    H7  545   2.655   3.322  11.866  1.5736 -0.7998  1.7394
   36TCq2    C1  546   2.371   3.092  11.289 -0.1959 -0.0047  1.0858
   36TCq2    O2  547   2.334   3.185  11.216  0.9904 -0.3181 -0.2018
   36TCq2    C2  548   2.324   2.962  11.248  0.3114  0.0248 -0.1105
   36TCq2    C3  549   2.260   2.952  11.130  0.5330  0.1429  0.6462
   36TCq2    C4  550   2.190   2.836  11.097 -0.7685  0.6000  0.2550
   36TCq2    C5  551   2.171   2.736  11.187 -0.1265 -0.3534  0.0295
   36TCq2    C6  552   2.235   2.749  11.304 -0.1829  0.0361 -0.5731
   36TCq2    C7  553   2.317   2.859  11.347 -0.2895 -0.0291 -0.1250
   36TCq2    C8  554   2.228   2.632  11.389  0.0770 -1.7371  0.2726
   36TCq2    O4  555   2.125   2.565  11.376 -0.2750 -0.9766 -0.0374
   36TCq2    C9  556   2.112   2.839  10.979 -0.0431 -0.2897 -0.2336
   36TCq2    O5  557   2.056   2.733  10.947 -0.1463  0.3348 -0.1164
   36TCq2    O6  558   2.099   2.953  10.928  0.3469  0.2488 -0.5635
   36TCq2    H2  559   2.271   3.034  11.060 -1.5814  0.1518  0.3114
   36TCq2    H3  560   2.116   2.645  11.164 -0.0520 -0.6844  1.1676
   36TCq2    H4  561   2.360   2.864  11.446 -0.3414 -1.7625 -0.0048
   37TMC2    C1  562   4.521   3.236  11.980 -0.0068 -0.3203 -0.8979
   37TMC2    C2  563   4.548   3.265  11.851 -0.2402 -0.1014  0.2455
   37TMC2    C3  564   4.677   3.284  11.813 -0.2377 -0.0812 -0.1825
   37TMC2    C4  565   4.622   3.221  12.073 -0.3714  0.1958 -0.4775
   37TMC2    C5  566   0.030   3.230  12.028 -0.0552  0.5291 -0.2242
   37TMC2    C6  567   0.057   3.277  11.900  0.1755 -0.0502  0.2791
   37TMC2     C  568   4.385   3.179  12.000  0.4081 -0.3345 -0.3350
   37TMC2     O  569   4.319   3.163  11.899 -0.0617  0.2920 -0.1060
   37TMC2     H  570   4.469   3.266  11.777 -0.4493  0.4584  0.4771
   37TMC2    H1  571   4.603   3.188  12.175  1.2133 -0.5214 -0.4041
   37TMC2    H2  572   0.158   3.288  11.862  0.0428  0.0591 -0.0413
   37TMC2    C7  573   0.132   3.195  12.120  0.0139 -0.0168 -0.1073
   37TMC2    C8  574   4.699   3.323  11.669 -0.2756  0.5059 -0.2242
   37TMC2    O1  575   0.109   3.134  12.225 -0.1306 -0.6279  0.0176
   37TMC2    O2  576   4.626   3.384  11.596  0.2644 -0.0725  0.3907
   37TMC2    O5  577   0.083   3.267  11.628 -0.1097 -0.3537  0.1249
   37TMC2    H5  578   0.129   3.208  11.691  2.6622  0.0511 -1.5175
   38MPD2     C  579   4.003   3.068  12.327  0.2270 -0.9137  0.0992
   38MPD2    C1  580   4.124   3.054  12.397 -0.1202  0.6103 -0.1148
   38MPD2    C2  581   4.242   3.080  12.326  0.0996 -0.2141  0.1441
   38MPD2    C3  582   4.233   3.130  12.192  0.3114  0.0009 -0.5350
   38MPD2    C4  583   4.111   3.136  12.129  0.1149  0.0924  0.4337
   38MPD2    C5  584   3.996   3.111  12.193  0.4596 -0.9613  0.1988
   38MPD2     H  585   4.334   3.078  12.384 -1.0283 -1.5896  1.8935
   38MPD2    H1  586   4.111   3.167  12.025 -0.8461  1.6225  0.8766
   38MPD2    H2  587   3.905   3.053  12.370  0.6038 -1.3950  0.7873
   38MPD2    H3  588   3.900   3.132  12.146  0.0764 -0.5651  1.1548
   38MPD2     N  589   4.356   3.171  12.138  0.3858 -0.0743 -0.0219
   38MPD2    H5  590   4.435   3.183  12.201 -0.0329  1.0221  0.2998
   38MPD2    N1  591   4.134   3.027  12.538  0.5220  0.3835 -0.0776
   38MPD2    H7  592   4.226   3.018  12.580  0.4892 -2.2296 -0.5585
   39MPD2     C  593   2.525   0.301   1.256 -0.2467 -0.6442  1.3789
   39MPD2    C1  594   2.501   0.409   1.340 -0.0172 -1.3769 -0.1423
   39MPD2    C2  595   2.378   0.470   1.333  0.2737 -0.3989 -0.5227
   39MPD2    C3  596   2.290   0.436   1.231 -0.7245 -0.0074  0.5162
   39MPD2    C4  597   2.325   0.345   1.132 -0.5955  0.6030  0.5855
   39MPD2    C5  598   2.440   0.272   1.153  0.8488  0.1736  0.3097
   39MPD2     H  599   2.341   0.550   1.396 -0.0725 -0.7846 -0.2361
   39MPD2    H1  600   2.262   0.327   1.046  0.9873  0.8663 -0.6194
   39MPD2    H2  601   2.617   0.244   1.264  1.4824  2.1827  1.7828
   39MPD2    H3  602   2.464   0.183   1.096  1.0999  0.1411  0.4663
   39MPD2     N  603   2.165   0.498   1.205  0.2031 -0.5497  0.3137
   39MPD2    H5  604   2.113   0.462   1.126 -0.8012 -0.3858  0.8994
   39MPD2    N1  605   2.607   0.438   1.436  0.0002 -0.2203  0.0828
   39MPD2    H7  606   2.692   0.382   1.430  0.4317  0.3112  1.1944
   40TCq2    C1  607   2.606   0.550   1.522  0.4444  0.4401 -0.0998
   40TCq2    O2  608   2.514   0.629   1.544  0.0316  0.5056  0.8987
   40TCq2    C2  609   2.732   0.577   1.594  0.1993 -1.0428 -0.1923
   40TCq2    C3  610   2.729   0.661   1.700 -0.6682  0.0100  0.3999
   40TCq2    C4  611   2.842   0.696   1.757  0.6914  0.2987 -0.3748
   40TCq2    C5  612   2.962   0.642   1.722 -0.2266 -0.7138 -0.0094
   40TCq2    C6  613   2.965   0.551   1.613 -0.1097 -0.2093 -0.4576
   40TCq2    C7  614   2.849   0.520   1.551  0.0697  0.4459 -0.4668
   40TCq2    C8  615   3.090   0.511   1.553  0.2658  0.7101 -0.3095
   40TCq2    O4  616   3.093   0.405   1.489 -0.0518 -0.1804 -0.1814
   40TCq2    C9  617   2.840   0.789   1.865  0.0825  0.0706 -0.3112
   40TCq2    O5  618   2.726   0.830   1.903  0.0191 -0.2045  0.4697
   40TCq2    O6  619   2.947   0.853   1.882 -0.5965  0.2357 -0.2152
   40TCq2    H2  620   2.634   0.701   1.734 -1.1907 -0.0901 -0.9420
   40TCq2    H3  621   3.042   0.673   1.789 -1.1352 -0.0648  0.7813
   40TCq2    H4  622   2.857   0.450   1.469 -1.5475 -1.0335  0.6311
   41TMC2    C1  623   1.522   2.556  13.360 -0.0750  0.3203  0.2688
   41TMC2    C2  624   1.493   2.659  13.442  0.2084  0.2559  0.6050
   41TMC2    C3  625   1.391   2.744  13.406  0.3832  0.0892  0.2707
   41TMC2    C4  626   1.443   2.538  13.253  0.2261  0.4558  0.8004
   41TMC2    C5  627   1.355   2.630  13.213  0.9032 -0.3926 -0.6886
   41TMC2    C6  628   1.330   2.743  13.287 -0.2007  0.3772  0.0811
   41TMC2     C  629   1.629   2.462  13.385  0.4354  0.0330  0.0554
   41TMC2     O  630   1.648   2.375  13.300 -0.0250  0.2170 -1.0618
   41TMC2     H  631   1.548   2.687  13.531  0.3578 -1.1064  0.9358
   41TMC2    H1  632   1.460   2.457  13.183  0.9563 -0.3926  1.9542
   41TMC2    H2  633   1.249   2.812  13.265  1.1360  2.3331  1.3264
   41TMC2    C7  634   1.297   2.618  13.081  0.4794  0.3128 -0.1770
   41TMC2    C8  635   1.355   2.843  13.501 -0.4805  1.4046 -0.2980
   41TMC2    O1  636   1.310   2.511  13.022 -0.3523  0.2175 -0.0184
   41TMC2    O2  637   1.315   2.952  13.468 -0.6255  0.3654  0.0920
   41TMC2    O5  638   1.293   2.760  13.587  0.0231  0.4398 -0.0282
   41TMC2    H5  639   1.328   2.668  13.592  1.1090  0.9048  0.9942
   42MPD2     C  640   1.857   2.303  13.517 -0.3248  0.1636  0.1120
   42MPD2    C1  641   1.783   2.401  13.577 -0.1395 -0.0559  0.0548
   42MPD2    C2  642   1.807   2.427  13.714  1.0944  0.1524  0.2031
   42MPD2    C3  643   1.888   2.350  13.789  0.1879 -0.3949  0.6249
   42MPD2    C4  644   1.969   2.261  13.722  0.2254  0.8796 -0.6644
   42MPD2    C5  645   1.952   2.233  13.592  0.2712  0.1744 -0.5329
   42MPD2     H  646   1.753   2.514  13.749 -0.6131  0.0098 -2.0466
   42MPD2    H1  647   2.039   2.196  13.774 -0.6675  0.2444 -0.2559
   42MPD2    H2  648   1.851   2.275  13.412  2.5367  1.1770 -0.3072
   42MPD2    H3  649   2.016   2.157  13.548 -0.4352 -0.1150 -1.0484
   42MPD2     N  650   1.884   2.358  13.929  0.2923 -0.1577  0.5501
   42MPD2    H5  651   1.963   2.312  13.974  0.2802 -0.1009  0.6289
   42MPD2    N1  652   1.676   2.475  13.514 -0.0290  0.0938  0.0435
   42MPD2    H7  653   1.626   2.543  13.571  0.2992  0.6332 -0.3173
   43MPD2     C  654   3.424   1.820   0.673  0.5823  0.6036 -0.0387
   43MPD2    C1  655   3.508   1.798   0.779  0.2053 -0.5164 -0.0765
   43MPD2    C2  656   3.453   1.837   0.898  0.8236 -0.2870  0.5461
   43MPD2    C3  657   3.318   1.876   0.907 -0.1295  0.1384  0.1508
   43MPD2    C4  658   3.235   1.895   0.798  0.2067  0.3092 -0.1090
   43MPD2    C5  659   3.294   1.870   0.680  0.1426 -0.1149  0.8061
   43MPD2     H  660   3.502   1.817   0.993  1.8883 -0.6332 -0.0793
   43MPD2    H1  661   3.135   1.934   0.811  1.0603  1.4812  2.8125
   43MPD2    H2  662   3.460   1.808   0.571  1.9093  0.4569  0.4436
   43MPD2    H3  663   3.239   1.893   0.590  0.7438 -1.2865  0.1421
   43MPD2     N  664   3.255   1.900   1.034 -0.2690  0.9454  0.1427
   43MPD2    H5  665   3.155   1.916   1.023 -0.4077 -1.3428 -1.9364
   43MPD2    N1  666   3.637   1.748   0.768  0.1305  0.1091 -0.3163
   43MPD2    H7  667   3.671   1.711   0.857  2.4385  2.0351 -0.3934
   44TCq2    C1  668   3.217   2.122   1.576  0.1723  0.2615  0.1007
   44TCq2    O2  669   3.334   2.167   1.584  0.2083 -0.5493  0.0061
   44TCq2    C2  670   3.169   2.042   1.465  0.1767  0.1080 -0.2975
   44TCq2    C3  671   3.036   2.009   1.452 -0.3471  0.2798 -0.4054
   44TCq2    C4  672   3.000   1.939   1.335  0.3478 -0.1231  0.6077
   44TCq2    C5  673   3.094   1.904   1.245 -0.6534 -0.1105 -0.8110
   44TCq2    C6  674   3.221   1.949   1.261  0.0297 -0.7425 -0.2445
   44TCq2    C7  675   3.264   2.017   1.372  0.0538 -0.0023  1.4321
   44TCq2    C8  676   3.317   1.925   1.152  0.2164  0.4877  0.1657
   44TCq2    O4  677   3.432   1.940   1.182  0.5300  0.1609  0.2372
   44TCq2    C9  678   2.869   1.872   1.329  0.5622 -0.0513  0.4495
   44TCq2    O5  679   2.790   1.884   1.429 -0.2104  0.0709 -0.0015
   44TCq2    O6  680   2.849   1.815   1.220  0.1395  0.3269 -0.1360
   44TCq2    H2  681   2.957   2.029   1.523  0.9305  1.9520  0.5426
   44TCq2    H3  682   3.067   1.832   1.169  0.8203 -1.5027 -0.0113
   44TCq2    H4  683   3.367   2.042   1.390  0.7377 -0.1245 -2.1746
   45TMC2    C1  684   4.084   3.005   9.757  0.3658  0.2593  0.2410
   45TMC2    C2  685   4.099   2.999   9.894 -0.3287 -0.4896  0.7778
   45TMC2    C3  686   4.119   3.122   9.953  0.4031 -0.1332  0.2427
   45TMC2    C4  687   4.097   3.111   9.676 -0.3791 -0.1152  0.4757
   45TMC2    C5  688   4.103   3.234   9.744  0.1792 -0.0587  0.5146
   45TMC2    C6  689   4.120   3.237   9.879 -0.1399  0.5323  0.0501
   45TMC2     C  690   4.005   2.901   9.712 -0.6823 -0.2133  0.2541
   45TMC2     O  691   4.010   2.791   9.771  0.0587 -0.6997  0.4915
   45TMC2     H  692   4.092   2.905   9.947  0.3733 -0.4288  0.9812
   45TMC2    H1  693   4.088   3.107   9.569  2.1451  0.1672  0.2493
   45TMC2    H2  694   4.109   3.329   9.936 -0.4211 -0.6956  1.9954
   45TMC2    C7  695   4.091   3.358   9.671  0.6073  0.4323 -0.5337
   45TMC2    C8  696   4.111   3.132  10.097 -0.7877 -0.2625  0.0303
   45TMC2    O1  697   4.064   3.325   9.557 -0.3840  0.4411  0.7602
   45TMC2    O2  698   4.048   3.056  10.164  0.5263  0.4264 -0.1112
   45TMC2    O5  699   4.226   3.191  10.133 -0.0878 -0.4058  0.4301
   45TMC2    H5  700   4.273   3.224  10.053  1.0981  2.1068  2.1603
   46MPD2     C  701   3.811   2.735   9.556 -0.4460  0.2721 -0.2445
   46MPD2    C1  702   3.830   2.872   9.543  0.0654 -0.1559  0.1774
   46MPD2    C2  703   3.750   2.940   9.458  0.1084  0.0331 -0.5439
   46MPD2    C3  704   3.647   2.870   9.385  0.3611 -0.0729  0.0001
   46MPD2    C4  705   3.627   2.738   9.401 -0.1716  0.2069 -0.4063
   46MPD2    C5  706   3.713   2.674   9.484  0.6738 -0.4709 -0.5597
   46MPD2     H  707   3.759   3.048   9.450  0.0692  0.2314  2.3115
   46MPD2    H1  708   3.558   2.677   9.344  1.3040  1.4686 -3.5787
   46MPD2    H2  709   3.872   2.673   9.621 -0.4588 -1.0627 -1.5183
   46MPD2    H3  710   3.685   2.569   9.491  0.5020 -0.2774  1.5754
   46MPD2     N  711   3.568   2.951   9.293  0.1340 -0.3045  0.5276
   46MPD2    H5  712   3.583   3.051   9.302  3.3358 -0.8901  1.7199
   46MPD2    N1  713   3.924   2.948   9.620 -0.1475 -0.6081 -0.0878
   46MPD2    H7  714   3.917   3.048   9.603 -0.4698 -0.3480  1.5448
   47TMC2    C1  715   1.133   4.357   9.136  0.1402 -0.3442  0.4353
   47TMC2    C2  716   1.135   4.250   9.046  0.2363 -0.4030  0.1161
   47TMC2    C3  717   1.028   4.187   9.010  0.3835 -0.1833  0.4114
   47TMC2    C4  718   1.017   4.396   9.194 -0.5160 -0.4748 -0.6321
   47TMC2    C5  719   0.912   4.321   9.165 -0.0282  0.4467  0.7711
   47TMC2    C6  720   0.908   4.220   9.069  0.7570 -0.0223 -0.1880
   47TMC2     C  721   1.248   4.429   9.185 -0.6221 -0.1468 -0.0160
   47TMC2     O  722   1.227   4.537   9.241  0.1245 -0.3234  0.0964
   47TMC2     H  723   1.225   4.220   8.992 -0.1932 -0.5078 -0.5522
   47TMC2    H1  724   1.007   4.477   9.266  0.9501 -0.5219 -0.3659
   47TMC2    H2  725   0.815   4.175   9.035 -1.1871  3.2695  0.7749
   47TMC2    C7  726   0.795   4.325   9.255  0.1879 -0.2167  0.3230
   47TMC2    C8  727   1.031   4.092   8.899 -0.5842 -0.0619 -0.0126
   47TMC2    O1  728   0.687   4.307   9.203 -0.6905  0.5173 -0.0164
   47TMC2    O2  729   1.119   4.084   8.814  0.2682 -0.1498  0.4253
   47TMC2    O5  730   0.940   3.993   8.918  0.0567 -0.1048 -0.6237
   47TMC2    H5  731   0.871   3.996   8.987 -1.8940 -1.5364 -2.5123
   48MPD2     C  732   1.529   4.540   9.212  0.2089 -0.2456 -0.5017
   48MPD2    C1  733   1.497   4.408   9.180  0.0176 -0.7763  0.0212
   48MPD2    C2  734   1.604   4.320   9.148  0.1864 -0.2882 -0.3024
   48MPD2    C3  735   1.734   4.364   9.154  0.4795  0.6792 -0.1396
   48MPD2    C4  736   1.756   4.499   9.180 -0.3561 -0.2003  0.0948
   48MPD2    C5  737   1.659   4.579   9.230  0.3116  0.2169 -0.4260
   48MPD2     H  738   1.589   4.214   9.134  2.4869 -0.4033 -1.8439
   48MPD2    H1  739   1.855   4.541   9.168  0.1897 -1.3432  0.6616
   48MPD2    H2  740   1.449   4.607   9.239  1.7346  1.1285  0.6203
   48MPD2    H3  741   1.677   4.677   9.272 -0.4574 -1.0404  2.7764
   48MPD2     N  742   1.835   4.264   9.140 -0.0593 -0.4842  0.3659
   48MPD2    H5  743   1.802   4.171   9.119  0.9018 -0.4349 -1.3617
   48MPD2    N1  744   1.365   4.359   9.155  0.0865 -0.2046 -0.4242
   48MPD2    H7  745   1.364   4.260   9.130 -0.6032 -0.2624 -0.1670
   49MPD2     C  746   3.826   0.918   9.731 -0.6866 -0.0511  0.0396
   49MPD2    C1  747   3.868   0.861   9.851 -0.0563  0.6537 -0.2156
   49MPD2    C2  748   3.923   0.942   9.949 -0.5389 -0.3703 -0.9838
   49MPD2    C3  749   3.953   1.075   9.925 -0.3297 -0.1202  0.3396
   49MPD2    C4  750   3.928   1.118   9.802 -1.2073 -0.5842 -0.3957
   49MPD2    C5  751   3.850   1.048   9.707  0.1525 -0.0298 -0.0834
   49MPD2     H  752   3.945   0.887  10.039 -2.1845  0.4358 -0.0949
   49MPD2    H1  753   3.943   1.222   9.774  1.3511 -1.0116 -0.5751
   49MPD2    H2  754   3.786   0.861   9.648 -1.3134  2.6863 -1.5267
   49MPD2    H3  755   3.835   1.092   9.609 -0.3266 -2.0450 -0.9241
   49MPD2     N  756   3.999   1.166  10.023  0.6674  0.4871 -0.1413
   49MPD2    H5  757   3.994   1.265   9.999  1.1486  0.3015 -0.9898
   49MPD2    N1  758   3.864   0.716   9.873 -0.3005 -0.3174 -0.4973
   49MPD2    H7  759   3.884   0.676   9.964  1.2495  0.5377 -0.4543
   50TCq2    C1  760   3.832   0.627   9.776  0.4817 -0.0871  0.1207
   50TCq2    O2  761   3.831   0.653   9.657 -0.2445  0.2691  0.0133
   50TCq2    C2  762   3.783   0.493   9.813  0.1869 -0.5145 -0.0722
   50TCq2    C3  763   3.777   0.403   9.712  0.1574  0.2454  0.3222
   50TCq2    C4  764   3.700   0.291   9.730  0.6142 -0.5784  0.3143
   50TCq2    C5  765   3.624   0.272   9.841 -0.2714 -0.2766  0.5255
   50TCq2    C6  766   3.637   0.359   9.945  0.2265 -0.0258 -0.3661
   50TCq2    C7  767   3.713   0.474   9.931  0.0579 -0.6191 -0.1368
   50TCq2    C8  768   3.580   0.336  10.077 -0.3505 -0.0010  0.0208
   50TCq2    O4  769   3.546   0.429  10.151  0.0675  0.2082 -0.2005
   50TCq2    C9  770   3.698   0.193   9.619 -0.7960  0.1143  0.4966
   50TCq2    O5  771   3.726   0.227   9.499 -0.0431 -0.4184  0.2310
   50TCq2    O6  772   3.685   0.074   9.648 -0.8307 -0.0616 -0.6511
   50TCq2    H2  773   3.823   0.418   9.615  2.9621 -0.3848  1.5684
   50TCq2    H3  774   3.551   0.191   9.847  0.9572 -1.4543 -0.4482
   50TCq2    H4  775   3.728   0.545  10.012  0.2667  0.2600 -0.9441
   51MPD2     C  776   4.699   0.117   0.077  0.0116  0.0042 -0.2044
   51MPD2    C1  777   0.032   4.722   0.100  0.1027 -0.6981  0.8317
   51MPD2    C2  778   0.142   4.711   0.183  1.5207  0.2698 -0.2576
   51MPD2    C3  779   0.193   0.091   0.251 -0.6239  0.6047 -0.6272
   51MPD2    C4  780   0.134   0.211   0.230 -0.0700  0.3191  0.8966
   51MPD2    C5  781   0.028   0.223   0.149  0.9827  0.2923  0.9715
   51MPD2     H  782   0.184   4.616   0.215 -1.8771 -1.2233 -0.3092
   51MPD2    H1  783   0.169   0.291   0.295  1.6514 -0.1982  0.6144
   51MPD2    H2  784   4.604   0.131   0.027  0.0024 -2.1633 -0.8194
   51MPD2    H3  785   4.711   0.321   0.130 -0.6967 -0.9199 -1.6616
   51MPD2     N  786   0.315   0.091   0.334 -0.6014  0.1826 -0.0072
   51MPD2    H5  787   0.348   0.182   0.365 -2.5059  0.1801  2.0160
   51MPD2    N1  788   4.689   4.607   0.056  0.1399  0.1548  0.1393
   51MPD2    H7  789   0.017   4.520   0.062  0.4792  0.2193 -1.5982
   52TCq2    C1  790   0.382   4.703   0.375  0.2397 -1.1351  0.3369
   52TCq2    O2  791   0.357   4.580   0.355 -0.0746  0.0483 -0.5588
   52TCq2    C2  792   0.506   0.002   0.449  0.3630 -0.3954  0.4740
   52TCq2    C3  793   0.609   4.642   0.424  0.0248 -0.2808  1.4685
   52TCq2    C4  794   0.731   4.663   0.484  0.0677  0.0294  0.6339
   52TCq2    C5  795   0.731   0.033   0.585 -0.6849  0.2666 -0.3050
   52TCq2    C6  796   0.633   0.127   0.593 -0.5499 -0.0725 -0.0049
   52TCq2    C7  797   0.520   0.115   0.518 -0.4463 -0.5218  0.1113
   52TCq2    C8  798   0.639   0.242   0.676 -0.6435 -0.7646  0.0172
   52TCq2    O4  799   0.535   0.305   0.689  0.3000 -0.1942  0.1880
   52TCq2    C9  800   0.848   4.583   0.454 -0.3677 -0.3117  0.3151
   52TCq2    O5  801   0.843   4.499   0.359 -0.2459  0.1823 -0.1258
   52TCq2    O6  802   0.946   4.595   0.529 -0.3175  0.2545 -0.1761
   52TCq2    H2  803   0.595   4.556   0.359 -0.8538  2.6774 -2.2414
   52TCq2    H3  804   0.812   0.030   0.657  0.2107 -1.2542 -1.3711
   52TCq2    H4  805   0.433   0.179   0.528  1.7404  2.5900 -0.9373
   53TMC2    C1  806   0.624   2.898  12.595  0.0146 -0.2391  0.0948
   53TMC2    C2  807   0.714   2.940  12.692 -0.6039  0.3601 -0.1325
   53TMC2    C3  808   0.667   2.965  12.819 -0.3922  0.1436 -0.1036
   53TMC2    C4  809   0.493   2.875  12.622  0.7630  0.6180 -0.4012
   53TMC2    C5  810   0.452   2.919  12.752 -0.2352  0.4967 -0.2937
   53TMC2    C6  811   0.527   2.957  12.848  0.0257 -0.5273  0.3870
   53TMC2     C  812   0.652   2.968  12.477 -0.4072 -0.1477  0.7733
   53TMC2     O  813   0.763   2.961  12.429  0.9394 -0.5648  0.2055
   53TMC2     H  814   0.813   2.968  12.659  0.0112  0.9956  2.2387
   53TMC2    H1  815   0.416   2.842  12.553  0.2263 -1.8373  1.3794
   53TMC2    H2  816   0.485   3.004  12.936 -1.3338  2.8865 -2.0647
   53TMC2    C7  817   0.324   2.979  12.750  0.6541 -0.4059 -0.8007
   53TMC2    C8  818   0.756   3.049  12.893 -0.6806  0.8852  0.3614
   53TMC2    O1  819   0.291   3.013  12.636 -0.1860 -0.2928 -0.4124
   53TMC2    O2  820   0.756   3.170  12.879 -0.5257 -0.1468  0.3591
   53TMC2    O5  821   0.863   2.970  12.922 -0.6433  0.6597  0.0058
   53TMC2    H5  822   0.851   2.875  12.899 -2.9571  1.2574 -1.3050
   54MPD2     C  823   0.631   3.109  12.215  0.8132  0.3170  0.2785
   54MPD2    C1  824   0.522   3.087  12.295 -0.3751  0.0209  0.3076
   54MPD2    C2  825   0.394   3.122  12.261  0.4505  0.7096 -0.0912
   54MPD2    C3  826   0.377   3.182  12.136  1.3774  0.2061  1.1106
   54MPD2    C4  827   0.487   3.218  12.068 -0.5062 -0.1045  0.1979
   54MPD2    C5  828   0.613   3.179  12.100 -0.1740 -0.9395  0.2713
   54MPD2     H  829   0.313   3.084  12.323 -0.1868  0.3296 -1.1625
   54MPD2    H1  830   0.480   3.264  11.970 -1.2128  0.2383  0.4086
   54MPD2    H2  831   0.734   3.078  12.228  0.6474  0.2741  1.4731
   54MPD2    H3  832   0.700   3.200  12.038 -1.2946 -1.5633 -1.4982
   54MPD2     N  833   0.255   3.230  12.078  0.6037  0.5573 -0.1230
   54MPD2    H5  834   0.264   3.286  11.993  0.5915 -2.0640 -1.8463
   54MPD2    N1  835   0.539   3.019  12.417 -0.1731 -0.0881 -0.2289
   54MPD2    H7  836   0.464   3.019  12.486 -0.8023  0.5104 -0.9217
   55MPD2     C  837   1.338   1.433  17.453 -0.3630  0.0258  0.3493
   55MPD2    C1  838   1.314   1.318  17.530  0.2942 -0.5783  0.1172
   55MPD2    C2  839   1.242   1.333  17.647 -0.7482 -0.0902  0.4424
   55MPD2    C3  840   1.217   1.460  17.699  0.3580  0.6009 -0.3266
   55MPD2    C4  841   1.254   1.574  17.633  0.8895  0.7998 -0.3097
   55MPD2    C5  842   1.311   1.555  17.512 -0.4190 -0.4100  0.8522
   55MPD2     H  843   1.212   1.248   0.007 -1.2441  0.1431  0.5307
   55MPD2    H1  844   1.251   1.678  17.664  0.0556 -0.1277  2.7113
   55MPD2    H2  845   1.383   1.423  17.355 -1.1030  1.0431 -0.0899
   55MPD2    H3  846   1.333   1.645  17.455  0.4639 -0.1514  1.6013
   55MPD2     N  847   1.163   1.461   0.125  0.6767  0.1496 -0.3727
   55MPD2    H5  848   1.145   1.370   0.169 -3.9252  1.2246 -0.0022
   55MPD2    N1  849   1.352   1.195  17.474  0.3909  0.0764  0.3626
   55MPD2    H7  850   1.398   1.196  17.384 -0.0963  1.0366  0.1214
   56TCq2    C1  851   1.325   1.075  17.537 -0.1273  0.8841 -0.5217
   56TCq2    O2  852   1.263   1.053  17.634  0.2382  0.6144  0.4558
   56TCq2    C2  853   1.398   0.960  17.482  0.2135  0.5960 -0.4373
   56TCq2    C3  854   1.464   0.964  17.355  0.3422  0.5378  0.7717
   56TCq2    C4  855   1.547   0.857  17.322 -0.3073 -0.3271  0.0235
   56TCq2    C5  856   1.568   0.752  17.407  0.4921  0.0107  0.3897
   56TCq2    C6  857   1.496   0.756  17.525  0.3637 -0.1667  0.2626
   56TCq2    C7  858   1.419   0.857  17.568  0.6756 -0.1848 -0.0478
   56TCq2    C8  859   1.480   0.624  17.593 -0.2733  0.1175 -0.7562
   56TCq2    O4  860   1.567   0.540  17.574  0.1611 -0.4055 -0.2480
   56TCq2    C9  861   1.615   0.858  17.194  0.0042  0.0403  0.3309
   56TCq2    O5  862   1.694   0.762  17.178 -0.2318  0.7433  0.0428
   56TCq2    O6  863   1.601   0.953  17.108  0.3049  0.0148 -0.6266
   56TCq2    H2  864   1.443   1.043  17.283 -0.0045  2.8547  3.4361
   56TCq2    H3  865   1.618   0.659  17.383  0.3091 -0.0953  0.4266
   56TCq2    H4  866   1.379   0.864  17.669  1.7674  0.8106  0.3079
   57TMC2    C1  867   0.005   2.123  13.224  0.4455 -0.0739 -0.1970
   57TMC2    C2  868   4.625   2.072  13.165 -0.4439  0.1116  0.4544
   57TMC2    C3  869   4.647   2.022  13.041  0.5463  1.1026 -0.2616
   57TMC2    C4  870   0.127   2.134  13.166  0.7361 -0.5109 -0.3639
   57TMC2    C5  871   0.140   2.091  13.040 -0.0461 -0.2806  0.8027
   57TMC2    C6  872   0.034   2.041  12.971  0.1412 -0.1239  0.1053
   57TMC2     C  873   4.718   2.168  13.357 -0.4124 -0.6707  0.0148
   57TMC2     O  874   4.610   2.216  13.389  0.4464  0.8344 -0.1939
   57TMC2     H  875   4.529   2.069  13.215 -0.7032 -1.5143 -0.1637
   57TMC2    H1  876   0.214   2.180  13.212 -0.1405  1.7862 -0.9873
   57TMC2    H2  877   0.042   2.025  12.864  1.7964  0.8286  0.0807
   57TMC2    C7  878   0.258   2.131  12.964  0.7430  0.4011 -0.3032
   57TMC2    C8  879   4.524   2.019  12.970 -0.1544 -0.0093  0.4548
   57TMC2    O1  880   0.327   2.225  13.006  0.3092 -0.3743 -0.0742
   57TMC2    O2  881   4.419   1.966  13.009 -0.3637  0.2004 -0.2926
   57TMC2    O5  882   4.528   2.134  12.907 -0.2270  0.0196 -0.4462
   57TMC2    H5  883   4.615   2.164  12.873 -0.3875  0.9011 -0.1032
   58MPD2     C  884   0.166   2.225  13.826 -0.0540 -0.1734  0.9933
   58MPD2    C1  885   0.077   2.297  13.753  0.8179 -0.1359 -0.3218
   58MPD2    C2  886   0.038   2.265  13.622 -0.0808  0.3722  0.0589
   58MPD2    C3  887   0.116   2.160  13.563  0.1327 -0.3483  0.6665
   58MPD2    C4  888   0.209   2.096  13.636  0.2951 -0.8158  0.2460
   58MPD2    C5  889   0.244   2.127  13.768  0.0463 -0.4107 -0.0793
   58MPD2     H  890   4.696   2.329  13.565 -0.5446  0.4043  0.6376
   58MPD2    H1  891   0.268   2.020  13.587  0.9793  0.5259 -0.9954
   58MPD2    H2  892   0.193   2.239  13.930 -0.0190  3.3768  0.5145
   58MPD2    H3  893   0.332   2.082  13.812 -0.0582 -2.4930 -2.0099
   58MPD2     N  894   0.107   2.127  13.432 -0.6838  0.5323  0.2869
   58MPD2    H5  895   0.178   2.066  13.392  0.0336  2.3680 -1.2316
   58MPD2    N1  896   0.011   2.405  13.816  0.4817 -0.3682  0.3980
   58MPD2    H7  897   4.666   2.451  13.759  0.7678 -0.2895  0.1137
   59MPD2     C  898   2.637   2.403  13.141 -0.0675  0.2319 -0.7153
   59MPD2    C1  899   2.715   2.300  13.099 -0.2173  0.5120  0.2604
   59MPD2    C2  900   2.826   2.269  13.176 -0.1325  0.2786  0.4392
   59MPD2    C3  901   2.854   2.352  13.290  0.2622  0.1561 -0.4595
   59MPD2    C4  902   2.765   2.442  13.340  0.7716 -0.5395 -0.6594
   59MPD2    C5  903   2.657   2.470  13.259  0.7869 -0.4149 -0.6786
   59MPD2     H  904   2.885   2.182  13.150 -0.2036  0.6193 -0.8999
   59MPD2    H1  905   2.786   2.497  13.430 -1.4297  0.7438 -0.9520
   59MPD2    H2  906   2.551   2.432  13.082 -1.0313  0.2665  0.6945
   59MPD2    H3  907   2.588   2.549  13.289  0.3750 -0.2836 -2.0053
   59MPD2     N  908   2.980   2.343  13.356 -0.4643 -0.1083  0.8763
   59MPD2    H5  909   2.998   2.407  13.433 -1.2479 -0.4392  1.3384
   59MPD2    N1  910   2.683   2.232  12.975  0.5482 -0.3015 -0.6850
   59MPD2    H7  911   2.738   2.150  12.950 -1.8267 -1.2625 -2.7243
   60TCq2    C1  912   2.612   2.290  12.875 -0.8843 -0.1415 -0.1026
   60TCq2    O2  913   2.575   2.408  12.858 -0.4662 -0.6235 -0.5101
   60TCq2    C2  914   2.604   2.194  12.766  0.1768 -0.2283 -0.2476
   60TCq2    C3  915   2.593   2.058  12.787  0.7266  1.1146 -0.6769
   60TCq2    C4  916   2.622   1.981  12.679 -0.3440 -0.2911 -0.5504
   60TCq2    C5  917   2.672   2.033  12.556 -0.4263 -0.6460 -0.3055
   60TCq2    C6  918   2.682   2.167  12.539  1.3750 -0.7669  0.5408
   60TCq2    C7  919   2.643   2.253  12.644  0.1164  0.1817 -0.1920
   60TCq2    C8  920   2.745   2.213  12.420 -0.0689  0.2653  0.2824
   60TCq2    O4  921   2.817   2.132  12.357  0.2632 -0.4806 -0.0876
   60TCq2    C9  922   2.604   1.838  12.690 -0.0442 -0.0997  0.3070
   60TCq2    O5  923   2.557   1.806  12.801 -0.3449 -0.1209  0.2741
   60TCq2    O6  924   2.615   1.770  12.585  0.2752 -0.3909 -0.1309
   60TCq2    H2  925   2.564   2.012  12.881  3.1702 -0.4144 -0.6762
   60TCq2    H3  926   2.693   1.966  12.474  2.7638 -0.7694  0.6043
   60TCq2    H4  927   2.670   2.358  12.640  1.3256 -0.1606 -1.2325
   61MPD2     C  928   2.123   3.159  15.668  0.8208  0.3021  0.0784
   61MPD2    C1  929   2.096   3.292  15.637  0.1531  0.0906  0.8513
   61MPD2    C2  930   2.114   3.344  15.505 -0.1282  0.0563  0.2570
   61MPD2    C3  931   2.133   3.260  15.399 -0.5988 -0.0663  0.1363
   61MPD2    C4  932   2.164   3.127  15.427  0.3282  0.1975  0.4610
   61MPD2    C5  933   2.164   3.085  15.559 -0.4536  0.6037 -0.4210
   61MPD2     H  934   2.093   3.447  15.480 -1.2241  0.2040  1.7673
   61MPD2    H1  935   2.197   3.051  15.358 -2.1040 -0.5970  0.1570
   61MPD2    H2  936   2.119   3.108  15.764 -0.1683  1.4248  0.6335
   61MPD2    H3  937   2.170   2.977  15.574  2.5129  0.3567 -3.3182
   61MPD2     N  938   2.129   3.305  15.264 -0.1547 -0.0920  0.5254
   61MPD2    H5  939   2.101   3.401  15.247  0.0152 -0.0123  0.6990
   61MPD2    N1  940   2.054   3.384  15.737 -0.2613  0.0914 -0.3536
   61MPD2    H7  941   2.034   3.479  15.706 -2.8639 -0.9276 -1.8288
   62TCq2    C1  942   2.038   3.360  15.869  0.7095  0.0000 -0.3035
   62TCq2    O2  943   2.072   3.268  15.941 -0.2351 -0.0915 -0.0266
   62TCq2    C2  944   1.971   3.479  15.928  0.6878  0.1159 -0.1367
   62TCq2    C3  945   2.041   3.521  16.037 -0.2684 -0.9101  0.5296
   62TCq2    C4  946   2.076   3.653  16.040  0.0197  0.3052  0.2242
   62TCq2    C5  947   2.047   3.736  15.938 -0.2060 -0.7405 -0.2866
   62TCq2    C6  948   1.963   3.695  15.837 -0.1720  0.1235 -0.2276
   62TCq2    C7  949   1.917   3.566  15.839  0.2661 -0.3258  0.4393
   62TCq2    C8  950   1.972   3.738  15.699  0.3925  0.1709 -0.4183
   62TCq2    O4  951   1.875   3.727  15.625 -0.1233 -0.2476  0.2502
   62TCq2    C9  952   2.146   3.703  16.150  0.7101 -0.3437  0.2634
   62TCq2    O5  953   2.159   3.627  16.248 -0.3825  0.0878  1.0984
   62TCq2    O6  954   2.182   3.824  16.148  0.0219 -0.4785  0.1667
   62TCq2    H2  955   2.065   3.453  16.118 -3.0287  0.6299  2.6771
   62TCq2    H3  956   2.079   3.839  15.945  0.1641 -0.8924  0.2280
   62TCq2    H4  957   1.851   3.531  15.760  0.1762  0.5998  0.1126
   63TMC2    C1  958   1.963   3.844  10.689 -0.4256 -0.4767  0.0800
   63TMC2    C2  959   2.058   3.895  10.778  0.3389 -0.5252  0.3331
   63TMC2    C3  960   2.118   4.008  10.741 -0.4341  0.7951 -0.6510
   63TMC2    C4  961   1.939   3.899  10.564  0.5001  0.4799 -0.1515
   63TMC2    C5  962   2.002   4.018  10.537 -0.1760 -0.0714 -0.0049
   63TMC2    C6  963   2.101   4.065  10.616 -0.0930  0.3016  0.2514
   63TMC2     C  964   1.869   3.751  10.751 -0.0089  0.0234 -0.6890
   63TMC2     O  965   1.867   3.751  10.875 -0.2931 -0.0237 -0.5001
   63TMC2     H  966   2.063   3.865  10.882  0.7122  1.4002  0.8770
   63TMC2    H1  967   1.884   3.840  10.491  0.3767  1.6804 -1.0273
   63TMC2    H2  968   2.161   4.142  10.570 -0.2943  0.3265  0.0262
   63TMC2    C7  969   1.981   4.069  10.399  0.1192 -0.0183 -0.6584
   63TMC2    C8  970   2.212   4.072  10.823  0.2890 -0.3870 -0.4131
   63TMC2    O1  971   1.963   3.987  10.315 -0.1664 -0.5922 -0.1929
   63TMC2    O2  972   2.207   4.192  10.838  0.2068  0.4183  0.5964
   63TMC2    O5  973   2.237   3.989  10.928 -0.0805 -0.1227 -0.2365
   63TMC2    H5  974   2.270   3.902  10.897  0.7100  0.2526 -0.4521
   64MPD2     C  975   1.583   3.318  10.780  0.0896 -0.0081  0.2684
   64MPD2    C1  976   1.601   3.353  10.645 -0.4079 -0.1937 -0.9091
   64MPD2    C2  977   1.684   3.459  10.611 -0.5496 -0.0770 -0.1099
   64MPD2    C3  978   1.734   3.548  10.704 -0.5071  0.0464  0.3882
   64MPD2    C4  979   1.714   3.512  10.834  0.4733  0.0966 -0.2829
   64MPD2    C5  980   1.641   3.401  10.876  0.3628  0.7864  0.2289
   64MPD2     H  981   1.696   3.480  10.505  0.4572 -0.0923  0.0014
   64MPD2    H1  982   1.744   3.570  10.922  2.4275  0.7577 -1.3778
   64MPD2    H2  983   1.532   3.234  10.825  0.6479 -1.3356 -1.5553
   64MPD2    H3  984   1.629   3.373  10.979  0.9616 -0.8983 -0.1635
   64MPD2     N  985   1.813   3.658  10.664  0.7389  0.2142 -0.2434
   64MPD2    H5  986   1.824   3.671  10.564  1.6281 -0.8205 -0.2799
   64MPD2    N1  987   1.549   3.273  10.541  0.4708  0.3210  0.0657
   64MPD2    H7  988   1.565   3.308  10.448 -1.5458 -2.0446 -1.1613
   65MPD2     C  989   2.927   3.057  15.492  0.1110 -0.2110  0.4465
   65MPD2    C1  990   2.946   3.045  15.358 -0.1707  0.1758  0.4129
   65MPD2    C2  991   2.893   2.930  15.296  0.1986 -0.1045  0.2982
   65MPD2    C3  992   2.819   2.843  15.373 -0.6789  0.5996 -0.6269
   65MPD2    C4  993   2.788   2.859  15.503 -0.3144 -1.1716  0.2328
   65MPD2    C5  994   2.831   2.977  15.560  0.9557 -0.3842  0.6328
   65MPD2     H  995   2.885   2.912  15.189  3.7806  2.2096 -0.3741
   65MPD2    H1  996   2.731   2.784  15.556 -0.1066 -0.6698  1.1582
   65MPD2    H2  997   2.965   3.147  15.538 -0.3593 -0.2206  0.8616
   65MPD2    H3  998   2.799   2.996  15.662  0.0591  1.0899  0.0786
   65MPD2     N  999   2.747   2.735  15.314  0.0057  0.8461  0.3707
   65MPD2    H5 1000   2.695   2.676  15.378  0.5296 -0.5493 -0.4927
   65MPD2    N1 1001   3.009   3.142  15.272 -0.8330 -0.4922  0.2886
   65MPD2    H7 1002   2.991   3.121  15.175 -3.4771  0.2769  0.6173
   66TCq2    C1 1003   3.069   3.260  15.305  0.4336 -0.9237 -0.7030
   66TCq2    O2 1004   3.086   3.305  15.418 -0.3220  0.1975  0.1684
   66TCq2    C2 1005   3.052   3.349  15.192  0.3121  0.0349  0.1949
   66TCq2    C3 1006   3.047   3.277  15.079  0.1041 -0.4219  0.4175
   66TCq2    C4 1007   2.949   3.302  14.983  0.2281  0.3570 -0.1120
   66TCq2    C5 1008   2.854   3.403  15.002  1.0216 -0.3601 -0.0131
   66TCq2    C6 1009   2.864   3.472  15.119  0.2527 -0.1291  0.0227
   66TCq2    C7 1010   2.949   3.432  15.221  0.2444 -0.3069 -0.3376
   66TCq2    C8 1011   2.782   3.590  15.141 -0.1202  1.0073 -0.1971
   66TCq2    O4 1012   2.761   3.660  15.042  0.3696  0.0547  0.3929
   66TCq2    C9 1013   2.960   3.246  14.847 -0.5915  0.4208  0.0230
   66TCq2    O5 1014   2.862   3.257  14.765  0.0987  0.4282 -0.5293
   66TCq2    O6 1015   3.048   3.160  14.827  0.0890  0.0892  0.3579
   66TCq2    H2 1016   3.116   3.197  15.054 -1.2181 -0.6006 -2.6089
   66TCq2    H3 1017   2.794   3.439  14.920  1.6465 -1.1358 -0.8075
   66TCq2    H4 1018   2.960   3.492  15.310  0.6717  0.8473 -1.1734
   67MPD2     C 1019   2.472   2.526  13.584 -0.1046 -0.2450  0.2562
   67MPD2    C1 1020   2.513   2.652  13.631 -0.9682  0.0579  0.2729
   67MPD2    C2 1021   2.484   2.760  13.544 -0.5667 -0.8254 -0.1114
   67MPD2    C3 1022   2.403   2.749  13.434 -0.2043 -0.3678 -0.2988
   67MPD2    C4 1023   2.365   2.625  13.393 -0.0805  0.1599  0.1174
   67MPD2    C5 1024   2.391   2.515  13.469  0.6045 -0.8918 -0.2087
   67MPD2     H 1025   2.522   2.854  13.583 -0.1723 -0.6111 -1.0111
   67MPD2    H1 1026   2.308   2.601  13.304  1.2547  0.8776 -0.9297
   67MPD2    H2 1027   2.495   2.433  13.635  0.4359  0.2859  0.9961
   67MPD2    H3 1028   2.349   2.419  13.442  2.4182 -1.6566 -0.2956
   67MPD2     N 1029   2.337   2.849  13.360 -0.4944 -0.7862  0.2643
   67MPD2    H5 1030   2.282   2.822  13.279  1.6610 -0.5204 -1.2871
   67MPD2    N1 1031   2.566   2.675  13.757  1.3069  0.1779  0.5671
   67MPD2    H7 1032   2.590   2.772  13.773  0.6095  0.4909 -0.2529
   68TCq2    C1 1033   2.613   2.585  13.853 -0.2579  0.3778  0.5225
   68TCq2    O2 1034   2.620   2.465  13.844 -0.2521  0.1200  0.0216
   68TCq2    C2 1035   2.654   2.646  13.980 -0.2122  0.4693 -0.0152
   68TCq2    C3 1036   2.611   2.766  14.019 -0.2514 -0.3990  0.1770
   68TCq2    C4 1037   2.668   2.823  14.128  0.1908  0.5407  0.7102
   68TCq2    C5 1038   2.766   2.760  14.193  0.0534  0.3093  0.0099
   68TCq2    C6 1039   2.805   2.634  14.160  0.0539 -0.7392 -0.6361
   68TCq2    C7 1040   2.747   2.578  14.053 -0.7559 -0.5180 -0.2033
   68TCq2    C8 1041   2.918   2.569  14.213  0.4296 -0.2504  0.3766
   68TCq2    O4 1042   2.980   2.489  14.147  0.0318 -0.6201 -0.3900
   68TCq2    C9 1043   2.623   2.958  14.167 -0.4622 -0.1829 -0.5007
   68TCq2    O5 1044   2.516   2.995  14.115 -0.2256 -0.3186  0.0177
   68TCq2    O6 1045   2.692   3.015  14.257 -0.1397 -0.0555  0.3064
   68TCq2    H2 1046   2.531   2.821  13.971 -0.4038  0.3046  1.2387
   68TCq2    H3 1047   2.822   2.819  14.265 -0.4966 -0.0147  0.7076
   68TCq2    H4 1048   2.788   2.487  14.011  0.4533  1.0741 -2.4937
   69TMC2    C1 1049   4.536   3.935  12.250 -0.2622  0.1459  0.2324
   69TMC2    C2 1050   4.404   3.952  12.211 -0.0584 -0.2554 -0.0112
   69TMC2    C3 1051   4.380   3.989  12.079  0.1124  0.4643 -0.2792
   69TMC2    C4 1052   4.638   3.962  12.164 -0.2426  0.1547 -0.1878
   69TMC2    C5 1053   4.615   4.004  12.033  0.4349 -0.2522  0.7688
   69TMC2    C6 1054   4.485   4.013  11.987  0.0487  0.2632 -0.0087
   69TMC2     C 1055   4.554   3.893  12.390 -0.0288 -0.0699 -0.3232
   69TMC2     O 1056   4.452   3.890  12.462 -0.1849 -0.0469 -0.2548
   69TMC2     H 1057   4.326   3.941  12.284  0.8853  1.4310  1.2357
   69TMC2    H1 1058   0.016   3.936  12.188  0.1518  1.3105 -0.6553
   69TMC2    H2 1059   4.459   4.022  11.882  2.4773  0.1796 -0.6317
   69TMC2    C7 1060   0.004   4.015  11.940  0.1276  0.2042 -0.2104
   69TMC2    C8 1061   4.240   3.986  12.041 -0.1881 -0.2484  0.3369
   69TMC2    O1 1062   0.114   3.976  11.984  0.0340  0.1451  0.2691
   69TMC2    O2 1063   4.154   4.018  12.121 -0.0644  0.5751 -0.0673
   69TMC2    O5 1064   4.228   3.886  11.956  0.1685  0.1369  0.5292
   69TMC2    H5 1065   4.299   3.819  11.968 -0.0304  0.3847  3.1381
   70MPD2     C 1066   0.100   3.696  12.527  0.1320  0.2445  0.5814
   70MPD2    C1 1067   4.697   3.741  12.525 -0.2613  1.2169  0.3801
   70MPD2    C2 1068   4.611   3.706  12.624 -0.0013  0.0847 -0.8753
   70MPD2    C3 1069   4.651   3.623  12.727  0.8895  1.5425 -0.4465
   70MPD2    C4 1070   0.061   3.576  12.727  0.1393  0.8278 -0.1930
   70MPD2    C5 1071   0.147   3.620  12.628  0.2919 -0.9283 -0.5784
   70MPD2     H 1072   4.509   3.744  12.622 -0.3068 -0.7190 -0.3915
   70MPD2    H1 1073   0.097   3.529  12.818 -2.3076  0.8060  0.7805
   70MPD2    H2 1074   0.172   3.723  12.451 -3.4519  3.1796 -1.8121
   70MPD2    H3 1075   0.250   3.587  12.617  0.5502 -0.2080 -0.2953
   70MPD2     N 1076   4.575   3.588  12.839 -0.2859  0.4074  0.3157
   70MPD2    H5 1077   4.614   3.532  12.914 -1.7805 -0.0034  0.7781
   70MPD2    N1 1078   4.670   3.820  12.406 -0.4055 -0.5888 -0.5534
   70MPD2    H7 1079   0.018   3.808  12.336  0.0751  2.2037 -0.5216
   71TMC2    C1 1080   3.254   0.078   1.551  0.3541 -0.1046  0.7849
   71TMC2    C2 1081   3.376   0.111   1.602 -0.4932  0.6316  0.0465
   71TMC2    C3 1082   3.372   0.181   1.725 -0.4787  0.1313 -0.6613
   71TMC2    C4 1083   3.137   0.109   1.605  0.4887 -0.4524 -0.3204
   71TMC2    C5 1084   3.141   0.174   1.725  0.5121  0.2252 -0.4018
   71TMC2    C6 1085   3.257   0.215   1.780  0.4103  0.3588 -0.4664
   71TMC2     C 1086   3.253   0.030   1.422 -0.5217  0.9796 -0.1524
   71TMC2     O 1087   3.151   0.044   1.354  0.2944 -0.3120  0.3373
   71TMC2     H 1088   3.464   0.103   1.540 -0.2513  0.0876  0.4609
   71TMC2    H1 1089   3.046   0.060   1.570  0.3973  1.3929 -2.6924
   71TMC2    H2 1090   3.263   0.281   1.866  1.2629 -0.7638  0.3242
   71TMC2    C7 1091   3.018   0.206   1.800  0.3010  0.0364 -0.0283
   71TMC2    C8 1092   3.484   0.266   1.768  0.6491  0.1552  0.2169
   71TMC2    O1 1093   3.033   0.224   1.921 -0.0370  0.2336 -0.0255
   71TMC2    O2 1094   3.471   0.363   1.847  0.0492 -0.2928  0.3634
   71TMC2    O5 1095   3.603   0.221   1.722 -0.2299  0.2012  0.0865
   71TMC2    H5 1096   3.607   0.130   1.687 -1.9356 -0.1159  0.6804
   72MPD2     C 1097   3.506   4.525   1.037 -0.3417  0.0234  0.0763
   72MPD2    C1 1098   3.392   4.605   1.025 -0.4526 -0.1539  1.3890
   72MPD2    C2 1099   3.338   4.647   1.143 -0.1732  0.7433  0.0014
   72MPD2    C3 1100   3.405   4.627   1.267 -0.4565 -0.6164 -0.3669
   72MPD2    C4 1101   3.513   4.545   1.273 -0.2087 -0.6450  0.2929
   72MPD2    C5 1102   3.566   4.499   1.154 -0.9578  0.3888  0.5363
   72MPD2     H 1103   3.260   4.722   1.140  0.3916  1.3764  0.8484
   72MPD2    H1 1104   3.563   4.519   1.366  1.9126  1.6417 -0.2116
   72MPD2    H2 1105   3.545   4.479   0.947 -4.1168 -0.3425 -1.3753
   72MPD2    H3 1106   3.655   4.437   1.161 -2.8562 -2.1981  1.9508
   72MPD2     N 1107   3.364   4.681   1.390  0.3331 -0.0333  0.1467
   72MPD2    H5 1108   3.415   4.647   1.471  1.1081 -0.7858 -0.6635
   72MPD2    N1 1109   3.316   4.617   0.902 -0.3901 -0.0133 -0.6752
   72MPD2    H7 1110   3.223   4.656   0.908 -1.4481 -2.9118  1.8557
   73TMC2    C1 1111   2.748   1.127  14.055 -0.6463  0.7152  0.1833
   73TMC2    C2 1112   2.633   1.088  14.125 -0.8329 -0.4376  0.0535
   73TMC2    C3 1113   2.653   1.039  14.253  0.3934 -0.3974  0.4284
   73TMC2    C4 1114   2.870   1.117  14.120 -0.3518 -0.6537  0.2606
   73TMC2    C5 1115   2.874   1.103  14.260  0.2159  0.0412  0.0972
   73TMC2    C6 1116   2.766   1.059  14.325 -0.1077 -0.4247 -0.3036
   73TMC2     C 1117   2.744   1.234  13.967  0.1377 -0.2664 -0.1778
   73TMC2     O 1118   2.829   1.318  13.996  0.2104  0.7893 -0.4473
   73TMC2     H 1119   2.536   1.097  14.078 -0.3214 -0.4856 -1.0024
   73TMC2    H1 1120   2.961   1.142  14.067 -1.4555  0.6142 -1.0457
   73TMC2    H2 1121   2.776   1.047  14.432  0.8401 -0.2641 -0.3738
   73TMC2    C7 1122   2.959   1.199  14.325 -0.0112 -0.1937 -0.3883
   73TMC2    C8 1123   2.526   1.015  14.329  0.3654 -0.7793 -0.3216
   73TMC2    O1 1124   2.998   1.176  14.436  0.1279  0.0778  0.6541
   73TMC2    O2 1125   2.427   1.088  14.309 -0.2715 -0.4913 -0.1509
   73TMC2    O5 1126   2.557   0.953  14.441 -0.4403  0.8084  0.1933
   73TMC2    H5 1127   2.646   0.913  14.450 -2.4071 -3.2293  2.0106
   74MPD2     C 1128   2.578   1.529  13.589 -0.1828  0.1754 -0.2257
   74MPD2    C1 1129   2.671   1.566  13.690 -0.3183  0.1525  0.0171
   74MPD2    C2 1130   2.693   1.462  13.781 -0.8101 -0.0550  0.2295
   74MPD2    C3 1131   2.632   1.336  13.775 -0.5282  0.0687 -0.4540
   74MPD2    C4 1132   2.551   1.314  13.672 -0.1193  0.1690 -0.4278
   74MPD2    C5 1133   2.528   1.409  13.576  0.0886 -0.0783  0.9482
   74MPD2     H 1134   2.753   1.481  13.869  0.0950  2.8761 -1.0264
   74MPD2    H1 1135   2.490   1.224  13.664 -0.3818  0.3663 -0.6669
   74MPD2    H2 1136   2.551   1.597  13.509  0.4176  1.2550  0.4874
   74MPD2    H3 1137   2.480   1.384  13.482  1.2315  2.1850 -0.2579
   74MPD2     N 1138   2.647   1.231  13.870 -0.5039  0.3183 -0.0301
   74MPD2    H5 1139   2.594   1.148  13.846  2.1519 -1.5799  0.6304
   74MPD2    N1 1140   2.723   1.689  13.706 -0.0608 -0.0260  1.0298
   74MPD2    H7 1141   2.707   1.763  13.639  0.6028 -0.5224  0.3286
   75TCq2    C1 1142   2.335   2.983  13.393 -0.0040 -0.4510  0.4628
   75TCq2    O2 1143   2.385   3.029  13.492 -0.2592 -0.4431 -0.3164
   75TCq2    C2 1144   2.269   3.068  13.296 -0.1802  0.3203  0.2691
   75TCq2    C3 1145   2.278   3.201  13.327  0.3389 -1.0934  0.4399
   75TCq2    C4 1146   2.189   3.278  13.258 -0.1933 -0.0361  0.7949
   75TCq2    C5 1147   2.106   3.224  13.160  0.3251 -0.0852  1.0733
   75TCq2    C6 1148   2.109   3.093  13.125 -0.7615 -0.0116  0.5642
   75TCq2    C7 1149   2.190   3.007  13.201 -0.5333 -0.2452  0.3539
   75TCq2    C8 1150   2.003   3.031  13.045  0.2706  0.2411  0.1137
   75TCq2    O4 1151   2.015   2.914  13.008 -0.3652 -0.2357  0.3850
   75TCq2    C9 1152   2.181   3.421  13.295 -0.6009 -0.6409  0.0928
   75TCq2    O5 1153   2.232   3.447  13.404  0.2055 -0.1227  0.1958
   75TCq2    O6 1154   2.090   3.492  13.238  0.3409 -0.3693 -0.1865
   75TCq2    H2 1155   2.350   3.244  13.396 -0.2471 -2.3323  1.8104
   75TCq2    H3 1156   2.040   3.297  13.114  1.0125  0.0550  0.3064
   75TCq2    H4 1157   2.178   2.899  13.193  0.2219 -0.1939 -1.2987
   76MPD2     C 1158   0.733   3.211  11.433 -0.2859 -0.3838 -0.0687
   76MPD2    C1 1159   0.830   3.292  11.484 -0.5531 -0.3261 -0.5562
   76MPD2    C2 1160   0.956   3.236  11.522 -0.1812  0.9926 -0.5885
   76MPD2    C3 1161   0.969   3.098  11.511  0.7970 -0.5335  0.1132
   76MPD2    C4 1162   0.872   3.028  11.450  0.3389  0.1574 -0.3073
   76MPD2    C5 1163   0.751   3.078  11.412  0.3407 -0.4361 -0.2531
   76MPD2     H 1164   1.036   3.295  11.565  0.2229 -2.2771  3.1750
   76MPD2    H1 1165   0.878   2.920  11.436 -1.2185  0.0443 -0.0496
   76MPD2    H2 1166   0.635   3.248  11.407  0.1260 -0.2814 -1.4892
   76MPD2    H3 1167   0.670   3.013  11.382 -0.1726 -0.1630  0.5356
   76MPD2     N 1168   1.090   3.026  11.536 -0.4740  0.2611 -0.6097
   76MPD2    H5 1169   1.078   2.926  11.523 -0.6958  0.1261  0.5457
   76MPD2    N1 1170   0.808   3.430  11.506 -0.7954  0.1379  0.1148
   76MPD2    H7 1171   0.888   3.491  11.519 -0.2026 -0.8709  1.1995
   77TCq2    C1 1172   1.193   3.061  11.613 -0.0001  0.3974  0.4628
   77TCq2    O2 1173   1.198   3.169  11.668  0.6734 -0.3371  0.0050
   77TCq2    C2 1174   1.288   2.953  11.637 -0.5587 -0.6318  1.1685
   77TCq2    C3 1175   1.301   2.853  11.550 -0.7446  0.2014  0.3611
   77TCq2    C4 1176   1.420   2.777  11.550  0.3621 -0.0866 -0.7420
   77TCq2    C5 1177   1.524   2.810  11.641 -0.6007  0.2296  0.8252
   77TCq2    C6 1178   1.503   2.919  11.720 -0.2607 -0.2499  0.3423
   77TCq2    C7 1179   1.391   2.992  11.718  0.0860 -0.5338 -0.3561
   77TCq2    C8 1180   1.613   2.968  11.798  0.3250  0.3333  0.0773
   77TCq2    O4 1181   1.731   2.967  11.755 -0.4698  0.4482 -0.0974
   77TCq2    C9 1182   1.440   2.681  11.450  0.1246  0.3730 -0.0274
   77TCq2    O5 1183   1.544   2.607  11.463 -0.0982  0.3221 -0.1018
   77TCq2    O6 1184   1.354   2.662  11.363 -0.5580 -0.7233 -0.2110
   77TCq2    H2 1185   1.226   2.839  11.473 -1.7925 -0.6278  1.5196
   77TCq2    H3 1186   1.617   2.753  11.638 -1.3776 -1.0527  1.3273
   77TCq2    H4 1187   1.375   3.070  11.791  3.6925  1.5976 -1.8215
   78MPD1     C 1188   2.938   0.150   2.472 -0.5850 -0.5757  0.3745
   78MPD1    C1 1189   2.826   0.074   2.495  0.3519 -0.5007 -0.5053
   78MPD1    C2 1190   2.758   0.034   2.382 -0.0832 -0.6986 -0.8007
   78MPD1    C3 1191   2.792   0.074   2.255 -0.2842  0.5604  0.5242
   78MPD1    C4 1192   2.907   0.144   2.237  0.0440  0.6191 -0.5298
   78MPD1    C5 1193   2.982   0.185   2.348  0.3227  0.3602  0.0797
   78MPD1     H 1194   2.663   4.707   2.394 -0.2413 -0.4865 -1.1407
   78MPD1    H1 1195   2.917   0.190   2.140  0.7066 -2.4688 -1.9183
   78MPD1    H2 1196   3.002   0.187   2.551  0.1460 -1.1384  0.0482
   78MPD1    H3 1197   3.073   0.243   2.336 -1.3511  2.8550 -0.7623
   78MPD1     N 1198   2.728   0.038   2.140  0.5229 -0.2592 -0.0439
   78MPD1    H5 1199   2.778   0.060   2.054 -0.7101 -1.2206 -1.0097
   78MPD1    N1 1200   2.801   0.011   2.625  0.1015 -0.1190  0.0113
   78MPD1    H6 1201   2.859   0.060   2.693 -1.6695  0.1397  1.3505
   78MPD1    H7 1202   2.704   0.030   2.650  0.2031  1.6627 -0.8705
   79TCq2    C1 1203   2.609   4.702   2.131  0.1776  0.6582  0.4949
   79TCq2    O2 1204   2.526   4.690   2.218 -0.1221 -0.2301 -0.1730
   79TCq2    C2 1205   2.577   4.670   1.998 -0.0870  0.6163  0.1256
   79TCq2    C3 1206   2.448   4.660   1.963  0.6523 -0.5140  0.0494
   79TCq2    C4 1207   2.418   4.647   1.833 -0.2699 -0.0670  0.3974
   79TCq2    C5 1208   2.521   4.623   1.743 -0.5924 -0.2916 -0.0387
   79TCq2    C6 1209   2.649   4.632   1.778 -0.1111 -0.0800  0.3744
   79TCq2    C7 1210   2.682   4.664   1.908 -0.0634  0.4780  0.2421
   79TCq2    C8 1211   2.756   4.591   1.682  0.9073  0.2488 -0.2038
   79TCq2    O4 1212   2.856   4.533   1.728 -0.0868  0.5106 -0.1076
   79TCq2    C9 1213   2.279   4.620   1.793 -0.0121  0.6193  0.4500
   79TCq2    O5 1214   2.186   4.687   1.843 -0.0519  0.2245  0.3620
   79TCq2    O6 1215   2.265   4.533   1.700 -0.0251  0.2257 -0.1160
   79TCq2    H2 1216   2.364   4.669   2.032 -0.2453 -1.3660 -0.9487
   79TCq2    H3 1217   2.486   4.587   1.647 -1.3036 -2.1349  0.9172
   79TCq2    H4 1218   2.788   4.654   1.928  0.3729 -0.2981 -2.4224
   80MPD2     C 1219   0.138   2.742  12.537 -0.4574  0.5635  0.2349
   80MPD2    C1 1220   0.034   2.813  12.481 -0.1909 -0.6626  0.1108
   80MPD2    C2 1221   4.649   2.845  12.560  1.0128 -0.0090  0.5293
   80MPD2    C3 1222   4.633   2.791  12.689  0.0675 -1.1187  0.0015
   80MPD2    C4 1223   0.016   2.714  12.737  1.0182 -0.6805 -0.0315
   80MPD2    C5 1224   0.131   2.699  12.668 -0.6914  0.0321 -0.7118
   80MPD2     H 1225   4.584   2.926  12.529  2.6873  1.5235  1.0216
   80MPD2    H1 1226   0.012   2.659  12.831  1.3075  1.7605  1.4205
   80MPD2    H2 1227   0.231   2.712  12.489 -0.0040  2.5221 -0.0898
   80MPD2    H3 1228   0.205   2.634  12.714 -2.1896 -1.5929 -0.5835
   80MPD2     N 1229   4.516   2.815  12.773 -0.2640 -0.0667  0.3239
   80MPD2    H5 1230   4.516   2.770  12.864 -0.2598 -1.0284 -0.1607
   80MPD2    N1 1231   0.042   2.854  12.342 -0.2742 -0.1604 -0.6552
   80MPD2    H7 1232   4.687   2.907  12.308 -0.4495  1.5932  2.5030
   81TCq2    C1 1233   0.148   2.818  12.257 -0.5031 -0.2099  0.2308
   81TCq2    O2 1234   0.260   2.772  12.279  0.7721 -0.3357 -0.4413
   81TCq2    C2 1235   0.120   2.832  12.116 -0.7128 -0.0008 -0.6909
   81TCq2    C3 1236   0.212   2.881  12.030 -0.1167  1.0059  0.3029
   81TCq2    C4 1237   0.177   2.940  11.915  0.0143  0.3925 -0.7554
   81TCq2    C5 1238   0.048   2.919  11.871  0.1587  0.9860 -0.8678
   81TCq2    C6 1239   4.682   2.858  11.941 -0.1370 -0.4692  0.6298
   81TCq2    C7 1240   4.713   2.819  12.068  0.2158  0.3189 -0.1897
   81TCq2    C8 1241   4.559   2.817  11.879  0.0734  0.1937  0.0406
   81TCq2    O4 1242   4.510   2.901  11.805  0.6425  0.2280 -0.4798
   81TCq2    C9 1243   0.273   3.009  11.837 -0.7783 -0.5461  0.8304
   81TCq2    O5 1244   0.229   3.098  11.762 -0.6694 -0.0713 -0.6299
   81TCq2    O6 1245   0.395   2.981  11.852 -0.7801  0.4302 -0.1389
   81TCq2    H2 1246   0.306   2.900  12.080  0.2885  0.7690 -0.3854
   81TCq2    H3 1247   0.038   2.949  11.767  0.2397  2.0699 -0.5708
   81TCq2    H4 1248   4.635   2.779  12.131  0.2678  0.0669 -0.2829
   82MPD2     C 1249   3.229   2.902  10.474 -0.0727  0.8080  0.2215
   82MPD2    C1 1250   3.202   2.765  10.468 -0.1476 -0.2180 -0.4226
   82MPD2    C2 1251   3.255   2.678  10.562  0.3831  0.1451  0.6982
   82MPD2    C3 1252   3.345   2.724  10.661 -0.0637 -0.0984  0.8784
   82MPD2    C4 1253   3.365   2.864  10.673 -0.3310  0.7915 -0.1962
   82MPD2    C5 1254   3.307   2.946  10.577  0.2390  0.1287  0.7064
   82MPD2     H 1255   3.224   2.574  10.568  2.2208 -0.2576  3.2776
   82MPD2    H1 1256   3.430   2.904  10.750 -0.5991 -1.7333  1.3438
   82MPD2    H2 1257   3.186   2.978  10.410 -0.0734  0.1291 -0.5885
   82MPD2    H3 1258   3.325   3.051  10.593  0.2945  0.0149  1.4112
   82MPD2     N 1259   3.413   2.641  10.757  0.0144 -0.6396  0.6502
   82MPD2    H5 1260   3.438   2.695  10.839  1.5511 -1.0997  0.4802
   82MPD2    N1 1261   3.117   2.721  10.367  0.4035 -0.0902  1.0102
   82MPD2    H7 1262   3.083   2.795  10.307  0.0751 -1.4987 -0.5551
   83TCq2    C1 1263   3.398   2.504  10.766 -0.6575 -0.7121  0.1987
   83TCq2    O2 1264   3.354   2.428  10.684 -0.0269 -0.0361  0.0387
   83TCq2    C2 1265   3.408   2.451  10.901  0.2611 -0.6470 -0.5227
   83TCq2    C3 1266   3.448   2.549  10.994 -0.4037 -0.4117  0.1339
   83TCq2    C4 1267   3.397   2.530  11.120 -0.3256  0.3436  0.3413
   83TCq2    C5 1268   3.320   2.423  11.154 -0.2215  0.3973  0.2171
   83TCq2    C6 1269   3.294   2.322  11.062  0.1950 -0.3133 -0.2149
   83TCq2    C7 1270   3.342   2.338  10.932  0.0769 -0.1442  0.0558
   83TCq2    C8 1271   3.226   2.194  11.109 -0.1266  0.3682  0.4289
   83TCq2    O4 1272   3.166   2.201  11.215 -0.0883 -0.5378 -0.2363
   83TCq2    C9 1273   3.428   2.640  11.212 -0.9461  0.6586  0.3877
   83TCq2    O5 1274   3.354   2.648  11.310 -0.9954  0.5689  0.0861
   83TCq2    O6 1275   3.523   2.719  11.180  0.1370 -0.1526  0.1145
   83TCq2    H2 1276   3.511   2.632  10.965 -1.0702 -0.4500 -1.4367
   83TCq2    H3 1277   3.289   2.421  11.258 -1.5151  1.5295 -0.1442
   83TCq2    H4 1278   3.314   2.270  10.853  0.3786 -0.1593 -0.0358
   84TCq2    C1 1279   4.026   1.133  10.150 -0.4777 -0.1885  0.0332
   84TCq2    O2 1280   4.046   1.019  10.196  0.0655 -0.0481 -0.2671
   84TCq2    C2 1281   4.054   1.240  10.231 -0.5679 -0.0257 -0.3567
   84TCq2    C3 1282   4.120   1.347  10.183  0.2072  0.6812 -0.3720
   84TCq2    C4 1283   4.153   1.456  10.262 -0.9571 -0.0825  1.5342
   84TCq2    C5 1284   4.110   1.461  10.387 -0.5681 -0.1256  0.1837
   84TCq2    C6 1285   4.051   1.347  10.436 -0.1832 -0.6145  0.5642
   84TCq2    C7 1286   4.029   1.232  10.365  0.9683 -0.0245 -0.5116
   84TCq2    C8 1287   4.042   1.344  10.580 -0.0674 -0.5249 -0.9518
   84TCq2    O4 1288   4.071   1.443  10.645  0.3656 -0.5149  0.9246
   84TCq2    C9 1289   4.242   1.561  10.212 -0.3337 -0.2243  0.4754
   84TCq2    O5 1290   4.283   1.635  10.306  0.2665 -0.1135  0.1220
   84TCq2    O6 1291   4.247   1.575  10.088 -0.0684  0.0731  0.2850
   84TCq2    H2 1292   4.161   1.343  10.083 -0.1532  0.6494 -0.5175
   84TCq2    H3 1293   4.138   1.543  10.452  1.4833 -0.5455 -0.1843
   84TCq2    H4 1294   3.983   1.139  10.398  0.5964  0.1942 -0.4078
   85MPD2     C 1295   0.442   4.160  15.933  0.4782 -0.5912 -0.2582
   85MPD2    C1 1296   0.347   4.154  15.835 -0.2820  0.3051 -0.1800
   85MPD2    C2 1297   0.348   4.255  15.739  0.1001  0.0021 -0.0975
   85MPD2    C3 1298   0.421   4.367  15.765  0.0159  0.3339  0.0425
   85MPD2    C4 1299   0.500   4.381  15.879  0.0061 -0.3021 -0.8498
   85MPD2    C5 1300   0.521   4.266  15.957  0.2428 -0.1993 -0.4182
   85MPD2     H 1301   0.285   4.242  15.652 -2.4188  0.2469  1.7028
   85MPD2    H1 1302   0.558   4.472  15.893  1.3031 -1.7065  2.9470
   85MPD2    H2 1303   0.455   4.077  16.001  1.3529 -1.9878 -2.1331
   85MPD2    H3 1304   0.603   4.266  16.029 -0.1906  4.0193  0.0794
   85MPD2     N 1305   0.406   4.480  15.675 -0.1160  0.5752  0.0623
   85MPD2    H5 1306   0.339   4.467  15.600  1.9413 -1.0620 -1.4938
   85MPD2    N1 1307   0.254   4.048  15.818 -0.3047 -0.4759  0.6650
   85MPD2    H7 1308   0.204   4.043  15.730  1.3347  1.4633 -0.3791
   86TCq2    C1 1309   0.483   4.598  15.676  0.0575  0.2041  0.2538
   86TCq2    O2 1310   0.541   4.646  15.772  0.3147  0.4461 -0.2827
   86TCq2    C2 1311   0.445   4.691  15.573  0.2816 -0.0414  0.5099
   86TCq2    C3 1312   0.456   0.100  15.595 -0.5912 -0.0207  0.3229
   86TCq2    C4 1313   0.427   0.185  15.489  0.0339 -0.1963  0.6981
   86TCq2    C5 1314   0.389   0.139  15.364 -0.9688  0.3671 -0.1943
   86TCq2    C6 1315   0.385   0.007  15.344 -0.6622  0.1936  0.0898
   86TCq2    C7 1316   0.408   4.646  15.447  0.1757 -0.1785 -0.1314
   86TCq2    C8 1317   0.337   4.670  15.220 -0.4992  0.2397 -0.8824
   86TCq2    O4 1318   0.328   4.546  15.220 -0.4911  0.4133  0.1460
   86TCq2    C9 1319   0.456   0.323  15.502  0.1712  0.1099  0.4424
   86TCq2    O5 1320   0.483   0.374  15.618  0.1420 -1.0660 -0.0156
   86TCq2    O6 1321   0.428   0.391  15.401  0.1441 -0.3922 -0.0709
   86TCq2    H2 1322   0.512   0.135  15.681  1.8435 -0.1734 -1.2105
   86TCq2    H3 1323   0.382   0.214  15.286 -0.3732  1.9843  1.3046
   86TCq2    H4 1324   0.409   4.540  15.422  3.5400  0.1567 -1.4052
   87MPD2     C 1325   3.118   3.383   1.257  0.1043  0.4168  0.0726
   87MPD2    C1 1326   3.058   3.337   1.138  0.1209 -0.1013  0.3298
   87MPD2    C2 1327   2.989   3.431   1.061 -0.1128  0.7341  0.0781
   87MPD2    C3 1328   2.979   3.563   1.107 -0.1126 -0.1869 -0.1511
   87MPD2    C4 1329   3.032   3.591   1.232 -0.5426 -0.1508  0.0392
   87MPD2    C5 1330   3.101   3.503   1.304 -0.1673 -0.1138  0.3361
   87MPD2     H 1331   2.961   3.401   0.961  1.3743 -1.9082  0.4505
   87MPD2    H1 1332   3.033   3.691   1.274 -0.5000  0.0159 -0.3590
   87MPD2    H2 1333   3.182   3.315   1.311 -0.6451 -0.2920  0.0661
   87MPD2    H3 1334   3.150   3.535   1.395  1.4434  1.8701 -1.2236
   87MPD2     N 1335   2.903   3.663   1.044  0.2381  0.0718  0.7022
   87MPD2    H5 1336   2.913   3.756   1.084 -1.6442 -0.5539  2.5918
   87MPD2    N1 1337   3.075   3.202   1.103  0.1132  0.3444 -0.6553
   87MPD2    H7 1338   3.116   3.144   1.175 -1.3195 -0.6829 -0.6821
   88TCq2    C1 1339   3.052   3.143   0.984  0.7944 -0.2708 -0.3944
   88TCq2    O2 1340   3.030   3.191   0.873 -0.2465  0.0242  0.3972
   88TCq2    C2 1341   3.065   2.998   0.990 -0.3872  0.4484 -0.8225
   88TCq2    C3 1342   3.073   2.933   1.111  0.5325  0.2911  0.1313
   88TCq2    C4 1343   3.097   2.796   1.111 -0.2098 -1.1819  0.4221
   88TCq2    C5 1344   3.112   2.724   0.992 -0.1629  0.3175  0.4114
   88TCq2    C6 1345   3.104   2.793   0.874  0.4500  0.9866  0.8173
   88TCq2    C7 1346   3.079   2.932   0.869 -0.0895 -0.3987  0.4978
   88TCq2    C8 1347   3.076   2.724   0.750 -0.6970  0.0726  0.3186
   88TCq2    O4 1348   3.073   2.792   0.648 -0.1694 -0.2565 -0.2199
   88TCq2    C9 1349   3.110   2.718   1.231 -0.6811 -0.6754  0.3901
   88TCq2    O5 1350   3.110   2.595   1.226 -0.4624 -0.4647 -0.2534
   88TCq2    O6 1351   3.124   2.777   1.341 -0.2263  0.3457 -0.3246
   88TCq2    H2 1352   3.054   2.986   1.204 -0.9035  0.3190 -0.1821
   88TCq2    H3 1353   3.144   2.621   0.999 -0.8592  0.0723 -0.0588
   88TCq2    H4 1354   3.087   2.990   0.778 -0.7113 -1.5004 -0.2599
   89MPD2     C 1355   3.381   0.481   1.479 -0.2939 -0.1169 -0.5251
   89MPD2    C1 1356   3.329   0.587   1.549  0.4637  0.2500 -0.1408
   89MPD2    C2 1357   3.414   0.685   1.602 -0.0810  0.1496 -0.5552
   89MPD2    C3 1358   3.548   0.685   1.579 -0.2239 -0.6779 -0.5000
   89MPD2    C4 1359   3.599   0.582   1.503  0.4911  0.2569 -0.2306
   89MPD2    C5 1360   3.517   0.482   1.452  1.8307 -0.4813 -0.3191
   89MPD2     H 1361   3.368   0.771   1.649 -0.8605 -0.6569  0.1480
   89MPD2    H1 1362   3.704   0.572   1.478  0.5473  0.5531 -0.1151
   89MPD2    H2 1363   3.322   0.398   1.441 -1.5562  0.2602  0.6200
   89MPD2    H3 1364   3.556   0.396   1.399  1.3670 -0.7375 -0.2486
   89MPD2     N 1365   3.622   0.798   1.623  1.1131 -0.3859  0.0209
   89MPD2    H5 1366   3.569   0.866   1.674  0.3928  2.1559 -4.1317
   89MPD2    N1 1367   3.193   0.600   1.584  0.0886  0.0556  0.1686
   89MPD2    H7 1368   3.160   0.679   1.638 -1.7538 -0.6129  0.0241
   90TCq2    C1 1369   3.762   0.817   1.619  0.7047 -0.0127 -0.2394
   90TCq2    O2 1370   3.848   0.734   1.587 -0.0103 -0.4159  0.0182
   90TCq2    C2 1371   3.812   0.951   1.649 -0.0735  0.8715  0.2691
   90TCq2    C3 1372   3.947   0.956   1.660 -0.7644  0.6243 -0.1073
   90TCq2    C4 1373   4.011   1.072   1.620 -0.0885  0.5867 -0.0178
   90TCq2    C5 1374   3.934   1.176   1.580 -0.4539  0.4254  0.0322
   90TCq2    C6 1375   3.799   1.172   1.573  0.2852  0.1110  0.2312
   90TCq2    C7 1376   3.741   1.061   1.618  0.2143  0.4395 -0.5985
   90TCq2    C8 1377   3.728   1.277   1.494  0.6529  0.3982  0.5311
   90TCq2    O4 1378   3.606   1.267   1.497 -0.0260  0.5487  0.0944
   90TCq2    C9 1379   4.155   1.082   1.620 -0.6346  0.8318 -0.1347
   90TCq2    O5 1380   4.221   0.991   1.673 -0.3896  0.0332  0.0991
   90TCq2    O6 1381   4.209   1.166   1.544 -0.4015 -0.1684 -0.1955
   90TCq2    H2 1382   4.009   0.871   1.688 -1.0599  0.5430  0.2998
   90TCq2    H3 1383   3.990   1.266   1.563  1.5001 -0.6029  1.0177
   90TCq2    H4 1384   3.637   1.055   1.589  0.1491 -0.1961 -0.2392
   91TMC2    C1 1385   1.028   0.524  15.581  0.0761 -0.1126  0.0060
   91TMC2    C2 1386   0.933   0.464  15.500 -0.4074 -0.1970 -0.5498
   91TMC2    C3 1387   0.810   0.514  15.490  0.1508 -0.5905  0.4316
   91TMC2    C4 1388   1.001   0.638  15.646  0.1122  0.2020  0.5329
   91TMC2    C5 1389   0.871   0.683  15.636  0.8488 -0.1331  0.8000
   91TMC2    C6 1390   0.774   0.629  15.553  0.7580  0.6676  0.0765
   91TMC2     C 1391   1.160   0.462  15.596 -0.1307 -0.6297 -0.3879
   91TMC2     O 1392   1.177   0.359  15.531 -0.0909 -0.0774  0.1984
   91TMC2     H 1393   0.950   0.372  15.444 -0.3032 -0.2824 -0.3766
   91TMC2    H1 1394   1.081   0.688  15.699  1.2385 -0.3287 -0.6651
   91TMC2    H2 1395   0.677   0.674  15.539 -0.0139 -0.2823  2.3552
   91TMC2    C7 1396   0.830   0.775  15.741 -0.1462 -0.6263  0.3305
   91TMC2    C8 1397   0.722   0.462  15.383  0.2216 -0.1431 -0.2341
   91TMC2    O1 1398   0.912   0.780  15.831 -0.7929 -0.4124 -0.6065
   91TMC2    O2 1399   0.649   0.539  15.320 -0.2431  0.7451  0.2858
   91TMC2    O5 1400   0.751   0.341  15.338 -0.2027 -0.3094  0.0634
   91TMC2    H5 1401   0.803   0.282  15.396  0.3080  0.3992  0.3324
   92MPD2     C 1402   1.404   0.357  15.751 -0.2193 -0.0346  0.3504
   92MPD2    C1 1403   1.324   0.467  15.787 -0.0958  0.0988 -0.5781
   92MPD2    C2 1404   1.356   0.542  15.905  0.1390 -0.0835 -0.8403
   92MPD2    C3 1405   1.460   0.512  15.993  0.6901  0.6187  0.2254
   92MPD2    C4 1406   1.536   0.402  15.949  0.5653  0.0182 -0.1576
   92MPD2    C5 1407   1.510   0.329  15.833  0.4730 -0.2262  0.4536
   92MPD2     H 1408   1.293   0.627  15.931  1.6295  1.3677 -1.9308
   92MPD2    H1 1409   1.616   0.368  16.014  0.8808  1.3874  0.1905
   92MPD2    H2 1410   1.393   0.304  15.657  0.2388  2.4597 -1.1021
   92MPD2    H3 1411   1.571   0.239  15.824  0.7594 -0.0818  0.9696
   92MPD2     N 1412   1.485   0.587  16.105  0.0271 -0.2185 -0.2733
   92MPD2    H5 1413   1.438   0.676  16.111 -0.6041 -0.6365  0.8660
   92MPD2    N1 1414   1.211   0.513  15.713  0.7613  0.1985 -0.4783
   92MPD2    H7 1415   1.162   0.591  15.756 -1.7753 -2.4713  1.3859
   93MPD2     C 1416   1.536   0.382  13.316 -0.1654 -0.6214  0.4142
   93MPD2    C1 1417   1.494   0.430  13.437 -0.1768 -0.1876 -0.4440
   93MPD2    C2 1418   1.356   0.448  13.456 -0.2915  0.6089 -0.8657
   93MPD2    C3 1419   1.265   0.426  13.355 -0.0990 -0.2768 -0.4192
   93MPD2    C4 1420   1.310   0.365  13.242 -0.3096  0.2109 -0.5504
   93MPD2    C5 1421   1.444   0.351  13.226 -0.8251  0.3441  0.0780
   93MPD2     H 1422   1.325   0.496  13.548  1.0654  0.6549 -0.4389
   93MPD2    H1 1423   1.237   0.334  13.168  1.3497  0.7890 -2.4272
   93MPD2    H2 1424   1.639   0.360  13.293  1.1812  1.8536  4.1237
   93MPD2    H3 1425   1.479   0.302  13.136 -2.2171 -1.0920  0.3212
   93MPD2     N 1426   1.125   0.423  13.375 -0.7043 -0.2677  0.4084
   93MPD2    H5 1427   1.057   0.404  13.302 -0.6990  1.4019 -0.0365
   93MPD2    N1 1428   1.581   0.468  13.543  0.4641 -0.1067  0.3625
   93MPD2    H7 1429   1.543   0.508  13.628  1.5825 -0.9723  1.2742
   94TCq2    C1 1430   1.717   0.440  13.542 -0.3605 -0.2842 -1.0948
   94TCq2    O2 1431   1.785   0.367  13.474 -0.0415  0.4135  0.4990
   94TCq2    C2 1432   1.780   0.484  13.662 -0.5675 -0.1732 -1.1302
   94TCq2    C3 1433   1.709   0.543  13.761  0.3826 -0.4026  0.7442
   94TCq2    C4 1434   1.781   0.598  13.861  0.5286 -0.5371  0.7147
   94TCq2    C5 1435   1.918   0.599  13.871  0.0602  0.0608  0.1249
   94TCq2    C6 1436   1.983   0.534  13.761  0.2099 -0.2622 -0.5517
   94TCq2    C7 1437   1.917   0.472  13.660 -0.0914  0.3391  0.9777
   94TCq2    C8 1438   2.123   0.545  13.739 -0.7668  0.1323  0.5417
   94TCq2    O4 1439   2.175   0.466  13.658  0.0037 -0.4839 -0.5926
   94TCq2    C9 1440   1.701   0.651  13.972 -0.6605 -0.2140  0.3489
   94TCq2    O5 1441   1.577   0.664  13.945 -0.4497  0.1627  0.1051
   94TCq2    O6 1442   1.759   0.711  14.062 -0.0332 -0.2103  0.1757
   94TCq2    H2 1443   1.601   0.553  13.763  0.5042  0.4222  3.0176
   94TCq2    H3 1444   1.967   0.631  13.962  2.9586 -1.4895 -0.8904
   94TCq2    H4 1445   1.960   0.439  13.566 -0.1152  0.9799  0.7470
   95TMC2    C1 1446   1.807   3.039  15.304 -0.0486  0.5078 -0.7098
   95TMC2    C2 1447   1.817   3.074  15.436 -0.2354 -0.0063 -0.2205
   95TMC2    C3 1448   1.740   3.174  15.483 -0.2490  0.1186 -0.8089
   95TMC2    C4 1449   1.711   3.099  15.231  0.2449 -0.4328  0.0198
   95TMC2    C5 1450   1.629   3.186  15.290  0.0679  0.4931  0.3270
   95TMC2    C6 1451   1.635   3.231  15.421 -0.4342 -0.3305  0.4856
   95TMC2     C 1452   1.894   2.941  15.253  0.5997  0.7268 -0.1205
   95TMC2     O 1453   1.977   2.897  15.330  0.3170 -0.4211  0.1053
   95TMC2     H 1454   1.899   3.043  15.501  0.5523  1.2819 -0.5938
   95TMC2    H1 1455   1.708   3.077  15.125  1.8042 -0.1541 -0.0801
   95TMC2    H2 1456   1.553   3.275  15.476 -0.3316 -0.3898  0.6838
   95TMC2    C7 1457   1.545   3.272  15.211  0.4265 -0.4638 -0.3625
   95TMC2    C8 1458   1.767   3.213  15.623 -0.6556  0.4673  0.0098
   95TMC2    O1 1459   1.490   3.365  15.262  0.8006 -0.4044 -0.6914
   95TMC2    O2 1460   1.797   3.128  15.706  0.2210 -0.1982  0.6101
   95TMC2    O5 1461   1.710   3.332  15.642  0.1023  0.7831 -0.1314
   95TMC2    H5 1462   1.695   3.388  15.563 -0.7081 -0.4739 -0.8633
   96MPD2     C 1463   2.043   2.598  14.911 -0.3633  0.7453  0.1112
   96MPD2    C1 1464   2.093   2.631  15.035  0.3944 -0.1551 -0.0075
   96MPD2    C2 1465   2.029   2.735  15.110 -0.3382  0.0940  0.3573
   96MPD2    C3 1466   1.918   2.800  15.058  0.4535  0.0231 -0.6698
   96MPD2    C4 1467   1.872   2.767  14.932  0.0973 -0.4356  0.2803
   96MPD2    C5 1468   1.931   2.664  14.863  0.2655 -0.6421  0.0162
   96MPD2     H 1469   2.077   2.765  15.202 -0.4352 -1.4290  0.9009
   96MPD2    H1 1470   1.780   2.807  14.892 -0.6936 -1.8402  0.7085
   96MPD2    H2 1471   2.087   2.515  14.858  0.8759  0.0729  2.2094
   96MPD2    H3 1472   1.893   2.630  14.767 -0.0918  1.2049 -0.4978
   96MPD2     N 1473   1.847   2.894  15.131 -0.4516  0.1226  0.1578
   96MPD2    H5 1474   1.764   2.935  15.089 -1.5605 -1.3732  0.8760
   96MPD2    N1 1475   2.211   2.561  15.072 -0.1694 -0.2815 -0.1680
   96MPD2    H7 1476   2.249   2.500  15.001 -1.7201 -0.1063 -1.1402
   97MPD2     C 1477   4.458   4.662   0.633 -0.0037 -0.2244 -0.0964
   97MPD2    C1 1478   4.323   4.668   0.617  0.2354 -0.3739 -0.6663
   97MPD2    C2 1479   4.271   4.696   0.493 -0.1627 -0.1097 -0.5875
   97MPD2    C3 1480   4.348   4.694   0.380  0.6903 -0.3299 -0.4689
   97MPD2    C4 1481   4.486   4.678   0.391 -0.8454 -0.0365 -0.2240
   97MPD2    C5 1482   4.536   4.658   0.516  0.2073  0.1500  0.2310
   97MPD2     H 1483   4.168   0.005   0.489  0.2570  1.2256 -0.4713
   97MPD2    H1 1484   4.551   4.686   0.305 -0.4697  0.0725  0.0713
   97MPD2    H2 1485   4.504   4.666   0.731  0.3139 -1.1279 -0.2125
   97MPD2    H3 1486   4.644   4.661   0.520  0.3063 -3.6676 -0.1051
   97MPD2     N 1487   4.299   4.718   0.251  0.0062 -0.5599  0.0181
   97MPD2    H5 1488   4.370   4.724   0.178 -0.5500  0.3178 -0.4618
   97MPD2    N1 1489   4.254   4.660   0.740 -0.3957  0.0224  0.4104
   97MPD2    H7 1490   4.307   4.650   0.826  0.4574  1.6904  0.0865
   98TCq2    C1 1491   4.172   0.025   0.216 -0.1775 -0.0435 -0.0314
   98TCq2    O2 1492   4.069   0.006   0.278  0.4071 -0.2888  0.2696
   98TCq2    C2 1493   4.167   0.070   0.080  0.5022 -0.4082 -0.4818
   98TCq2    C3 1494   4.041   0.067   0.017  0.1635  0.8464 -0.2452
   98TCq2    C4 1495   4.016   0.160  17.622  0.2262  0.2104  0.3273
   98TCq2    C5 1496   4.114   0.248  17.575 -0.6525  0.5740  1.1452
   98TCq2    C6 1497   4.232   0.238  17.640  0.1063 -1.5200 -0.0136
   98TCq2    C7 1498   4.254   0.158   0.046 -0.1686  0.1291 -0.1555
   98TCq2    C8 1499   4.331   0.339  17.627 -0.4160  0.1207 -0.1047
   98TCq2    O4 1500   4.445   0.311  17.661 -0.5713  0.6363 -0.3405
   98TCq2    C9 1501   3.891   0.157  17.551 -0.4635  0.5305  0.2501
   98TCq2    O5 1502   3.789   0.110  17.613  0.2026  0.4426  0.5392
   98TCq2    O6 1503   3.889   0.227  17.445  0.1052 -0.5592 -0.6682
   98TCq2    H2 1504   3.966   4.724   0.056  1.3294  0.0981  0.6898
   98TCq2    H3 1505   4.090   0.322  17.499  0.0274  0.6629  1.0171
   98TCq2    H4 1506   4.354   0.168   0.088  0.9831  0.6575 -2.9715
   99MPD2     C 1507   3.116   2.350   2.022  0.3190  0.0334  0.1806
   99MPD2    C1 1508   3.007   2.278   1.985 -0.3299 -0.4928  0.0457
   99MPD2    C2 1509   3.000   2.221   1.860  0.3123  0.7625 -0.1611
   99MPD2    C3 1510   3.111   2.226   1.779  0.1398  0.1282  0.3205
   99MPD2    C4 1511   3.221   2.291   1.826  0.5725 -0.0866 -0.3360
   99MPD2    C5 1512   3.226   2.354   1.946  0.4426  0.1469 -0.2064
   99MPD2     H 1513   2.919   2.155   1.830 -0.5445  1.0303  1.5694
   99MPD2    H1 1514   3.317   2.288   1.777  1.3045  1.3216  1.0255
   99MPD2    H2 1515   3.125   2.398   2.118 -2.2635 -0.0776  0.4809
   99MPD2    H3 1516   3.312   2.412   1.976 -0.5995  0.0882  2.8944
   99MPD2     N 1517   3.113   2.150   1.662  0.5586 -0.4340  0.4975
   99MPD2    H5 1518   3.026   2.099   1.647  1.0304 -1.2170  0.4927
   99MPD2    N1 1519   2.891   2.261   2.070  0.2768  0.4134  0.0366
   99MPD2    H7 1520   2.807   2.215   2.035 -0.0022  1.4809 -0.6987
  100TCq2    C1 1521   2.882   2.305   2.198 -0.4274 -0.4170 -0.2241
  100TCq2    O2 1522   2.965   2.362   2.268 -0.5567 -0.1126  0.0049
  100TCq2    C2 1523   2.766   2.254   2.271 -0.2451  0.6222  0.0328
  100TCq2    C3 1524   2.739   2.316   2.391  0.1824 -0.4988  0.4463
  100TCq2    C4 1525   2.636   2.267   2.470  0.5386 -0.3662 -0.5858
  100TCq2    C5 1526   2.570   2.157   2.425  0.4736  0.1769  0.7581
  100TCq2    C6 1527   2.596   2.098   2.307  0.3069  0.2521  0.3727
  100TCq2    C7 1528   2.689   2.151   2.218  0.9149  0.4754  0.2933
  100TCq2    C8 1529   2.530   1.974   2.268 -0.6285  0.3787 -0.3966
  100TCq2    O4 1530   2.499   1.899   2.359 -0.1626  0.5579  0.0116
  100TCq2    C9 1531   2.603   2.331   2.596  0.3733  0.2098  0.0489
  100TCq2    O5 1532   2.498   2.287   2.651 -0.6017 -0.5243  0.0658
  100TCq2    O6 1533   2.682   2.407   2.655 -0.2489 -0.1941  0.0588
  100TCq2    H2 1534   2.782   2.407   2.431  1.3330 -0.9041  0.1099
  100TCq2    H3 1535   2.495   2.118   2.493  0.0758 -2.7273 -1.3747
  100TCq2    H4 1536   2.713   2.099   2.127  0.4014  0.6806  0.0439
  101MPD2     C 1537   3.546   2.877  12.836 -0.4566 -0.4321 -0.3447
  101MPD2    C1 1538   3.452   2.928  12.926 -0.2227 -0.1786  0.1653
  101MPD2    C2 1539   3.398   2.852  13.024  0.1871 -0.5644  0.1240
  101MPD2    C3 1540   3.446   2.716  13.040 -0.2277  0.8224 -0.2780
  101MPD2    C4 1541   3.537   2.667  12.953 -0.0827  0.6962 -0.6381
  101MPD2    C5 1542   3.585   2.747  12.851 -0.2625 -0.5628  0.0652
  101MPD2     H 1543   3.333   2.898  13.098 -0.6455  0.1957 -1.0674
  101MPD2    H1 1544   3.572   2.564  12.943 -2.2457 -0.0234 -0.7715
  101MPD2    H2 1545   3.580   2.935  12.750  2.0225  1.0651  1.6563
  101MPD2    H3 1546   3.652   2.706  12.776  0.0393  2.9354 -1.5716
  101MPD2     N 1547   3.403   2.647  13.158 -0.1162 -0.1450  0.7431
  101MPD2    H5 1548   3.341   2.693  13.224  1.1866  0.5264  1.5043
  101MPD2    N1 1549   3.434   3.067  12.917  0.1212 -0.3019  0.3181
  101MPD2    H7 1550   3.480   3.108  12.837  0.8573 -2.2832 -0.2675
  102TCq2    C1 1551   3.578   3.372  12.665 -0.5802  0.1955 -0.6581
  102TCq2    O2 1552   3.664   3.295  12.702  0.0028 -0.1300 -0.2514
  102TCq2    C2 1553   3.467   3.375  12.755  1.0735  0.4099 -0.8140
  102TCq2    C3 1554   3.351   3.433  12.720  0.2557 -0.3441 -0.1531
  102TCq2    C4 1555   3.240   3.411  12.794  0.2362  0.4960 -1.0852
  102TCq2    C5 1556   3.244   3.330  12.900  0.9909 -0.3052 -0.6062
  102TCq2    C6 1557   3.366   3.291  12.948 -0.0862 -0.7713 -0.4624
  102TCq2    C7 1558   3.479   3.307  12.870 -0.8527 -0.0512 -0.2650
  102TCq2    C8 1559   3.362   3.150  13.001  0.3126  0.4436 -1.1011
  102TCq2    O4 1560   3.288   3.118  13.095  0.3305  0.4472 -0.5900
  102TCq2    C9 1561   3.119   3.469  12.745 -0.1473  0.0374 -0.7258
  102TCq2    O5 1562   3.117   3.517  12.627 -0.1606 -0.2711 -0.2975
  102TCq2    O6 1563   3.019   3.440  12.813 -0.1083  0.3280 -0.0759
  102TCq2    H2 1564   3.344   3.504  12.638  0.2347 -0.0604  0.0957
  102TCq2    H3 1565   3.157   3.333  12.966  1.6695 -1.7326  0.3600
  102TCq2    H4 1566   3.574   3.263  12.898 -2.4456 -2.2083  1.7278
  103TMC2    C1 1567   1.351   3.310  12.469  0.6401 -0.7314  0.1741
  103TMC2    C2 1568   1.409   3.422  12.517  0.4782 -0.1498 -0.4751
  103TMC2    C3 1569   1.370   3.458  12.642  0.1966  0.2357 -0.2153
  103TMC2    C4 1570   1.253   3.244  12.529 -0.5317 -0.4633  0.5453
  103TMC2    C5 1571   1.215   3.278  12.655  0.6087  0.2423  0.1232
  103TMC2    C6 1572   1.266   3.393  12.712  0.0362 -0.2649 -0.1957
  103TMC2     C 1573   1.407   3.246  12.348 -0.4573 -0.2208  0.1134
  103TMC2     O 1574   1.332   3.170  12.284  0.7231 -0.3915  0.4566
  103TMC2     H 1575   1.490   3.472  12.466  0.8184 -0.0394  0.1860
  103TMC2    H1 1576   1.211   3.160  12.474 -1.6910 -0.4625  1.4213
  103TMC2    H2 1577   1.229   3.426  12.808 -1.3625  1.5364 -1.3552
  103TMC2    C7 1578   1.177   3.175  12.745  0.2345  0.6337  0.1497
  103TMC2    C8 1579   1.437   3.573  12.705  0.4428  0.2039 -0.1643
  103TMC2    O1 1580   1.227   3.185  12.853 -0.0558  0.0967 -0.7770
  103TMC2    O2 1581   1.375   3.632  12.792 -0.5893  0.1896 -0.1037
  103TMC2    O5 1582   1.568   3.541  12.693 -0.2697 -0.1712  0.1600
  103TMC2    H5 1583   1.586   3.460  12.641 -1.5165 -0.7342  0.5916
  104MPD2     C 1584   1.751   3.239  12.201  0.1514 -0.2302 -0.6426
  104MPD2    C1 1585   1.617   3.220  12.210 -0.1831 -0.0582 -0.7512
  104MPD2    C2 1586   1.557   3.131  12.115 -0.4062  0.2140  0.2570
  104MPD2    C3 1587   1.631   3.084  12.012  0.0919  0.2754  0.4557
  104MPD2    C4 1588   1.763   3.119  12.004  0.2764 -0.9421 -0.0221
  104MPD2    C5 1589   1.831   3.187  12.101 -0.2151 -0.4346  0.7622
  104MPD2     H 1590   1.451   3.107  12.110 -0.1585 -0.8771  0.4440
  104MPD2    H1 1591   1.833   3.097  11.924  0.6719 -1.2573  0.4126
  104MPD2    H2 1592   1.805   3.308  12.265  1.7468 -0.4385 -1.7652
  104MPD2    H3 1593   1.935   3.217  12.092 -0.4329 -0.7930 -2.7591
  104MPD2     N 1594   1.565   3.008  11.917  0.2868  0.5962 -0.1465
  104MPD2    H5 1595   1.469   2.992  11.944 -0.6214  0.3424 -3.4852
  104MPD2    N1 1596   1.541   3.270  12.321  0.2891 -0.1055  0.4531
  104MPD2    H7 1597   1.597   3.325  12.385 -0.8970  1.3081  0.2786
  105MPD2     C 1598   3.841   2.474  17.178 -0.1237 -0.2035 -0.5090
  105MPD2    C1 1599   3.748   2.575  17.170 -0.7591  0.8084  0.1662
  105MPD2    C2 1600   3.638   2.567  17.254  0.1181  0.0306 -0.0820
  105MPD2    C3 1601   3.618   2.466  17.344  0.1211  0.2219  0.6823
  105MPD2    C4 1602   3.701   2.359  17.345  0.3863 -0.0720  0.4710
  105MPD2    C5 1603   3.823   2.373  17.272  0.3227  0.0897 -0.2913
  105MPD2     H 1604   3.566   2.648  17.254 -1.2769 -1.2032 -0.7146
  105MPD2    H1 1605   3.678   2.275  17.408 -0.5360  0.8663  1.3907
  105MPD2    H2 1606   3.935   2.485  17.125  1.0228 -2.6288  1.0097
  105MPD2    H3 1607   3.891   2.289  17.279 -0.4027 -0.4205  0.6963
  105MPD2     N 1608   3.509   2.489  17.428  0.3226 -0.2757  0.5902
  105MPD2    H5 1609   3.478   2.583  17.451  0.3286  0.0363 -0.6738
  105MPD2    N1 1610   3.750   2.691  17.086 -0.2331  0.2870  0.5999
  105MPD2    H7 1611   3.673   2.755  17.098 -2.1100 -2.0815  1.1433
  106TCq2    C1 1612   3.463   2.405  17.516 -1.2608 -0.1001  0.9191
  106TCq2    O2 1613   3.491   2.286  17.537  0.3909 -0.0225  0.0666
  106TCq2    C2 1614   3.362   2.446  17.601 -0.1426 -0.5423  0.0699
  106TCq2    C3 1615   3.262   2.534  17.549  0.3676  0.1167  0.4082
  106TCq2    C4 1616   3.155   2.571  17.631  0.2631 -0.4394 -0.3213
  106TCq2    C5 1617   3.153   2.524   0.056 -0.5904  0.2278 -0.3235
  106TCq2    C6 1618   3.243   2.438   0.105  0.2083  0.5882 -0.7586
  106TCq2    C7 1619   3.352   2.399   0.031  0.1686  0.5002  0.9044
  106TCq2    C8 1620   3.228   2.366   0.229  0.8418 -0.2229  0.6388
  106TCq2    O4 1621   3.267   2.253   0.248 -0.4078 -0.3488  0.4905
  106TCq2    C9 1622   3.050   2.656  17.573 -0.0268 -0.0993 -0.0706
  106TCq2    O5 1623   3.006   2.747  17.650 -1.0073  0.0941  0.5312
  106TCq2    O6 1624   3.037   2.653  17.450 -0.1255 -0.0498 -0.2626
  106TCq2    H2 1625   3.256   2.560  17.444 -1.6641 -0.3304  0.4187
  106TCq2    H3 1626   3.061   2.532   0.113 -0.7738  1.5748 -0.8197
  106TCq2    H4 1627   3.433   2.338   0.067  0.2726  0.2485  0.2474
  107TMC2    C1 1628   4.134   1.494  11.534  0.3169  0.9198 -0.1880
  107TMC2    C2 1629   4.247   1.555  11.496  0.9996  0.3995  0.5724
  107TMC2    C3 1630   4.296   1.518  11.375 -0.4893 -0.8757 -0.8292
  107TMC2    C4 1631   4.058   1.419  11.450 -0.4257 -0.1209 -0.0825
  107TMC2    C5 1632   4.103   1.393  11.323 -0.0370 -0.2303  0.0242
  107TMC2    C6 1633   4.230   1.436  11.287  0.1209  0.8431 -0.5388
  107TMC2     C 1634   4.071   1.562  11.640 -0.1095 -0.5724  0.2728
  107TMC2     O 1635   4.024   1.495  11.732  0.1146  0.1822 -0.1385
  107TMC2     H 1636   4.283   1.645  11.545  0.1242  0.2474  1.4951
  107TMC2    H1 1637   3.960   1.381  11.478 -1.3434 -0.0566 -3.1350
  107TMC2    H2 1638   4.270   1.408  11.190  0.2138 -0.5853 -0.0992
  107TMC2    C7 1639   4.035   1.290  11.243 -0.3640 -0.3410  0.4608
  107TMC2    C8 1640   4.401   1.607  11.323  0.0192 -0.1553 -0.2275
  107TMC2    O1 1641   3.965   1.210  11.297 -0.1513  0.3657  0.4458
  107TMC2    O2 1642   4.419   1.726  11.360  0.3229  0.3330 -0.5526
  107TMC2    O5 1643   4.443   1.557  11.207  0.4248 -0.3057  0.2195
  107TMC2    H5 1644   4.440   1.459  11.200  2.7158 -0.4392  1.1305
  108MPD2     C 1645   3.996   1.927  11.651  0.0591  0.4770  0.1725
  108MPD2    C1 1646   4.012   1.800  11.703  0.2415 -0.5860  0.2011
  108MPD2    C2 1647   3.983   1.769  11.839 -0.3186  0.1158 -0.4653
  108MPD2    C3 1648   3.938   1.875  11.916 -0.0853  0.3107 -0.0415
  108MPD2    C4 1649   3.916   1.996  11.860  0.0566  0.1499  0.1687
  108MPD2    C5 1650   3.954   2.030  11.734 -1.1202  0.5112  0.9834
  108MPD2     H 1651   4.000   1.673  11.887  1.1135  0.7079  0.2224
  108MPD2    H1 1652   3.866   2.073  11.917 -1.6203 -0.4903 -0.4231
  108MPD2    H2 1653   4.002   1.945  11.544  2.8929 -0.4574  0.1847
  108MPD2    H3 1654   3.934   2.125  11.687 -0.0145  1.1259  1.7519
  108MPD2     N 1655   3.898   1.867  12.054 -0.8019 -0.4564  0.3747
  108MPD2    H5 1656   3.837   1.943  12.086 -1.5117 -1.5382  1.5857
  108MPD2    N1 1657   4.060   1.700  11.610 -0.0323  0.1783 -0.0891
  108MPD2    H7 1658   4.084   1.727  11.515  2.6398  1.3808  0.9174
  109MPD2     C 1659   3.509   3.955   1.841 -0.4775  0.9353  0.6695
  109MPD2    C1 1660   3.568   4.014   1.728 -0.0521 -0.3262 -0.6892
  109MPD2    C2 1661   3.701   4.039   1.731 -0.3653  0.0710 -0.1194
  109MPD2    C3 1662   3.782   3.989   1.835  0.0156 -0.2768  0.5454
  109MPD2    C4 1663   3.716   3.926   1.938  0.1307  0.3791  0.9226
  109MPD2    C5 1664   3.584   3.908   1.945 -0.7948  0.3439 -0.3018
  109MPD2     H 1665   3.744   4.113   1.664  0.0434 -0.2381 -0.1968
  109MPD2    H1 1666   3.771   3.884   2.021 -0.6890  0.2976  1.4176
  109MPD2    H2 1667   3.402   3.936   1.845  0.3384 -3.6728 -0.3507
  109MPD2    H3 1668   3.550   3.847   2.027  1.2089 -1.8802 -1.1409
  109MPD2     N 1669   3.922   4.015   1.822  0.3895 -0.0644  0.4713
  109MPD2    H5 1670   3.946   4.054   1.732  0.8035  0.0169  0.6182
  109MPD2    N1 1671   3.497   4.061   1.620  0.2868 -0.3529  0.4240
  109MPD2    H7 1672   3.396   4.054   1.634  0.2534 -1.6128 -0.5502
  110TCq2    C1 1673   4.008   3.976   1.923  0.7642  0.9756  0.6877
  110TCq2    O2 1674   3.988   3.921   2.031 -0.0680  0.3242 -0.3386
  110TCq2    C2 1675   4.140   4.023   1.891 -0.3280 -0.2778  0.3328
  110TCq2    C3 1676   4.250   3.949   1.930  0.1469  0.5955  0.8933
  110TCq2    C4 1677   4.374   3.996   1.897 -0.2587  0.2395 -0.1255
  110TCq2    C5 1678   4.396   4.096   1.811 -0.8215  0.3807  0.1909
  110TCq2    C6 1679   4.285   4.151   1.760 -0.2515  0.0864  0.2743
  110TCq2    C7 1680   4.160   4.122   1.801 -0.2440  0.3245 -0.2105
  110TCq2    C8 1681   4.283   4.243   1.645 -1.2902 -0.6001 -0.4071
  110TCq2    O4 1682   4.188   4.314   1.608 -0.4615 -0.5208  0.2563
  110TCq2    C9 1683   4.486   3.911   1.925  0.7195  0.2245  0.5806
  110TCq2    O5 1684   4.599   3.947   1.894  0.2293  0.2016  0.2575
  110TCq2    O6 1685   4.465   3.810   2.002  0.1421  0.7491  0.2930
  110TCq2    H2 1686   4.230   3.857   1.982  0.8078 -1.2306 -2.0706
  110TCq2    H3 1687   4.497   4.123   1.783  1.0779 -2.8433  3.9611
  110TCq2    H4 1688   4.080   4.186   1.767 -2.5711 -1.2104  2.3855
  111TMC2    C1 1689   4.378   3.803  11.520 -0.1158 -0.1123  0.1094
  111TMC2    C2 1690   4.483   3.825  11.434  0.1762  0.8355  0.2303
  111TMC2    C3 1691   4.615   3.801  11.476  0.5512 -0.6034  0.5467
  111TMC2    C4 1692   4.403   3.771  11.654 -0.0395 -0.6819 -0.2865
  111TMC2    C5 1693   4.537   3.756  11.686  0.5628 -0.1426  0.5145
  111TMC2    C6 1694   4.644   3.767  11.603 -0.0291  0.0166  1.4413
  111TMC2     C 1695   4.243   3.826  11.476  0.5355  0.2543  0.1041
  111TMC2     O 1696   4.221   3.841  11.353 -0.2942 -0.3924 -0.0831
  111TMC2     H 1697   4.461   3.842  11.329 -0.3565 -1.7986 -0.1019
  111TMC2    H1 1698   4.328   3.758  11.731  1.1904 -4.1957  0.3474
  111TMC2    H2 1699   0.019   3.784  11.641  0.3712  0.7311  0.0743
  111TMC2    C7 1700   4.559   3.715  11.826  0.2445  0.1560 -0.4233
  111TMC2    C8 1701   0.002   3.833  11.382 -0.1882 -0.3176  0.2952
  111TMC2    O1 1702   4.460   3.722  11.897  0.2873 -0.4606 -0.0237
  111TMC2    O2 1703   4.706   3.888  11.270 -0.3347 -0.5586  0.7983
  111TMC2    O5 1704   0.104   3.749  11.415  0.0175 -0.1108 -0.1430
  111TMC2    H5 1705   0.066   3.692  11.485  0.7402 -0.6102 -0.1605
  112MPD2     C 1706   3.738   3.893  11.570 -0.3143 -0.6704  0.1401
  112MPD2    C1 1707   3.813   3.898  11.450 -0.1367  0.0367 -0.0647
  112MPD2    C2 1708   3.953   3.865  11.447 -0.2254 -0.1244 -0.3961
  112MPD2    C3 1709   4.014   3.841  11.571  0.0133  0.1742 -0.5139
  112MPD2    C4 1710   3.944   3.835  11.687  0.8443 -1.1116  0.0729
  112MPD2    C5 1711   3.806   3.864  11.689  0.3909  0.3179 -0.4584
  112MPD2     H 1712   4.010   3.876  11.355 -0.0832  1.3502 -0.1347
  112MPD2    H1 1713   3.985   3.818  11.786 -1.3663 -0.9937  1.0134
  112MPD2    H2 1714   3.634   3.921  11.583 -0.2443  0.8451 -2.6030
  112MPD2    H3 1715   3.748   3.863  11.780 -0.9004  2.2573 -1.2524
  112MPD2     N 1716   4.153   3.819  11.581 -0.4896 -0.3482  0.1207
  112MPD2    H5 1717   4.185   3.811  11.677  1.4301  0.0331 -0.4972
  112MPD2    N1 1718   3.766   3.948  11.328 -0.3005 -0.3628  0.3217
  112MPD2    H7 1719   3.826   3.953  11.246 -1.4377 -0.1173 -0.4968
  113MPD2     C 1720   2.331   2.008   0.947  0.1225 -0.2035 -0.2290
  113MPD2    C1 1721   2.353   2.133   0.895 -0.1135 -0.1698 -0.9546
  113MPD2    C2 1722   2.264   2.180   0.797 -0.5741  0.2314 -0.2058
  113MPD2    C3 1723   2.144   2.111   0.770 -0.2567 -0.0221  0.8374
  113MPD2    C4 1724   2.132   1.990   0.823 -0.3095  1.1565 -0.3120
  113MPD2    C5 1725   2.225   1.939   0.904  0.3589  0.0001  0.1111
  113MPD2     H 1726   2.285   2.273   0.744  0.4312  0.4822  0.6411
  113MPD2    H1 1727   2.055   1.930   0.776  0.0213  0.5623 -0.0938
  113MPD2    H2 1728   2.384   1.957   1.026 -1.6813  0.0240  1.1191
  113MPD2    H3 1729   2.197   1.843   0.948  0.4085 -1.0619 -2.2134
  113MPD2     N 1730   2.049   2.141   0.671  0.5174 -0.2056 -0.5677
  113MPD2    H5 1731   1.990   2.067   0.636 -0.1777 -0.0189  0.2084
  113MPD2    N1 1732   2.470   2.208   0.930  0.7412  0.0340 -0.3839
  113MPD2    H7 1733   2.485   2.286   0.867 -0.1648  1.7543  1.5304
  114TCq2    C1 1734   2.037   2.271   0.632 -1.2274 -0.0544  0.3778
  114TCq2    O2 1735   2.096   2.367   0.678 -0.1382  0.4890  0.4266
  114TCq2    C2 1736   1.938   2.281   0.518 -0.2581 -0.2356  0.3932
  114TCq2    C3 1737   1.946   2.396   0.440  0.4370  0.2212  0.0153
  114TCq2    C4 1738   1.851   2.423   0.346  0.0497  0.1599  0.0928
  114TCq2    C5 1739   1.743   2.339   0.332  0.1412  0.3329  0.9262
  114TCq2    C6 1740   1.738   2.232   0.416  0.1872  0.5882  0.6565
  114TCq2    C7 1741   1.831   2.199   0.514 -0.4434 -0.3978  0.4307
  114TCq2    C8 1742   1.630   2.139   0.391  0.0097  0.1889  0.4449
  114TCq2    O4 1743   1.562   2.159   0.295 -0.4170  0.6567 -0.1509
  114TCq2    C9 1744   1.852   2.535   0.261 -0.4467 -0.2929 -0.0328
  114TCq2    O5 1745   1.762   2.535   0.170  0.1983  0.0471 -0.3845
  114TCq2    O6 1746   1.906   2.638   0.313  0.5035 -0.3061 -0.5435
  114TCq2    H2 1747   2.024   2.469   0.454  0.2818  0.2002  1.0601
  114TCq2    H3 1748   1.658   2.358   0.267 -1.6412 -2.8802  2.3350
  114TCq2    H4 1749   1.819   2.118   0.583  0.4808 -1.3970 -0.5754
  115TMC2    C1 1750   2.447   0.260  17.150 -0.3574  0.0936  0.4159
  115TMC2    C2 1751   2.383   0.235  17.032  0.1814  0.0410 -0.4487
  115TMC2    C3 1752   2.419   0.318  16.927  0.0253 -0.1283 -0.3859
  115TMC2    C4 1753   2.533   0.363  17.173  0.2419 -0.6122  0.1192
  115TMC2    C5 1754   2.566   0.444  17.068  0.7420 -0.1158 -0.1667
  115TMC2    C6 1755   2.506   0.419  16.940  0.0415 -0.0975 -0.1820
  115TMC2     C 1756   2.470   0.140  17.233 -0.1666 -0.2316 -0.2183
  115TMC2     O 1757   2.421   0.035  17.186 -0.0039 -0.6073 -0.7022
  115TMC2     H 1758   2.327   0.144  17.012 -0.8405 -0.0358  2.8674
  115TMC2    H1 1759   2.597   0.378  17.259 -0.5232 -0.1727  0.6083
  115TMC2    H2 1760   2.538   0.473  16.851 -2.1870  0.5010 -0.6186
  115TMC2    C7 1761   2.655   0.551  17.087  0.3570 -0.3109 -0.3933
  115TMC2    C8 1762   2.359   0.299  16.794  0.0372 -0.0938 -0.3162
  115TMC2    O1 1763   2.660   0.607  17.192  0.4771  0.0667  0.0115
  115TMC2    O2 1764   2.332   0.389  16.717 -0.1898 -0.3682 -0.2446
  115TMC2    O5 1765   2.380   0.167  16.769  0.0245 -0.2688 -0.5843
  115TMC2    H5 1766   2.431   0.120  16.839 -0.0843  2.8265  1.5858
  116MPD2     C 1767   2.695   4.618  17.625 -0.0836 -0.0653 -0.5138
  116MPD2    C1 1768   2.635   4.570  17.507  0.0545 -0.0112  0.1504
  116MPD2    C2 1769   2.580   4.665  17.417  0.0872 -0.1168  0.0947
  116MPD2    C3 1770   2.584   0.072  17.445 -0.0866  0.5096 -0.1372
  116MPD2    C4 1771   2.650   0.121  17.559  0.3143  0.4031  0.3351
  116MPD2    C5 1772   2.694   0.029  17.650  1.2835  0.2724  0.6413
  116MPD2     H 1773   2.554   4.635  17.316  1.3698 -0.5249 -0.1073
  116MPD2    H1 1774   2.663   0.225  17.586 -1.0529  0.4733  0.7672
  116MPD2    H2 1775   2.732   4.550   0.001 -1.0968 -0.5196 -0.4285
  116MPD2    H3 1776   2.743   0.071   0.037 -0.1207  1.2637  0.9570
  116MPD2     N 1777   2.541   0.166  17.347  0.0105 -0.3107  0.0395
  116MPD2    H5 1778   2.539   0.266  17.367 -3.3116 -0.6993  1.7831
  116MPD2    N1 1779   2.653   4.440  17.451 -0.1869 -0.3303  0.0617
  116MPD2    H7 1780   2.617   4.420  17.358 -0.0405  0.0396 -0.0742
  117TMC2    C1 1781   1.275   0.773  13.067  0.0001 -0.2193 -0.2219
  117TMC2    C2 1782   1.317   0.681  12.970  0.2865 -0.3534  0.2381
  117TMC2    C3 1783   1.440   0.626  12.985 -0.3598 -0.2491  0.1094
  117TMC2    C4 1784   1.364   0.808  13.172 -0.1814  0.4930 -0.4080
  117TMC2    C5 1785   1.476   0.739  13.190  0.1469 -0.3999 -0.0559
  117TMC2    C6 1786   1.518   0.649  13.095  0.4190 -0.2303 -0.9250
  117TMC2     C 1787   1.132   0.804  13.073  0.1893  0.5159  0.3513
  117TMC2     O 1788   1.063   0.725  13.016 -0.0708 -0.3801  0.0326
  117TMC2     H 1789   1.245   0.654  12.893  0.1247  1.9049 -0.4032
  117TMC2    H1 1790   1.329   0.881  13.244  1.7595  1.1742 -0.1392
  117TMC2    H2 1791   1.614   0.600  13.107  0.2993  0.3316  2.3525
  117TMC2    C7 1792   1.550   0.759  13.316  0.1942 -0.0468 -0.3923
  117TMC2    C8 1793   1.476   0.521  12.894 -0.0037 -0.3058  0.1481
  117TMC2    O1 1794   1.492   0.810  13.407 -0.1309  0.0873  0.0516
  117TMC2    O2 1795   1.576   0.463  12.922 -0.0043  0.1947 -0.3796
  117TMC2    O5 1796   1.462   0.578  12.771 -0.6055 -0.2672  0.5585
  117TMC2    H5 1797   1.380   0.627  12.750 -1.4328 -1.7256  0.4435
  118MPD2     C 1798   1.908   0.691  13.376 -0.6263  0.1316  0.4763
  118MPD2    C1 1799   1.788   0.747  13.400  0.4362  0.0190  0.0668
  118MPD2    C2 1800   1.774   0.839  13.502  0.5117  0.1945 -0.1780
  118MPD2    C3 1801   1.876   0.874  13.583 -0.0002  0.3309  0.0978
  118MPD2    C4 1802   2.001   0.820  13.552 -0.7028 -0.0676 -0.0707
  118MPD2    C5 1803   2.015   0.727  13.452 -0.0847  0.5944 -0.4562
  118MPD2     H 1804   1.677   0.882  13.522 -0.0605 -0.2086 -2.0475
  118MPD2    H1 1805   2.092   0.839  13.608 -0.0789  0.7699 -1.3664
  118MPD2    H2 1806   1.927   0.626  13.291  3.4601 -0.5206  1.8546
  118MPD2    H3 1807   2.114   0.691  13.429  0.4909  2.2373 -0.5831
  118MPD2     N 1808   1.869   0.971  13.687  0.3789  0.2551 -0.1743
  118MPD2    H5 1809   1.953   1.012  13.726 -0.6630  0.7002  1.6049
  118MPD2    N1 1810   1.682   0.712  13.311 -1.0057  0.3351  0.4953
  118MPD2    H7 1811   1.710   0.667  13.224 -2.3271  2.9374 -1.2948
  119MPD2     C 1812   0.221   2.847  13.596 -0.9535 -0.1340 -0.2357
  119MPD2    C1 1813   0.101   2.840  13.663 -0.2443 -0.0064 -0.1461
  119MPD2    C2 1814   0.001   2.749  13.621  0.1090  0.2353  0.1170
  119MPD2    C3 1815   0.019   2.673  13.509 -0.1657 -0.5261 -0.0487
  119MPD2    C4 1816   0.144   2.671  13.454  0.1385 -0.2234 -0.3463
  119MPD2    C5 1817   0.239   2.762  13.487  0.1042 -0.3475 -0.1828
  119MPD2     H 1818   4.621   2.755  13.652  0.4205 -2.5488  1.7505
  119MPD2    H1 1819   0.175   2.598  13.379 -0.8367 -1.9871  0.9837
  119MPD2    H2 1820   0.294   2.914  13.641 -0.7500 -1.0348  0.7797
  119MPD2    H3 1821   0.333   2.756  13.435  0.5621  1.4516  0.4465
  119MPD2     N 1822   4.638   2.593  13.461  0.5680 -0.2993 -0.5887
  119MPD2    H5 1823   4.647   2.569  13.363  0.8287  0.5327 -0.7664
  119MPD2    N1 1824   0.089   2.927  13.778 -0.3527  0.1409 -0.0055
  119MPD2    H7 1825   0.167   2.990  13.793  0.6677 -0.8919 -0.9228
  120TCq2    C1 1826   4.538   2.547  13.537 -0.4986 -0.0002 -0.3232
  120TCq2    O2 1827   4.528   2.543  13.660  0.4069 -0.5388  0.6873
  120TCq2    C2 1828   4.432   2.484  13.455 -0.1508  0.0650  0.2297
  120TCq2    C3 1829   4.450   2.462  13.316 -0.3427 -0.5945  0.2944
  120TCq2    C4 1830   4.355   2.392  13.249  0.4997 -0.7493  0.7783
  120TCq2    C5 1831   4.250   2.338  13.321 -0.1437 -0.5308  0.6531
  120TCq2    C6 1832   4.237   2.350  13.457  0.0794  0.5225 -0.3068
  120TCq2    C7 1833   4.332   2.424  13.527 -0.1763 -0.0493  0.5202
  120TCq2    C8 1834   4.128   2.275  13.521  0.6203 -0.0939  0.7577
  120TCq2    O4 1835   4.044   2.217  13.450 -0.0188  0.0678  0.3993
  120TCq2    C9 1836   4.358   2.379  13.100  0.0554 -0.6869  0.1987
  120TCq2    O5 1837   4.270   2.316  13.040 -0.5752  0.4877  0.1322
  120TCq2    O6 1838   4.456   2.439  13.048 -0.4897  0.1264  0.5144
  120TCq2    H2 1839   4.532   2.498  13.255 -0.8574  2.2354  1.2951
  120TCq2    H3 1840   4.167   2.294  13.267 -0.5320  1.2896 -0.2371
  120TCq2    H4 1841   4.326   2.437  13.635 -0.6224  1.9385  0.2377
  121TMC2    C1 1842   0.603   4.166  13.985  0.6212  0.1726  0.3900
  121TMC2    C2 1843   0.565   4.082  14.081 -0.2266  0.7525 -0.5676
  121TMC2    C3 1844   0.435   4.031  14.079  0.2497  0.5811  0.3509
  121TMC2    C4 1845   0.519   4.217  13.891  0.0011  0.3200  0.0577
  121TMC2    C5 1846   0.391   4.166  13.891 -0.6614  0.6257  0.0891
  121TMC2    C6 1847   0.345   4.071  13.986 -0.1755  0.7197 -0.0433
  121TMC2     C 1848   0.728   4.227  14.004  0.1851  0.4791 -0.4082
  121TMC2     O 1849   0.753   4.249  14.123  0.4005 -0.0293 -0.2375
  121TMC2     H 1850   0.629   4.067  14.167 -0.5950  0.1527 -0.3960
  121TMC2    H1 1851   0.549   4.295  13.822  0.0814  2.0108  2.0241
  121TMC2    H2 1852   0.248   4.024  13.974  0.3313 -0.0134 -1.2231
  121TMC2    C7 1853   0.300   4.216  13.792 -0.2226  0.1353 -0.3882
  121TMC2    C8 1854   0.402   3.905  14.152 -0.1184  0.1299  0.6989
  121TMC2    O1 1855   0.347   4.304  13.719  0.5751 -0.0101 -0.0597
  121TMC2    O2 1856   0.291   3.861  14.177 -0.4548 -0.1892 -0.2085
  121TMC2    O5 1857   0.513   3.825  14.157  0.3334  0.0474  0.0404
  121TMC2    H5 1858   0.594   3.871  14.126 -1.3707  1.7403 -1.8939
  122MPD2     C 1859   0.983   4.362  13.983 -0.1641  0.6111  0.0319
  122MPD2    C1 1860   0.915   4.313  13.878  0.4495 -0.4846 -0.5101
  122MPD2    C2 1861   0.971   4.324  13.745 -0.0393 -0.2536 -0.9700
  122MPD2    C3 1862   1.083   4.394  13.721 -0.1358  0.5503  0.1745
  122MPD2    C4 1863   1.150   4.438  13.829 -0.2111  0.2335 -0.6162
  122MPD2    C5 1864   1.105   4.419  13.959 -0.4479 -0.4211  0.1555
  122MPD2     H 1865   0.907   4.300  13.661  0.4261 -0.7115 -1.1961
  122MPD2    H1 1866   1.224   4.516  13.817  0.3021 -0.0466  0.7272
  122MPD2    H2 1867   0.946   4.354  14.084  0.2542 -0.9494  0.0504
  122MPD2    H3 1868   1.155   4.477  14.035  0.4888  1.8596 -2.2259
  122MPD2     N 1869   1.124   4.436  13.592 -0.0901  0.8227  0.5735
  122MPD2    H5 1870   1.200   4.504  13.594  0.9015 -0.2111 -2.2268
  122MPD2    N1 1871   0.796   4.237  13.886 -0.2274 -0.3064 -0.2078
  122MPD2    H7 1872   0.757   4.199  13.801 -0.2410 -0.1480 -0.2733
  123MPD2     C 1873   4.181   2.883   9.313  0.1288 -0.7274 -0.5507
  123MPD2    C1 1874   4.133   2.760   9.328 -0.1689 -0.1568  0.4550
  123MPD2    C2 1875   4.209   2.671   9.399  0.1871 -0.1177 -0.8571
  123MPD2    C3 1876   4.329   2.713   9.452  0.0629 -0.7476  0.4701
  123MPD2    C4 1877   4.380   2.837   9.432  0.7249  0.4852 -0.1016
  123MPD2    C5 1878   4.296   2.920   9.372 -0.1126 -0.6040 -0.5096
  123MPD2     H 1879   4.173   2.574   9.431 -0.4265  0.8315  1.3621
  123MPD2    H1 1880   4.476   2.871   9.469  1.5946 -2.6404  0.5437
  123MPD2    H2 1881   4.128   2.963   9.264  1.1083  0.1583 -0.1570
  123MPD2    H3 1882   4.331   3.023   9.367 -4.4032  0.8148 -1.6084
  123MPD2     N 1883   4.393   2.613   9.534 -0.3917 -0.0680 -0.2719
  123MPD2    H5 1884   4.340   2.527   9.543  0.9399 -0.9212 -0.7205
  123MPD2    N1 1885   4.005   2.731   9.268  0.0609 -0.0668 -0.6135
  123MPD2    H7 1886   3.941   2.803   9.233  1.5460  1.2426 -0.6397
  124TCq2    C1 1887   4.527   2.622   9.574 -0.2001  0.5703  0.5764
  124TCq2    O2 1888   4.615   2.702   9.547  0.1623 -0.3134  0.1982
  124TCq2    C2 1889   4.572   2.504   9.644  0.8871  0.2164  0.1839
  124TCq2    C3 1890   4.709   2.470   9.642 -0.2031  0.0586 -0.1070
  124TCq2    C4 1891   0.021   2.354   9.706 -0.0037  0.5048 -0.9322
  124TCq2    C5 1892   4.655   2.270   9.765 -0.3751  0.6225  0.3723
  124TCq2    C6 1893   4.524   2.298   9.759  0.0490  0.1495 -0.1820
  124TCq2    C7 1894   4.479   2.416   9.698  0.4600  0.0168 -0.3361
  124TCq2    C8 1895   4.423   2.217   9.821 -1.1876  0.0114 -0.1785
  124TCq2    O4 1896   4.452   2.145   9.920 -0.3560 -0.0952  0.2167
  124TCq2    C9 1897   0.167   2.345   9.729 -0.6447  0.6068 -0.1926
  124TCq2    O5 1898   0.241   2.419   9.661 -1.2141 -0.4172 -0.0668
  124TCq2    O6 1899   0.206   2.261   9.815 -0.2376  0.5987  0.6000
  124TCq2    H2 1900   0.063   2.531   9.600 -0.6583 -0.0757 -1.1413
  124TCq2    H3 1901   4.684   2.178   9.814  1.9348  1.3060  0.2546
  124TCq2    H4 1902   4.380   2.457   9.712  1.0524  0.4550  2.5115
  125TMC2    C1 1903   4.649   4.363   9.676  0.2709 -0.0350  0.0281
  125TMC2    C2 1904   4.611   4.274   9.583 -0.5093  0.1043  0.4968
  125TMC2    C3 1905   4.714   4.198   9.528  0.0459  0.5294 -0.1681
  125TMC2    C4 1906   0.058   4.400   9.694 -0.5853 -0.7366  0.1698
  125TMC2    C5 1907   0.155   4.327   9.624 -0.4774 -0.4482  0.3961
  125TMC2    C6 1908   0.119   4.224   9.545 -0.2157 -0.4406  0.1760
  125TMC2     C 1909   4.541   4.453   9.718  0.0756  0.0446 -0.2678
  125TMC2     O 1910   4.436   4.439   9.654 -0.1593  0.4271  0.5932
  125TMC2     H 1911   4.508   4.245   9.565 -0.7967  0.2663  1.8350
  125TMC2    H1 1912   0.084   4.482   9.759 -1.3894 -0.0554 -0.3763
  125TMC2    H2 1913   0.190   4.162   9.492  1.1762 -1.0408  2.7552
  125TMC2    C7 1914   0.288   4.336   9.672 -0.1549 -0.1273 -0.5228
  125TMC2    C8 1915   4.676   4.113   9.424  0.4390  0.6625  0.1222
  125TMC2    O1 1916   0.306   4.390   9.782  0.6476  0.4695 -0.3464
  125TMC2    O2 1917   4.563   4.069   9.410  0.3649 -0.1224  0.2924
  125TMC2    O5 1918   0.022   4.162   9.322  0.1766 -0.2567  0.0475
  125TMC2    H5 1919   0.095   4.224   9.340  0.9488 -1.1626  0.0226
  126MPD1     C 1920   4.303   0.054  10.039  0.3063 -0.5163  0.3989
  126MPD1    C1 1921   4.430   0.098  10.024  0.1626  0.6396  0.2754
  126MPD1    C2 1922   4.514   0.018   9.948 -0.3204 -0.3194 -0.4113
  126MPD1    C3 1923   4.474   4.628   9.883  0.0918 -1.0795  0.3664
  126MPD1    C4 1924   4.347   4.592   9.908  0.1076 -0.5152  0.6621
  126MPD1    C5 1925   4.260   4.662   9.988 -0.1562 -0.4040 -0.2232
  126MPD1     H 1926   4.619   0.043   9.945 -0.3297 -0.0164  1.8903
  126MPD1    H1 1927   4.309   4.500   9.865  0.2862 -1.2408  2.0832
  126MPD1    H2 1928   4.233   0.106  10.104  0.0730  0.5001 -0.6839
  126MPD1    H3 1929   4.158   4.632  10.009  0.0519 -0.5008  0.6546
  126MPD1     N 1930   4.568   4.549   9.806  0.2520 -0.6793 -0.0949
  126MPD1    H5 1931   4.664   4.579   9.819 -1.2062  3.3694  1.3749
  126MPD1    N1 1932   4.478   0.183  10.126  0.0588  0.4882  0.4812
  126MPD1    H6 1933   4.562   0.229  10.091  1.1344 -1.8305  0.0097
  126MPD1    H7 1934   4.411   0.255  10.153 -0.8699 -0.1247 -0.1997
  127MPD2     C 1935   1.825   3.340   9.018 -0.3174 -0.8496  0.4198
  127MPD2    C1 1936   1.811   3.371   9.153  0.0246 -0.1545 -0.6793
  127MPD2    C2 1937   1.861   3.492   9.196 -0.1795 -0.4275 -0.1598
  127MPD2    C3 1938   1.914   3.584   9.104  0.2167 -0.3514  0.8169
  127MPD2    C4 1939   1.915   3.551   8.970  0.2598 -0.6908 -0.7857
  127MPD2    C5 1940   1.872   3.433   8.926  0.0472  0.4488 -0.1096
  127MPD2     H 1941   1.859   3.542   9.292 -0.1247 -0.3242 -0.2121
  127MPD2    H1 1942   1.970   3.615   8.902 -1.3008  2.3771  0.8184
  127MPD2    H2 1943   1.811   3.240   8.979  2.2030 -1.7670  1.8632
  127MPD2    H3 1944   1.889   3.399   8.825 -3.1679 -0.1978 -0.4528
  127MPD2     N 1945   1.975   3.703   9.147 -0.8238  0.8120 -0.5105
  127MPD2    H5 1946   1.993   3.714   9.246 -0.8125  0.8060 -0.5118
  127MPD2    N1 1947   1.743   3.278   9.240  0.2481 -0.4209  0.1028
  127MPD2    H7 1948   1.700   3.201   9.190 -1.3327 -1.8671  3.7504
  128TCq2    C1 1949   1.738   3.278   9.380  0.1934  0.2312  0.2003
  128TCq2    O2 1950   1.785   3.364   9.456  0.1371 -0.5492  0.3464
  128TCq2    C2 1951   1.656   3.163   9.427  0.0290 -0.6676  0.8210
  128TCq2    C3 1952   1.687   3.110   9.553  0.0341  0.7609 -0.2359
  128TCq2    C4 1953   1.623   2.999   9.599  0.3164  0.0688 -1.1354
  128TCq2    C5 1954   1.525   2.940   9.524  0.1391  0.4135  0.3694
  128TCq2    C6 1955   1.501   2.992   9.398 -0.2996 -0.6528 -0.7164
  128TCq2    C7 1956   1.560   3.106   9.353  0.7362  0.3536  0.7989
  128TCq2    C8 1957   1.396   2.933   9.319 -0.5067 -0.8619 -0.2513
  128TCq2    O4 1958   1.376   2.963   9.200 -0.4293 -0.1942  0.0399
  128TCq2    C9 1959   1.666   2.944   9.729 -0.7286  0.1880 -0.0420
  128TCq2    O5 1960   1.763   3.004   9.785 -0.2452 -0.1482  0.5620
  128TCq2    O6 1961   1.591   2.860   9.785 -0.0242 -0.2063  0.8885
  128TCq2    H2 1962   1.773   3.148   9.608 -0.1935 -0.8850  1.2786
  128TCq2    H3 1963   1.456   2.872   9.572  1.7477 -1.4484  0.0426
  128TCq2    H4 1964   1.521   3.165   9.271 -0.7086 -0.9548  0.5517
  129MPD2     C 1965   4.027   4.294   0.542 -0.5400 -0.8980  0.2406
  129MPD2    C1 1966   4.160   4.313   0.558  0.5854  0.0022 -0.5151
  129MPD2    C2 1967   4.235   4.307   0.444 -1.2916 -0.2750  0.4449
  129MPD2    C3 1968   4.184   4.285   0.319 -0.2351 -0.3841  0.0161
  129MPD2    C4 1969   4.053   4.253   0.301  0.5503  0.2425 -0.5318
  129MPD2    C5 1970   3.977   4.262   0.420  0.0290  0.0488  0.7513
  129MPD2     H 1971   4.340   4.333   0.449 -1.5604  0.9416 -0.3706
  129MPD2    H1 1972   4.006   4.234   0.205 -0.4693  1.5611 -0.3110
  129MPD2    H2 1973   3.958   4.294   0.626 -1.6430  2.6341 -0.6523
  129MPD2    H3 1974   3.872   4.236   0.419 -0.3270  1.4609  0.2823
  129MPD2     N 1975   4.283   4.298   0.221  0.7792 -0.0669 -0.1606
  129MPD2    H5 1976   4.367   4.348   0.247  1.6499 -1.1705 -0.8529
  129MPD2    N1 1977   4.224   4.323   0.683  0.1166  0.0480  0.4637
  129MPD2    H7 1978   4.324   4.333   0.677  0.3617 -2.5248  0.5614
  130TCq2    C1 1979   4.172   4.309   0.806  0.4785 -0.7822  0.7719
  130TCq2    O2 1980   4.059   4.280   0.839 -0.0027  0.5630 -0.0722
  130TCq2    C2 1981   4.282   4.280   0.900  0.7052  0.1903  0.5008
  130TCq2    C3 1982   4.415   4.310   0.871 -0.8359 -0.3057 -0.0940
  130TCq2    C4 1983   4.514   4.265   0.964  0.0601  0.2101 -0.1514
  130TCq2    C5 1984   4.483   4.197   1.081  0.2635 -0.3755 -0.1224
  130TCq2    C6 1985   4.346   4.179   1.108  0.6041 -0.2519 -0.1132
  130TCq2    C7 1986   4.244   4.212   1.017  0.1795 -0.0358  0.5688
  130TCq2    C8 1987   4.299   4.101   1.217 -0.0220  0.4895 -0.3238
  130TCq2    O4 1988   4.179   4.096   1.242 -0.2275 -0.2148  0.2319
  130TCq2    C9 1989   4.645   4.298   0.936  0.7041 -0.7425 -0.1877
  130TCq2    O5 1990   0.006   4.275   1.026  0.0407 -0.1036 -0.2584
  130TCq2    O6 1991   4.663   4.364   0.832  0.7266 -0.3151  0.3844
  130TCq2    H2 1992   4.442   4.382   0.794  0.8516  0.7270  1.4758
  130TCq2    H3 1993   4.564   4.177   1.149 -1.6345 -0.4914  2.0983
  130TCq2    H4 1994   4.137   4.208   1.033 -0.1360 -0.7007 -1.8063
  131MPD2     C 1995   3.540   3.262   8.742  0.0560 -0.5192  0.3270
  131MPD2    C1 1996   3.653   3.272   8.819  0.6685  0.9410 -0.0050
  131MPD2    C2 1997   3.709   3.153   8.870 -0.0395  0.9036 -0.3658
  131MPD2    C3 1998   3.647   3.033   8.848 -0.6381  0.8334  0.5216
  131MPD2    C4 1999   3.538   3.028   8.761  0.4190 -0.3604 -0.0118
  131MPD2    C5 2000   3.484   3.141   8.711 -0.3973  0.9223 -0.2164
  131MPD2     H 2001   3.805   3.165   8.920 -1.5804  0.1620  2.7705
  131MPD2    H1 2002   3.492   2.936   8.727  0.6504 -0.0596 -1.1562
  131MPD2    H2 2003   3.502   3.352   8.695  0.4844 -0.3335  0.3423
  131MPD2    H3 2004   3.392   3.139   8.653  0.3510 -1.9807 -1.2822
  131MPD2     N 2005   3.691   2.920   8.917 -0.4420 -0.2007  0.0631
  131MPD2    H5 2006   3.763   2.932   8.988 -0.0310  0.9918 -0.5612
  131MPD2    N1 2007   3.714   3.400   8.812  0.1891 -0.6711  0.9084
  131MPD2    H7 2008   3.677   3.470   8.749 -0.8883 -0.7213  1.4745
  132TCq2    C1 2009   3.889   3.893   8.979 -0.0606  0.5770  0.1521
  132TCq2    O2 2010   3.827   3.997   8.964 -0.1291  0.0810  0.6213
  132TCq2    C2 2011   3.862   3.785   8.882  0.0630 -0.4216  0.1429
  132TCq2    C3 2012   3.812   3.821   8.764 -0.6653 -0.8570 -0.2489
  132TCq2    C4 2013   3.787   3.720   8.673 -0.2098  0.2485  0.6597
  132TCq2    C5 2014   3.816   3.591   8.695 -0.4050 -0.1801  0.5925
  132TCq2    C6 2015   3.868   3.556   8.822 -0.3145 -0.2274  0.3057
  132TCq2    C7 2016   3.895   3.652   8.918 -0.1410 -1.1809 -0.5634
  132TCq2    C8 2017   3.827   3.435   8.883  0.1535 -0.6354 -0.7395
  132TCq2    O4 2018   3.885   3.373   8.969 -0.0579 -0.2759  0.0731
  132TCq2    C9 2019   3.722   3.761   8.554  0.0548  0.1919  0.7328
  132TCq2    O5 2020   3.706   3.675   8.461 -0.0991 -0.7598 -0.6082
  132TCq2    O6 2021   3.660   3.868   8.567 -0.1479 -0.2454  0.0827
  132TCq2    H2 2022   3.795   3.925   8.737  0.9957 -0.8712 -1.4001
  132TCq2    H3 2023   3.793   3.517   8.620 -0.0724  0.6924 -0.3602
  132TCq2    H4 2024   3.912   3.630   9.023  0.0712  2.1332  0.0853
  133MPD2     C 2025   3.475   3.824   8.890 -0.2901 -0.2225 -0.5857
  133MPD2    C1 2026   3.516   3.770   9.011 -0.5662 -0.0048 -0.0246
  133MPD2    C2 2027   3.486   3.635   9.033  0.4887 -0.0455  0.1112
  133MPD2    C3 2028   3.408   3.564   8.941  0.0775  0.3450  0.2184
  133MPD2    C4 2029   3.379   3.617   8.817 -0.4308  0.3900 -0.4043
  133MPD2    C5 2030   3.427   3.742   8.787  0.2179 -0.0234 -0.3406
  133MPD2     H 2031   3.528   3.585   9.119 -1.4684 -3.3956 -0.9087
  133MPD2    H1 2032   3.337   3.575   8.726  1.7221  0.4394 -1.4297
  133MPD2    H2 2033   3.487   3.930   8.877  1.0916 -0.2732  0.4174
  133MPD2    H3 2034   3.407   3.788   8.691  0.0486  1.3768  0.3633
  133MPD2     N 2035   3.389   3.426   8.954 -0.4546  0.2670 -0.2697
  133MPD2    H5 2036   3.337   3.373   8.884 -1.1774 -0.0299  0.4929
  133MPD2    N1 2037   3.587   3.856   9.099 -0.5148  0.3309 -0.2667
  133MPD2    H7 2038   3.602   3.955   9.084  2.7240  0.0884  1.2951
  134TCq2    C1 2039   3.609   3.824   9.231  0.4352  0.0526 -0.2390
  134TCq2    O2 2040   3.610   3.721   9.292 -0.1931 -0.4930  0.3066
  134TCq2    C2 2041   3.627   3.948   9.310  0.7627 -0.0595  0.7913
  134TCq2    C3 2042   3.630   4.065   9.247 -0.2611 -0.8261  0.8767
  134TCq2    C4 2043   3.611   4.184   9.321 -0.6028  0.1688 -0.1751
  134TCq2    C5 2044   3.578   4.177   9.453  0.1669 -0.0934 -0.3032
  134TCq2    C6 2045   3.575   4.050   9.514 -0.2158  0.4464 -0.5552
  134TCq2    C7 2046   3.598   3.934   9.445 -0.4661 -0.0589  0.0043
  134TCq2    C8 2047   3.538   4.031   9.648 -0.3639 -0.2853 -0.4614
  134TCq2    O4 2048   3.485   3.924   9.673  0.0984 -0.0097  0.3078
  134TCq2    C9 2049   3.627   4.318   9.267 -0.0791 -1.1407 -0.4738
  134TCq2    O5 2050   3.614   4.417   9.343  0.0796 -0.0733  0.4111
  134TCq2    O6 2051   3.649   4.323   9.141 -0.1298  0.3345  0.6203
  134TCq2    H2 2052   3.663   4.071   9.143 -1.1566 -0.8895  0.5924
  134TCq2    H3 2053   3.539   4.266   9.502 -2.6172 -1.9844  0.9211
  134TCq2    H4 2054   3.598   3.839   9.496  1.0602  0.4570  0.9933
  135MPD2     C 2055   0.826   4.429   8.767 -0.4363  0.0052 -0.4096
  135MPD2    C1 2056   0.845   4.526   8.864  0.4493  0.8279  0.0598
  135MPD2    C2 2057   0.972   4.579   8.891  0.2074  0.5103  0.0332
  135MPD2    C3 2058   1.076   4.540   8.814  0.4314 -0.6163  0.4646
  135MPD2    C4 2059   1.056   4.445   8.716  0.1240  0.3554 -0.1877
  135MPD2    C5 2060   0.936   4.389   8.694  0.3017 -0.5463  0.0834
  135MPD2     H 2061   0.980   4.646   8.977  1.9492 -0.1062  0.3546
  135MPD2    H1 2062   1.127   4.413   8.640  0.6529  0.0416  0.4445
  135MPD2    H2 2063   0.727   4.386   8.760 -1.4837  2.2828  0.4900
  135MPD2    H3 2064   0.926   4.314   8.617 -2.9573  0.3937 -0.3953
  135MPD2     N 2065   1.208   4.590   8.820  0.5636 -0.5121 -0.6113
  135MPD2    H5 2066   1.280   4.544   8.766 -0.0409  0.8464 -2.6038
  135MPD2    N1 2067   0.735   4.563   8.952 -0.1202  0.7853 -0.3866
  135MPD2    H7 2068   0.753   4.621   9.034 -2.3003  0.7595  0.1062
  136TCq2    C1 2069   0.600   4.534   8.936 -0.3742  0.0777 -0.6228
  136TCq2    O2 2070   0.545   4.469   8.846  0.4001  0.3477  0.5822
  136TCq2    C2 2071   0.514   4.563   9.049  0.0547 -0.3006  0.2166
  136TCq2    C3 2072   0.409   4.479   9.060 -0.6915  0.0978  0.6097
  136TCq2    C4 2073   0.332   4.492   9.173  0.6989 -0.4627 -0.4366
  136TCq2    C5 2074   0.355   4.576   9.271  0.5374 -0.7060 -0.2996
  136TCq2    C6 2075   0.457   4.667   9.251 -0.2718  0.3635 -1.2003
  136TCq2    C7 2076   0.540   4.658   9.141 -0.5140  0.2331  0.9206
  136TCq2    C8 2077   0.505   0.027   9.363 -0.5306  0.2071 -0.4950
  136TCq2    O4 2078   0.585   0.112   9.328  0.3604 -0.9662 -0.2172
  136TCq2    C9 2079   0.223   4.402   9.189 -0.3467  0.8395 -0.6202
  136TCq2    O5 2080   0.187   4.374   9.305  0.3851 -0.0232 -0.5205
  136TCq2    O6 2081   0.175   4.347   9.086 -0.0270 -0.8761 -0.0655
  136TCq2    H2 2082   0.386   4.407   8.983  2.5155 -0.3863  0.1261
  136TCq2    H3 2083   0.294   4.571   9.360  0.6897  0.9601 -0.1004
  136TCq2    H4 2084   0.627   4.721   9.123 -0.9539  1.2008  2.2253
  137MPD2     C 2085   0.760   2.734   9.837 -0.2739  0.2590  0.3382
  137MPD2    C1 2086   0.796   2.827   9.745  0.5633  0.4057 -0.6628
  137MPD2    C2 2087   0.864   2.940   9.788 -0.2362  0.5847 -0.0006
  137MPD2    C3 2088   0.892   2.960   9.924  0.7210  0.6277  0.5217
  137MPD2    C4 2089   0.865   2.863  10.012 -0.4711  0.0326 -0.1546
  137MPD2    C5 2090   0.800   2.746   9.967  0.2035 -0.7596  0.1483
  137MPD2     H 2091   0.888   3.018   9.718  0.6936  0.2998  0.0008
  137MPD2    H1 2092   0.882   2.867  10.119  1.9023 -2.0041 -0.4494
  137MPD2    H2 2093   0.711   2.640   9.814 -0.3257 -0.1675  2.1995
  137MPD2    H3 2094   0.783   2.659  10.030  1.2586 -1.2438 -0.2474
  137MPD2     N 2095   0.946   3.083   9.961  1.1105 -0.2609 -0.2340
  137MPD2    H5 2096   0.969   3.145   9.884 -0.1547  0.2697 -0.1864
  137MPD2    N1 2097   0.747   2.814   9.613  0.9030 -0.0008 -0.1976
  137MPD2    H7 2098   0.672   2.748   9.596  1.4587 -0.6176 -0.2528
  138TCq2    C1 2099   0.781   2.897   9.514  0.2979 -0.2698  0.0489
  138TCq2    O2 2100   0.870   2.981   9.504  0.6244 -0.2331 -0.2583
  138TCq2    C2 2101   0.668   2.904   9.417 -0.4652 -0.4655  0.1317
  138TCq2    C3 2102   0.683   2.993   9.311 -0.8589  0.6294  0.2147
  138TCq2    C4 2103   0.570   3.050   9.255  0.2205  0.6959  0.0529
  138TCq2    C5 2104   0.441   3.021   9.305 -0.0085  0.5808  0.7937
  138TCq2    C6 2105   0.427   2.942   9.417 -0.6740 -0.2467  0.7834
  138TCq2    C7 2106   0.539   2.886   9.472 -0.4634  0.3220  0.6688
  138TCq2    C8 2107   0.304   2.941   9.497  0.1269  0.4141 -0.2092
  138TCq2    O4 2108   0.277   2.834   9.544 -0.1211 -0.3049 -0.2152
  138TCq2    C9 2109   0.580   3.131   9.138 -0.0528 -1.0715  0.6329
  138TCq2    O5 2110   0.689   3.121   9.071 -0.1141 -0.4070  0.0578
  138TCq2    O6 2111   0.475   3.180   9.098  0.5901 -0.0067  0.0511
  138TCq2    H2 2112   0.778   3.019   9.267 -0.0681  1.0648  2.1854
  138TCq2    H3 2113   0.351   3.058   9.257  0.0828 -0.1051  0.0949
  138TCq2    H4 2114   0.531   2.803   9.541  2.8583  0.9832  1.8199
  139TMC2    C1 2115   0.854   1.982  12.782  0.2512 -0.5079  0.3524
  139TMC2    C2 2116   0.886   2.035  12.659  0.7547  0.1089  1.0982
  139TMC2    C3 2117   0.910   2.167  12.651 -0.0549  0.4177  0.1896
  139TMC2    C4 2118   0.837   2.056  12.889 -0.3511 -0.3999  0.3676
  139TMC2    C5 2119   0.850   2.194  12.872  0.3938 -0.5623 -0.4042
  139TMC2    C6 2120   0.886   2.254  12.758 -0.1951  0.3984  0.2165
  139TMC2     C 2121   0.834   1.842  12.797 -0.9853 -0.4274 -0.0760
  139TMC2     O 2122   0.891   1.769  12.715  0.1999 -0.5646  0.5008
  139TMC2     H 2123   0.915   1.969  12.578 -2.2954 -0.3808  0.4059
  139TMC2    H1 2124   0.810   2.005  12.980 -0.8700 -0.7145  0.0340
  139TMC2    H2 2125   0.894   2.361  12.744 -0.8859  0.4962  0.5488
  139TMC2    C7 2126   0.813   2.281  12.981 -0.4358 -0.4160  0.4011
  139TMC2    C8 2127   0.974   2.215  12.529  0.2430  0.1870  1.1494
  139TMC2    O1 2128   0.700   2.275  13.026  0.0438 -0.3440 -0.2812
  139TMC2    O2 2129   0.925   2.174  12.426 -0.1664 -0.3485 -0.0374
  139TMC2    O5 2130   1.021   2.333  12.563 -0.3668  0.2633  0.3066
  139TMC2    H5 2131   1.092   2.339  12.630 -0.4441 -0.8376  0.4822
  140MPD2     C 2132   0.530   1.682  12.921  0.7631 -0.0223 -0.9768
  140MPD2    C1 2133   0.666   1.682  12.881 -0.1477  0.1255  1.0959
  140MPD2    C2 2134   0.728   1.567  12.842 -0.1904 -0.0903 -0.2617
  140MPD2    C3 2135   0.664   1.446  12.838  0.0214  0.6976 -0.4556
  140MPD2    C4 2136   0.538   1.447  12.888 -0.4169  0.1463  0.1458
  140MPD2    C5 2137   0.474   1.560  12.919 -0.2241  0.0416 -0.4258
  140MPD2     H 2138   0.834   1.571  12.817  0.3366 -0.2620  1.8972
  140MPD2    H1 2139   0.474   1.361  12.906 -3.1372  1.8227 -1.6709
  140MPD2    H2 2140   0.488   1.774  12.961  1.2680 -1.2776  2.4912
  140MPD2    H3 2141   0.378   1.556  12.970  1.0050 -1.2622  1.7679
  140MPD2     N 2142   0.729   1.331  12.787  0.4935  0.0354  0.7653
  140MPD2    H5 2143   0.826   1.343  12.760  0.5464 -0.6063  0.6612
  140MPD2    N1 2144   0.726   1.811  12.875  0.5802  0.5328 -0.2904
  140MPD2    H7 2145   0.669   1.887  12.910  0.2206 -0.4209  1.2019
  141TCq2    C1 2146   1.795   2.433  14.002  0.0124  0.5633  0.7842
  141TCq2    O2 2147   1.683   2.475  13.967 -0.4008  0.1351  0.8224
  141TCq2    C2 2148   1.843   2.451  14.143  0.5982 -0.0472 -0.6733
  141TCq2    C3 2149   1.972   2.422  14.185  0.0809  0.6148 -0.6682
  141TCq2    C4 2150   1.996   2.452  14.319  0.4891 -0.0048 -0.2757
  141TCq2    C5 2151   1.906   2.519  14.400 -0.5207  0.4532 -0.1313
  141TCq2    C6 2152   1.788   2.553  14.346 -0.3706 -0.0466  0.5772
  141TCq2    C7 2153   1.758   2.532  14.216 -0.5627 -0.2227  0.3442
  141TCq2    C8 2154   1.711   2.660  14.409 -0.3615  0.0369  0.4745
  141TCq2    O4 2155   1.589   2.666  14.389  0.3412 -0.3247  0.4381
  141TCq2    C9 2156   2.122   2.398  14.382  0.0570  0.3159 -0.3208
  141TCq2    O5 2157   2.217   2.377  14.301  0.0697 -0.1498 -0.1452
  141TCq2    O6 2158   2.130   2.391  14.505 -0.5472  0.7659  0.0250
  141TCq2    H2 2159   2.047   2.370  14.126  1.7091 -0.3604  2.2790
  141TCq2    H3 2160   1.927   2.520  14.506  1.4897 -0.0716 -0.5116
  141TCq2    H4 2161   1.659   2.563  14.184 -0.2126  1.8229  1.2270
  142MPD2     C 2162   3.609   1.365   9.843  0.0604 -0.3815 -0.1143
  142MPD2    C1 2163   3.647   1.305   9.962  0.4557  0.5648  0.4672
  142MPD2    C2 2164   3.704   1.389  10.061  0.0409  0.0919  0.1941
  142MPD2    C3 2165   3.716   1.525  10.041 -0.8937  0.0630 -0.3881
  142MPD2    C4 2166   3.670   1.578   9.922  0.3064  0.4375 -0.1504
  142MPD2    C5 2167   3.617   1.501   9.820 -0.0394 -0.4002 -0.4312
  142MPD2     H 2168   3.729   1.356  10.161  1.5217  2.5863  0.6605
  142MPD2    H1 2169   3.674   1.684   9.902  1.0326  0.1290 -1.6419
  142MPD2    H2 2170   3.575   1.310   9.756 -0.1009 -0.0666 -0.2507
  142MPD2    H3 2171   3.593   1.549   9.726  0.3338 -1.2006 -0.9270
  142MPD2     N 2172   3.780   1.607  10.132 -0.4089  0.5606  0.1458
  142MPD2    H5 2173   3.780   1.704  10.101  0.4583  0.1941 -0.9807
  142MPD2    N1 2174   3.632   1.166   9.976  0.4935  0.7970 -0.5589
  142MPD2    H7 2175   3.608   1.117   9.890  0.5345  0.8348 -0.5917
  143TCq2    C1 2176   3.813   1.578  10.262  0.0374 -0.0790  0.0138
  143TCq2    O2 2177   3.757   1.490  10.332 -0.0349 -0.7428 -0.2600
  143TCq2    C2 2178   3.899   1.684  10.310  0.1661  0.0187 -0.7125
  143TCq2    C3 2179   3.889   1.728  10.442 -0.1482 -0.5988 -0.3200
  143TCq2    C4 2180   3.949   1.854  10.476 -0.3956 -0.1554  0.5925
  143TCq2    C5 2181   4.019   1.919  10.382 -0.3189 -0.4455  0.0822
  143TCq2    C6 2182   4.036   1.863  10.255 -0.2069 -0.2308  0.0707
  143TCq2    C7 2183   3.972   1.747  10.214  0.0646 -0.0371  0.1449
  143TCq2    C8 2184   4.099   1.942  10.152  0.7095  0.0997  0.7442
  143TCq2    O4 2185   4.185   2.019  10.187  0.6334 -0.2207  0.0262
  143TCq2    C9 2186   3.938   1.905  10.608 -0.6793 -0.4874 -0.2565
  143TCq2    O5 2187   3.856   1.845  10.685 -0.5929 -0.7154  0.2350
  143TCq2    O6 2188   4.048   1.950  10.645  0.0103 -0.2521 -0.0884
  143TCq2    H2 2189   3.833   1.674  10.517 -0.1830 -0.7344 -0.4450
  143TCq2    H3 2190   4.063   2.016  10.400 -1.4278 -0.5366  3.2661
  143TCq2    H4 2191   3.995   1.696  10.122 -0.2395  1.4280 -0.7447
  144MPD2     C 2192   1.948   1.377   0.328 -0.3409  0.0616  0.4724
  144MPD2    C1 2193   1.984   1.258   0.277 -0.3821  0.2271  0.1965
  144MPD2    C2 2194   2.061   1.181   0.363  0.1286 -0.3630 -0.4415
  144MPD2    C3 2195   2.104   1.228   0.489  0.1580 -0.3322 -0.1973
  144MPD2    C4 2196   2.060   1.348   0.535 -0.1109  0.4242  0.7172
  144MPD2    C5 2197   1.980   1.423   0.453  0.4922 -0.3215 -0.0197
  144MPD2     H 2198   2.092   1.084   0.326  0.4045 -0.3182 -0.3241
  144MPD2    H1 2199   2.093   1.376   0.634 -1.6713 -0.1547  1.4006
  144MPD2    H2 2200   1.893   1.452   0.271 -0.1069  0.3721  0.6569
  144MPD2    H3 2201   1.949   1.522   0.482  1.3736 -0.2985  0.8158
  144MPD2     N 2202   2.196   1.155   0.566  0.2658 -0.5290  0.3263
  144MPD2    H5 2203   2.221   1.200   0.654 -0.3037  2.3251 -0.9440
  144MPD2    N1 2204   1.961   1.209   0.147 -0.2755  0.3447  0.0194
  144MPD2    H7 2205   1.976   1.110   0.134 -0.2408  0.1738  1.3997
  145TCq2    C1 2206   2.249   1.034   0.544  0.5759  0.0382  0.6246
  145TCq2    O2 2207   2.253   0.974   0.436 -0.0417 -0.4435  0.2889
  145TCq2    C2 2208   2.344   0.990   0.645  0.5419  0.8634  0.5139
  145TCq2    C3 2209   2.437   0.890   0.617  0.1641  0.4267 -0.5030
  145TCq2    C4 2210   2.532   0.858   0.710 -0.1287  0.0754  0.2446
  145TCq2    C5 2211   2.551   0.934   0.822  0.5759 -0.1007 -0.6792
  145TCq2    C6 2212   2.456   1.030   0.852  0.2359 -0.6199 -0.9216
  145TCq2    C7 2213   2.359   1.062   0.764  0.5169  0.4486 -0.0922
  145TCq2    C8 2214   2.458   1.094   0.987 -0.2695  0.4603 -0.2031
  145TCq2    O4 2215   2.552   1.059   1.058  0.0716  0.0971  0.2626
  145TCq2    C9 2216   2.628   0.755   0.670  0.3415 -0.2374  0.7386
  145TCq2    O5 2217   2.619   0.694   0.562 -0.2140  0.3778  0.3406
  145TCq2    O6 2218   2.740   0.754   0.730  0.0762  0.0645  0.7246
  145TCq2    H2 2219   2.443   0.841   0.521 -1.2432  0.2410 -0.4934
  145TCq2    H3 2220   2.633   0.910   0.888 -0.1892  0.1108  0.3408
  145TCq2    H4 2221   2.281   1.134   0.788 -0.4268 -1.3229  2.1361
  146TMC2    C1 2222   2.952   4.569  12.100  0.3208  0.1950  0.4332
  146TMC2    C2 2223   2.887   4.652  12.016 -0.3400  1.0642 -1.0611
  146TMC2    C3 2224   2.867   4.618  11.884 -0.6460 -0.1008 -0.1869
  146TMC2    C4 2225   3.020   4.462  12.045 -0.3496 -0.3805  0.2781
  146TMC2    C5 2226   2.999   4.422  11.910  0.1195  0.0098  0.2253
  146TMC2    C6 2227   2.916   4.494  11.827  0.0291 -0.3942  0.6154
  146TMC2     C 2228   3.009   4.636  12.216 -0.3388 -0.2618 -0.0495
  146TMC2     O 2229   3.036   0.030  12.204 -0.1043 -0.3280 -0.0440
  146TMC2     H 2230   2.824   0.010  12.049 -2.1235 -0.4285 -0.7244
  146TMC2    H1 2231   3.080   4.408  12.117  0.1416  1.1384  1.0127
  146TMC2    H2 2232   2.909   4.480  11.719  1.5781  1.3642  0.3004
  146TMC2    C7 2233   3.077   4.320  11.847  0.1346  0.0254 -0.5147
  146TMC2    C8 2234   2.775   4.691  11.791 -0.3762  0.6931  0.6805
  146TMC2    O1 2235   3.038   4.286  11.735 -0.3517  0.4392 -0.3509
  146TMC2    O2 2236   2.725   4.635  11.694  0.3308  0.2409 -0.0455
  146TMC2    O5 2237   2.841   0.087  11.781 -0.2989 -0.0925 -0.1678
  146TMC2    H5 2238   2.887   0.103  11.866  2.1179 -0.0337 -1.4705
  147MPD2     C 2239   3.358   3.880  11.863 -0.0865  0.0443  0.3139
  147MPD2    C1 2240   3.400   3.963  11.964 -0.0770  0.3073 -0.4477
  147MPD2    C2 2241   3.335   4.083  11.980 -0.4335  0.6335 -0.1020
  147MPD2    C3 2242   3.232   4.123  11.898  0.1094  0.7042  0.4273
  147MPD2    C4 2243   3.198   4.040  11.794  0.1123  0.6565  0.8557
  147MPD2    C5 2244   3.260   3.919  11.778 -0.6105 -0.4740 -0.4653
  147MPD2     H 2245   3.362   4.151  12.059  0.0486 -0.5825  0.7740
  147MPD2    H1 2246   3.128   4.072  11.717 -1.3107 -0.8604  1.5287
  147MPD2    H2 2247   3.402   3.781  11.863 -0.6016 -0.1860  0.0761
  147MPD2    H3 2248   3.228   3.851  11.700  1.5867 -1.8488 -0.1600
  147MPD2     N 2249   3.171   4.253  11.926 -0.2972 -0.2585 -0.2501
  147MPD2    H5 2250   3.205   4.308  12.004 -0.5359  0.5983 -0.7451
  147MPD2    N1 2251   3.503   3.907  12.046  0.1363  0.5975 -1.0355
  147MPD2    H7 2252   3.555   3.827  12.010 -0.2918  0.1351 -0.6352
  148MPD2     C 2253   3.722   3.212  10.493  0.7632  0.4627  0.1260
  148MPD2    C1 2254   3.784   3.090  10.505 -0.2106 -0.4851  0.1453
  148MPD2    C2 2255   3.721   2.976  10.461  0.5686 -0.0340  0.1997
  148MPD2    C3 2256   3.607   2.982  10.385  0.5873  0.9282 -0.9127
  148MPD2    C4 2257   3.544   3.099  10.374 -0.7865 -0.5874 -0.3315
  148MPD2    C5 2258   3.593   3.211  10.437  0.0062  0.0038  0.4337
  148MPD2     H 2259   3.767   2.878  10.472  2.2081  0.2579 -3.9489
  148MPD2    H1 2260   3.451   3.102  10.318 -0.1621 -0.0607 -1.3539
  148MPD2    H2 2261   3.759   3.310  10.520 -0.5106  0.2290  2.7212
  148MPD2    H3 2262   3.529   3.299  10.431 -1.5522 -1.1500  0.1767
  148MPD2     N 2263   3.543   2.874  10.323 -0.5762  0.7710 -0.4255
  148MPD2    H5 2264   3.476   2.893  10.248  0.2830 -0.9190 -1.6187
  148MPD2    N1 2265   3.913   3.082  10.562 -0.3971  0.3408 -0.1958
  148MPD2    H7 2266   3.953   2.989  10.568 -1.2552 -0.0112 -0.0074
  149TCq2    C1 2267   3.992   3.187  10.605 -0.3561  0.1533 -0.4215
  149TCq2    O2 2268   3.970   3.304  10.609  0.2241  0.1148 -0.0105
  149TCq2    C2 2269   4.133   3.143  10.617 -0.2727  0.4396  0.3362
  149TCq2    C3 2270   4.220   3.245  10.602  0.3751 -0.1296 -0.6022
  149TCq2    C4 2271   4.343   3.220  10.550  0.1568 -0.6253  0.2120
  149TCq2    C5 2272   4.368   3.104  10.484  0.2709  0.2995  0.6737
  149TCq2    C6 2273   4.281   3.000  10.503  0.0886  0.1085 -0.6177
  149TCq2    C7 2274   4.162   3.019  10.566 -0.2446  0.1506  0.7902
  149TCq2    C8 2275   4.262   2.905  10.398 -0.1600  0.4367 -0.0725
  149TCq2    O4 2276   4.157   2.836  10.406 -0.6427  0.7691  0.4331
  149TCq2    C9 2277   4.418   3.334  10.518 -0.3443  0.2332  0.3337
  149TCq2    O5 2278   4.350   3.442  10.501 -0.4510 -0.3119 -0.2771
  149TCq2    O6 2279   4.521   3.304  10.449  0.1244  0.0124 -0.4556
  149TCq2    H2 2280   4.201   3.345  10.638 -0.6098  0.1244 -1.8550
  149TCq2    H3 2281   4.463   3.080  10.438  0.1511  1.4852 -0.1862
  149TCq2    H4 2282   4.110   2.930  10.597  1.2730 -0.5091  1.4354
  150MPD2     C 2283   0.398   2.345  11.795 -0.0652 -0.4676 -0.3454
  150MPD2    C1 2284   0.386   2.467  11.727  0.3494 -0.4846 -0.2155
  150MPD2    C2 2285   0.508   2.528  11.701  0.3728  0.3585  0.1754
  150MPD2    C3 2286   0.630   2.482  11.747  0.4985 -0.7026 -0.4108
  150MPD2    C4 2287   0.636   2.348  11.802  0.2509 -0.0222  0.0259
  150MPD2    C5 2288   0.517   2.287  11.813 -0.4428 -0.0874 -0.5051
  150MPD2     H 2289   0.510   2.623  11.649 -3.5658  0.3911  0.1436
  150MPD2    H1 2290   0.730   2.304  11.835 -0.7492 -1.0332  1.5203
  150MPD2    H2 2291   0.308   2.289  11.819  0.6275 -1.3565  0.1912
  150MPD2    H3 2292   0.522   2.187  11.855  1.0970  0.4413  0.6034
  150MPD2     N 2293   0.744   2.564  11.735  0.0551  0.0414 -0.8035
  150MPD2    H5 2294   0.723   2.657  11.701 -0.7205 -0.2437 -1.1119
  150MPD2    N1 2295   0.260   2.520  11.685 -0.5386  0.0636 -0.2021
  150MPD2    H7 2296   0.183   2.455  11.702 -0.0216 -0.5181 -0.0914
  151TCq2    C1 2297   0.874   2.546  11.778  0.5168 -0.0563 -0.9092
  151TCq2    O2 2298   0.925   2.453  11.836  0.1922 -0.2284 -0.9793
  151TCq2    C2 2299   0.943   2.680  11.777  0.5473  0.2593  0.7369
  151TCq2    C3 2300   0.875   2.797  11.760 -0.3540 -0.5388  0.5913
  151TCq2    C4 2301   0.934   2.909  11.816 -0.1309 -0.9401  0.0399
  151TCq2    C5 2302   1.054   2.904  11.888  0.2645  0.0385 -0.0073
  151TCq2    C6 2303   1.115   2.788  11.894  0.0965  0.5932 -0.3811
  151TCq2    C7 2304   1.060   2.672  11.843  0.2705 -1.0415 -0.2714
  151TCq2    C8 2305   1.236   2.779  11.985  0.5186 -0.6380  0.3608
  151TCq2    O4 2306   1.279   2.885  12.020 -0.6702 -0.1652  0.0591
  151TCq2    C9 2307   0.860   3.032  11.802 -1.0605  0.4546  0.5425
  151TCq2    O5 2308   0.912   3.142  11.839 -0.6736  0.3113  0.3847
  151TCq2    O6 2309   0.737   3.019  11.782  0.0783 -0.5543 -0.8773
  151TCq2    H2 2310   0.785   2.809  11.701 -0.4085 -0.8353  0.6147
  151TCq2    H3 2311   1.096   2.998  11.923 -0.9961  0.6800 -0.2477
  151TCq2    H4 2312   1.113   2.578  11.861  1.2425 -0.4392  0.0119
  152MPD2     C 2313   0.164   1.865  12.521  0.1495 -0.3354 -0.1541
  152MPD2    C1 2314   0.164   1.953  12.419 -0.2536  0.5887 -0.6129
  152MPD2    C2 2315   0.040   1.998  12.366 -0.4575  0.1633  0.1811
  152MPD2    C3 2316   4.652   1.936  12.410  0.4210 -0.5507  0.1505
  152MPD2    C4 2317   4.656   1.845  12.514  0.0539 -0.0248  0.0368
  152MPD2    C5 2318   0.045   1.813  12.575  1.1554 -0.1030  0.2412
  152MPD2     H 2319   0.034   2.082  12.299 -0.5652 -1.2265 -1.5382
  152MPD2    H1 2320   4.568   1.790  12.546 -0.3219  1.9607  2.4088
  152MPD2    H2 2321   0.260   1.832  12.559  0.2219 -1.2651 -1.1554
  152MPD2    H3 2322   0.045   1.747  12.662 -1.5247  1.3404  1.3427
  152MPD2     N 2323   4.533   1.963  12.341 -0.4689  1.1675  0.0018
  152MPD2    H5 2324   4.539   2.034  12.268  0.3615 -0.1535 -1.2003
  152MPD2    N1 2325   0.291   1.997  12.372 -0.0671  0.3528 -0.3763
  152MPD2    H7 2326   0.370   1.967  12.428  0.3921  0.5310 -0.9199
  153TCq2    C1 2327   0.310   2.090  12.272  1.0804  0.4075 -0.5511
  153TCq2    O2 2328   0.230   2.147  12.204 -0.0619 -0.1209  0.1072
  153TCq2    C2 2329   0.450   2.118  12.256 -0.2255  0.0498 -0.4650
  153TCq2    C3 2330   0.540   2.015  12.267 -0.2275  0.6819  0.2867
  153TCq2    C4 2331   0.666   2.037  12.225  0.4573  0.4932  0.3451
  153TCq2    C5 2332   0.710   2.154  12.176 -0.6660  0.2965  0.6825
  153TCq2    C6 2333   0.614   2.252  12.155 -0.8654  0.0884 -0.4969
  153TCq2    C7 2334   0.485   2.232  12.193  0.2433 -0.2950 -0.1132
  153TCq2    C8 2335   0.661   2.392  12.140 -0.8893 -0.0282 -0.9062
  153TCq2    O4 2336   0.577   2.482  12.149 -0.1192  0.1423  0.0524
  153TCq2    C9 2337   0.761   1.928  12.239 -0.5237  0.9821 -0.3125
  153TCq2    O5 2338   0.854   1.922  12.145 -0.5573  0.9710  0.1385
  153TCq2    O6 2339   0.750   1.851  12.333 -0.2815 -0.3414  0.4717
  153TCq2    H2 2340   0.521   1.918  12.312  1.0510 -1.4135 -3.7675
  153TCq2    H3 2341   0.811   2.161  12.139 -1.4782  0.1634 -1.6000
  153TCq2    H4 2342   0.406   2.305  12.182 -1.4329 -2.1273 -0.2790
  154MPD2     C 2343   2.020   2.431  17.602 -0.2025  0.1581  0.3832
  154MPD2    C1 2344   2.076   2.423   0.023 -0.2808 -0.5502  0.7238
  154MPD2    C2 2345   2.144   2.521   0.084 -0.3768 -0.4286  0.1047
  154MPD2    C3 2346   2.160   2.637   0.008  0.3836  0.3606  0.0764
  154MPD2    C4 2347   2.104   2.647  17.582  0.3083 -0.0602 -0.1921
  154MPD2    C5 2348   2.035   2.541  17.529  0.3463 -0.5792 -0.4797
  154MPD2     H 2349   2.171   2.524   0.189 -0.5313 -1.7123  0.1780
  154MPD2    H1 2350   2.108   2.738  17.522 -0.7609  0.9736  1.3239
  154MPD2    H2 2351   1.962   2.345  17.569  0.7707 -0.9074  1.4969
  154MPD2    H3 2352   1.982   2.553  17.435  0.0214 -0.7789 -0.3196
  154MPD2     N 2353   2.231   2.743   0.078  0.4238 -0.2271 -0.1685
  154MPD2    H5 2354   2.275   2.716   0.166 -2.7662 -0.7552  1.2684
  154MPD2    N1 2355   2.047   2.298   0.088  0.3597 -0.6121  0.1165
  154MPD2    H7 2356   1.977   2.239   0.043 -1.0266  0.0295  1.4269
  155TCq2    C1 2357   2.122   2.254   0.188  0.4019 -0.6644  0.1877
  155TCq2    O2 2358   2.215   2.302   0.253  0.2250  0.1445 -0.6302
  155TCq2    C2 2359   2.084   2.114   0.230  0.9049  0.6720  0.4663
  155TCq2    C3 2360   1.972   2.047   0.179  0.0052  1.1376  0.0189
  155TCq2    C4 2361   1.945   1.919   0.220 -0.6783 -0.7599 -0.1990
  155TCq2    C5 2362   2.027   1.854   0.306  0.0040  0.4035 -0.4934
  155TCq2    C6 2363   2.139   1.924   0.355 -0.2049 -0.2235 -0.5604
  155TCq2    C7 2364   2.171   2.051   0.311  0.5518 -0.1953 -0.4491
  155TCq2    C8 2365   2.236   1.845   0.435 -0.7955 -0.1219  1.0779
  155TCq2    O4 2366   2.213   1.732   0.458 -0.3338 -0.0312 -0.1667
  155TCq2    C9 2367   1.834   1.846   0.171  0.7237 -0.1256  0.5465
  155TCq2    O5 2368   1.836   1.724   0.190  0.7320 -0.2241  0.4063
  155TCq2    O6 2369   1.786   1.900   0.072  0.4044  0.0428 -0.0116
  155TCq2    H2 2370   1.902   2.088   0.108 -0.9549 -2.2460 -1.0047
  155TCq2    H3 2371   2.008   1.752   0.338  2.3632  0.5522  1.4537
  155TCq2    H4 2372   2.261   2.102   0.343 -0.1871  1.2957 -0.7534
  156MPD2     C 2373   0.337   4.305  11.827 -0.2273 -0.8243  0.1871
  156MPD2    C1 2374   0.215   4.369  11.828  0.6627  0.0795 -0.6519
  156MPD2    C2 2375   0.140   4.358  11.939  0.1841  0.1141 -0.3879
  156MPD2    C3 2376   0.183   4.286  12.047 -0.0738 -0.4769  0.5903
  156MPD2    C4 2377   0.304   4.217  12.040  0.1212 -0.0036  0.0520
  156MPD2    C5 2378   0.374   4.217  11.925  0.1256  0.6503 -0.2648
  156MPD2     H 2379   0.041   4.402  11.945 -0.5474 -2.0189  3.2946
  156MPD2    H1 2380   0.352   4.161  12.120  0.7914  1.3150  0.5739
  156MPD2    H2 2381   0.397   4.312  11.738 -0.7575  0.6472 -0.0491
  156MPD2    H3 2382   0.468   4.162  11.923 -0.6108 -0.7815  3.2522
  156MPD2     N 2383   0.106   4.295  12.170 -0.0279  0.2394 -0.2747
  156MPD2    H5 2384   0.018   4.345  12.167 -0.2791 -0.1176  0.9151
  156MPD2    N1 2385   0.169   4.438  11.708 -0.7940 -0.0907  0.2447
  156MPD2    H7 2386   0.237   4.446  11.633 -1.8461  0.4746 -0.6604
  157TCq2    C1 2387   0.050   4.509  11.695 -0.5798  0.1579 -0.1980
  157TCq2    O2 2388   4.689   4.537  11.777  0.2290  0.2943 -0.2603
  157TCq2    C2 2389   0.044   4.576  11.565  0.3210 -0.0391 -0.2291
  157TCq2    C3 2390   4.693   4.689  11.550 -0.0128 -0.8587  0.2701
  157TCq2    C4 2391   4.707   0.046  11.440  0.1833 -0.0859 -0.5556
  157TCq2    C5 2392   0.065   0.005  11.339 -0.0425 -0.3420 -0.3357
  157TCq2    C6 2393   0.144   4.617  11.353  1.0087  0.0016  0.1026
  157TCq2    C7 2394   0.131   4.538  11.464  0.4411 -0.5524  0.2285
  157TCq2    C8 2395   0.231   4.571  11.241 -0.5805  0.0702  0.0783
  157TCq2    O4 2396   0.273   4.452  11.246  0.1222  0.1199  0.2233
  157TCq2    C9 2397   4.633   0.168  11.423 -0.0594  0.2287  0.9032
  157TCq2    O5 2398   4.549   0.197  11.513  0.4419  1.3122 -0.2038
  157TCq2    O6 2399   4.662   0.237  11.321  0.0423 -0.7568 -0.0030
  157TCq2    H2 2400   4.632   4.718  11.635 -0.3748 -0.9711  0.0492
  157TCq2    H3 2401   0.066   0.058  11.245  2.5386 -0.9733 -0.6672
  157TCq2    H4 2402   0.194   4.449  11.462 -2.6981 -2.7636 -1.3247
  158TMC2    C1 2403   1.368   3.334  13.674  0.0052  0.2930 -0.6945
  158TMC2    C2 2404   1.389   3.467  13.641  0.1337 -0.1978  0.5850
  158TMC2    C3 2405   1.278   3.554  13.642 -0.2450 -0.1756  0.3520
  158TMC2    C4 2406   1.243   3.296  13.725 -0.0485  0.0505 -0.3591
  158TMC2    C5 2407   1.140   3.395  13.727 -0.1544 -0.6993 -0.6106
  158TMC2    C6 2408   1.155   3.519  13.679 -0.0807  0.2628 -0.1183
  158TMC2     C 2409   1.482   3.248  13.684 -0.7497 -0.1476  0.1381
  158TMC2     O 2410   1.592   3.286  13.650 -0.2859  0.1131  0.0690
  158TMC2     H 2411   1.481   3.509  13.603 -0.4344 -0.8979 -1.5809
  158TMC2    H1 2412   1.215   3.196  13.755 -0.5320 -0.3620 -2.1747
  158TMC2    H2 2413   1.073   3.589  13.665 -0.2731 -0.7200 -3.8711
  158TMC2    C7 2414   1.013   3.365  13.783 -0.1485 -0.1874  0.2898
  158TMC2    C8 2415   1.300   3.664  13.558  0.5570  0.3450 -0.0214
  158TMC2    O1 2416   0.954   3.462  13.828  0.1864 -0.4019 -0.2042
  158TMC2    O2 2417   1.413   3.708  13.539 -0.6150  0.1600 -0.3344
  158TMC2    O5 2418   1.208   3.647  13.461 -0.5904  0.2533  0.2445
  158TMC2    H5 2419   1.129   3.589  13.465 -1.9733  2.1949  1.2027
  159MPD2     C 2420   1.684   2.780  13.830  0.0016 -0.5413  0.2139
  159MPD2    C1 2421   1.555   2.793  13.870 -0.0703 -0.0696 -0.3793
  159MPD2    C2 2422   1.485   2.908  13.838 -0.6264  0.7809 -0.3292
  159MPD2    C3 2423   1.541   3.013  13.766  0.6497 -0.1816 -0.1122
  159MPD2    C4 2424   1.674   3.000  13.714 -0.2637 -0.1627 -0.1432
  159MPD2    C5 2425   1.733   2.887  13.748  0.5441  0.1082 -0.7780
  159MPD2     H 2426   1.381   2.927  13.864 -1.7121 -1.4226 -2.9733
  159MPD2    H1 2427   1.726   3.066  13.645 -2.2760  0.5065 -1.0039
  159MPD2    H2 2428   1.751   2.699  13.853 -0.0091 -0.6144 -0.0101
  159MPD2    H3 2429   1.834   2.878  13.709  0.8622 -1.5169  0.4160
  159MPD2     N 2430   1.458   3.127  13.742 -0.6605  0.0246 -0.5496
  159MPD2    H5 2431   1.368   3.129  13.788 -0.9230 -3.8243 -0.9502
  159MPD2    N1 2432   1.501   2.678  13.928  0.1868  0.1036  0.1190
  159MPD2    H7 2433   1.558   2.594  13.937  0.0560  0.3611  3.4948
  160TMC2    C1 2434   1.402   1.993   1.366  0.0894 -0.3352 -0.1853
  160TMC2    C2 2435   1.521   2.029   1.423 -0.6487 -0.1274 -0.0484
  160TMC2    C3 2436   1.630   2.059   1.350  0.4093  0.6398  0.2718
  160TMC2    C4 2437   1.389   2.014   1.231 -0.8190  0.2769 -0.2089
  160TMC2    C5 2438   1.496   2.062   1.166 -0.6332 -0.3179 -0.0537
  160TMC2    C6 2439   1.621   2.087   1.222 -0.7838  0.5490 -0.0802
  160TMC2     C 2440   1.308   1.913   1.431 -0.3455  0.5600 -0.5494
  160TMC2     O 2441   1.362   1.838   1.516  0.0449  0.1159 -0.3199
  160TMC2     H 2442   1.535   1.996   1.525 -0.8493 -1.1037 -0.3310
  160TMC2    H1 2443   1.291   2.024   1.185 -0.4292 -0.2278 -1.1591
  160TMC2    H2 2444   1.707   2.128   1.170 -0.1880 -1.4254 -0.6437
  160TMC2    C7 2445   1.465   2.111   1.035 -0.3111 -0.2292  0.3606
  160TMC2    C8 2446   1.761   2.070   1.421 -0.0868  0.2836 -0.2855
  160TMC2    O1 2447   1.361   2.084   0.975 -0.0939 -0.2594  0.2767
  160TMC2    O2 2448   1.870   2.043   1.374  0.6530  0.2686 -0.5815
  160TMC2    O5 2449   1.746   2.128   1.536  0.2703  0.2750  0.2163
  160TMC2    H5 2450   1.658   2.168   1.554 -0.3980 -1.1079  0.0060
  161MPD2     C 2451   1.052   1.768   1.510 -0.0326 -0.0738  0.1614
  161MPD2    C1 2452   1.059   1.888   1.448  0.6869 -1.7362 -0.3078
  161MPD2    C2 2453   0.943   1.958   1.419  0.0485  0.5317  0.3652
  161MPD2    C3 2454   0.820   1.909   1.454 -0.0915 -0.1879  0.4491
  161MPD2    C4 2455   0.813   1.783   1.517 -0.2727 -0.0256 -0.2116
  161MPD2    C5 2456   0.924   1.712   1.536 -0.1333 -0.0825  0.3862
  161MPD2     H 2457   0.955   2.059   1.380  0.2974  0.8677  1.3128
  161MPD2    H1 2458   0.721   1.744   1.560 -0.1131 -0.8303 -0.6077
  161MPD2    H2 2459   1.143   1.711   1.528  0.2598 -0.4338 -2.4618
  161MPD2    H3 2460   0.914   1.610   1.573  0.0150 -0.3173 -0.2163
  161MPD2     N 2461   0.700   1.980   1.423 -0.4289 -0.1618  0.1435
  161MPD2    H5 2462   0.613   1.933   1.445 -0.1544  0.0281  1.6229
  161MPD2    N1 2463   1.178   1.948   1.404  0.1667  0.2424  0.1658
  161MPD2    H7 2464   1.169   2.030   1.345 -0.0257 -0.1137 -0.3056
  162TMC2    C1 2465   3.458   3.821   0.743 -0.6232  0.0861 -0.1718
  162TMC2    C2 2466   3.401   3.905   0.651  0.2311 -0.2184 -0.2808
  162TMC2    C3 2467   3.295   3.976   0.680 -0.9614 -0.1806  0.3914
  162TMC2    C4 2468   3.412   3.801   0.866  0.3120  0.2387  0.4818
  162TMC2    C5 2469   3.307   3.887   0.898 -0.4288  0.0460 -0.2484
  162TMC2    C6 2470   3.245   3.965   0.804 -0.5153 -0.3709  0.2370
  162TMC2     C 2471   3.589   3.765   0.706  0.4304  1.2054  0.8067
  162TMC2     O 2472   3.608   3.748   0.588  0.6577 -0.0563 -0.0798
  162TMC2     H 2473   3.453   3.913   0.556 -1.9157 -0.2399 -1.4451
  162TMC2    H1 2474   3.450   3.724   0.931  3.0905  2.0896  1.0509
  162TMC2    H2 2475   3.157   4.021   0.835 -1.7156 -1.1552 -1.7235
  162TMC2    C7 2476   3.260   3.892   1.035  0.1445  0.1026 -0.2774
  162TMC2    C8 2477   3.235   4.056   0.579 -1.3646 -0.0929 -0.0225
  162TMC2    O1 2478   3.156   3.954   1.061  0.3552  1.2470  0.2212
  162TMC2    O2 2479   3.174   4.157   0.610 -0.4328  0.2280  0.0154
  162TMC2    O5 2480   3.198   3.968   0.477 -0.0368  0.0063  0.3113
  162TMC2    H5 2481   3.223   3.875   0.493  0.0556 -0.1482 -0.7238
  163MPD2     C 2482   4.038   3.515   0.792 -0.2566  0.0793  0.0906
  163MPD2    C1 2483   3.984   3.567   0.675  0.1868 -0.2330  0.1749
  163MPD2    C2 2484   3.866   3.642   0.674 -0.1641  0.0762 -0.1401
  163MPD2    C3 2485   3.803   3.679   0.796 -0.3902 -0.8839  0.5230
  163MPD2    C4 2486   3.869   3.635   0.914 -0.1984 -0.1229  0.3717
  163MPD2    C5 2487   3.979   3.553   0.908  0.9081 -0.2123 -0.5883
  163MPD2     H 2488   3.826   3.676   0.580 -1.1966  0.6348  0.4974
  163MPD2    H1 2489   3.833   3.646   1.015 -0.0802 -0.5620  0.4636
  163MPD2    H2 2490   4.111   3.435   0.794 -0.6811 -0.3053  0.4152
  163MPD2    H3 2491   4.024   3.513   0.998  0.2399 -1.1996 -0.6878
  163MPD2     N 2492   3.677   3.736   0.811 -0.6179  0.5369  0.1570
  163MPD2    H5 2493   3.652   3.765   0.905 -1.5642 -0.1062  0.1061
  163MPD2    N1 2494   4.042   3.521   0.553  0.0137  0.5599 -0.6166
  163MPD2    H7 2495   4.122   3.459   0.552 -1.5150 -1.3984  2.5571
  164TCq2    C1 2496   4.030   3.172  11.083 -0.3580 -0.8718 -0.4512
  164TCq2    O2 2497   3.959   3.101  11.152 -0.2787  0.2047 -0.3405
  164TCq2    C2 2498   4.013   3.313  11.105 -0.2621 -0.4294  0.3788
  164TCq2    C3 2499   4.070   3.415  11.027  0.3538 -0.4997 -0.0140
  164TCq2    C4 2500   4.010   3.539  11.032 -0.7475  0.0774  0.2716
  164TCq2    C5 2501   3.917   3.577  11.125  0.1243 -0.2251  0.3958
  164TCq2    C6 2502   3.867   3.469  11.203  0.6617  0.4853 -0.6890
  164TCq2    C7 2503   3.916   3.342  11.197 -0.3635  0.1126 -0.4757
  164TCq2    C8 2504   3.750   3.495  11.280 -0.9701 -0.0706 -0.3693
  164TCq2    O4 2505   3.738   3.437  11.387 -0.6418 -0.0248 -0.2178
  164TCq2    C9 2506   4.064   3.645  10.949 -0.4795 -0.0296 -0.5179
  164TCq2    O5 2507   4.078   3.759  11.006  0.6181  0.1122 -0.6593
  164TCq2    O6 2508   4.109   3.613  10.836 -0.3576 -0.0136 -0.1015
  164TCq2    H2 2509   4.142   3.406  10.946  0.3267  0.3246 -0.1302
  164TCq2    H3 2510   3.884   3.680  11.126  1.5179  0.2036  1.9728
  164TCq2    H4 2511   3.863   3.268  11.256  0.5738 -0.2204 -0.0447
  165MPD2     C 2512   0.945   0.422   0.777  0.0475  0.0475 -1.0645
  165MPD2    C1 2513   0.807   0.404   0.772  0.4227  0.1815  0.0943
  165MPD2    C2 2514   0.718   0.496   0.830 -0.2597 -0.2649 -0.1382
  165MPD2    C3 2515   0.771   0.617   0.876 -0.5572 -0.1754 -0.5098
  165MPD2    C4 2516   0.905   0.634   0.879 -0.3738  0.3479 -0.5591
  165MPD2    C5 2517   0.989   0.540   0.831  0.1081 -0.3186  0.0294
  165MPD2     H 2518   0.611   0.484   0.821 -0.3030  0.1700 -0.2171
  165MPD2    H1 2519   0.961   0.722   0.908  0.5076 -0.0592 -1.0576
  165MPD2    H2 2520   1.017   0.359   0.726  1.5846  1.7673 -1.0338
  165MPD2    H3 2521   1.095   0.561   0.823  0.0053  0.8374  1.8451
  165MPD2     N 2522   0.692   0.717   0.939  0.3930 -0.4926  0.0460
  165MPD2    H5 2523   0.743   0.804   0.955  2.7576 -1.8120 -0.2752
  165MPD2    N1 2524   0.771   0.283   0.706 -0.0431  0.2278 -0.0858
  165MPD2    H7 2525   0.846   0.223   0.671  0.9206  0.4460  1.6107
  166TCq2    C1 2526   0.560   0.708   0.986 -0.5268  0.2281  0.4470
  166TCq2    O2 2527   0.491   0.606   0.966 -0.3405  0.1705 -0.3513
  166TCq2    C2 2528   0.507   0.832   1.050  0.7238  0.3862  0.4123
  166TCq2    C3 2529   0.409   0.808   1.136  0.0802 -0.7709 -0.4553
  166TCq2    C4 2530   0.372   0.907   1.223 -0.9389  0.4329  0.2445
  166TCq2    C5 2531   0.447   1.022   1.226 -0.4488 -0.3435 -0.3315
  166TCq2    C6 2532   0.544   1.041   1.136  0.1339 -0.2092 -0.1582
  166TCq2    C7 2533   0.579   0.947   1.047  0.6833  0.5304  0.3608
  166TCq2    C8 2534   0.628   1.158   1.146 -0.3279 -0.1092  0.9939
  166TCq2    O4 2535   0.745   1.144   1.110  0.8521  0.4971  0.2030
  166TCq2    C9 2536   0.251   0.896   1.309 -0.3588  0.4297  0.1328
  166TCq2    O5 2537   0.227   0.986   1.390 -0.4050  0.2551  0.6323
  166TCq2    O6 2538   0.192   0.787   1.320 -0.6206  0.3689  0.2172
  166TCq2    H2 2539   0.355   0.715   1.141  0.8449 -1.3346 -2.5912
  166TCq2    H3 2540   0.422   1.099   1.298  0.1853 -1.6801  1.3034
  166TCq2    H4 2541   0.645   0.983   0.969  1.5167 -2.9163 -0.5405
  167TMC2    C1 2542   2.963   3.148  12.631 -0.6417  0.7020  0.3581
  167TMC2    C2 2543   2.910   3.191  12.749 -0.4046 -0.3617  0.4190
  167TMC2    C3 2544   2.926   3.122  12.863 -0.2725 -0.3043  0.7588
  167TMC2    C4 2545   3.055   3.044  12.637  0.1501 -0.1469  0.3818
  167TMC2    C5 2546   3.075   2.981  12.763  0.6739  0.4640 -0.3878
  167TMC2    C6 2547   3.010   3.017  12.877  0.3205  0.0192 -0.3831
  167TMC2     C 2548   2.940   3.229  12.506 -0.6012 -0.1332 -0.1329
  167TMC2     O 2549   2.892   3.342  12.512 -0.5502  0.4701  0.3973
  167TMC2     H 2550   2.853   3.283  12.750 -0.7346 -0.5381 -2.4684
  167TMC2    H1 2551   3.096   3.009  12.543  2.4044 -0.3685  1.4407
  167TMC2    H2 2552   3.019   2.964  12.971 -1.5850 -1.6802 -1.1489
  167TMC2    C7 2553   3.141   2.850  12.761  0.0411  0.2488  0.6016
  167TMC2    C8 2554   2.879   3.168  12.993  0.0777  0.2422 -0.0342
  167TMC2    O1 2555   3.111   2.780  12.854 -0.0786  0.0076 -0.4331
  167TMC2    O2 2556   2.860   3.100  13.095  0.3507 -0.2235  0.3845
  167TMC2    O5 2557   2.919   3.299  13.000 -0.6782  0.6896 -0.8723
  167TMC2    H5 2558   2.951   3.349  12.922  1.1261  1.0618  0.0895
  168MPD2     C 2559   3.007   3.340  12.238  0.3550  0.1915  0.8735
  168MPD2    C1 2560   2.988   3.204  12.265  0.0300 -0.0100 -0.4178
  168MPD2    C2 2561   2.985   3.104  12.167  1.0919  0.3487  0.5053
  168MPD2    C3 2562   3.004   3.142  12.034  0.4511  0.0586 -0.1509
  168MPD2    C4 2563   3.024   3.274  12.006  0.1315  0.2592  0.2304
  168MPD2    C5 2564   3.033   3.370  12.110 -0.1456  0.2891  0.9447
  168MPD2     H 2565   2.972   3.000  12.194  0.7264  0.1974 -0.2621
  168MPD2    H1 2566   3.052   3.318  11.911  3.1488  0.0971  1.0368
  168MPD2    H2 2567   3.014   3.416  12.315 -1.4188  1.2769 -0.0305
  168MPD2    H3 2568   3.062   3.469  12.080  0.2411 -0.4808 -1.1918
  168MPD2     N 2569   3.019   3.041  11.931 -0.0325  0.5311  0.0650
  168MPD2    H5 2570   3.033   3.083  11.840  0.7174  3.3989  1.5096
  168MPD2    N1 2571   2.961   3.153  12.392  0.3844 -0.4155  0.8644
  168MPD2    H7 2572   2.958   3.052  12.398  0.2614 -0.3616  1.6980
  169MPD1     C 2573   0.843   2.628   8.332 -0.1113 -0.3400  0.3897
  169MPD1    C1 2574   0.977   2.613   8.347  0.3485 -0.5798  0.3680
  169MPD1    C2 2575   1.019   2.557   8.465 -0.2997 -0.7150 -0.1048
  169MPD1    C3 2576   0.943   2.533   8.574  0.0028 -0.9469 -0.0962
  169MPD1    C4 2577   0.810   2.568   8.563  0.2557 -0.3357 -0.4170
  169MPD1    C5 2578   0.764   2.616   8.444  0.6970  0.5446  0.5089
  169MPD1     H 2579   1.127   2.545   8.471  0.1108  3.5633  0.8753
  169MPD1    H1 2580   0.742   2.567   8.647 -0.0447  1.1321 -0.6476
  169MPD1    H2 2581   0.806   2.665   8.237  1.3734 -2.9633 -1.1987
  169MPD1    H3 2582   0.663   2.646   8.416  0.2210  0.3890  2.0566
  169MPD1     N 2583   1.000   2.477   8.687  0.0417  0.2268 -0.1161
  169MPD1    H5 2584   1.101   2.470   8.695  0.2007  1.3537 -1.1816
  169MPD1    N1 2585   1.065   2.636   8.240 -0.0136 -0.4036  0.0765
  169MPD1    H6 2586   1.159   2.669   8.261 -0.6675  0.8831  1.0477
  169MPD1    H7 2587   1.026   2.693   8.165 -1.1360  0.6054  1.4111
  170MPD1     C 2588   0.229   0.244  12.927  0.0681  0.5231  0.7062
  170MPD1    C1 2589   0.161   0.207  13.036  0.7175 -0.5361 -0.5354
  170MPD1    C2 2590   0.049   0.278  13.073  0.1978  0.0927 -0.2297
  170MPD1    C3 2591   4.715   0.376  12.998  0.2737  0.6490 -0.1545
  170MPD1    C4 2592   0.057   0.408  12.882  0.6048 -0.3605 -0.0080
  170MPD1    C5 2593   0.170   0.339  12.843 -0.4346 -0.0467  0.4580
  170MPD1     H 2594   0.013   0.256  13.173 -2.6627  2.7837 -0.6580
  170MPD1    H1 2595   0.009   0.471  12.807 -0.6728 -1.3918 -0.0657
  170MPD1    H2 2596   0.328   0.209  12.901 -0.6314 -0.5021 -0.5981
  170MPD1    H3 2597   0.221   0.366  12.752 -2.1319  0.4590 -0.3340
  170MPD1     N 2598   4.593   0.436  13.040  0.3891 -0.5219  0.5229
  170MPD1    H5 2599   4.548   0.400  13.124  1.9091 -0.5037  1.3474
  170MPD1    N1 2600   0.222   0.110  13.116 -0.3830  0.6385 -0.2601
  170MPD1    H6 2601   0.283   0.042  13.072 -1.8860  0.4716 -2.1037
  170MPD1    H7 2602   0.156   0.053  13.169 -0.7241  1.1277 -0.1568
  171MPD1     C 2603   2.979   2.006  14.935  0.3646 -0.5305  0.4299
  171MPD1    C1 2604   2.925   1.876  14.910 -0.2365 -0.6067  0.8375
  171MPD1    C2 2605   2.970   1.784  15.005 -0.5229 -0.3761  1.3216
  171MPD1    C3 2606   3.038   1.815  15.125  0.5538  0.7021  0.0621
  171MPD1    C4 2607   3.077   1.941  15.149 -0.3718  0.0431  0.5255
  171MPD1    C5 2608   3.050   2.036  15.051 -0.1021 -0.0994 -0.0318
  171MPD1     H 2609   2.929   1.686  14.985  0.3300 -0.4781  0.0553
  171MPD1    H1 2610   3.140   1.959  15.236  0.8769  0.1417 -0.3970
  171MPD1    H2 2611   2.963   2.082  14.859 -0.7444 -1.3381 -0.1633
  171MPD1    H3 2612   3.088   2.134  15.078  0.5513 -0.4004  0.1434
  171MPD1     N 2613   3.062   1.721  15.232  0.2341 -0.9096 -0.1005
  171MPD1    H5 2614   3.113   1.754  15.314 -1.0777 -0.2004  0.4400
  171MPD1    N1 2615   2.878   1.845  14.781  0.1883 -0.1068 -0.5743
  171MPD1    H6 2616   2.817   1.917  14.744 -0.4592 -0.0030  0.6847
  171MPD1    H7 2617   2.820   1.761  14.777 -1.1767  1.0073 -3.9474
  172MPD1     C 2618   2.442   0.814  17.453  0.2296  0.2323 -0.2525
  172MPD1    C1 2619   2.368   0.921  17.401  0.4481  0.3102 -0.2606
  172MPD1    C2 2620   2.350   1.022  17.497 -0.0101 -0.0257 -0.0724
  172MPD1    C3 2621   2.388   1.022  17.628 -0.2723 -0.4573  0.4012
  172MPD1    C4 2622   2.433   0.901  17.675  0.1871  1.1006 -0.0635
  172MPD1    C5 2623   2.472   0.805  17.588  0.0760 -0.5745 -0.5701
  172MPD1     H 2624   2.313   1.117  17.462 -0.6813 -0.6818 -1.1469
  172MPD1    H1 2625   2.454   0.893   0.081  0.9620  2.5146 -0.1104
  172MPD1    H2 2626   2.481   0.737  17.388  0.7119 -0.0379  0.3608
  172MPD1    H3 2627   2.521   0.716  17.625 -0.1517 -0.1808  0.7016
  172MPD1     N 2628   2.372   1.121   0.021  0.2952  0.3700 -0.6353
  172MPD1    H5 2629   2.401   1.101   0.117  0.1910  3.4813  0.0469
  172MPD1    N1 2630   2.360   0.951  17.265  0.7157  0.7265  0.2674
  172MPD1    H6 2631   2.357   0.873  17.200  1.2581 -1.3552  2.7235
  172MPD1    H7 2632   2.274   1.003  17.253  2.1556  2.3613 -2.9684
  173MPD1     C 2633   3.461   0.666  13.716 -0.2328 -0.1450 -0.2501
  173MPD1    C1 2634   3.344   0.672  13.792  0.8792 -0.0567 -0.5828
  173MPD1    C2 2635   3.346   0.583  13.898  0.5585 -0.1495  0.7500
  173MPD1    C3 2636   3.458   0.511  13.931 -0.1865  0.5219 -0.4663
  173MPD1    C4 2637   3.565   0.504  13.844  0.3697 -0.1929 -0.3699
  173MPD1    C5 2638   3.567   0.592  13.744 -0.1090  0.2048  0.1091
  173MPD1     H 2639   3.266   0.578  13.970 -0.6566  1.9302 -0.4900
  173MPD1    H1 2640   3.653   0.441  13.845  0.5297  0.0232 -1.9279
  173MPD1    H2 2641   3.459   0.714  13.618  0.3615  0.5906  0.0970
  173MPD1    H3 2642   3.650   0.586  13.674  0.5351  0.9628  0.8139
  173MPD1     N 2643   3.454   0.431  14.043  0.2271  0.1606  0.4744
  173MPD1    H5 2644   3.363   0.422  14.087  0.6525  0.9638  1.5140
  173MPD1    N1 2645   3.227   0.737  13.750 -0.2016 -0.2927 -0.0088
  173MPD1    H6 2646   3.173   0.777  13.827  0.5392  0.0149  0.3537
  173MPD1    H7 2647   3.254   0.823  13.703 -2.5571  0.1587 -0.5093
  174MPD1     C 2648   4.001   0.319  14.848  0.3311 -0.2634 -0.0677
  174MPD1    C1 2649   3.913   0.217  14.866 -0.5748 -0.4705 -0.3701
  174MPD1    C2 2650   3.814   0.197  14.770  0.7217  0.2221 -0.3419
  174MPD1    C3 2651   3.822   0.268  14.653 -0.3883 -0.2378  1.2063
  174MPD1    C4 2652   3.930   0.354  14.631  0.0581  0.2780  0.3521
  174MPD1    C5 2653   4.020   0.385  14.733  0.4014  0.8016  0.5816
  174MPD1     H 2654   3.737   0.122  14.786  0.5085  0.8579  1.6958
  174MPD1    H1 2655   3.938   0.412  14.540  0.6446  0.4953  0.5438
  174MPD1    H2 2656   4.069   0.348  14.928  0.5654 -2.7216  0.6272
  174MPD1    H3 2657   4.104   0.453  14.731  1.6341 -0.6589  2.2515
  174MPD1     N 2658   3.716   0.280  14.558 -0.4417  0.8558 -0.3084
  174MPD1    H5 2659   3.730   0.352  14.488 -0.5016  0.2844 -0.9101
  174MPD1    N1 2660   3.910   0.149  14.987 -0.1946 -0.3701  0.4436
  174MPD1    H6 2661   3.862   0.059  14.978 -0.5423  0.0730 -2.2686
  174MPD1    H7 2662   4.000   0.137  15.034  0.0946  2.5227  0.5928
  175MPD1     C 2663   1.839   2.448  15.237  0.2496 -0.4003  0.3623
  175MPD1    C1 2664   1.794   2.516  15.348  0.0451 -0.5381 -0.5606
  175MPD1    C2 2665   1.745   2.443  15.455  0.0137  0.0163  0.3767
  175MPD1    C3 2666   1.773   2.307  15.473 -0.2255  0.0840 -0.4704
  175MPD1    C4 2667   1.830   2.249  15.362 -0.1522  0.0573  0.4682
  175MPD1    C5 2668   1.860   2.311  15.244 -0.1083  0.1062  0.5032
  175MPD1     H 2669   1.688   2.494  15.531  1.3183  0.2115  1.2252
  175MPD1    H1 2670   1.857   2.144  15.366 -1.3428 -0.3451 -2.0993
  175MPD1    H2 2671   1.881   2.493  15.147 -0.4738 -0.6160 -0.0797
  175MPD1    H3 2672   1.910   2.258  15.165  3.1911  0.7817  2.1381
  175MPD1     N 2673   1.729   2.221  15.582  0.0131  0.2600 -0.4274
  175MPD1    H5 2674   1.774   2.132  15.600  2.1569  1.8135  1.9276
  175MPD1    N1 2675   1.775   2.657  15.330  0.0656  0.3379  0.1660
  175MPD1    H6 2676   1.837   2.706  15.266  2.0210 -1.4201  0.7294
  175MPD1    H7 2677   1.788   2.704  15.419 -0.5915 -0.1685  0.5269
  176MPD1     C 2678   3.229   3.935   0.179  0.0625 -0.0006  0.1305
  176MPD1    C1 2679   3.276   3.822   0.118 -0.5825 -0.7514  0.0283
  176MPD1    C2 2680   3.382   3.844   0.026 -0.2039 -0.6375 -0.0456
  176MPD1    C3 2681   3.463   3.956   0.027  0.0853 -0.2596 -0.9645
  176MPD1    C4 2682   3.423   4.058   0.104 -0.2261  0.0736  0.0445
  176MPD1    C5 2683   3.301   4.053   0.171 -0.5497 -0.1463 -0.3876
  176MPD1     H 2684   3.406   3.771  17.649  1.4031 -0.5227  0.3582
  176MPD1    H1 2685   3.478   4.151   0.109  0.3686 -0.2468 -0.4263
  176MPD1    H2 2686   3.140   3.931   0.241  0.6230  1.5959  1.0284
  176MPD1    H3 2687   3.260   4.139   0.223 -1.7280  1.0340 -3.2654
  176MPD1     N 2688   3.574   3.957  17.641  0.3710 -0.1081  0.6260
  176MPD1    H5 2689   3.594   3.880  17.578 -2.1488 -0.2506  0.0088
  176MPD1    N1 2690   3.194   3.712   0.104  0.3634  0.4505  0.0359
  176MPD1    H6 2691   3.253   3.629   0.107 -1.5393 -0.8988 -0.2839
  176MPD1    H7 2692   3.127   3.703   0.180 -1.2189  0.7253 -1.3491
  177MPD1     C 2693   2.423   3.722   9.838  0.6629  0.5041  0.5078
  177MPD1    C1 2694   2.329   3.653   9.770 -0.0436 -0.0778 -0.1544
  177MPD1    C2 2695   2.270   3.712   9.655 -0.3011 -0.2247 -0.3137
  177MPD1    C3 2696   2.293   3.842   9.614 -0.3629  1.0402  0.0773
  177MPD1    C4 2697   2.381   3.912   9.688  0.6121 -0.7202  0.3167
  177MPD1    C5 2698   2.450   3.853   9.798 -0.0452  0.5447  0.1115
  177MPD1     H 2699   2.202   3.646   9.602 -2.1290  0.8302  0.7518
  177MPD1    H1 2700   2.389   4.019   9.675 -0.4427 -0.3468  2.8514
  177MPD1    H2 2701   2.467   3.683   9.929 -2.5770  1.3561  2.4595
  177MPD1    H3 2702   2.505   3.915   9.868  0.2496 -0.2532  0.5857
  177MPD1     N 2703   2.226   3.890   9.500 -0.1497 -0.3265 -0.3437
  177MPD1    H5 2704   2.161   3.822   9.463  0.2459 -0.3655 -0.9774
  177MPD1    N1 2705   2.310   3.518   9.807  0.4784 -0.0150 -0.3984
  177MPD1    H6 2706   2.228   3.471   9.767  1.7490 -2.3493 -0.2539
  177MPD1    H7 2707   2.340   3.492   9.900 -0.0059  0.3570 -0.1374
  178MPD1     C 2708   4.277   0.364  17.236  0.3805  0.0585  0.3392
  178MPD1    C1 2709   4.213   0.316  17.127  0.3149  0.9667  0.2230
  178MPD1    C2 2710   4.287   0.231  17.042 -0.0760  0.4299 -0.7550
  178MPD1    C3 2711   4.408   0.175  17.086 -0.1239  0.1743  0.3164
  178MPD1    C4 2712   4.453   0.209  17.208 -0.4795  0.4744 -0.0632
  178MPD1    C5 2713   4.389   0.304  17.282 -0.0344 -0.5664  1.2236
  178MPD1     H 2714   4.251   0.210  16.942  0.8492  2.9650 -1.6157
  178MPD1    H1 2715   4.538   0.167  17.262 -1.2712  1.5009  1.9851
  178MPD1    H2 2716   4.226   0.436  17.299 -1.9790 -1.0996 -0.2427
  178MPD1    H3 2717   4.432   0.325  17.379  0.5376 -0.4161  0.9415
  178MPD1     N 2718   4.480   0.081  17.001 -0.0350 -0.1029 -0.2947
  178MPD1    H5 2719   4.570   0.049  17.034 -0.3455 -1.9054 -1.1721
  178MPD1    N1 2720   4.097   0.376  17.080  0.5261  0.6712 -0.3352
  178MPD1    H6 2721   4.026   0.403  17.148 -1.1786 -0.9892 -1.4453
  178MPD1    H7 2722   4.047   0.324  17.007  0.5319  1.4692 -0.9137
  179MPD1     C 2723   4.509   3.064  15.643  0.1626  0.3270  0.4042
  179MPD1    C1 2724   4.578   2.942  15.643 -0.6099 -0.8503  0.0173
  179MPD1    C2 2725   4.505   2.833  15.622 -0.2834  0.1707 -0.5587
  179MPD1    C3 2726   4.374   2.835  15.589 -0.2724 -0.6176  0.1675
  179MPD1    C4 2727   4.303   2.955  15.573  0.5194  0.3743  0.4869
  179MPD1    C5 2728   4.378   3.071  15.611  0.6625  0.3552 -0.1055
  179MPD1     H 2729   4.563   2.742  15.632  0.4085  0.5827 -0.8753
  179MPD1    H1 2730   4.200   2.958  15.540  1.4458  1.3981 -2.3012
  179MPD1    H2 2731   4.555   3.161  15.660  2.5452 -0.8562  0.6523
  179MPD1    H3 2732   4.324   3.163  15.597  1.4156  1.0294  1.3278
  179MPD1     N 2733   4.298   2.718  15.576  0.2317  0.4261 -0.1325
  179MPD1    H5 2734   4.204   2.736  15.544 -0.2503 -0.1388  0.9755
  179MPD1    N1 2735   4.707   2.933  15.678 -0.0791 -0.3085  0.4218
  179MPD1    H6 2736   4.715   2.850  15.736  0.9875  0.8018  1.8646
  179MPD1    H7 2737   0.010   3.018  15.727 -0.9852 -0.7387  1.6831
  180MPD1     C 2738   3.466   4.048  14.694 -1.0314 -0.1320 -0.2405
  180MPD1    C1 2739   3.564   4.099  14.618 -0.2085  0.7370  0.3364
  180MPD1    C2 2740   3.541   4.117  14.482  0.1953  0.3979  0.0117
  180MPD1    C3 2741   3.421   4.076  14.418  0.2112  0.7038  0.0204
  180MPD1    C4 2742   3.326   4.024  14.503 -0.0220  0.1569  0.0646
  180MPD1    C5 2743   3.352   4.011  14.633 -0.8693 -0.0680  0.0258
  180MPD1     H 2744   3.612   4.168  14.419  1.2451 -1.0042  0.0599
  180MPD1    H1 2745   3.227   3.994  14.470  0.1969 -0.5793  0.0848
  180MPD1    H2 2746   3.465   4.036  14.802  1.2608  1.7072 -0.0153
  180MPD1    H3 2747   3.277   3.970  14.699 -0.5342 -0.2877  0.2704
  180MPD1     N 2748   3.392   4.120  14.279 -0.0545 -0.1408  0.0529
  180MPD1    H5 2749   3.457   4.183  14.233 -1.0562  0.7756 -0.1104
  180MPD1    N1 2750   3.679   4.166  14.669  0.9301 -0.0177  1.0512
  180MPD1    H6 2751   3.710   4.158  14.766 -0.0803 -1.0429  1.2802
  180MPD1    H7 2752   3.756   4.159  14.603 -0.0791 -1.7413  0.0770
  181MPD1     C 2753   0.611   0.523   9.696 -0.5383  0.1572 -0.1190
  181MPD1    C1 2754   0.648   0.638   9.772  0.5341  0.0655  0.3898
  181MPD1    C2 2755   0.759   0.710   9.735 -0.0515 -0.5045 -0.1256
  181MPD1    C3 2756   0.831   0.676   9.620  0.3600 -0.4967 -0.4840
  181MPD1    C4 2757   0.799   0.564   9.551 -0.0088 -0.1174  0.2260
  181MPD1    C5 2758   0.686   0.488   9.588 -0.0550  0.3077 -0.0279
  181MPD1     H 2759   0.791   0.796   9.792 -0.7231  0.3456 -1.0332
  181MPD1    H1 2760   0.851   0.529   9.463  0.0780 -2.4785  1.2156
  181MPD1    H2 2761   0.516   0.480   9.727  1.1234 -2.1813  1.7199
  181MPD1    H3 2762   0.667   0.406   9.520  2.2490  0.3147 -0.6962
  181MPD1     N 2763   0.950   0.753   9.579 -0.8153 -0.2094 -0.6704
  181MPD1    H5 2764   1.009   0.706   9.512 -0.9126 -0.8109 -0.3327
  181MPD1    N1 2765   0.560   0.688   9.872 -0.5503  0.3536  0.2773
  181MPD1    H6 2766   0.510   0.610   9.914 -1.0755  0.0016 -1.0004
  181MPD1    H7 2767   0.607   0.734   9.949  0.5618 -0.0992 -0.1341
  182MPD1     C 2768   1.000   1.527   0.719 -0.7734  0.4565  0.7491
  182MPD1    C1 2769   0.935   1.483   0.832 -0.3806  0.1672  0.3946
  182MPD1    C2 2770   0.992   1.381   0.906  0.4174  0.6479 -0.4942
  182MPD1    C3 2771   1.123   1.348   0.892 -0.6329 -0.0777  0.3645
  182MPD1    C4 2772   1.190   1.406   0.785  0.1312  0.3397  1.0681
  182MPD1    C5 2773   1.122   1.483   0.695 -0.0479  0.5403  0.0777
  182MPD1     H 2774   0.930   1.330   0.978  0.9581  2.3484  1.1677
  182MPD1    H1 2775   1.296   1.385   0.778  0.4939  1.9835  1.8176
  182MPD1    H2 2776   0.950   1.598   0.653 -0.2445 -0.7988 -0.9979
  182MPD1    H3 2777   1.193   1.513   0.618  1.0876 -1.5695  0.3137
  182MPD1     N 2778   1.202   1.265   0.973  0.0689 -0.2172  0.5220
  182MPD1    H5 2779   1.298   1.248   0.948 -0.7308  0.1930 -2.7933
  182MPD1    N1 2780   0.803   1.515   0.858  0.0498  0.6764  0.5275
  182MPD1    H6 2781   0.792   1.615   0.841 -1.4182  0.9127  2.7977
  182MPD1    H7 2782   0.771   1.506   0.954  1.7173  1.3023  1.1459
  183MPD1     C 2783   3.061   1.230   9.433  0.0762 -0.5025  0.5156
  183MPD1    C1 2784   2.970   1.277   9.344 -0.9318  1.5831  0.6463
  183MPD1    C2 2785   2.858   1.209   9.308  0.2457  0.5943 -0.9247
  183MPD1    C3 2786   2.828   1.093   9.385  0.0823 -0.0117 -0.1936
  183MPD1    C4 2787   2.917   1.052   9.478 -0.2903 -0.2866 -0.5721
  183MPD1    C5 2788   3.029   1.124   9.508 -0.3789 -0.9350  0.5620
  183MPD1     H 2789   2.789   1.239   9.229  0.2919  2.3456 -0.2926
  183MPD1    H1 2790   2.904   0.955   9.525 -0.5808 -0.2453 -0.5687
  183MPD1    H2 2791   3.156   1.276   9.460  0.3919 -1.8011  1.6038
  183MPD1    H3 2792   3.099   1.085   9.581  1.6544 -0.0196 -0.9172
  183MPD1     N 2793   2.706   1.028   9.359 -0.3681 -0.1228  0.0325
  183MPD1    H5 2794   2.650   1.067   9.283  1.3498 -1.5907 -1.9894
  183MPD1    N1 2795   2.997   1.403   9.291  0.0702 -0.0218 -0.4190
  183MPD1    H6 2796   3.007   1.481   9.356  1.5154 -0.1746 -0.4516
  183MPD1    H7 2797   2.932   1.422   9.216 -0.4562 -2.4134 -0.5688
  184MPD1     C 2798   1.202   3.132   9.627  0.4474  0.1959  0.3564
  184MPD1    C1 2799   1.307   3.199   9.681  0.0383  0.5882 -0.0219
  184MPD1    C2 2800   1.365   3.307   9.626  0.3194  0.5479  0.5511
  184MPD1    C3 2801   1.316   3.348   9.499  0.3077 -0.5699 -0.0718
  184MPD1    C4 2802   1.208   3.284   9.441  0.4862  0.1116 -0.9014
  184MPD1    C5 2803   1.156   3.181   9.507 -0.4102 -0.7468  0.2954
  184MPD1     H 2804   1.438   3.360   9.685  0.6923 -0.4713  1.0082
  184MPD1    H1 2805   1.160   3.321   9.352  0.7144  1.2496 -0.5575
  184MPD1    H2 2806   1.152   3.059   9.690 -1.9830 -0.2830 -2.1496
  184MPD1    H3 2807   1.064   3.137   9.472  0.9008 -2.5065 -0.9182
  184MPD1     N 2808   1.365   3.461   9.430 -0.1052 -0.1795 -0.4161
  184MPD1    H5 2809   1.321   3.483   9.342 -0.4247 -1.4211 -0.5671
  184MPD1    N1 2810   1.339   3.159   9.808 -1.0711  0.4217  0.3868
  184MPD1    H6 2811   1.339   3.057   9.810  0.9393  0.4005 -0.3453
  184MPD1    H7 2812   1.432   3.189   9.836 -1.1211  1.5135 -0.6152
  185MPD1     C 2813   1.574   3.684   8.518  0.0682  0.2166  0.4782
  185MPD1    C1 2814   1.552   3.573   8.596 -0.0223 -0.0459  0.3952
  185MPD1    C2 2815   1.576   3.586   8.732 -0.0862  0.4637 -0.2130
  185MPD1    C3 2816   1.618   3.709   8.784 -0.0157 -0.2997  0.4209
  185MPD1    C4 2817   1.641   3.816   8.700 -0.4234  0.0636 -0.4308
  185MPD1    C5 2818   1.618   3.798   8.569  0.5221  0.4184  0.4823
  185MPD1     H 2819   1.572   3.500   8.798  1.7638  1.7278  1.5741
  185MPD1    H1 2820   1.659   3.916   8.738  0.8195 -0.3609  0.1223
  185MPD1    H2 2821   1.553   3.685   8.412 -0.6289  1.4249  0.6255
  185MPD1    H3 2822   1.623   3.877   8.495 -2.3779  1.3316  1.2394
  185MPD1     N 2823   1.612   3.738   8.919  0.3993  0.8807 -0.7680
  185MPD1    H5 2824   1.652   3.825   8.952 -2.0566  2.3493 -1.7239
  185MPD1    N1 2825   1.471   3.466   8.551 -0.4137 -0.2452  0.2630
  185MPD1    H6 2826   1.475   3.457   8.449 -2.6898  0.4172  0.1328
  185MPD1    H7 2827   1.490   3.374   8.592 -0.5690 -1.0750 -1.4884
  186MPD1     C 2828   4.026   3.779  16.094  0.2279  0.3378 -0.3633
  186MPD1    C1 2829   4.086   3.694  16.181 -0.4768  0.2359 -0.2187
  186MPD1    C2 2830   4.161   3.588  16.138 -0.8741 -0.5846  1.1812
  186MPD1    C3 2831   4.190   3.574  16.001  0.2500  0.6776  0.1540
  186MPD1    C4 2832   4.128   3.657  15.914 -0.2903  1.1445 -0.3022
  186MPD1    C5 2833   4.052   3.762  15.961 -0.0704  0.2890  0.6962
  186MPD1     H 2834   4.214   3.527  16.210 -0.9223  1.1070  2.6707
  186MPD1    H1 2835   4.139   3.653  15.806  1.3258 -0.7038 -0.0807
  186MPD1    H2 2836   3.971   3.863  16.135 -0.8491  0.7955 -2.7473
  186MPD1    H3 2837   4.010   3.840  15.897 -2.1359 -0.1422  1.5149
  186MPD1     N 2838   4.264   3.466  15.948 -0.9992 -0.4931  0.2465
  186MPD1    H5 2839   4.266   3.455  15.847 -0.0315 -0.5864  0.2804
  186MPD1    N1 2840   4.055   3.708  16.319  0.7619 -0.0465 -0.1228
  186MPD1    H6 2841   4.112   3.656  16.386  2.7810 -0.3978 -2.1220
  186MPD1    H7 2842   4.042   3.804  16.351 -2.8042 -0.5528  0.0145
  187MPD1     C 2843   3.273   1.554  17.344  0.2788 -0.1313 -0.2452
  187MPD1    C1 2844   3.238   1.441  17.417  0.5456 -0.4454  0.0708
  187MPD1    C2 2845   3.230   1.320  17.344  0.6686  0.6443 -0.0698
  187MPD1    C3 2846   3.279   1.301  17.215  0.5412 -0.3269 -0.1650
  187MPD1    C4 2847   3.326   1.418  17.150 -1.2274  0.7940 -0.2638
  187MPD1    C5 2848   3.310   1.541  17.215  0.3045  0.2645 -0.4249
  187MPD1     H 2849   3.190   1.235  17.399  2.7623  0.3427  0.9710
  187MPD1    H1 2850   3.351   1.408  17.045 -1.7570  1.8743 -0.4848
  187MPD1    H2 2851   3.276   1.651  17.393  4.1519  0.4439 -1.6099
  187MPD1    H3 2852   3.339   1.636  17.171  0.4994  0.5477  0.3104
  187MPD1     N 2853   3.262   1.181  17.148  0.2746 -0.2558  0.0442
  187MPD1    H5 2854   3.322   1.164  17.068 -0.0799  0.0322 -0.2809
  187MPD1    N1 2855   3.181   1.444  17.549 -0.1727 -0.4317  0.9334
  187MPD1    H6 2856   3.170   1.353  17.593  0.8503 -0.8379  0.3403
  187MPD1    H7 2857   3.231   1.512  17.606 -0.0031 -0.1445  0.4442
  188MPD1     C 2858   3.236   0.032  10.068 -0.5508 -0.2844  0.8046
  188MPD1    C1 2859   3.230   0.033   9.928 -0.1959 -0.2812  0.2212
  188MPD1    C2 2860   3.202   4.642   9.860 -0.0573 -0.3288 -0.4651
  188MPD1    C3 2861   3.136   4.541   9.930 -0.0161  0.0148  0.6420
  188MPD1    C4 2862   3.118   4.547  10.067 -0.2144 -0.0355 -0.0024
  188MPD1    C5 2863   3.171   4.659  10.139  0.1401 -0.1235  0.1257
  188MPD1     H 2864   3.212   4.630   9.753 -0.0218 -0.9364 -0.3933
  188MPD1    H1 2865   3.072   4.471  10.129 -0.5447  0.0556 -0.1401
  188MPD1    H2 2866   3.277   0.117  10.121  2.0504 -1.2953  0.4091
  188MPD1    H3 2867   3.172   4.669  10.247 -0.3445  1.0169  0.0275
  188MPD1     N 2868   3.113   4.414   9.874  0.5127 -0.3053 -0.0886
  188MPD1    H5 2869   3.079   4.338   9.932  0.3463 -1.0027 -1.1145
  188MPD1    N1 2870   3.299   0.127   9.867 -1.0269 -0.1564  0.2536
  188MPD1    H6 2871   3.296   0.215   9.917  0.2681  0.2465 -0.3670
  188MPD1    H7 2872   3.250   0.148   9.780 -2.3184  0.5569  1.1496
  189MPD1     C 2873   0.672   0.073  17.695 -0.4143 -0.2653 -0.0251
  189MPD1    C1 2874   0.544   0.074   0.027  0.3604  0.1106 -0.5769
  189MPD1    C2 2875   0.475   0.189   0.026  0.0496 -0.5952 -0.0673
  189MPD1    C3 2876   0.532   0.310  17.697  0.1197 -0.2367 -0.2273
  189MPD1    C4 2877   0.669   0.310  17.689 -0.5436 -0.1568 -0.2220
  189MPD1    C5 2878   0.732   0.190  17.676  0.0162  0.7509  0.0487
  189MPD1     H 2879   0.368   0.199   0.033  0.2809  1.8891 -0.0815
  189MPD1    H1 2880   0.735   0.395  17.669 -0.6042  0.2382  1.3115
  189MPD1    H2 2881   0.737   4.711  17.690 -0.9532 -0.7147  0.8901
  189MPD1    H3 2882   0.839   0.177  17.665 -0.2505 -1.1464 -0.3401
  189MPD1     N 2883   0.455   0.426  17.684 -0.0049  0.0273  0.6924
  189MPD1    H5 2884   0.355   0.423   0.001 -0.1660  1.8010  0.1125
  189MPD1    N1 2885   0.483   4.678   0.038  0.0437  0.5678  0.2124
  189MPD1    H6 2886   0.542   4.600   0.064  0.0868  0.9224  1.1698
  189MPD1    H7 2887   0.407   4.667   0.105 -1.0651  2.7368 -0.6786
  190MPD1     C 2888   3.949   3.588  14.607 -0.0365  0.8394  0.4554
  190MPD1    C1 2889   4.040   3.693  14.593 -0.3777  0.0028 -0.3717
  190MPD1    C2 2890   4.111   3.730  14.706  0.3856  0.0491 -0.1959
  190MPD1    C3 2891   4.092   3.675  14.828 -0.3786 -0.4789  0.9013
  190MPD1    C4 2892   3.993   3.584  14.841  0.5388 -0.1888  0.4660
  190MPD1    C5 2893   3.924   3.535  14.732  0.0759 -0.1183 -0.4815
  190MPD1     H 2894   4.185   3.807  14.687  1.6087 -2.4778 -5.5887
  190MPD1    H1 2895   3.974   3.529  14.933 -1.3579 -1.1611 -0.5108
  190MPD1    H2 2896   3.893   3.552  14.522 -1.3543  1.6176  0.9934
  190MPD1    H3 2897   3.855   3.455  14.755 -1.5414  1.0753 -1.1783
  190MPD1     N 2898   4.181   3.706  14.932  0.5879 -0.0720 -0.3389
  190MPD1    H5 2899   4.255   3.773  14.913 -0.0253  0.3235 -1.3158
  190MPD1    N1 2900   4.037   3.765  14.473  0.1080 -0.4481 -0.3207
  190MPD1    H6 2901   4.016   3.704  14.394 -2.2902  0.3437 -0.3187
  190MPD1    H7 2902   4.135   3.788  14.463 -0.9305  3.2497 -2.0097
  191MPD1     C 2903   3.673   0.692  12.644  0.1102 -0.2957 -0.3525
  191MPD1    C1 2904   3.549   0.713  12.704  1.3165 -0.4507 -0.0239
  191MPD1    C2 2905   3.482   0.831  12.676 -0.0165  0.6633  0.9403
  191MPD1    C3 2906   3.512   0.914  12.575  0.4714  0.0950  0.4412
  191MPD1    C4 2907   3.630   0.881  12.504  0.4389  0.2543 -0.0741
  191MPD1    C5 2908   3.713   0.773  12.544 -0.4648  0.0621  0.2271
  191MPD1     H 2909   3.387   0.850  12.725 -1.1388 -1.7566 -0.2841
  191MPD1    H1 2910   3.674   0.935  12.421  0.2339  1.0063  0.3126
  191MPD1    H2 2911   3.733   0.609  12.679  0.2979 -0.8184 -1.8933
  191MPD1    H3 2912   3.807   0.753  12.493 -0.8961 -0.6229 -0.3028
  191MPD1     N 2913   3.432   1.022  12.550 -0.2434  0.3724 -0.0201
  191MPD1    H5 2914   3.352   1.037  12.609  1.5060 -1.6941  2.8702
  191MPD1    N1 2915   3.501   0.623  12.797  0.3471 -0.3536 -0.3524
  191MPD1    H6 2916   3.527   0.525  12.785  0.6441  0.0670 -3.1075
  191MPD1    H7 2917   3.400   0.623  12.812  0.6589 -0.5470  1.8531
  192MPD1     C 2918   2.907   1.651  13.015  0.2700 -0.0633 -0.3960
  192MPD1    C1 2919   3.027   1.591  13.035  0.2951 -0.5136 -0.1102
  192MPD1    C2 2920   3.099   1.552  12.920 -0.3585  0.5199 -0.4168
  192MPD1    C3 2921   3.042   1.560  12.796 -0.4081 -0.3780  0.0067
  192MPD1    C4 2922   2.931   1.631  12.773 -0.0004 -0.5077 -0.5156
  192MPD1    C5 2923   2.864   1.676  12.885 -0.1729 -0.1589  0.1061
  192MPD1     H 2924   3.194   1.501  12.932 -1.1264 -1.4069 -2.4410
  192MPD1    H1 2925   2.895   1.646  12.672  1.7106 -1.6430 -1.2887
  192MPD1    H2 2926   2.850   1.695  13.096  0.4155 -1.6516  0.5595
  192MPD1    H3 2927   2.775   1.738  12.882 -0.9964 -1.2412  1.9124
  192MPD1     N 2928   3.114   1.510  12.682 -0.0533  0.9801 -0.2385
  192MPD1    H5 2929   3.080   1.540  12.591  0.6398  3.7336  0.4061
  192MPD1    N1 2930   3.075   1.567  13.166 -0.0910  0.0156  0.0248
  192MPD1    H6 2931   3.176   1.576  13.170  0.2590 -3.2910 -1.5043
  192MPD1    H7 2932   3.031   1.613  13.246 -2.5263 -1.0148 -0.7116
  193MPD1     C 2933   3.553   1.234  17.462 -0.2055 -0.1602 -0.5940
  193MPD1    C1 2934   3.552   1.358  17.532 -0.1507  0.1052  0.3124
  193MPD1    C2 2935   3.624   1.459  17.476  0.1392 -0.1154 -0.2466
  193MPD1    C3 2936   3.673   1.446  17.343  0.3958  1.1565  1.2225
  193MPD1    C4 2937   3.654   1.331  17.274  0.2519 -0.0782  0.3532
  193MPD1    C5 2938   3.607   1.219  17.335 -0.6524 -0.0081  0.7712
  193MPD1     H 2939   3.649   1.542  17.541 -3.2515  0.3465  0.4875
  193MPD1    H1 2940   3.685   1.323  17.171 -1.9853  2.2648 -0.4776
  193MPD1    H2 2941   3.510   1.148  17.510 -3.3611  1.2959 -0.8130
  193MPD1    H3 2942   3.586   1.125  17.285 -0.6103 -0.5469  1.7767
  193MPD1     N 2943   3.710   1.560  17.263 -0.0879  0.1808 -0.1563
  193MPD1    H5 2944   3.732   1.551  17.164 -0.1751 -1.6687 -0.0134
  193MPD1    N1 2945   3.513   1.363  17.669 -0.2588 -0.2461 -0.7809
  193MPD1    H6 2946   3.425   1.313  17.675  1.1571 -2.6685 -0.3780
  193MPD1    H7 2947   3.481   1.455   0.000  1.2450  0.0906 -0.2404
  194MPD1     C 2948   0.213   3.946  16.636  0.5775  0.0792  0.1315
  194MPD1    C1 2949   0.250   3.992  16.765  1.0321 -0.2816  0.1462
  194MPD1    C2 2950   0.378   3.948  16.803 -0.2674  0.1304  0.1339
  194MPD1    C3 2951   0.439   3.840  16.745  0.3298  1.0366 -0.3694
  194MPD1    C4 2952   0.394   3.796  16.628 -0.2008 -0.4814  0.3187
  194MPD1    C5 2953   0.285   3.854  16.566  0.1118  0.0169  0.0814
  194MPD1     H 2954   0.401   4.011  16.888  0.3655 -0.7651  0.6251
  194MPD1    H1 2955   0.452   3.721  16.573 -0.5996 -1.0847  0.7202
  194MPD1    H2 2956   0.125   3.992  16.592 -0.1967 -0.7653  0.8049
  194MPD1    H3 2957   0.237   3.818  16.475  2.6785 -2.2553 -0.3926
  194MPD1     N 2958   0.557   3.789  16.802  0.3316 -0.4135  0.0082
  194MPD1    H5 2959   0.592   3.715  16.742  0.0977 -0.0800 -0.5456
  194MPD1    N1 2960   0.194   4.108  16.828  0.2780  0.4299 -0.5487
  194MPD1    H6 2961   0.095   4.127  16.814  0.6512  1.9110 -1.2527
  194MPD1    H7 2962   0.210   4.114  16.928  2.5414 -1.3190 -0.8272
  195MPD1     C 2963   3.094   0.232  16.206  0.0023 -0.1486 -0.2225
  195MPD1    C1 2964   3.195   0.138  16.186 -0.6678 -0.1010  0.3416
  195MPD1    C2 2965   3.216   0.056  16.289  0.4670 -0.0823  1.4023
  195MPD1    C3 2966   3.169   0.079  16.421  0.5055 -0.9954  0.5627
  195MPD1    C4 2967   3.080   0.183  16.441  0.2941  0.3500  0.1918
  195MPD1    C5 2968   3.040   0.254  16.330  0.3700 -0.4498 -0.5369
  195MPD1     H 2969   3.286   4.700  16.273  0.5695  0.5093 -1.1392
  195MPD1    H1 2970   3.046   0.213  16.539 -0.8915 -1.2282  0.2563
  195MPD1    H2 2971   3.061   0.294  16.123  0.0816 -1.6478 -1.3848
  195MPD1    H3 2972   2.968   0.333  16.342  1.1775 -0.2084  2.8084
  195MPD1     N 2973   3.183   4.711  16.528 -0.8132 -0.3038 -0.0385
  195MPD1    H5 2974   3.126   0.012  16.608 -2.0120 -1.3561 -0.5614
  195MPD1    N1 2975   3.234   0.118  16.058  0.0894  0.2923  0.3365
  195MPD1    H6 2976   3.249   0.202  16.002  1.1035  1.4163  2.3059
  195MPD1    H7 2977   3.328   0.078  16.066  0.0022 -0.1056 -0.5223
  196MPD1     C 2978   3.428   4.529  17.554  0.1233  0.1978  0.4851
  196MPD1    C1 2979   3.397   4.654  17.599  0.1175  0.8139  0.1536
  196MPD1    C2 2980   3.380   4.687   0.036  0.1098 -0.0356 -1.0166
  196MPD1    C3 2981   3.362   4.580   0.130  0.2706 -0.0463  0.3028
  196MPD1    C4 2982   3.389   4.454   0.083 -0.1563 -0.9391 -0.3391
  196MPD1    C5 2983   3.425   4.432  17.650 -0.0614  0.6618  0.0764
  196MPD1     H 2984   3.364   0.068   0.054 -0.9235 -0.4684  0.6129
  196MPD1    H1 2985   3.395   4.370   0.151 -0.3429  0.5430  1.5353
  196MPD1    H2 2986   3.451   4.505  17.450 -2.2935 -0.8266  0.1824
  196MPD1    H3 2987   3.450   4.333  17.616 -2.3111  0.5944 -1.3584
  196MPD1     N 2988   3.327   4.598   0.266  0.9566 -0.1996  0.5089
  196MPD1    H5 2989   3.336   4.513   0.321 -1.2901 -0.5736  0.2919
  196MPD1    N1 2990   3.405   0.034  17.497 -0.1725  0.2307  0.4821
  196MPD1    H6 2991   3.344   0.110  17.525 -0.3811  0.5460 -0.8276
  196MPD1    H7 2992   3.363   0.015  17.407  2.8039 -0.6169 -0.7408
  197MPD1     C 2993   1.921   1.664  17.104  0.2992  0.2483  0.3795
  197MPD1    C1 2994   2.014   1.755  17.146 -0.0895  0.5752  0.3197
  197MPD1    C2 2995   2.044   1.868  17.071 -0.0084 -0.0248 -0.0144
  197MPD1    C3 2996   1.963   1.894  16.953 -0.9641 -0.1783 -0.6529
  197MPD1    C4 2997   1.871   1.804  16.920 -0.8412  0.4226  0.1123
  197MPD1    C5 2998   1.844   1.693  16.994  0.5041 -0.3277 -0.3065
  197MPD1     H 2999   2.124   1.934  17.105  0.3107  0.2338 -1.2491
  197MPD1    H1 3000   1.805   1.818  16.835  1.5264 -0.3304 -1.8591
  197MPD1    H2 3001   1.897   1.575  17.162 -1.0531  0.7724  0.6131
  197MPD1    H3 3002   1.757   1.630  16.977 -0.7256  0.9184  1.2813
  197MPD1     N 3003   1.967   2.015  16.877 -0.4408  0.2410  0.8130
  197MPD1    H5 3004   1.889   2.052  16.823 -0.8603 -0.4589  0.9329
  197MPD1    N1 3005   2.098   1.713  17.258  0.5594  0.0730  0.4223
  197MPD1    H6 3006   2.143   1.789  17.310  1.4188 -0.3249  0.2500
  197MPD1    H7 3007   2.057   1.648  17.325 -1.8720  0.5237 -0.6350
  198MPD1     C 3008   4.561   1.040  16.837 -0.3243  0.2060 -0.2263
  198MPD1    C1 3009   4.693   1.036  16.806  0.5831  0.5073 -1.6951
  198MPD1    C2 3010   0.006   1.025  16.671 -0.9643 -0.3150  0.0479
  198MPD1    C3 3011   4.630   1.030  16.569 -0.5227  0.0440 -0.0013
  198MPD1    C4 3012   4.494   1.053  16.607  0.4704 -0.0637 -0.9238
  198MPD1    C5 3013   4.465   1.055  16.742 -0.3363 -0.3798 -0.1819
  198MPD1     H 3014   0.106   0.997  16.640 -0.7998  0.9034 -0.5156
  198MPD1    H1 3015   4.415   1.061  16.533  2.3557  2.2997 -2.6810
  198MPD1    H2 3016   4.529   1.057  16.939 -0.4069  0.8961 -0.3687
  198MPD1    H3 3017   4.361   1.047  16.771 -0.8225 -0.0950 -1.8651
  198MPD1     N 3018   4.666   1.029  16.430 -0.1312  0.0440  0.0840
  198MPD1    H5 3019   0.041   1.022  16.411  0.1009  1.2671  0.8845
  198MPD1    N1 3020   0.062   1.009  16.906 -0.3219 -0.3714  0.0421
  198MPD1    H6 3021   0.154   1.052  16.899 -0.7143  0.2742 -1.3256
  198MPD1    H7 3022   0.022   1.026  16.998 -0.8976  2.6254 -0.7706
  199MPD1     C 3023   2.255   1.421   9.682 -0.8304 -0.2638  0.0150
  199MPD1    C1 3024   2.217   1.552   9.657 -0.1035 -0.0713 -0.0862
  199MPD1    C2 3025   2.101   1.579   9.607 -1.1246 -0.6385 -0.6286
  199MPD1    C3 3026   2.016   1.473   9.558  0.3514  0.2534  0.8107
  199MPD1    C4 3027   2.055   1.342   9.581 -0.4305  0.4138  0.4506
  199MPD1    C5 3028   2.177   1.315   9.639 -0.0431 -0.2219 -0.1651
  199MPD1     H 3029   2.066   1.682   9.608 -0.2272 -0.3427  0.6473
  199MPD1    H1 3030   1.996   1.254   9.556 -0.5248  0.2322  1.3183
  199MPD1    H2 3031   2.346   1.403   9.739  0.4991 -1.5742 -2.5411
  199MPD1    H3 3032   2.196   1.211   9.658 -1.7329 -0.2857  1.2303
  199MPD1     N 3033   1.890   1.483   9.497  0.3183  0.0398  0.1119
  199MPD1    H5 3034   1.843   1.395   9.477  2.0253 -0.8799  0.1324
  199MPD1    N1 3035   2.292   1.655   9.715 -0.2525 -0.0729 -0.2613
  199MPD1    H6 3036   2.271   1.738   9.660  1.8649  1.4734  1.2923
  199MPD1    H7 3037   2.386   1.623   9.738 -1.4245 -1.5039  2.6236
  200MPD1     C 3038   1.124   0.803  14.017  0.2324 -0.4595 -0.2786
  200MPD1    C1 3039   1.228   0.893  14.010 -0.5523  0.3571  0.4308
  200MPD1    C2 3040   1.212   1.016  13.956 -0.2548 -0.3180  0.2673
  200MPD1    C3 3041   1.086   1.065  13.930  0.0955 -0.0207  0.3337
  200MPD1    C4 3042   0.974   0.983  13.954 -0.0837  0.2181 -0.8279
  200MPD1    C5 3043   1.002   0.856  13.993  0.2699 -0.7199 -0.6198
  200MPD1     H 3044   1.302   1.076  13.947  0.0679 -0.6967  0.8835
  200MPD1    H1 3045   0.872   1.019  13.957 -0.5031 -1.0221 -0.4068
  200MPD1    H2 3046   1.145   0.710  14.068  0.2361 -0.7074 -0.7275
  200MPD1    H3 3047   0.911   0.804  14.022 -0.8487 -0.3807 -3.5424
  200MPD1     N 3048   1.077   1.193  13.876  0.0109 -0.4569 -0.1982
  200MPD1    H5 3049   1.163   1.242  13.856 -0.5109  0.2435 -0.7537
  200MPD1    N1 3050   1.358   0.859  14.053  0.5529 -0.3419 -0.3776
  200MPD1    H6 3051   1.382   0.937  14.114  1.4004 -1.2885  0.5179
  200MPD1    H7 3052   1.352   0.779  14.117 -0.9732 -1.1762 -1.5446
  201MPD1     C 3053   1.757   0.107  13.261 -0.4817  0.0661 -0.1195
  201MPD1    C1 3054   1.829   0.147  13.141  0.3143  0.0285  0.0026
  201MPD1    C2 3055   1.965   0.121  13.145  0.2305  0.2949  0.1932
  201MPD1    C3 3056   2.034   0.054  13.243  0.6898  0.7916 -0.4306
  201MPD1    C4 3057   1.962   0.013  13.358  0.3747 -0.3621  0.5096
  201MPD1    C5 3058   1.829   0.029  13.350 -0.0693 -0.2888  0.2340
  201MPD1     H 3059   2.025   0.160  13.064 -0.4717 -1.1954 -1.0431
  201MPD1    H1 3060   2.004   4.674  13.435 -1.2912 -2.0508  0.0193
  201MPD1    H2 3061   1.650   0.122  13.274 -0.6491 -0.4100 -0.8888
  201MPD1    H3 3062   1.764   4.713  13.427 -0.0980  0.6648  0.7189
  201MPD1     N 3063   2.172   0.036  13.228 -0.0989 -0.5828  0.0938
  201MPD1    H5 3064   2.200   0.082  13.142 -1.8558 -1.1326 -0.7571
  201MPD1    N1 3065   1.782   0.244  13.045  0.3376  0.1885  0.2005
  201MPD1    H6 3066   1.682   0.257  13.038 -0.0809 -2.1034  2.0114
  201MPD1    H7 3067   1.819   0.215  12.955  0.1174 -1.0046  0.4997
  202MPD1     C 3068   3.333   4.513   9.116  0.0132  0.0491 -0.9172
  202MPD1    C1 3069   3.269   4.635   9.147  0.2882  0.5027 -0.1443
  202MPD1    C2 3070   3.169   4.624   9.246 -0.1916 -0.0478 -0.5636
  202MPD1    C3 3071   3.099   4.503   9.267 -0.8684  0.2678 -0.4013
  202MPD1    C4 3072   3.160   4.388   9.221 -0.1540 -0.4493  0.5428
  202MPD1    C5 3073   3.274   4.398   9.144  0.0662  0.0064  0.3308
  202MPD1     H 3074   3.126   4.719   9.277  1.1142  1.1982 -2.6099
  202MPD1    H1 3075   3.112   4.292   9.235  0.4109 -0.6681  0.9693
  202MPD1    H2 3076   3.421   4.515   9.053 -0.5125 -2.1740 -1.7160
  202MPD1    H3 3077   3.319   4.305   9.111 -1.3482 -0.2997 -0.6961
  202MPD1     N 3078   2.992   4.491   9.349 -0.0353 -0.2870 -0.5159
  202MPD1    H5 3079   2.951   4.398   9.354  4.6142 -2.1759  2.8056
  202MPD1    N1 3080   3.357   0.018   9.150  0.0040 -0.4820 -0.1591
  202MPD1    H6 3081   3.421   0.019   9.070  1.1101 -1.4003  0.7201
  202MPD1    H7 3082   3.304   0.104   9.162  2.8259  1.3475 -0.7857
  203MPD1     C 3083   1.165   1.166  12.357  0.8108 -0.1006  0.5143
  203MPD1    C1 3084   1.118   1.086  12.257 -0.1821 -0.0544 -0.4081
  203MPD1    C2 3085   1.110   0.946  12.268  0.7738  1.5249 -0.0493
  203MPD1    C3 3086   1.143   0.886  12.388 -0.6707 -0.8792 -0.1246
  203MPD1    C4 3087   1.209   0.967  12.480  0.1829  0.9578 -0.3016
  203MPD1    C5 3088   1.218   1.102  12.465 -0.2226 -0.1056 -0.5229
  203MPD1     H 3089   1.079   0.879  12.189  0.7620  2.3537 -0.7536
  203MPD1    H1 3090   1.246   0.918  12.569 -1.6131  0.0864 -0.0267
  203MPD1    H2 3091   1.178   1.273  12.352  1.5867 -0.2332 -0.3875
  203MPD1    H3 3092   1.271   1.154  12.544 -1.1271 -2.2246  1.4989
  203MPD1     N 3093   1.126   0.748  12.408  0.1733 -0.3599 -0.1411
  203MPD1    H5 3094   1.072   0.694  12.341 -0.7984 -1.1413  1.2770
  203MPD1    N1 3095   1.084   1.144  12.133 -0.6876 -0.7100  0.5364
  203MPD1    H6 3096   1.070   1.244  12.143  0.4756 -0.4805 -0.0113
  203MPD1    H7 3097   1.002   1.101  12.091  0.6276 -0.0514 -2.6933
  204MPD1     C 3098   0.798   1.855   0.001  0.1532  0.4071 -0.2920
  204MPD1    C1 3099   0.889   1.905  17.615 -0.1433  0.4056  0.0882
  204MPD1    C2 3100   0.944   1.814  17.523 -0.3582  0.1678  0.4632
  204MPD1    C3 3101   0.906   1.687  17.515  0.4301  0.6457 -0.8306
  204MPD1    C4 3102   0.798   1.645  17.595  0.3230 -0.0134  0.6504
  204MPD1    C5 3103   0.751   1.728  17.692  0.4927 -1.0223 -0.1052
  204MPD1     H 3104   1.025   1.846  17.459  0.5411  0.4547  1.7475
  204MPD1    H1 3105   0.751   1.547  17.591  2.4987 -1.0243 -0.1713
  204MPD1    H2 3106   0.766   1.910   0.089 -1.0153 -2.0748  0.8645
  204MPD1    H3 3107   0.674   1.694   0.060 -0.0972 -0.2421 -0.3797
  204MPD1     N 3108   0.972   1.598  17.433 -0.5141 -0.0982 -1.0930
  204MPD1    H5 3109   1.028   1.635  17.356 -0.6559  1.1642 -0.5922
  204MPD1    N1 3110   0.909   2.044  17.613 -0.3533 -0.3499 -0.8770
  204MPD1    H6 3111   1.002   2.067  17.578  0.5252 -1.5238  0.6977
  204MPD1    H7 3112   0.903   2.081   0.007  1.9009  1.6257 -1.4970
  205MPD1     C 3113   1.333   0.311  16.241 -0.3870 -0.8081 -0.9576
  205MPD1    C1 3114   1.438   0.240  16.291  0.2899 -0.2333  0.6927
  205MPD1    C2 3115   1.463   0.255  16.427  0.0424 -0.0833  0.5436
  205MPD1    C3 3116   1.398   0.352  16.500 -0.0701  0.1799 -0.4063
  205MPD1    C4 3117   1.289   0.410  16.447 -0.2216  0.5290  0.0984
  205MPD1    C5 3118   1.255   0.400  16.314  0.3489 -0.0338  1.3017
  205MPD1     H 3119   1.548   0.199  16.464  1.1698  1.1368 -0.2083
  205MPD1    H1 3120   1.234   0.479  16.511 -1.5676 -1.0700  0.6486
  205MPD1    H2 3121   1.307   0.296  16.136  1.0407  0.5825 -1.5064
  205MPD1    H3 3122   1.170   0.456  16.279 -0.5089 -0.1284  3.2087
  205MPD1     N 3123   1.420   0.372  16.642  0.1024 -0.4873  0.0998
  205MPD1    H5 3124   1.364   0.442  16.692 -0.0507 -0.4232 -0.1607
  205MPD1    N1 3125   1.493   0.138  16.211  0.0864  0.0216  0.1839
  205MPD1    H6 3126   1.579   0.101  16.251 -0.9423 -1.3536  1.0854
  205MPD1    H7 3127   1.504   0.161  16.112  2.1314 -0.5645  0.2834
  206MPD1     C 3128   1.476   4.514  16.249 -1.1947 -0.1075 -0.2489
  206MPD1    C1 3129   1.387   4.455  16.340  0.7796  0.4030  0.3016
  206MPD1    C2 3130   1.290   4.376  16.284  1.0085  0.0121 -0.0738
  206MPD1    C3 3131   1.285   4.338  16.150  0.2224  0.1985 -0.1531
  206MPD1    C4 3132   1.377   4.400  16.067  0.0007 -0.1189 -0.6424
  206MPD1    C5 3133   1.468   4.481  16.122 -0.0104  0.1012  0.8115
  206MPD1     H 3134   1.217   4.334  16.352  0.2326 -2.4625 -2.4190
  206MPD1    H1 3135   1.372   4.387  15.959 -2.1910  0.9760 -0.6684
  206MPD1    H2 3136   1.553   4.581  16.285 -1.6970  0.4702 -0.2483
  206MPD1    H3 3137   1.531   4.519  16.042 -1.3074  0.6323  0.0413
  206MPD1     N 3138   1.187   4.255  16.091  0.1140 -0.1908  0.1259
  206MPD1    H5 3139   1.193   4.249  15.990  0.9126 -0.3981  0.1806
  206MPD1    N1 3140   1.381   4.513  16.467  0.2589  0.7847  0.4970
  206MPD1    H6 3141   1.471   4.542  16.505  0.4147 -0.0943  0.7927
  206MPD1    H7 3142   1.338   4.460  16.542 -1.6331 -0.5478 -1.5458
  207MPD1     C 3143   3.123   0.659   9.507  0.6178 -0.2519 -0.0554
  207MPD1    C1 3144   3.110   0.594   9.627  0.1917 -0.5328  0.6607
  207MPD1    C2 3145   3.189   0.640   9.734 -0.4703  0.5475  1.3292
  207MPD1    C3 3146   3.274   0.748   9.715  0.3914 -0.3678 -0.4476
  207MPD1    C4 3147   3.264   0.826   9.604  0.4570 -0.6437  0.8874
  207MPD1    C5 3148   3.189   0.776   9.499 -0.2332 -0.5167  0.7135
  207MPD1     H 3149   3.193   0.584   9.827  1.0099  0.1084  0.9962
  207MPD1    H1 3150   3.329   0.912   9.593  0.3417 -0.7943 -0.9213
  207MPD1    H2 3151   3.068   0.628   9.419  0.9787  3.0197 -1.4320
  207MPD1    H3 3152   3.192   0.836   9.408  0.4001 -1.7017 -0.0563
  207MPD1     N 3153   3.375   0.782   9.820 -0.0207  0.0729  0.1740
  207MPD1    H5 3154   3.452   0.844   9.796 -1.0732  0.5859 -1.8253
  207MPD1    N1 3155   3.060   0.464   9.627  0.3693 -0.1623  0.6278
  207MPD1    H6 3156   3.042   0.435   9.723  0.6664  1.0848  1.0602
  207MPD1    H7 3157   2.983   0.462   9.561 -0.8918  1.3246  2.0719
  208MPD1     C 3158   1.609   1.269   0.284  0.0290 -0.6883  0.2519
  208MPD1    C1 3159   1.627   1.202   0.402  0.5390 -1.0113  0.9721
  208MPD1    C2 3160   1.600   1.068   0.410  0.7938 -0.5905 -0.4176
  208MPD1    C3 3161   1.595   0.989   0.296  0.4576 -0.9901  0.6810
  208MPD1    C4 3162   1.597   1.058   0.171 -0.5791 -0.1860 -0.6306
  208MPD1    C5 3163   1.591   1.197   0.173  0.0708 -0.1457  0.0586
  208MPD1     H 3164   1.594   1.017   0.505  1.8337  0.1650  0.0414
  208MPD1    H1 3165   1.589   1.003   0.078 -1.5179 -3.0714  1.1439
  208MPD1    H2 3166   1.602   1.377   0.278  0.8498 -0.7158 -1.2420
  208MPD1    H3 3167   1.585   1.246   0.077 -0.6314 -2.4039 -1.0638
  208MPD1     N 3168   1.599   0.842   0.307  0.2428 -0.1178 -0.2367
  208MPD1    H5 3169   1.591   0.794   0.396  0.4910  0.0275 -0.1367
  208MPD1    N1 3170   1.626   1.279   0.522 -0.5143 -0.3822  0.3232
  208MPD1    H6 3171   1.663   1.228   0.601 -1.7537  0.7820  1.6452
  208MPD1    H7 3172   1.691   1.355   0.500 -1.8094  0.9007  0.9506
  209MPD1     C 3173   3.718   0.607  11.821 -0.8249 -0.3439 -0.0360
  209MPD1    C1 3174   3.701   0.743  11.791 -0.5064  0.1858 -0.3670
  209MPD1    C2 3175   3.729   0.782  11.665 -0.2418 -0.3848  0.3783
  209MPD1    C3 3176   3.772   0.687  11.569  0.0208 -0.5575 -0.4529
  209MPD1    C4 3177   3.780   0.553  11.597 -1.0880  0.2308 -0.2580
  209MPD1    C5 3178   3.759   0.515  11.728  0.0596  0.6090  0.6562
  209MPD1     H 3179   3.734   0.887  11.640  0.0869 -0.2832  0.8561
  209MPD1    H1 3180   3.801   0.475  11.525 -1.2820  1.2488 -1.4196
  209MPD1    H2 3181   3.703   0.575  11.924 -0.6625  1.3183  0.5005
  209MPD1    H3 3182   3.765   0.410  11.754 -0.3236  0.6665  0.9793
  209MPD1     N 3183   3.802   0.732  11.446  0.3747 -0.0547  0.1669
  209MPD1    H5 3184   3.814   0.831  11.429  0.7583 -0.3656 -1.3494
  209MPD1    N1 3185   3.647   0.827  11.891  0.2903  0.2093 -0.0220
  209MPD1    H6 3186   3.661   0.799  11.988 -0.3000 -1.1933 -0.3379
  209MPD1    H7 3187   3.681   0.923  11.880 -0.2361  0.5922  1.6114
  210MPD1     C 3188   4.454   1.273  10.938 -0.3281 -0.0268  0.3567
  210MPD1    C1 3189   4.460   1.214  11.064 -0.9426  0.0203 -0.8386
  210MPD1    C2 3190   4.368   1.116  11.095 -0.4131 -0.4461 -0.0204
  210MPD1    C3 3191   4.283   1.066  10.998 -0.1220 -1.2036  0.6522
  210MPD1    C4 3192   4.282   1.123  10.871 -0.1150 -0.1498 -0.1943
  210MPD1    C5 3193   4.364   1.226  10.840  0.1606  0.2727 -0.1138
  210MPD1     H 3194   4.371   1.067  11.192 -0.2615  1.4803  0.9542
  210MPD1    H1 3195   4.213   1.096  10.792 -0.4115 -0.0570  0.0329
  210MPD1    H2 3196   4.516   1.357  10.912 -0.2818  0.4261  1.9600
  210MPD1    H3 3197   4.379   1.259  10.738  0.7415 -1.3339 -0.5319
  210MPD1     N 3198   4.184   0.969  11.020  0.4686  0.4087  0.4442
  210MPD1    H5 3199   4.115   0.960  10.945 -2.4212  0.2893  3.1383
  210MPD1    N1 3200   4.528   1.279  11.162  0.2453  0.2108 -0.1448
  210MPD1    H6 3201   4.618   1.313  11.128 -0.3428 -0.7685 -2.6626
  210MPD1    H7 3202   4.541   1.227  11.249 -0.4175 -0.5453 -0.5036
  211MPD1     C 3203   1.968   0.089  16.526  0.1298  0.5339 -0.6502
  211MPD1    C1 3204   1.863   0.108  16.442  0.5568  0.1327 -0.4365
  211MPD1    C2 3205   1.817   0.243  16.423 -0.2476 -1.0758  0.1613
  211MPD1    C3 3206   1.890   0.348  16.490  0.0558 -1.1325  0.1883
  211MPD1    C4 3207   2.002   0.324  16.569  0.1525  0.2074 -0.2669
  211MPD1    C5 3208   2.037   0.193  16.584 -0.0630 -0.0279  0.6533
  211MPD1     H 3209   1.725   0.273  16.374  1.8368 -0.1162 -3.1134
  211MPD1    H1 3210   2.058   0.410  16.606 -1.7707 -0.0262  3.1630
  211MPD1    H2 3211   1.997   4.712  16.549  1.6062  1.2736  0.8095
  211MPD1    H3 3212   2.138   0.183  16.623  0.2181 -3.2351 -0.8942
  211MPD1     N 3213   1.833   0.476  16.464  0.0405 -0.0234  0.4904
  211MPD1    H5 3214   1.756   0.488  16.399  1.6609 -0.4737 -1.5160
  211MPD1    N1 3215   1.794   4.722  16.390 -0.5318 -0.1628 -0.8147
  211MPD1    H6 3216   1.843   4.633  16.400  0.5132  0.3042 -1.8247
  211MPD1    H7 3217   1.711   4.715  16.448 -0.4182 -3.5352 -1.0385
  212MPD1     C 3218   1.132   3.573  16.542 -0.1109  0.0898 -0.3879
  212MPD1    C1 3219   1.021   3.645  16.529  0.0175  0.6397  0.6395
  212MPD1    C2 3220   0.902   3.574  16.542 -0.0388  0.1080  0.4431
  212MPD1    C3 3221   0.896   3.450  16.588 -0.5375  0.0335 -0.1045
  212MPD1    C4 3222   1.010   3.378  16.604 -0.0996 -0.2149 -0.4345
  212MPD1    C5 3223   1.128   3.448  16.594  0.1413  0.4391 -0.0441
  212MPD1     H 3224   0.811   3.630  16.525  0.9424  0.7467 -2.6756
  212MPD1    H1 3225   1.028   3.278  16.643  0.9582  0.6250  1.2448
  212MPD1    H2 3226   1.226   3.626  16.535  0.2726 -0.5955 -0.3736
  212MPD1    H3 3227   1.223   3.400  16.612 -0.0301  0.2214  0.2828
  212MPD1     N 3228   0.771   3.388  16.606 -0.1838  0.4990 -0.4208
  212MPD1    H5 3229   0.763   3.287  16.595  0.2313  0.3995  0.1862
  212MPD1    N1 3230   1.038   3.770  16.473  0.6039 -0.1503 -0.3769
  212MPD1    H6 3231   0.963   3.835  16.496  0.0459 -0.5388 -1.1208
  212MPD1    H7 3232   1.123   3.818  16.503 -0.2839  1.7947 -0.9269
  213MPD1     C 3233   3.652   4.706  15.635  0.1099  0.5911  0.3602
  213MPD1    C1 3234   3.538   0.053  15.612 -0.8534  0.5489  0.1232
  213MPD1    C2 3235   3.448   4.717  15.516  0.2546  0.2383  0.1333
  213MPD1    C3 3236   3.481   4.598  15.450 -0.1393  0.3006  0.8638
  213MPD1    C4 3237   3.608   4.546  15.464 -0.3142 -0.5997 -0.1058
  213MPD1    C5 3238   3.694   4.611  15.548 -0.1635  0.2587  0.1473
  213MPD1     H 3239   3.358   0.049  15.494 -0.9145 -1.8730 -0.5805
  213MPD1    H1 3240   3.656   4.469  15.406  0.7999  0.9550 -1.2663
  213MPD1    H2 3241   3.731   0.027  15.693  0.9656 -1.7430  1.0411
  213MPD1    H3 3242   3.796   4.577  15.552  0.2047  1.4171  0.5227
  213MPD1     N 3243   3.387   4.545  15.366 -0.0947 -0.2643 -0.0292
  213MPD1    H5 3244   3.295   4.588  15.361  0.4315  0.9314  0.5157
  213MPD1    N1 3245   3.490   0.132  15.721  0.5893 -0.4844  0.7454
  213MPD1    H6 3246   3.571   0.180  15.760 -0.2975  0.1257  1.7889
  213MPD1    H7 3247   3.420   0.201  15.697 -0.3221 -1.3779  0.8569
  214MPD1     C 3248   3.207   3.615  15.001  0.0982  0.2460  0.5267
  214MPD1    C1 3249   3.156   3.697  14.895  0.6238  0.2664  0.2057
  214MPD1    C2 3250   3.162   3.837  14.914 -0.3535  0.4129 -0.0753
  214MPD1    C3 3251   3.239   3.900  15.010  0.4680 -0.4071  0.2385
  214MPD1    C4 3252   3.302   3.818  15.103  0.2361 -0.3122  0.2295
  214MPD1    C5 3253   3.276   3.678  15.099  0.4396 -0.3950 -0.7210
  214MPD1     H 3254   3.121   3.902  14.837 -0.4118  1.2150  0.6383
  214MPD1    H1 3255   3.367   3.861  15.178  0.3620 -4.0092  2.2532
  214MPD1    H2 3256   3.186   3.509  15.008 -2.5552  0.7652  0.4675
  214MPD1    H3 3257   3.321   3.625  15.182 -1.3572  1.3313  1.3410
  214MPD1     N 3258   3.257   4.037  15.035  0.1578  0.0645 -0.2212
  214MPD1    H5 3259   3.323   4.057  15.109  0.7201  2.3747 -1.3576
  214MPD1    N1 3260   3.080   3.653  14.785 -1.0223 -0.1345 -0.2665
  214MPD1    H6 3261   3.103   3.710  14.703 -0.2458  2.1777  1.5428
  214MPD1    H7 3262   3.105   3.556  14.773  1.0256  0.6338 -2.3277
  215MPD1     C 3263   2.924   0.092  10.329 -0.3439  0.0099  0.2773
  215MPD1    C1 3264   2.982   0.100  10.457 -0.1890  0.6844  0.2483
  215MPD1    C2 3265   3.047   0.212  10.494 -0.4720 -0.8935 -0.5189
  215MPD1    C3 3266   3.081   0.308  10.405 -0.5398 -0.6720  0.1555
  215MPD1    C4 3267   3.025   0.303  10.274 -0.9858 -0.1680 -0.0776
  215MPD1    C5 3268   2.946   0.195  10.246 -0.0647  0.1148  0.2422
  215MPD1     H 3269   3.081   0.217  10.597  1.3189  1.6404 -1.2162
  215MPD1    H1 3270   3.050   0.374  10.196 -0.7037  0.3004  0.4330
  215MPD1    H2 3271   2.875   4.724  10.300 -0.0420 -0.3959  1.0570
  215MPD1    H3 3272   2.914   0.179  10.144 -0.4508  0.4101  0.3169
  215MPD1     N 3273   3.170   0.413  10.447 -0.0663  0.7050  0.3252
  215MPD1    H5 3274   3.193   0.407  10.545 -4.3023  1.6471  1.3687
  215MPD1    N1 3275   2.952   0.003  10.554 -0.1751  0.2919 -0.2535
  215MPD1    H6 3276   2.930   4.642  10.502  1.7800 -0.5190  0.2780
  215MPD1    H7 3277   3.009   4.708  10.636  0.7675  2.2401 -0.4617
  216MPD1     C 3278   0.759   3.428  17.345  0.3423  0.9690  0.2774
  216MPD1    C1 3279   0.896   3.421  17.349  0.0455 -0.5737 -0.6815
  216MPD1    C2 3280   0.967   3.309  17.304  0.2217 -0.4310  0.1150
  216MPD1    C3 3281   0.896   3.206  17.250  0.5752  0.2505  0.2270
  216MPD1    C4 3282   0.759   3.213  17.251  0.3137 -0.3278  0.2734
  216MPD1    C5 3283   0.687   3.321  17.300  0.9295 -0.8135  0.9161
  216MPD1     H 3284   1.075   3.312  17.305  0.1944  1.0889 -0.8483
  216MPD1    H1 3285   0.702   3.131  17.211  0.0229  0.1658 -0.3145
  216MPD1    H2 3286   0.704   3.515  17.380 -1.2253  0.4627 -0.9289
  216MPD1    H3 3287   0.579   3.317  17.301  0.9395 -1.5652 -1.0948
  216MPD1     N 3288   0.972   3.101  17.191  0.1104 -1.3148 -0.2353
  216MPD1    H5 3289   1.070   3.115  17.169  0.0513  0.8278  0.9238
  216MPD1    N1 3290   0.955   3.521  17.424  0.5084  0.0379 -0.2139
  216MPD1    H6 3291   0.903   3.609  17.419  0.2322 -0.1875 -1.3020
  216MPD1    H7 3292   1.051   3.534  17.393  0.3510 -0.1695 -0.7771
  217MPD1     C 3293   1.471   0.819   8.963 -0.2801 -0.8197  0.1613
  217MPD1    C1 3294   1.570   0.742   9.008 -0.0991  0.3504  0.2065
  217MPD1    C2 3295   1.586   0.617   8.959 -0.1504  0.1120 -0.4295
  217MPD1    C3 3296   1.490   0.558   8.877 -0.2354  0.1592  0.1107
  217MPD1    C4 3297   1.385   0.636   8.834 -0.1736 -0.0889 -0.2216
  217MPD1    C5 3298   1.388   0.769   8.872  0.8517  0.1069 -0.5184
  217MPD1     H 3299   1.673   0.565   8.999  0.1418  0.2873 -0.8389
  217MPD1    H1 3300   1.307   0.599   8.769  1.1836 -0.5270 -1.5922
  217MPD1    H2 3301   1.463   0.924   8.989  1.1069 -0.3498 -1.3319
  217MPD1    H3 3302   1.314   0.839   8.834  2.1674  0.6077 -2.1588
  217MPD1     N 3303   1.484   0.418   8.855 -0.2070  0.9880 -0.0430
  217MPD1    H5 3304   1.396   0.379   8.823 -0.6451  0.3655  1.8839
  217MPD1    N1 3305   1.670   0.808   9.077  0.1966 -0.1103 -0.1187
  217MPD1    H6 3306   1.729   0.741   9.126 -0.7773 -1.0369 -0.2182
  217MPD1    H7 3307   1.655   0.886   9.141  0.8974  1.3468 -1.7188
  218MPD1     C 3308   3.083   0.464  12.946 -0.4268 -0.5733  0.5611
  218MPD1    C1 3309   3.175   0.388  12.878  0.2798 -0.6986 -0.4659
  218MPD1    C2 3310   3.215   0.431  12.753  0.0189 -0.1311  0.2568
  218MPD1    C3 3311   3.178   0.557  12.700  0.7060  0.2202 -0.0130
  218MPD1    C4 3312   3.090   0.633  12.771  0.2362  0.1307  0.6685
  218MPD1    C5 3313   3.050   0.585  12.893 -0.3100  0.1412  0.1530
  218MPD1     H 3314   3.283   0.366  12.700 -0.8777 -0.9530  0.1054
  218MPD1    H1 3315   3.054   0.727  12.731 -0.8476 -1.4770 -2.0840
  218MPD1    H2 3316   3.050   0.431  13.043  3.5403  0.4662  2.2917
  218MPD1    H3 3317   2.988   0.660  12.940 -0.5153  0.0222  0.0739
  218MPD1     N 3318   3.238   0.601  12.578 -0.4731 -0.6834  0.4153
  218MPD1    H5 3319   3.307   0.539  12.539 -0.9285 -0.3538 -0.9160
  218MPD1    N1 3320   3.198   0.256  12.921  0.4552  0.3674  0.2865
  218MPD1    H6 3321   3.195   0.261  13.022 -1.0225 -1.2934  0.3209
  218MPD1    H7 3322   3.287   0.219  12.889 -1.3814 -2.5608 -1.4725
  219MPD1     C 3323   3.418   1.272  11.717 -0.3603 -0.0906 -0.0281
  219MPD1    C1 3324   3.463   1.147  11.681  0.2537  0.2732 -0.6658
  219MPD1    C2 3325   3.447   1.044  11.769  0.6093  0.0894 -0.0823
  219MPD1    C3 3326   3.374   1.062  11.884 -0.0923 -0.2111 -1.0810
  219MPD1    C4 3327   3.315   1.181  11.915 -0.2231  0.3387 -0.6557
  219MPD1    C5 3328   3.341   1.285  11.833 -0.1812  0.1077  0.2777
  219MPD1     H 3329   3.482   0.946  11.741 -0.1286 -0.6195  1.4758
  219MPD1    H1 3330   3.277   1.203  12.014 -0.9297 -2.5861 -0.2506
  219MPD1    H2 3331   3.431   1.358  11.652  1.6689 -0.3944 -0.0132
  219MPD1    H3 3332   3.302   1.383  11.859 -1.6828 -0.7006  1.1358
  219MPD1     N 3333   3.367   0.950  11.977 -0.3022 -0.8138 -0.6701
  219MPD1    H5 3334   3.427   0.871  11.953  1.2462  0.2548 -0.3751
  219MPD1    N1 3335   3.533   1.123  11.561 -0.1452  0.3654 -0.4418
  219MPD1    H6 3336   3.494   1.170  11.480 -0.1051 -0.6875 -1.0653
  219MPD1    H7 3337   3.523   1.024  11.539 -0.6697  0.5278 -0.9445
  220MPD1     C 3338   2.585   1.709   9.115  0.0021  0.3525  0.7229
  220MPD1    C1 3339   2.662   1.767   9.217  1.0200  0.1505 -0.2259
  220MPD1    C2 3340   2.679   1.689   9.331  0.1643  0.8684  0.7432
  220MPD1    C3 3341   2.627   1.563   9.335  0.5454  0.6130  0.0774
  220MPD1    C4 3342   2.559   1.503   9.230 -0.5573 -0.2258  0.1837
  220MPD1    C5 3343   2.539   1.579   9.121 -0.2778 -0.6005  0.3388
  220MPD1     H 3344   2.728   1.732   9.418 -0.9443  0.0756  1.7631
  220MPD1    H1 3345   2.522   1.401   9.232  1.3574 -0.9573 -1.3092
  220MPD1    H2 3346   2.569   1.755   9.018 -0.5277  2.5566  1.8646
  220MPD1    H3 3347   2.489   1.551   9.030 -0.9729 -0.3113  0.6285
  220MPD1     N 3348   2.637   1.490   9.457 -0.2686  0.5048  0.2812
  220MPD1    H5 3349   2.694   1.530   9.531  0.1685 -2.1230  1.4021
  220MPD1    N1 3350   2.678   1.908   9.219  0.0212  0.3604  0.3177
  220MPD1    H6 3351   2.696   1.950   9.127  2.6836 -0.6211  0.3995
  220MPD1    H7 3352   2.764   1.927   9.270  1.1547  0.8111 -1.7563
  221MPD1     C 3353   0.901   0.368  15.934 -0.2235  0.1815  0.2746
  221MPD1    C1 3354   0.816   0.349  15.829  0.4933 -0.5311  0.2619
  221MPD1    C2 3355   0.843   0.249  15.739  0.8301  0.3765 -0.2655
  221MPD1    C3 3356   0.967   0.191  15.734 -0.4089  0.1184 -0.1713
  221MPD1    C4 3357   1.056   0.217  15.839 -0.1491 -0.2792 -0.3513
  221MPD1    C5 3358   1.022   0.307  15.935 -0.7914  0.4020 -0.0847
  221MPD1     H 3359   0.764   0.222  15.670  0.6911 -0.9391  0.3951
  221MPD1    H1 3360   1.156   0.176  15.845 -0.6423 -1.5617 -1.0321
  221MPD1    H2 3361   0.880   0.435  16.015 -0.3069  0.9278 -0.3664
  221MPD1    H3 3362   1.091   0.337  16.014 -2.0382  1.3213  0.6542
  221MPD1     N 3363   0.999   0.091  15.647 -0.4464 -0.1756  0.3130
  221MPD1    H5 3364   1.084   0.042  15.672 -0.9111 -0.6994  0.8666
  221MPD1    N1 3365   0.683   0.400  15.839 -0.3771 -0.5551 -0.2710
  221MPD1    H6 3366   0.621   0.384  15.760  0.8502 -1.6531 -1.0195
  221MPD1    H7 3367   0.686   0.498  15.865  0.6635 -0.6038 -0.1919
  222MPD1     C 3368   1.419   3.158  17.416  0.0784  0.4350  0.2489
  222MPD1    C1 3369   1.464   3.122  17.539  0.5040 -0.3516 -0.8106
  222MPD1    C2 3370   1.473   3.216  17.640 -0.2677  0.9377 -0.5344
  222MPD1    C3 3371   1.430   3.345  17.616  0.3550 -0.3477  0.1437
  222MPD1    C4 3372   1.383   3.375  17.487  0.3829 -0.5385 -0.0904
  222MPD1    C5 3373   1.387   3.287  17.387  0.0127 -0.0255  0.2461
  222MPD1     H 3374   1.503   3.174   0.035 -1.3653  0.9201 -0.1884
  222MPD1    H1 3375   1.370   3.478  17.456 -0.4546 -1.0646 -1.5142
  222MPD1    H2 3376   1.410   3.086  17.335  1.3001 -0.4502  0.8884
  222MPD1    H3 3377   1.369   3.317  17.284  3.4105  0.2795 -0.2407
  222MPD1     N 3378   1.442   3.456   0.009  0.7534  0.3385 -0.9105
  222MPD1    H5 3379   1.410   3.548  17.681  0.7752  0.2133 -1.3453
  222MPD1    N1 3380   1.466   2.983  17.560  0.3895 -0.4273 -0.5228
  222MPD1    H6 3381   1.535   2.976  17.635  1.0313 -0.8029 -1.1533
  222MPD1    H7 3382   1.496   2.943  17.472 -1.4455 -1.4844 -0.6537
  223MPD1     C 3383   2.089   4.018   0.624  0.0612  0.3145 -0.4829
  223MPD1    C1 3384   2.042   4.078   0.510  0.0185 -0.9806 -0.2079
  223MPD1    C2 3385   1.939   4.016   0.444 -0.1534 -0.1572  0.2135
  223MPD1    C3 3386   1.903   3.887   0.479  0.0099 -0.1902  0.3225
  223MPD1    C4 3387   1.963   3.819   0.581 -0.0686 -0.3583  0.0300
  223MPD1    C5 3388   2.048   3.891   0.661 -0.0788 -0.5753 -0.6333
  223MPD1     H 3389   1.893   4.068   0.361 -1.0719 -1.4653 -0.1064
  223MPD1    H1 3390   1.934   3.723   0.624 -2.4636 -0.0438 -0.8714
  223MPD1    H2 3391   2.172   4.063   0.677  1.6899 -1.3153 -1.6636
  223MPD1    H3 3392   2.111   3.839   0.732  0.6245  1.6092  0.3262
  223MPD1     N 3393   1.797   3.822   0.403 -0.6768  0.2165  0.3560
  223MPD1    H5 3394   1.755   3.880   0.330  1.1456  0.4041 -0.5455
  223MPD1    N1 3395   2.102   4.198   0.465  0.5766 -0.4896  0.2996
  223MPD1    H6 3396   2.203   4.203   0.479  0.5876 -3.1096  1.2101
  223MPD1    H7 3397   2.084   4.217   0.367  1.4829 -0.7912  0.0771
  224MPD1     C 3398   2.415   1.224   8.947  0.5547 -0.7490 -0.2218
  224MPD1    C1 3399   2.493   1.127   9.002  0.8402  0.7809  0.0329
  224MPD1    C2 3400   2.427   1.006   9.035  0.6823  0.3688 -0.0020
  224MPD1    C3 3401   2.293   0.979   9.011 -0.1211  0.1576 -0.0099
  224MPD1    C4 3402   2.225   1.080   8.950 -0.2964 -0.5421 -0.4893
  224MPD1    C5 3403   2.291   1.194   8.912  0.4283 -0.1209 -0.6125
  224MPD1     H 3404   2.488   0.927   9.079 -0.4474 -1.7288 -2.2108
  224MPD1    H1 3405   2.118   1.074   8.937 -0.3035 -0.1937 -0.5804
  224MPD1    H2 3406   2.448   1.326   8.931  3.2670 -1.5242  0.5391
  224MPD1    H3 3407   2.225   1.272   8.874  1.1917 -0.0512 -1.7913
  224MPD1     N 3408   2.230   0.851   9.024  0.4776 -0.4258 -0.6432
  224MPD1    H5 3409   2.131   0.841   9.005 -0.0644  1.0015  1.4659
  224MPD1    N1 3410   2.627   1.143   9.041  0.2847 -0.4059 -0.3001
  224MPD1    H6 3411   2.669   1.228   9.004  0.6092  0.0470  1.1188
  224MPD1    H7 3412   2.686   1.062   9.025  0.7704 -0.3858  1.3700
  225MPD1     C 3413   3.369   1.972  12.599 -0.4403 -0.0463  1.1094
  225MPD1    C1 3414   3.321   1.843  12.618 -0.2112 -0.0595 -0.1120
  225MPD1    C2 3415   3.191   1.827  12.574 -0.0332  0.2742  0.3724
  225MPD1    C3 3416   3.128   1.915  12.489  0.1549 -1.5802 -0.4031
  225MPD1    C4 3417   3.184   2.031  12.463  0.7516  0.4353 -0.3636
  225MPD1    C5 3418   3.306   2.063  12.518 -0.2800  0.3709  0.4302
  225MPD1     H 3419   3.136   1.738  12.603 -1.5789  0.3043 -2.4798
  225MPD1    H1 3420   3.143   2.106  12.397  0.0352 -2.3598 -3.0978
  225MPD1    H2 3421   3.465   2.006  12.635  0.0634 -1.4807  1.1352
  225MPD1    H3 3422   3.358   2.156  12.496  0.0544  0.0196 -0.2691
  225MPD1     N 3423   3.003   1.888  12.430 -0.1606  0.1592 -0.6379
  225MPD1    H5 3424   2.955   1.957  12.373 -1.2270  1.9864  2.5242
  225MPD1    N1 3425   3.381   1.763  12.713  0.6698  0.0347  0.1449
  225MPD1    H6 3426   3.365   1.665  12.688  0.0676 -0.2693  1.7600
  225MPD1    H7 3427   3.481   1.781  12.711  0.5323  0.9465  1.7933
  226MPD1     C 3428   1.542   0.877   8.420  0.2330  0.2105 -0.2927
  226MPD1    C1 3429   1.661   0.894   8.494  0.6795  0.1542  0.3676
  226MPD1    C2 3430   1.659   0.973   8.606  0.2908 -0.0962  0.3056
  226MPD1    C3 3431   1.544   1.037   8.647  0.7388  0.1725  0.8077
  226MPD1    C4 3432   1.429   1.029   8.573  0.0198 -0.2880  0.0850
  226MPD1    C5 3433   1.429   0.948   8.462 -0.2917 -0.0054  0.2917
  226MPD1     H 3434   1.747   0.978   8.669 -0.0218 -1.7341  0.8581
  226MPD1    H1 3435   1.336   1.081   8.593 -0.0777 -0.4746  0.1129
  226MPD1    H2 3436   1.531   0.802   8.342 -0.2029  0.6320 -0.6396
  226MPD1    H3 3437   1.333   0.943   8.410 -0.8641 -0.3265  1.3773
  226MPD1     N 3438   1.558   1.119   8.762  0.5273 -0.1090  0.7115
  226MPD1    H5 3439   1.649   1.133   8.805  0.7851  2.3319 -0.6678
  226MPD1    N1 3440   1.769   0.803   8.463  0.2978 -0.3367  0.1520
  226MPD1    H6 3441   1.861   0.842   8.479  0.0996 -0.1470  0.8389
  226MPD1    H7 3442   1.770   0.770   8.367 -0.2950 -2.0227  0.7258
  227MPD1     C 3443   0.818   1.532   9.271  0.1580  0.4719 -0.4409
  227MPD1    C1 3444   0.841   1.413   9.200  0.2482  0.1934  0.7522
  227MPD1    C2 3445   0.969   1.388   9.148  0.1842 -0.1128  0.0590
  227MPD1    C3 3446   1.063   1.491   9.142  0.3944 -0.7455  0.0711
  227MPD1    C4 3447   1.031   1.608   9.212  0.8739  0.3328  0.0633
  227MPD1    C5 3448   0.912   1.630   9.273 -0.0524 -0.2629  0.3939
  227MPD1     H 3449   1.003   1.299   9.097 -0.1118 -0.0334 -0.2814
  227MPD1    H1 3450   1.105   1.687   9.212 -0.5174  1.6420  0.8644
  227MPD1    H2 3451   0.731   1.559   9.329  1.6873 -0.0112  2.0929
  227MPD1    H3 3452   0.890   1.726   9.319  3.3568  1.3033 -1.2529
  227MPD1     N 3453   1.184   1.468   9.082  0.1653 -0.2162  0.0566
  227MPD1    H5 3454   1.201   1.375   9.044 -0.2883 -1.1556  2.1660
  227MPD1    N1 3455   0.753   1.305   9.222 -0.2452  0.0029 -0.7659
  227MPD1    H6 3456   0.659   1.342   9.226  0.1128  0.8745 -0.3761
  227MPD1    H7 3457   0.769   1.230   9.155  0.6185  0.8440 -1.5086
  228MPD1     C 3458   4.190   3.456  11.799  0.0643 -0.6954 -0.0808
  228MPD1    C1 3459   4.075   3.514  11.758 -0.3003  0.1284  0.5566
  228MPD1    C2 3460   3.982   3.563  11.846  0.6109  0.2424 -0.4381
  228MPD1    C3 3461   4.019   3.593  11.978 -0.2058  0.1576  0.0778
  228MPD1    C4 3462   4.147   3.549  12.021 -0.4684 -0.0870  0.2179
  228MPD1    C5 3463   4.221   3.476  11.931  0.2909  0.1961  0.3906
  228MPD1     H 3464   3.883   3.599  11.818 -0.4330 -1.5285  0.9235
  228MPD1    H1 3465   4.187   3.576  12.118  2.4597  1.3379 -1.3944
  228MPD1    H2 3466   4.260   3.407  11.732  1.4322  0.2887  0.6388
  228MPD1    H3 3467   4.315   3.442  11.972 -0.3922  0.1077  1.9115
  228MPD1     N 3468   3.929   3.659  12.067 -0.1360  0.1613  0.6909
  228MPD1    H5 3469   3.835   3.675  12.032 -0.9386 -2.3659  1.7040
  228MPD1    N1 3470   4.039   3.514  11.630 -0.1908  0.0426 -0.3958
  228MPD1    H6 3471   3.996   3.598  11.594  3.0124  1.5555 -0.7579
  228MPD1    H7 3472   4.113   3.488  11.564 -0.4916 -0.4576 -0.5344
  229MPD1     C 3473   4.385   2.716  15.187  0.2567  0.1842  0.2855
  229MPD1    C1 3474   4.314   2.617  15.125  0.2032  0.1593 -0.4029
  229MPD1    C2 3475   4.356   2.484  15.134 -0.1025 -0.3252 -0.0835
  229MPD1    C3 3476   4.469   2.456  15.200  0.5783 -0.5899  0.3111
  229MPD1    C4 3477   4.528   2.552  15.280  0.2760 -0.4377 -0.0990
  229MPD1    C5 3478   4.486   2.681  15.268 -0.2627 -0.4819 -0.5285
  229MPD1     H 3479   4.298   2.409  15.082 -0.4470 -1.0779  1.3694
  229MPD1    H1 3480   4.623   2.533  15.330  2.0207  1.3507 -2.7254
  229MPD1    H2 3481   4.364   2.821  15.175  2.6493  0.7491  0.9792
  229MPD1    H3 3482   4.541   2.754  15.325 -2.0914 -0.9380  1.8182
  229MPD1     N 3483   4.524   2.322  15.195  0.4347  0.0452  0.1963
  229MPD1    H5 3484   4.610   2.305  15.246 -0.0013  0.8955  1.2165
  229MPD1    N1 3485   4.219   2.642  15.021 -0.1337  0.2646 -0.5759
  229MPD1    H6 3486   4.175   2.733  15.034 -0.8103 -0.0703 -0.5125
  229MPD1    H7 3487   4.148   2.570  15.035 -1.1834  1.2358 -0.8822
  230MPD1     C 3488   0.605   1.923  15.460  0.2748 -0.1166  0.3549
  230MPD1    C1 3489   0.596   1.888  15.326  0.6202  0.3778  0.1072
  230MPD1    C2 3490   0.469   1.905  15.268 -0.0712  0.0113  0.4228
  230MPD1    C3 3491   0.365   1.967  15.332 -0.8900  0.7170 -0.3018
  230MPD1    C4 3492   0.392   2.028  15.454  0.0092 -0.3557 -0.1439
  230MPD1    C5 3493   0.510   2.004  15.520 -0.4679 -0.0965  0.3063
  230MPD1     H 3494   0.456   1.868  15.167 -0.1614 -1.9024  1.1433
  230MPD1    H1 3495   0.313   2.081  15.506 -1.4266 -1.8000 -0.8584
  230MPD1    H2 3496   0.692   1.900  15.520  0.4241  0.9741  0.5398
  230MPD1    H3 3497   0.531   2.050  15.616 -1.4290  0.8044  0.0891
  230MPD1     N 3498   0.247   1.972  15.259 -0.2329 -0.0409 -0.6475
  230MPD1    H5 3499   0.247   1.948  15.161  0.8807 -1.2595 -0.3466
  230MPD1    N1 3500   0.701   1.816  15.270  0.1545 -0.3108  0.1267
  230MPD1    H6 3501   0.708   1.837  15.170  2.1778  0.3041  0.4012
  230MPD1    H7 3502   0.788   1.837  15.319 -0.2082  0.7805  0.2868
  231MPD1     C 3503   3.154   4.071  15.426 -0.2476  0.1970  0.1397
  231MPD1    C1 3504   3.083   3.975  15.358 -0.8054 -0.2071 -0.4465
  231MPD1    C2 3505   2.978   4.018  15.281  0.5166 -0.2322 -0.1442
  231MPD1    C3 3506   2.964   4.149  15.251  0.0479 -0.0325 -0.3182
  231MPD1    C4 3507   3.050   4.246  15.299 -0.2092 -0.1241 -0.3076
  231MPD1    C5 3508   3.135   4.206  15.397 -0.0642 -0.8676  0.4730
  231MPD1     H 3509   2.907   3.946  15.242 -0.1415 -0.0356  0.6910
  231MPD1    H1 3510   3.032   4.352  15.289  0.4001  0.1842  1.8552
  231MPD1    H2 3511   3.226   4.056  15.506 -0.3255  3.1337  0.7609
  231MPD1    H3 3512   3.178   4.288  15.454 -1.0917 -1.5923  2.3002
  231MPD1     N 3513   2.857   4.179  15.161 -0.3044 -0.0938  0.4075
  231MPD1    H5 3514   2.805   4.100  15.123 -1.6082  0.1629  1.6748
  231MPD1    N1 3515   3.091   3.839  15.398 -0.5966 -0.2201  0.3281
  231MPD1    H6 3516   3.050   3.778  15.327 -2.6357  0.7048  0.7064
  231MPD1    H7 3517   3.188   3.821  15.421 -0.8030 -0.4997  0.9840
  232MPD1     C 3518   0.124   2.042   0.194  0.1211 -0.3894  0.3229
  232MPD1    C1 3519   0.029   2.091   0.281 -0.1352 -0.6035 -0.7916
  232MPD1    C2 3520   4.631   2.132   0.225 -0.1979  0.0902  0.3227
  232MPD1    C3 3521   4.623   2.158   0.088 -0.2781 -0.0353  0.2144
  232MPD1    C4 3522   0.004   2.124   0.005 -0.3839  0.0945 -0.0912
  232MPD1    C5 3523   0.113   2.071   0.062 -0.1873 -0.1339 -0.5698
  232MPD1     H 3524   4.550   2.160   0.291 -0.4130 -0.9289  0.4836
  232MPD1    H1 3525   4.723   2.132  17.597  2.1889 -0.1213 -0.2353
  232MPD1    H2 3526   0.213   1.991   0.229  0.7781  0.5853  0.0466
  232MPD1    H3 3527   0.197   2.051  17.696  0.5244  0.9197  0.0197
  232MPD1     N 3528   4.504   2.212   0.041 -0.0917  0.0983  0.0992
  232MPD1    H5 3529   4.437   2.237   0.113 -1.7403  0.2956 -1.5032
  232MPD1    N1 3530   0.038   2.061   0.415 -0.5917  0.1549 -0.3857
  232MPD1    H6 3531   4.697   2.115   0.471 -0.7861 -1.8616  1.3531
  232MPD1    H7 3532   0.126   2.078   0.464 -0.3122 -3.2305  0.2994
  233MPD1     C 3533   0.586   0.584   2.244  0.1880  0.3956  0.1250
  233MPD1    C1 3534   0.666   0.529   2.345 -0.0174 -0.3767 -0.6528
  233MPD1    C2 3535   0.797   0.486   2.303 -0.7568 -0.0453 -0.4277
  233MPD1    C3 3536   0.853   0.528   2.184  0.1317  0.3084  0.1476
  233MPD1    C4 3537   0.767   0.584   2.089  0.3771  0.4312  0.2480
  233MPD1    C5 3538   0.638   0.617   2.121  0.5977  0.7315  0.1599
  233MPD1     H 3539   0.845   0.433   2.385  0.5834  0.8065 -0.6645
  233MPD1    H1 3540   0.802   0.627   1.995 -1.1261 -1.2159 -1.0661
  233MPD1    H2 3541   0.486   0.615   2.274  0.3939  1.9155 -0.7763
  233MPD1    H3 3542   0.581   0.670   2.045  1.9193 -1.9942 -2.7008
  233MPD1     N 3543   0.988   0.530   2.139  0.8461 -0.0311  0.4371
  233MPD1    H5 3544   1.021   0.558   2.047 -0.3788  1.6218  0.5027
  233MPD1    N1 3545   0.618   0.470   2.467  0.2203  0.6786 -1.1921
  233MPD1    H6 3546   0.528   0.503   2.502  0.8574  0.7470  0.3866
  233MPD1    H7 3547   0.689   0.479   2.539 -1.0377 -0.3436  0.1802
  234MPD1     C 3548   2.426   3.593   9.342  0.4922 -0.8188 -0.6753
  234MPD1    C1 3549   2.509   3.695   9.378  0.0944 -0.2805  0.2916
  234MPD1    C2 3550   2.532   3.787   9.277  0.3534  0.9043 -0.9578
  234MPD1    C3 3551   2.458   3.790   9.157  0.1940 -0.4404  0.0281
  234MPD1    C4 3552   2.375   3.688   9.128 -0.4365 -0.4929 -0.1212
  234MPD1    C5 3553   2.359   3.595   9.224 -0.1941 -0.2875 -1.0408
  234MPD1     H 3554   2.601   3.867   9.299 -0.1385  1.4495 -1.3926
  234MPD1    H1 3555   2.310   3.688   9.041  1.0970  1.5649 -1.2764
  234MPD1    H2 3556   2.406   3.511   9.410  0.3545  1.1898  1.6977
  234MPD1    H3 3557   2.285   3.517   9.209 -0.5907  0.3326 -2.3441
  234MPD1     N 3558   2.464   3.909   9.083 -0.0509  0.3415 -0.0630
  234MPD1    H5 3559   2.532   3.977   9.115 -0.0949  0.2497  0.2223
  234MPD1    N1 3560   2.586   3.698   9.494 -0.0467 -0.9709  0.3615
  234MPD1    H6 3561   2.608   3.788   9.536 -2.2973 -1.2617  2.1794
  234MPD1    H7 3562   2.546   3.641   9.569  2.1419 -1.1678  1.3738
  235MPD1     C 3563   3.063   2.349   9.286 -0.0703 -0.1751  0.3928
  235MPD1    C1 3564   3.073   2.482   9.294  0.4905 -0.4527  0.8002
  235MPD1    C2 3565   3.197   2.541   9.248 -1.1530  0.1672  0.3607
  235MPD1    C3 3566   3.308   2.460   9.216  0.8791 -0.1461  0.1350
  235MPD1    C4 3567   3.288   2.320   9.215  0.2354 -0.1602  0.0511
  235MPD1    C5 3568   3.165   2.272   9.241 -0.3495 -0.6655  0.0536
  235MPD1     H 3569   3.209   2.648   9.259 -0.7375  0.2793 -1.2487
  235MPD1    H1 3570   3.363   2.243   9.204 -0.4993 -0.6411 -1.6210
  235MPD1    H2 3571   2.972   2.294   9.306 -0.9018  0.8710 -0.4790
  235MPD1    H3 3572   3.150   2.165   9.244 -1.0466 -0.5023  2.3710
  235MPD1     N 3573   3.433   2.515   9.192 -0.2293  0.0398 -0.0240
  235MPD1    H5 3574   3.442   2.616   9.185 -0.7844  0.0922  0.0589
  235MPD1    N1 3575   2.960   2.559   9.317 -0.0117  0.1474  0.6390
  235MPD1    H6 3576   2.983   2.652   9.351 -1.7342  1.1120 -0.8495
  235MPD1    H7 3577   2.899   2.512   9.383 -0.7188 -0.3541 -0.3574
  236MPD1     C 3578   2.916   2.876   9.750 -0.1790 -0.2768 -0.1063
  236MPD1    C1 3579   2.942   2.746   9.759 -0.2940 -0.1393 -0.3808
  236MPD1    C2 3580   3.055   2.698   9.817 -0.5570  0.2987  0.0081
  236MPD1    C3 3581   3.142   2.779   9.886  0.0118  0.7167 -0.2753
  236MPD1    C4 3582   3.114   2.918   9.886  0.3589 -0.2305 -0.0914
  236MPD1    C5 3583   3.003   2.967   9.807 -0.0457  0.3621  0.9294
  236MPD1     H 3584   3.074   2.592   9.801  0.9223  0.3291  1.5370
  236MPD1    H1 3585   3.165   2.987   9.952 -0.6653  0.3419  0.1062
  236MPD1    H2 3586   2.827   2.915   9.700 -1.4085 -1.2453  1.3134
  236MPD1    H3 3587   2.971   3.071   9.812  1.5209  0.9306 -0.5016
  236MPD1     N 3588   3.256   2.735   9.963 -0.0951  0.1494 -0.4272
  236MPD1    H5 3589   3.318   2.802  10.007  1.4751 -1.7844  0.3235
  236MPD1    N1 3590   2.867   2.661   9.670 -0.4369  0.3831 -0.5727
  236MPD1    H6 3591   2.768   2.686   9.672 -0.6212 -0.3476 -0.5467
  236MPD1    H7 3592   2.870   2.563   9.697  3.2746 -0.1295 -2.9191
  237MPD1     C 3593   2.445   1.877  15.127  0.1614  0.5250 -0.4404
  237MPD1    C1 3594   2.438   1.835  15.259  0.0012  0.0473 -0.5109
  237MPD1    C2 3595   2.519   1.730  15.300  0.1183  0.2296  0.3304
  237MPD1    C3 3596   2.601   1.664  15.211  0.1276  0.2426  0.4916
  237MPD1    C4 3597   2.622   1.725  15.085  0.0609  0.1013  0.0100
  237MPD1    C5 3598   2.542   1.831  15.048  0.6551  0.1613  0.2924
  237MPD1     H 3599   2.502   1.679  15.394 -1.3720  0.7403  0.3432
  237MPD1    H1 3600   2.693   1.676  15.020 -2.5750  0.1290 -2.8768
  237MPD1    H2 3601   2.369   1.943  15.087  1.0817  1.1527 -1.1441
  237MPD1    H3 3602   2.561   1.860  14.945  1.1254  0.9733  0.6100
  237MPD1     N 3603   2.662   1.541  15.241 -0.6572 -0.0945  0.5345
  237MPD1    H5 3604   2.720   1.503  15.167  2.6835 -0.2985  3.2710
  237MPD1    N1 3605   2.332   1.874  15.337 -0.4458  0.3217  0.2792
  237MPD1    H6 3606   2.312   1.972  15.318 -0.1075  0.1497 -0.9324
  237MPD1    H7 3607   2.349   1.840  15.431 -1.1143 -1.2621 -0.1695
  238MPD1     C 3608   4.425   0.291  14.567  0.3331 -0.5754 -0.8276
  238MPD1    C1 3609   4.516   0.191  14.545  0.1454 -0.2231  0.0492
  238MPD1    C2 3610   4.456   0.066  14.518  0.3865 -0.6957 -0.4773
  238MPD1    C3 3611   4.323   0.057  14.469  0.0123 -0.1370 -0.6831
  238MPD1    C4 3612   4.244   0.168  14.497  0.2249  1.1457 -0.3086
  238MPD1    C5 3613   4.290   0.281  14.549 -0.2011  0.4674  0.5114
  238MPD1     H 3614   4.525   4.707  14.504  2.3774  0.5661  1.8276
  238MPD1    H1 3615   4.143   0.154  14.459  0.7199 -1.9062 -0.4725
  238MPD1    H2 3616   4.461   0.391  14.589 -3.2124  0.7397 -0.9571
  238MPD1    H3 3617   4.223   0.366  14.556  0.3943  0.9955 -0.2399
  238MPD1     N 3618   4.272   4.676  14.401  0.3636  0.2507  0.2231
  238MPD1    H5 3619   4.175   4.683  14.372  0.0782 -3.2051  0.3827
  238MPD1    N1 3620   4.649   0.208  14.564 -0.4424 -0.4329 -0.3024
  238MPD1    H6 3621   4.670   0.308  14.569  0.6670 -0.7614  1.4717
  238MPD1    H7 3622   4.708   0.160  14.497 -1.0777 -2.1616  0.3847
  239MPD1     C 3623   0.031   1.179  14.688 -0.4612 -0.3630 -0.5633
  239MPD1    C1 3624   4.685   1.059  14.692  0.4062  0.2835  0.2455
  239MPD1    C2 3625   4.610   1.021  14.583  0.3339  0.1366 -0.2259
  239MPD1    C3 3626   4.607   1.096  14.470  0.7699 -0.5930  0.3913
  239MPD1    C4 3627   4.694   1.204  14.455 -0.7669  0.7320  0.6116
  239MPD1    C5 3628   0.033   1.253  14.566 -0.4044 -0.3152 -0.3426
  239MPD1     H 3629   4.558   0.927  14.595 -0.1029  0.4190  0.0562
  239MPD1    H1 3630   4.702   1.258  14.361 -2.0628  2.2748  1.3927
  239MPD1    H2 3631   0.102   1.219  14.759 -0.8800 -2.4576  1.0109
  239MPD1    H3 3632   0.106   1.330  14.543  0.3151 -0.3459  1.8629
  239MPD1     N 3633   4.531   1.069  14.355 -0.2232  0.3464  0.0897
  239MPD1    H5 3634   4.537   1.129  14.274 -0.4999 -0.4460 -0.5181
  239MPD1    N1 3635   4.673   0.984  14.811  0.0592 -0.3650  0.0841
  239MPD1    H6 3636   4.651   0.887  14.789  1.2540 -0.3797 -1.0515
  239MPD1    H7 3637   0.032   0.977  14.868  1.1679  1.7071 -1.2894
  240MPD1     C 3638   4.034   0.334  13.627 -0.5746  0.6172  0.8851
  240MPD1    C1 3639   4.107   0.297  13.737 -0.1619  0.0587  0.1924
  240MPD1    C2 3640   4.044   0.229  13.840  0.1175  0.2766  0.2426
  240MPD1    C3 3641   3.908   0.211  13.855 -0.1200  0.1896 -0.3221
  240MPD1    C4 3642   3.827   0.258  13.751  0.1705 -0.9617  0.2057
  240MPD1    C5 3643   3.892   0.318  13.649 -0.1722 -0.2264 -0.2766
  240MPD1     H 3644   4.101   0.175  13.914  2.2081  2.4506  0.1937
  240MPD1    H1 3645   3.720   0.245  13.747 -0.0425  0.6014  0.5745
  240MPD1    H2 3646   4.066   0.381  13.535 -2.7403  1.3568  0.5003
  240MPD1    H3 3647   3.835   0.351  13.562 -0.6431 -2.0159 -0.6409
  240MPD1     N 3648   3.861   0.137  13.967  0.0437  0.0219 -0.9586
  240MPD1    H5 3649   3.932   0.117  14.037 -0.0265  2.0007 -0.3262
  240MPD1    N1 3650   4.247   0.304  13.726 -0.2958 -0.2330  0.3521
  240MPD1    H6 3651   4.295   0.294  13.816  0.4535  0.1590 -0.0096
  240MPD1    H7 3652   4.277   0.385  13.672 -1.0016  0.2940  0.7527
  241MPD1     C 3653   4.093   4.495  14.865  0.7255 -0.3278 -0.5958
  241MPD1    C1 3654   4.135   4.596  14.773 -0.0260  0.6390  0.2734
  241MPD1    C2 3655   4.051   4.635  14.668  0.1526 -0.4094 -0.0424
  241MPD1    C3 3656   3.931   4.563  14.643  0.3212  0.1848 -0.9470
  241MPD1    C4 3657   3.888   4.468  14.737 -0.2279  0.4013 -0.0891
  241MPD1    C5 3658   3.967   4.445  14.850 -0.5917 -0.0834  0.0399
  241MPD1     H 3659   4.075   4.709  14.593 -0.5059  0.4836  0.6323
  241MPD1    H1 3660   3.806   4.400  14.718  0.6306 -0.9756  1.1506
  241MPD1    H2 3661   4.150   4.462  14.951  0.6133  1.9719  0.3460
  241MPD1    H3 3662   3.939   4.370  14.923 -0.5184 -0.0300  0.1224
  241MPD1     N 3663   3.849   4.595  14.534 -0.1172  0.2156  0.2142
  241MPD1    H5 3664   3.760   4.546  14.529  0.2831 -0.7890  2.9852
  241MPD1    N1 3665   4.265   4.655  14.775  0.6149 -0.3647  0.1993
  241MPD1    H6 3666   4.273   0.022  14.730  1.3925  0.3020  1.7099
  241MPD1    H7 3667   4.313   4.657  14.865  1.4826 -0.7070 -0.2510
  242MPD1     C 3668   3.756   3.641  15.544  0.4231 -0.6024  0.8475
  242MPD1    C1 3669   3.891   3.670  15.536  0.0055  0.3434 -0.2061
  242MPD1    C2 3670   3.970   3.584  15.470 -0.6350  0.3033  0.2209
  242MPD1    C3 3671   3.924   3.475  15.395  0.4581  1.0528 -0.1297
  242MPD1    C4 3672   3.787   3.450  15.403  0.2549  0.1134 -0.3741
  242MPD1    C5 3673   3.710   3.527  15.483  0.0399  0.8206 -0.0635
  242MPD1     H 3674   4.077   3.598  15.466 -0.3455 -2.2653 -1.0347
  242MPD1    H1 3675   3.745   3.359  15.361  2.0759 -0.8061 -0.2277
  242MPD1    H2 3676   3.679   3.684  15.607  0.6484  1.0220  0.0149
  242MPD1    H3 3677   3.603   3.510  15.489  0.4868 -1.6822  0.7157
  242MPD1     N 3678   4.006   3.380  15.327  1.1249 -0.1508  0.6011
  242MPD1    H5 3679   3.955   3.313  15.269 -0.6762  1.4604  0.3251
  242MPD1    N1 3680   3.950   3.757  15.629  0.8876  0.0501  0.4796
  242MPD1    H6 3681   4.042   3.784  15.595  0.8426  0.4519  0.6745
  242MPD1    H7 3682   3.894   3.842  15.633 -1.5534 -1.5828  0.5365
  243MPD1     C 3683   0.166   1.711  17.178 -0.1568  0.1993  0.1495
  243MPD1    C1 3684   0.269   1.639  17.235  0.3076 -0.8650  0.1435
  243MPD1    C2 3685   0.365   1.595  17.147  0.2665 -0.2974 -0.2266
  243MPD1    C3 3686   0.364   1.615  17.012  1.0604  0.5038  0.1868
  243MPD1    C4 3687   0.257   1.682  16.958  0.3060 -0.6925  0.3183
  243MPD1    C5 3688   0.169   1.733  17.044 -0.3761 -0.3751  0.2540
  243MPD1     H 3689   0.438   1.525  17.186  0.4981 -0.2963 -0.6530
  243MPD1    H1 3690   0.234   1.695  16.852 -0.8448  1.2369  0.8144
  243MPD1    H2 3691   0.085   1.750  17.240 -0.8915  0.1642 -0.7845
  243MPD1    H3 3692   0.091   1.793  17.000 -2.4785 -2.6122  0.9423
  243MPD1     N 3693   0.473   1.573  16.935  0.4765  0.3887 -0.6755
  243MPD1    H5 3694   0.544   1.518  16.982  1.0820  1.6996 -0.0501
  243MPD1    N1 3695   0.257   1.598  17.365  0.1870  0.0713 -0.2153
  243MPD1    H6 3696   0.342   1.605  17.421  1.5348  0.6376 -2.3682
  243MPD1    H7 3697   0.193   1.658  17.417 -1.5621 -1.5058 -0.5284
  244MPD1     C 3698   0.820   0.904  17.181  0.2115 -0.1474 -0.7099
  244MPD1    C1 3699   0.744   1.011  17.219 -0.0810  1.1161  0.6263
  244MPD1    C2 3700   0.736   1.124  17.141 -0.0970  0.4659 -0.7477
  244MPD1    C3 3701   0.816   1.134  17.024  0.1835  0.0722 -0.3533
  244MPD1    C4 3702   0.902   1.036  16.989  0.2856 -0.3176 -0.3830
  244MPD1    C5 3703   0.897   0.915  17.064 -0.4180  0.1397  0.2663
  244MPD1     H 3704   0.676   1.203  17.183 -0.2584 -0.4136  0.6549
  244MPD1    H1 3705   0.965   1.041  16.901  1.6190 -1.3842  0.4974
  244MPD1    H2 3706   0.831   0.811  17.236 -0.2920  1.3320  1.9201
  244MPD1    H3 3707   0.960   0.837  17.023 -0.2457 -0.6461  2.0300
  244MPD1     N 3708   0.807   1.257  16.954  0.4045  0.5690  0.4023
  244MPD1    H5 3709   0.741   1.327  16.987 -2.2727 -3.1006  2.7747
  244MPD1    N1 3710   0.691   1.015  17.352  0.4694 -0.1484 -0.0525
  244MPD1    H6 3711   0.694   0.925  17.400  3.3605 -0.1786 -0.2835
  244MPD1    H7 3712   0.609   1.071  17.373  2.6245  3.1072 -0.4549
  245MPD1     C 3713   3.075   2.067  12.793  1.0399 -0.0425  0.4545
  245MPD1    C1 3714   3.152   2.125  12.893  0.1631  0.0249 -0.4797
  245MPD1    C2 3715   3.130   2.255  12.926 -0.7339  0.7621  0.1286
  245MPD1    C3 3716   3.032   2.334  12.875  0.0072  0.4560  0.7838
  245MPD1    C4 3717   2.961   2.279  12.765  0.5546  0.2194  0.4047
  245MPD1    C5 3718   2.986   2.152  12.726  0.3686 -0.1928  0.2715
  245MPD1     H 3719   3.180   2.298  13.011  0.6407 -2.4143  0.9397
  245MPD1    H1 3720   2.878   2.338  12.727  0.1544  0.5146  1.7265
  245MPD1    H2 3721   3.104   1.973  12.747  0.4584  1.0357 -2.1272
  245MPD1    H3 3722   2.924   2.117  12.644 -1.5809  0.5504  1.4195
  245MPD1     N 3723   2.992   2.463  12.936 -0.3542 -0.3010 -0.1906
  245MPD1    H5 3724   3.030   2.494  13.025 -0.0907  0.1012 -0.4449
  245MPD1    N1 3725   3.228   2.035  12.966 -0.2316 -0.0778 -0.5441
  245MPD1    H6 3726   3.237   1.943  12.923 -0.4903  0.4642 -1.7471
  245MPD1    H7 3727   3.193   2.025  13.062 -0.1201  3.5516 -0.1351
  246MPD1     C 3728   3.395   4.261  10.084  0.7152 -0.2564  0.1941
  246MPD1    C1 3729   3.445   4.352  10.003 -0.5801 -0.3658  0.0697
  246MPD1    C2 3730   3.509   4.310   9.886  0.4582 -0.0066  0.0825
  246MPD1    C3 3731   3.500   4.177   9.839 -0.4789 -0.1930 -0.2486
  246MPD1    C4 3732   3.429   4.090   9.919  0.4622 -0.6995  0.3541
  246MPD1    C5 3733   3.392   4.128  10.042 -0.0166  0.3311  0.2965
  246MPD1     H 3734   3.546   4.379   9.812  2.9393 -2.2795 -0.8251
  246MPD1    H1 3735   3.413   3.986   9.897  0.4138 -0.5943 -0.1048
  246MPD1    H2 3736   3.348   4.288  10.177  0.3833 -0.1916  0.0075
  246MPD1    H3 3737   3.332   4.062  10.103  0.0760 -0.0523 -0.0310
  246MPD1     N 3738   3.551   4.146   9.715  0.5581 -0.0411 -0.2972
  246MPD1    H5 3739   3.593   4.220   9.659  0.4256 -0.0518 -0.4095
  246MPD1    N1 3740   3.450   4.486  10.038 -0.5965 -0.1491 -0.4858
  246MPD1    H6 3741   3.471   4.546   9.959  1.2581 -0.6618 -0.3916
  246MPD1    H7 3742   3.356   4.510  10.067 -0.6303  0.0768 -0.7862
  247MPD1     C 3743   1.312   3.432  14.782 -0.4529  0.3829 -1.0716
  247MPD1    C1 3744   1.312   3.486  14.907 -0.0506  0.2318  0.2311
  247MPD1    C2 3745   1.379   3.424  15.007  0.0830  0.2714 -0.2427
  247MPD1    C3 3746   1.449   3.308  14.980 -0.4923  0.1927 -0.0171
  247MPD1    C4 3747   1.438   3.244  14.861  0.5857 -0.4043 -0.6291
  247MPD1    C5 3748   1.379   3.317  14.760  1.3557  0.1835  0.1212
  247MPD1     H 3749   1.379   3.474  15.103 -1.0817 -0.6359  0.2125
  247MPD1    H1 3750   1.495   3.153  14.848  2.5895  0.7222  0.2839
  247MPD1    H2 3751   1.258   3.477  14.699 -2.6664  0.2638  0.2827
  247MPD1    H3 3752   1.386   3.277  14.659  2.9274  2.2557 -0.5974
  247MPD1     N 3753   1.520   3.233  15.082  0.2068 -0.4795  0.5369
  247MPD1    H5 3754   1.550   3.144  15.044 -0.6777  0.7387 -2.9899
  247MPD1    N1 3755   1.264   3.616  14.929  0.1873  0.0685  0.5471
  247MPD1    H6 3756   1.238   3.636  15.025  1.2358  0.5998  0.7231
  247MPD1    H7 3757   1.184   3.629  14.868  0.9581 -1.2926 -0.7495
  248MPD1     C 3758   2.660   1.795   0.718  0.5830  0.7410 -0.1641
  248MPD1    C1 3759   2.645   1.926   0.690 -0.4874 -0.7245 -0.1056
  248MPD1    C2 3760   2.537   1.964   0.613  0.1487 -0.4194 -0.3593
  248MPD1    C3 3761   2.441   1.874   0.567  0.1618  0.0031 -0.5973
  248MPD1    C4 3762   2.452   1.744   0.612  0.6653 -0.4358  0.5001
  248MPD1    C5 3763   2.565   1.706   0.678 -0.1075  0.1417  0.2999
  248MPD1     H 3764   2.526   2.070   0.591  0.0604  0.2316  2.9505
  248MPD1    H1 3765   2.387   1.661   0.584 -2.3574  1.5296  1.7161
  248MPD1    H2 3766   2.738   1.763   0.787  1.9507 -2.0336 -2.9977
  248MPD1    H3 3767   2.562   1.603   0.710  0.2562 -0.6651 -2.3344
  248MPD1     N 3768   2.344   1.919   0.473  0.4344 -0.1649  0.5897
  248MPD1    H5 3769   2.346   2.019   0.458  1.1649 -0.2498  0.1284
  248MPD1    N1 3770   2.748   2.019   0.721 -0.4423  0.0865  0.3600
  248MPD1    H6 3771   2.713   2.114   0.712 -2.1390 -0.6165 -0.5054
  248MPD1    H7 3772   2.795   2.005   0.810  0.3364  1.8503  0.2231
  249MPD1     C 3773   3.421   0.002  10.428 -0.2047 -0.4715  0.2325
  249MPD1    C1 3774   3.506   4.664  10.344 -0.1734  0.2157 -0.0124
  249MPD1    C2 3775   3.561   0.020  10.242  0.1961 -0.3832  0.3140
  249MPD1    C3 3776   3.527   0.147  10.222  0.2745  0.3095 -0.1203
  249MPD1    C4 3777   3.428   0.205  10.296 -0.4291 -0.3757  0.3197
  249MPD1    C5 3778   3.383   0.128  10.399 -0.5291 -0.0824  0.3314
  249MPD1     H 3779   3.631   4.699  10.173  1.0464  0.8166  0.4000
  249MPD1    H1 3780   3.390   0.305  10.284  1.2499  0.3381  0.9590
  249MPD1    H2 3781   3.380   4.670  10.511  1.5553  0.2263  1.5875
  249MPD1    H3 3782   3.306   0.165  10.467  0.7334  1.4046  0.9648
  249MPD1     N 3783   3.575   0.204  10.102  0.3162 -0.4324 -0.1617
  249MPD1    H5 3784   3.629   0.150  10.035 -0.7203 -0.9421 -0.5875
  249MPD1    N1 3785   3.554   4.535  10.373 -0.2274  0.1134 -0.1623
  249MPD1    H6 3786   3.486   4.483  10.426  0.4274 -1.9068 -1.3142
  249MPD1    H7 3787   3.552   4.502  10.277  0.2735 -0.6732  0.1036
  250MPD2     C 3788   0.785   0.944  12.380  0.2032  0.5574 -0.4354
  250MPD2    C1 3789   0.667   1.013  12.373  0.6664 -0.8323  1.2661
  250MPD2    C2 3790   0.554   0.954  12.325 -0.2068  0.0535 -0.0367
  250MPD2    C3 3791   0.556   0.824  12.276 -0.5794  0.5187 -0.4531
  250MPD2    C4 3792   0.675   0.754  12.281  0.1328  0.0754  0.0435
  250MPD2    C5 3793   0.784   0.813  12.332 -0.2377 -0.5925 -0.0078
  250MPD2     H 3794   0.464   1.013  12.312 -0.6147 -1.1473 -2.4978
  250MPD2    H1 3795   0.684   0.655  12.239 -1.1861  0.3981 -1.0173
  250MPD2    H2 3796   0.877   0.991  12.412 -0.7482  1.4817  0.9169
  250MPD2    H3 3797   0.876   0.757  12.322 -0.2755 -0.9717  1.8133
  250MPD2     N 3798   0.443   0.766  12.208  0.5410  0.7505 -0.0968
  250MPD2    H5 3799   0.460   0.672  12.175 -1.0776  0.2698  0.4263
  250MPD2    N1 3800   0.672   1.152  12.399  0.0997 -0.3813  0.0555
  250MPD2    H7 3801   0.761   1.192  12.427 -1.2129  1.4272  1.5593
  251TMC3    C1 3802   0.618   1.366  12.386 -0.2031 -0.3020  0.4210
  251TMC3    C2 3803   0.545   1.463  12.457  0.1104  0.2455 -0.9001
  251TMC3    C3 3804   0.614   1.573  12.498  0.0542  0.2896  0.2142
  251TMC3    C4 3805   0.747   1.384  12.347 -0.5568 -0.0998  0.6089
  251TMC3    C5 3806   0.821   1.482  12.409  0.6501  0.3162 -0.6962
  251TMC3    C6 3807   0.746   1.578  12.480  0.2832 -0.4525 -0.0485
  251TMC3     C 3808   0.569   1.238  12.388 -0.1133 -0.2762 -0.1141
  251TMC3     O 3809   0.449   1.215  12.385 -0.9167  0.3294  0.3925
  251TMC3     H 3810   0.452   1.439  12.507 -0.7918  1.1227 -2.1628
  251TMC3    H1 3811   0.796   1.313  12.281 -0.3234  2.4141 -1.9119
  251TMC3    H2 3812   0.803   1.660  12.524 -1.2318  0.5920 -0.0395
  251TMC3    C7 3813   0.916   1.415  12.499 -0.7132  0.3290 -1.0589
  251TMC3    C8 3814   0.531   1.682  12.555  0.5734  0.7762 -0.1743
  251TMC3    O1 3815   0.896   1.296  12.508 -0.5219 -0.3980  0.0555
  251TMC3    O2 3816   0.422   1.644  12.594  0.3605  0.3927 -0.0030
  252TMC3    C1 3817   1.009   2.409   8.914 -0.2259  0.3993  0.3131
  252TMC3    C2 3818   1.131   2.478   8.932  0.2734 -0.5008 -0.6254
  252TMC3    C3 3819   1.189   2.464   9.059 -0.2164 -0.1108 -0.1614
  252TMC3    C4 3820   0.957   2.336   9.015  0.3620 -0.0195 -0.0617
  252TMC3    C5 3821   1.021   2.325   9.134  0.1078 -0.1820 -0.2216
  252TMC3    C6 3822   1.145   2.374   9.153 -0.5332  0.2468  0.5960
  252TMC3     C 3823   0.928   2.437   8.798  0.3479  0.4455  0.0977
  252TMC3     O 3824   0.811   2.414   8.809 -0.4267  0.6111 -0.3493
  252TMC3     H 3825   1.163   2.554   8.862 -0.9557 -0.6676 -1.3580
  252TMC3    H1 3826   0.863   2.285   8.998  0.4463 -0.1989  0.0141
  252TMC3    H2 3827   1.181   2.364   9.254 -1.5206  0.4170  0.9627
  252TMC3    C7 3828   0.968   2.220   9.214 -0.0873  0.1021 -0.2002
  252TMC3    C8 3829   1.309   2.543   9.080  0.3556 -0.1789 -0.3026
  252TMC3    O1 3830   0.848   2.192   9.210  0.0965  0.0667 -0.1006
  252TMC3    O2 3831   1.316   2.635   9.001 -0.3129  0.6508  0.4987
  253MPD2     C 3832   2.214   0.819  15.148 -0.5859 -0.2983 -0.9084
  253MPD2    C1 3833   2.077   0.799  15.177 -0.8130  0.3460 -0.3688
  253MPD2    C2 3834   2.025   0.833  15.297  0.3252  0.1110 -0.8939
  253MPD2    C3 3835   2.109   0.897  15.386  0.2479 -0.5567 -0.4984
  253MPD2    C4 3836   2.243   0.913  15.356  0.5481 -0.4878 -1.1221
  253MPD2    C5 3837   2.299   0.880  15.237  0.5741 -0.6771  0.3950
  253MPD2     H 3838   1.917   0.828  15.310  0.5944 -0.6977  1.0513
  253MPD2    H1 3839   2.306   0.951  15.436  0.3749 -0.6301 -0.9174
  253MPD2    H2 3840   2.263   0.802  15.053  1.2448  0.3318 -0.0714
  253MPD2    H3 3841   2.404   0.896  15.215  0.0793 -0.0498 -1.5345
  253MPD2     N 3842   2.070   0.950  15.514 -0.7292  0.5821 -0.7645
  253MPD2    H5 3843   2.138   1.002  15.569  1.3619 -1.8982 -1.0079
  253MPD2    N1 3844   1.991   0.748  15.077  0.1793 -0.4735 -0.6203
  253MPD2    H7 3845   1.893   0.734  15.102  0.5402  0.1179  1.1346
  254TMC3    C1 3846   1.928   0.999  15.694  0.2371  0.1819 -0.0344
  254TMC3    C2 3847   1.816   1.074  15.718  0.1278 -0.1518  0.4402
  254TMC3    C3 3848   1.807   1.116  15.842 -0.5651  0.2985  0.1759
  254TMC3    C4 3849   2.021   0.964  15.788  0.1245 -0.7009 -0.2667
  254TMC3    C5 3850   1.991   0.995  15.917 -0.3260  0.2979 -0.1468
  254TMC3    C6 3851   1.885   1.073  15.948  0.4893  0.6748  0.8173
  254TMC3     C 3852   1.944   0.942  15.562 -0.3615 -0.5726  0.2122
  254TMC3     O 3853   1.841   0.921  15.500 -0.6530  0.2728  0.0879
  254TMC3     H 3854   1.746   1.089  15.636 -2.0640 -0.0396  2.3611
  254TMC3    H1 3855   2.116   0.917  15.766  1.7213  2.3112  0.1701
  254TMC3    H2 3856   1.859   1.094  16.051  1.0326  0.8857  0.9094
  254TMC3    C7 3857   2.061   0.934  16.026  0.7235  0.3527 -0.4615
  254TMC3    C8 3858   1.718   1.226  15.886 -0.9587 -0.3195 -0.0923
  254TMC3    O1 3859   2.071   1.003  16.127 -0.1047 -0.3592 -0.3132
  254TMC3    O2 3860   1.669   1.232  15.999 -0.0766  1.0047  0.2731
  255MPD2     C 3861   0.873   4.019  10.505  0.0030 -0.8456 -0.8195
  255MPD2    C1 3862   0.808   4.009  10.379 -0.3834  0.4433 -0.3520
  255MPD2    C2 3863   0.816   3.892  10.311 -0.3212 -0.5544 -0.6014
  255MPD2    C3 3864   0.895   3.785  10.356 -0.1590  0.9125 -0.0416
  255MPD2    C4 3865   0.945   3.788  10.485  0.1791  0.2026 -0.3340
  255MPD2    C5 3866   0.936   3.910  10.554  0.0278  0.4878 -0.9272
  255MPD2     H 3867   0.753   3.873  10.225 -3.6499  0.4017  1.6169
  255MPD2    H1 3868   1.005   3.712  10.534 -0.7494  0.0468  0.5625
  255MPD2    H2 3869   0.866   4.100  10.576  2.8625 -1.1426 -0.2133
  255MPD2    H3 3870   0.979   3.912  10.653 -1.6652 -1.3871 -0.1582
  255MPD2     N 3871   0.898   3.669  10.280 -0.1685 -0.0166  0.3482
  255MPD2    H5 3872   0.885   3.684  10.181  2.3157  1.5971  0.2577
  255MPD2    N1 3873   0.725   4.118  10.336 -0.2199  0.0906 -0.0611
  255MPD2    H7 3874   0.711   4.195  10.401 -0.1242  1.9181 -2.2178
  256TMC3    C1 3875   0.581   4.240  10.190  0.1690 -0.0529 -0.2249
  256TMC3    C2 3876   0.616   4.371  10.172  0.6414 -0.2436 -0.2702
  256TMC3    C3 3877   0.518   4.452  10.120  0.8056  0.4740 -0.8228
  256TMC3    C4 3878   0.463   4.200  10.147  0.0946  0.3503  1.0560
  256TMC3    C5 3879   0.370   4.283  10.100 -0.3545  0.3510  1.0455
  256TMC3    C6 3880   0.389   4.420  10.087  0.2365  0.5330 -0.1584
  256TMC3     C 3881   0.681   4.137  10.205  0.7487  0.0955 -0.3209
  256TMC3     O 3882   0.688   4.073  10.098 -0.4087  0.2877  0.2641
  256TMC3     H 3883   0.715   4.408  10.196  0.5753  1.1658 -2.1588
  256TMC3    H1 3884   0.438   4.097  10.165 -0.6298  0.3618  0.1391
  256TMC3    H2 3885   0.314   4.491  10.056 -0.5828  0.0654  0.7488
  256TMC3    C7 3886   0.260   4.222  10.022  0.1709  0.0733 -0.1509
  256TMC3    C8 3887   0.569   4.567  10.056 -0.9096  0.0406  0.6282
  256TMC3    O1 3888   0.277   4.111   9.973  0.0547  0.0002 -0.0514
  256TMC3    O2 3889   0.650   4.635  10.117 -0.8875 -0.2322 -0.1983
  257MPD2     C 3890   4.217   1.335  12.727 -0.4472  0.1929  0.2751
  257MPD2    C1 3891   4.197   1.233  12.637 -0.4561  0.0972 -0.3385
  257MPD2    C2 3892   4.213   1.102  12.695 -0.3000  0.1509 -0.1778
  257MPD2    C3 3893   4.217   1.075  12.833 -0.4677 -0.2177  0.0191
  257MPD2    C4 3894   4.214   1.180  12.919  0.3984 -1.4235 -0.0319
  257MPD2    C5 3895   4.217   1.305  12.858  0.0705 -0.8369 -0.7447
  257MPD2     H 3896   4.224   1.025  12.619  3.0517  2.2715 -1.8532
  257MPD2    H1 3897   4.218   1.177  13.027  0.2646 -3.4787 -0.0722
  257MPD2    H2 3898   4.218   1.439  12.697 -0.3432  0.1576  0.1551
  257MPD2    H3 3899   4.227   1.381  12.934 -1.4311 -0.0184 -1.3603
  257MPD2     N 3900   4.239   0.944  12.879 -0.3505 -0.3557  0.4210
  257MPD2    H5 3901   4.258   0.876  12.806 -1.3183  1.3183 -1.3878
  257MPD2    N1 3902   4.191   1.265  12.501 -0.6502  0.0434  0.0177
  257MPD2    H7 3903   4.207   1.364  12.488 -1.1330 -0.2962 -3.1822
  258TMC3    C1 3904   4.261   0.780  13.054 -0.4144 -0.3247 -0.1141
  258TMC3    C2 3905   4.358   0.711  12.987  0.4576 -0.6135  0.4660
  258TMC3    C3 3906   4.420   0.605  13.046 -0.2232 -0.6216  0.2583
  258TMC3    C4 3907   4.215   0.734  13.178 -0.3571  0.3387 -0.8162
  258TMC3    C5 3908   4.278   0.622  13.232  0.0960  0.5991  0.4183
  258TMC3    C6 3909   4.382   0.563  13.168 -0.5790 -0.6810  0.2374
  258TMC3     C 3910   4.205   0.902  13.003  0.2287 -0.0160  0.1019
  258TMC3     O 3911   4.132   0.961  13.083  0.5534  0.0607 -0.0266
  258TMC3     H 3912   4.383   0.752  12.890 -0.0652 -1.2739  0.0419
  258TMC3    H1 3913   4.130   0.783  13.223 -0.8662  0.2640 -1.7069
  258TMC3    H2 3914   4.444   0.494  13.225 -2.5049 -1.6966  1.0915
  258TMC3    C7 3915   4.267   0.605  13.379 -0.3389  0.4924 -0.0116
  258TMC3    C8 3916   4.534   0.544  12.977  0.2019  0.2110 -0.2432
  258TMC3    O1 3917   4.355   0.540  13.433  0.4801  0.3839 -0.2827
  258TMC3    O2 3918   4.561   0.595  12.870 -0.2215  0.4209 -0.4801
  259MPD2     C 3919   3.710   3.297   0.793 -0.5829 -0.2809 -0.6876
  259MPD2    C1 3920   3.723   3.163   0.764 -0.2809 -0.5633  0.6148
  259MPD2    C2 3921   3.716   3.128   0.635  0.1148 -0.0020  0.4908
  259MPD2    C3 3922   3.683   3.211   0.531  0.5398  0.4532 -0.1804
  259MPD2    C4 3923   3.669   3.344   0.556  0.2866  0.6504 -0.2709
  259MPD2    C5 3924   3.671   3.380   0.692 -0.1542  0.1331 -0.1483
  259MPD2     H 3925   3.732   3.025   0.604 -1.6440  0.4958 -2.1556
  259MPD2    H1 3926   3.646   3.424   0.487  1.4554  1.0722 -0.1755
  259MPD2    H2 3927   3.694   3.334   0.894  0.3598 -1.7200 -0.0040
  259MPD2    H3 3928   3.641   3.481   0.720  0.9395  0.0218  1.4439
  259MPD2     N 3929   3.664   3.146   0.406  0.4026  0.5095 -0.3483
  259MPD2    H5 3930   3.661   3.045   0.398 -1.0811  0.3984  1.5131
  259MPD2    N1 3931   3.754   3.080   0.877  0.0761  0.3440 -0.2408
  259MPD2    H7 3932   3.754   3.124   0.968 -0.6587 -4.2481  2.0192
  260TMC3    C1 3933   3.573   3.122   0.188  0.5343 -0.0657 -0.5525
  260TMC3    C2 3934   3.614   3.126   0.059  0.4185  0.4428  0.5768
  260TMC3    C3 3935   3.588   3.014  17.685  0.8254  0.4723  0.2250
  260TMC3    C4 3936   3.503   3.011   0.241  0.3894  0.3420 -0.3722
  260TMC3    C5 3937   3.483   2.899   0.162 -0.4585 -0.1808 -0.1561
  260TMC3    C6 3938   3.528   2.902   0.037 -0.3804 -0.4593  0.1245
  260TMC3     C 3939   3.638   3.211   0.286  0.4679  0.3035 -0.1324
  260TMC3     O 3940   3.662   3.330   0.251  0.0127 -0.0756  0.2285
  260TMC3     H 3941   3.673   3.209   0.023 -2.4123  2.8303  1.4562
  260TMC3    H1 3942   3.454   3.030   0.336 -1.4728  1.0082 -1.4701
  260TMC3    H2 3943   3.509   2.820  17.670 -0.0672  1.2618 -2.0830
  260TMC3    C7 3944   3.458   2.772   0.217 -0.5354 -0.0835  0.0182
  260TMC3    C8 3945   3.649   2.997  17.558 -0.4707 -0.2832  0.4512
  260TMC3    O1 3946   3.430   2.681   0.140 -0.8135  0.3814 -0.2062
  260TMC3    O2 3947   3.675   3.094  17.489  0.1262 -0.1740  0.7978
  261MPD2     C 3948   4.417   0.999  11.879 -0.2683  0.9389 -0.6390
  261MPD2    C1 3949   4.551   1.021  11.893  0.5403 -0.3482 -0.4770
  261MPD2    C2 3950   4.603   1.149  11.877  0.0573  0.7460 -1.1235
  261MPD2    C3 3951   4.522   1.252  11.841 -0.5667 -0.2328 -0.3336
  261MPD2    C4 3952   4.390   1.228  11.820 -0.1009 -0.5673  0.0449
  261MPD2    C5 3953   4.333   1.107  11.847  0.1699 -0.1390  0.4090
  261MPD2     H 3954   4.708   1.171  11.897  0.0529 -0.0844 -0.1936
  261MPD2    H1 3955   4.315   1.299  11.787  1.3121 -0.3429 -2.7133
  261MPD2    H2 3956   4.382   0.899  11.901 -2.0452  1.8087  0.5016
  261MPD2    H3 3957   4.226   1.092  11.846  0.1662  0.0022 -2.2882
  261MPD2     N 3958   4.584   1.378  11.829  0.2461 -0.3484 -0.0562
  261MPD2    H5 3959   4.684   1.379  11.846  0.1646 -3.8367  0.4954
  261MPD2    N1 3960   4.643   0.917  11.940 -0.1138 -0.8243 -0.0501
  261MPD2    H7 3961   0.017   0.942  11.945 -0.2909 -0.4081  1.2557
  262TMC3    C1 3962   4.615   1.596  11.764 -0.0781  0.2722 -0.0374
  262TMC3    C2 3963   4.584   1.687  11.665 -0.2527  0.7242  0.1430
  262TMC3    C3 3964   4.679   1.759  11.604  0.5136 -0.1014 -0.0555
  262TMC3    C4 3965   0.007   1.590  11.826  0.2320 -0.2179  0.0659
  262TMC3    C5 3966   0.102   1.661  11.756 -0.1684 -0.2294  0.2031
  262TMC3    C6 3967   0.076   1.749  11.652  0.3331  0.2109  0.8065
  262TMC3     C 3968   4.521   1.493  11.792 -0.0427 -0.1640 -0.3321
  262TMC3     O 3969   4.401   1.510  11.762 -0.6432 -0.1927 -1.4332
  262TMC3     H 3970   4.487   1.674  11.617 -1.2658  2.0126  1.8217
  262TMC3    H1 3971   0.035   1.523  11.906 -0.1990  0.9922  1.2314
  262TMC3    H2 3972   0.163   1.800  11.613  0.8667 -0.8187  0.6696
  262TMC3    C7 3973   0.236   1.607  11.768 -0.0787  0.2166  0.4254
  262TMC3    C8 3974   4.645   1.899  11.576 -0.5963  0.0825  0.5277
  262TMC3    O1 3975   0.275   1.552  11.871  0.0232  0.2770  0.0610
  262TMC3    O2 3976   0.017   1.978  11.557 -0.1890  0.2563  0.1313
  263MPD2     C 3977   0.839   0.058  11.044  0.3066 -0.1859 -0.7748
  263MPD2    C1 3978   0.929   0.138  11.109 -0.5017  0.5548 -0.0196
  263MPD2    C2 3979   0.997   0.235  11.038 -0.4320 -0.6724  0.0166
  263MPD2    C3 3980   0.986   0.240  10.906  0.0707  0.2504  0.5350
  263MPD2    C4 3981   0.900   0.152  10.839 -0.2003 -0.8105 -0.2547
  263MPD2    C5 3982   0.830   0.059  10.908  0.3437 -0.5880 -0.4970
  263MPD2     H 3983   1.076   0.293  11.085 -0.1020 -0.8397 -0.3265
  263MPD2    H1 3984   0.887   0.142  10.732  2.0253 -2.4164 -0.3811
  263MPD2    H2 3985   0.771   4.712  11.092 -0.7183  1.9101  0.8721
  263MPD2    H3 3986   0.766   4.718  10.849  1.5188 -0.3591 -2.0353
  263MPD2     N 3987   1.068   0.330  10.840  0.0972  0.3203  0.1647
  263MPD2    H5 3988   1.120   0.391  10.902 -0.2096  0.5890  0.1605
  263MPD2    N1 3989   0.950   0.112  11.250  0.1750  0.2905  0.5738
  263MPD2    H7 3990   0.901   0.028  11.281 -0.3113  1.1097  2.0253
  264TMC3    C1 3991   1.193   0.434  10.664  0.4057 -0.4127 -0.5929
  264TMC3    C2 3992   1.235   0.532  10.743  0.3641  0.0134 -0.0732
  264TMC3    C3 3993   1.336   0.606  10.695 -0.1497  0.4028 -0.3254
  264TMC3    C4 3994   1.237   0.412  10.541  0.1966 -0.2358  0.1790
  264TMC3    C5 3995   1.338   0.497  10.494  0.5018 -0.4869  0.1255
  264TMC3    C6 3996   1.393   0.596  10.569  0.2131 -0.5321  0.4565
  264TMC3     C 3997   1.091   0.339  10.704  0.4813  0.2952 -0.0528
  264TMC3     O 3998   1.029   0.278  10.620 -0.2754  0.2849  0.0308
  264TMC3     H 3999   1.204   0.534  10.846  0.6297  2.2677 -0.0479
  264TMC3    H1 4000   1.194   0.337  10.475  0.3999  1.1825 -1.5847
  264TMC3    H2 4001   1.453   0.675  10.526 -1.2114 -0.5853 -1.6031
  264TMC3    C7 4002   1.397   0.463  10.366  0.2984 -0.1708 -0.3263
  264TMC3    C8 4003   1.402   0.714  10.765 -0.0254  0.4831  0.0689
  264TMC3    O1 4004   1.511   0.507  10.356 -0.2202 -0.0653  0.2230
  264TMC3    O2 4005   1.524   0.718  10.744  0.2314  0.1193 -0.3229
  265MPD2     C 4006   3.124   0.871  15.382 -0.5204  0.3281 -0.0468
  265MPD2    C1 4007   3.158   0.972  15.294  0.1997 -0.5294 -0.3816
  265MPD2    C2 4008   3.218   0.939  15.172  0.1402 -0.6143 -0.6064
  265MPD2    C3 4009   3.261   0.812  15.149 -0.0178 -0.1503  0.1359
  265MPD2    C4 4010   3.241   0.725  15.246 -0.6473  0.4065  0.2294
  265MPD2    C5 4011   3.166   0.742  15.354 -0.2927 -0.2674 -0.5529
  265MPD2     H 4012   3.248   1.015  15.101 -3.4526  1.2795 -0.0759
  265MPD2    H1 4013   3.288   0.628  15.238  3.4076  2.3563  0.6576
  265MPD2    H2 4014   3.079   0.883  15.479 -1.5406  3.1021 -0.8645
  265MPD2    H3 4015   3.154   0.669  15.433  0.2894  0.3866  0.1488
  265MPD2     N 4016   3.332   0.764  15.031 -0.0823  0.0494  0.0740
  265MPD2    H5 4017   3.349   0.665  15.017 -1.0552  0.0061 -0.7910
  265MPD2    N1 4018   3.147   1.112  15.320 -0.6624 -0.5836  0.2760
  265MPD2    H7 4019   3.163   1.169  15.238 -0.4040 -1.6925 -0.4416
  266TMC3    C1 4020   3.124   1.317  15.448  0.1965 -0.1037 -0.1279
  266TMC3    C2 4021   3.151   1.386  15.562 -0.0348  0.1302  0.3771
  266TMC3    C3 4022   3.102   1.512  15.576  0.2405  0.1188  0.0070
  266TMC3    C4 4023   3.072   1.387  15.341  0.1607  0.6210 -0.5219
  266TMC3    C5 4024   3.039   1.517  15.357  1.2173  0.5129  0.4702
  266TMC3    C6 4025   3.048   1.584  15.476  0.3864  0.1667 -0.0385
  266TMC3     C 4026   3.140   1.170  15.447 -0.1694 -0.0498  0.6199
  266TMC3     O 4027   3.139   1.111  15.557 -0.0867  0.0192  0.0229
  266TMC3     H 4028   3.188   1.335  15.650 -0.1190 -2.1137 -0.9027
  266TMC3    H1 4029   3.055   1.336  15.247  1.0317  0.4927 -0.6069
  266TMC3    H2 4030   3.006   1.682  15.495  1.8673  0.9543 -0.7856
  266TMC3    C7 4031   3.020   1.588  15.228 -0.2660  0.6133  0.0744
  266TMC3    C8 4032   3.134   1.579  15.698 -0.4054  0.3951  0.6935
  266TMC3    O1 4033   2.966   1.530  15.132  0.2861 -0.5941  0.1410
  266TMC3    O2 4034   3.212   1.530  15.776 -0.0969 -0.2405  0.1886
  267MPD2     C 4035   1.835   2.862  17.301  0.1755 -0.0542  0.3872
  267MPD2    C1 4036   1.760   2.981  17.274  0.1879 -0.2873  1.0079
  267MPD2    C2 4037   1.636   2.962  17.219 -0.5413  0.1068  0.2474
  267MPD2    C3 4038   1.574   2.842  17.219  0.1735  0.3453 -0.4908
  267MPD2    C4 4039   1.650   2.736  17.250  0.2611 -0.5713  0.1929
  267MPD2    C5 4040   1.784   2.735  17.297  0.2768 -0.0536 -0.0515
  267MPD2     H 4041   1.586   3.055  17.194 -0.8000  0.5291  2.3490
  267MPD2    H1 4042   1.593   2.644  17.241 -2.2255  1.2526 -2.3746
  267MPD2    H2 4043   1.930   2.868  17.353 -0.0525 -2.5017  1.0684
  267MPD2    H3 4044   1.839   2.643  17.318  0.2737  0.2616  1.3468
  267MPD2     N 4045   1.439   2.824  17.179  0.3738  0.3116  0.3919
  267MPD2    H5 4046   1.400   2.731  17.193 -0.1233  0.1533 -2.0046
  267MPD2    N1 4047   1.808   3.103  17.321 -0.2659  0.3286 -0.1085
  267MPD2    H7 4048   1.894   3.112  17.375  0.4167 -0.7473 -1.0248
  268TMC3    C1 4049   1.799   3.324  17.391  0.7550 -0.5888  0.0782
  268TMC3    C2 4050   1.751   3.449  17.375  0.4161 -0.3035  0.8961
  268TMC3    C3 4051   1.742   3.530  17.487  0.2399  0.9401 -0.4655
  268TMC3    C4 4052   1.825   3.272  17.510  0.0857  0.8210  0.1044
  268TMC3    C5 4053   1.817   3.356  17.613  0.2302 -0.5629 -0.1161
  268TMC3    C6 4054   1.772   3.482  17.611  0.0809 -0.2435 -0.3758
  268TMC3     C 4055   1.758   3.225  17.291  0.4698 -0.1413  0.0571
  268TMC3     O 4056   1.698   3.257  17.190 -0.3362  0.4427 -0.3209
  268TMC3     H 4057   1.742   3.491  17.276 -1.1692  0.7378  1.4858
  268TMC3    H1 4058   1.863   3.174  17.533  1.1390  0.8416 -1.5540
  268TMC3    H2 4059   1.784   3.560  17.686 -1.4226  0.8706 -1.2921
  268TMC3    C7 4060   1.850   3.295   0.047  0.2383  0.5736 -0.5580
  268TMC3    C8 4061   1.660   3.653  17.490 -0.2775  0.8301  0.1190
  268TMC3    O1 4062   1.834   3.174   0.057  0.0692  0.4968 -0.4781
  268TMC3    O2 4063   1.664   3.733  17.580  0.4729  0.2524 -0.5901
  269MPD2     C 4064   1.422   1.423  15.329 -0.5209 -0.8806  0.4013
  269MPD2    C1 4065   1.343   1.477  15.428 -0.3617 -0.0532  0.0771
  269MPD2    C2 4066   1.338   1.619  15.430  0.3636 -0.7705 -1.3458
  269MPD2    C3 4067   1.407   1.699  15.348 -0.8302  0.9920  0.0191
  269MPD2    C4 4068   1.486   1.647  15.243 -0.6739  0.0451 -0.3854
  269MPD2    C5 4069   1.488   1.508  15.236  0.4570  0.3043 -0.1997
  269MPD2     H 4070   1.273   1.661  15.506  2.1496 -1.0176  0.3461
  269MPD2    H1 4071   1.532   1.707  15.166 -0.6246  0.0705 -0.3362
  269MPD2    H2 4072   1.424   1.315  15.321  2.5301 -0.5615 -3.2212
  269MPD2    H3 4073   1.549   1.453  15.166 -0.9723 -2.1150  0.4598
  269MPD2     N 4074   1.408   1.830  15.389  0.2963 -0.0178 -0.1046
  269MPD2    H5 4075   1.342   1.860  15.460  0.7076  0.0975  0.2310
  269MPD2    N1 4076   1.294   1.395  15.532 -0.2995  0.5553 -0.2661
  269MPD2    H7 4077   1.298   1.295  15.516 -0.8425  0.7324 -1.5359
  270TMC3    C1 4078   1.162   1.306  15.694  0.4385 -0.7502  0.0308
  270TMC3    C2 4079   1.036   1.259  15.681 -0.5479 -0.1764  0.2407
  270TMC3    C3 4080   1.000   1.130  15.713 -0.8160 -0.1377 -0.2008
  270TMC3    C4 4081   1.257   1.216  15.731 -0.4156 -0.2925 -0.2594
  270TMC3    C5 4082   1.232   1.086  15.761  0.0269 -0.5280  0.6399
  270TMC3    C6 4083   1.102   1.042  15.765  0.6207 -0.0836 -0.5530
  270TMC3     C 4084   1.200   1.427  15.631 -0.1118  0.1182  0.1630
  270TMC3     O 4085   1.120   1.519  15.629  0.1116 -0.6376  0.3941
  270TMC3     H 4086   0.951   1.308  15.634 -0.9934 -0.9410  0.2531
  270TMC3    H1 4087   1.364   1.233  15.742 -0.4414  0.6882 -1.5243
  270TMC3    H2 4088   1.083   0.937  15.788 -2.6340  0.8806  1.1147
  270TMC3    C7 4089   1.333   0.987  15.726 -0.6274  0.1069  0.0059
  270TMC3    C8 4090   0.943   1.064  15.598 -0.0309  0.2429  0.4341
  270TMC3    O1 4091   1.449   0.994  15.771 -0.0186  0.0622 -0.1298
  270TMC3    O2 4092   1.011   0.973  15.559  0.2776 -0.3932  0.1201
  271MPD2     C 4093   0.316   0.770  13.843 -0.2808  0.2654 -0.3322
  271MPD2    C1 4094   0.278   0.857  13.944  0.0163  1.2179  0.5725
  271MPD2    C2 4095   0.198   0.963  13.912  0.3195  0.5608 -0.0192
  271MPD2    C3 4096   0.175   1.003  13.780  0.3976 -0.1282 -0.1446
  271MPD2    C4 4097   0.233   0.931  13.683  0.4881 -0.0018 -0.2074
  271MPD2    C5 4098   0.294   0.805  13.711  0.2686 -0.2440  1.3135
  271MPD2     H 4099   0.148   1.022  13.988  1.4071  1.7075 -0.1870
  271MPD2    H1 4100   0.228   0.957  13.578 -0.6036  0.6081 -0.0110
  271MPD2    H2 4101   0.375   0.685  13.873 -0.3922  0.6635  1.0075
  271MPD2    H3 4102   0.339   0.754  13.627  0.7793 -0.1678  1.5359
  271MPD2     N 4103   0.114   1.124  13.738 -0.4341  0.3968  0.2966
  271MPD2    H5 4104   0.099   1.135  13.638 -0.9472  1.9741  0.5462
  271MPD2    N1 4105   0.288   0.816  14.085 -0.3130  0.1612 -0.3192
  271MPD2    H7 4106   0.244   0.884  14.147  1.2970  0.4648  0.4788
  272TMC3    C1 4107   0.334   0.683  14.286  0.5803 -0.6725 -0.1922
  272TMC3    C2 4108   0.378   0.565  14.329 -0.2835 -0.2684 -0.6967
  272TMC3    C3 4109   0.422   0.554  14.460 -0.1075 -0.2143 -0.1347
  272TMC3    C4 4110   0.340   0.797  14.354  0.1251 -0.3043  0.0122
  272TMC3    C5 4111   0.384   0.785  14.487  0.2488  0.9948 -0.1419
  272TMC3    C6 4112   0.419   0.665  14.542 -0.0204  0.7232 -0.1696
  272TMC3     C 4113   0.349   0.705  14.138 -0.0666 -0.8984  0.8862
  272TMC3     O 4114   0.433   0.627  14.092 -0.4885 -0.5681 -0.5081
  272TMC3     H 4115   0.355   0.485  14.260  1.6334 -2.0977  0.8156
  272TMC3    H1 4116   0.321   0.893  14.307  0.6915  0.0573  0.5253
  272TMC3    H2 4117   0.462   0.650  14.640  1.9613  1.1691 -0.9789
  272TMC3    C7 4118   0.398   0.914  14.552  0.6583 -0.1564  0.6490
  272TMC3    C8 4119   0.548   0.482  14.478 -0.5176 -0.6186 -0.2520
  272TMC3    O1 4120   0.327   1.006  14.506 -0.1076  0.4666 -0.7027
  272TMC3    O2 4121   0.599   0.475  14.592 -0.4807  0.6819 -0.7419
  273MPD2     C 4122   1.610   3.296  11.565 -0.3052 -0.1824  0.0641
  273MPD2    C1 4123   1.669   3.419  11.566 -0.3761 -1.3513 -0.1497
  273MPD2    C2 4124   1.628   3.506  11.468  0.5604  0.4410 -0.6096
  273MPD2    C3 4125   1.545   3.472  11.366  0.3964  0.1996 -0.4187
  273MPD2    C4 4126   1.490   3.350  11.371 -0.2020  0.5205  0.1756
  273MPD2    C5 4127   1.538   3.261  11.460  0.0560  0.1334  0.3080
  273MPD2     H 4128   1.667   3.607  11.471  1.3670  0.1666 -1.7086
  273MPD2    H1 4129   1.420   3.315  11.296  0.9149  0.0158 -0.6301
  273MPD2    H2 4130   1.629   3.221  11.640  1.3226  0.2742  0.0935
  273MPD2    H3 4131   1.516   3.155  11.459 -0.2429  0.2020 -1.6753
  273MPD2     N 4132   1.522   3.567  11.270  0.0412 -0.2173 -0.2519
  273MPD2    H5 4133   1.559   3.658  11.295 -0.8885  0.4783 -1.4164
  273MPD2    N1 4134   1.753   3.457  11.673  0.1500  0.3042  0.4724
  273MPD2    H7 4135   1.770   3.395  11.751 -1.3035  0.2898  0.7701
  274TMC3    C1 4136   1.433   3.681  11.089  0.5728 -0.4100 -0.1242
  274TMC3    C2 4137   1.466   3.680  10.955  0.2929 -0.1514  0.3750
  274TMC3    C3 4138   1.519   3.798  10.907 -0.2050 -0.1242 -0.3485
  274TMC3    C4 4139   1.451   3.794  11.168 -0.0199  0.0931 -0.3297
  274TMC3    C5 4140   1.494   3.905  11.108 -0.0293 -0.2368  0.1625
  274TMC3    C6 4141   1.544   3.910  10.982  0.1555 -0.5785 -0.1908
  274TMC3     C 4142   1.447   3.552  11.160 -0.3857  0.3441 -0.3751
  274TMC3     O 4143   1.410   3.455  11.100 -0.6081  0.1825  0.0763
  274TMC3     H 4144   1.449   3.592  10.894  1.0561 -2.0306  2.8745
  274TMC3    H1 4145   1.426   3.797  11.273 -0.2577 -4.0604 -0.2668
  274TMC3    H2 4146   1.572   4.000  10.928 -3.5024 -0.0580 -1.2259
  274TMC3    C7 4147   1.487   4.031  11.180  0.5778  0.1059 -0.2440
  274TMC3    C8 4148   1.503   3.817  10.765 -0.9406 -0.3153  0.4051
  274TMC3    O1 4149   1.404   4.034  11.271  0.2093 -0.2123  0.4587
  274TMC3    O2 4150   1.524   3.935  10.727  0.1443  0.2030  0.3916
  275MPD2     C 4151   1.805   1.674  14.102  0.3745 -0.1890  0.5967
  275MPD2    C1 4152   1.748   1.614  14.215  0.2946  0.6564  0.7906
  275MPD2    C2 4153   1.613   1.581  14.206 -0.7875  0.0298 -0.2831
  275MPD2    C3 4154   1.537   1.596  14.092 -0.2128 -0.0524  0.1131
  275MPD2    C4 4155   1.598   1.667  13.984 -0.0478  0.2568  0.2204
  275MPD2    C5 4156   1.729   1.694  13.989 -0.2689 -0.3642 -0.1527
  275MPD2     H 4157   1.576   1.535  14.297 -1.3553 -0.5654 -0.8175
  275MPD2    H1 4158   1.535   1.694  13.900 -0.0474  1.3694  0.5804
  275MPD2    H2 4159   1.903   1.720  14.092  0.1458  0.6661  2.4372
  275MPD2    H3 4160   1.774   1.758  13.913 -0.8180  0.6002  0.3286
  275MPD2     N 4161   1.400   1.579  14.103 -0.2105 -0.0939  0.1691
  275MPD2    H5 4162   1.342   1.623  14.032  1.0608 -0.4471 -1.0811
  275MPD2    N1 4163   1.818   1.603  14.338 -0.7650  0.4743  0.4546
  275MPD2    H7 4164   1.768   1.569  14.420  0.5195 -1.6403  0.3709
  276TMC3    C1 4165   1.969   1.658  14.501 -0.4305  0.1478 -0.3253
  276TMC3    C2 4166   1.883   1.582  14.586  0.3488  0.1267 -0.2393
  276TMC3    C3 4167   1.885   1.617  14.722 -0.1275  0.6155 -0.0167
  276TMC3    C4 4168   2.059   1.756  14.550  0.3353  0.8109 -0.5114
  276TMC3    C5 4169   2.063   1.774  14.685  0.0722 -0.3337  0.4169
  276TMC3    C6 4170   1.978   1.708  14.776 -0.4608  0.3020  0.3291
  276TMC3     C 4171   1.935   1.669  14.363  0.6129  0.2084  0.0978
  276TMC3     O 4172   2.004   1.743  14.292  0.4393 -0.0518 -0.3817
  276TMC3     H 4173   1.816   1.502  14.557  0.5303  0.2291 -0.9411
  276TMC3    H1 4174   2.116   1.813  14.477  0.4132  0.1783 -0.9452
  276TMC3    H2 4175   1.982   1.726  14.883 -1.4270  0.5307  0.3343
  276TMC3    C7 4176   2.153   1.876  14.743  0.2529  0.2321 -0.6238
  276TMC3    C8 4177   1.784   1.558  14.805 -0.3379 -0.1807 -0.1015
  276TMC3    O1 4178   2.113   1.950  14.831 -0.0980  0.2449 -0.3110
  276TMC3    O2 4179   1.726   1.627  14.882 -0.5344 -0.2764 -0.1403
  277MPD2     C 4180   3.444   0.672  13.124 -0.1479  0.2673 -0.5489
  277MPD2    C1 4181   3.428   0.761  13.223  0.4582 -0.3730  0.1635
  277MPD2    C2 4182   3.365   0.724  13.342 -0.0048 -0.4371  0.5455
  277MPD2    C3 4183   3.305   0.603  13.361 -0.0209  0.9249  0.4212
  277MPD2    C4 4184   3.331   0.510  13.262  0.2150  0.3322  0.1165
  277MPD2    C5 4185   3.403   0.542  13.153  0.0133  0.5253  0.7238
  277MPD2     H 4186   3.343   0.798  13.417  4.4660 -0.2260  1.6334
  277MPD2    H1 4187   3.309   0.404  13.262  0.8342  0.2073  0.5017
  277MPD2    H2 4188   3.510   0.696  13.042 -1.3598  1.0184 -1.3014
  277MPD2    H3 4189   3.411   0.468  13.073  0.8729  0.5538  0.7905
  277MPD2     N 4190   3.235   0.568  13.482 -0.2108 -0.5475 -0.1409
  277MPD2    H5 4191   3.236   0.619  13.570  0.9201 -0.8308  0.0131
  277MPD2    N1 4192   3.499   0.885  13.212  0.3663  0.3120 -0.3000
  277MPD2    H7 4193   3.552   0.907  13.127  0.2411 -0.4969 -0.5932
  278TMC3    C1 4194   3.098   0.436  13.622 -0.2355  0.0439  0.7285
  278TMC3    C2 4195   3.059   0.308  13.650  0.3747 -1.3683 -0.9386
  278TMC3    C3 4196   2.927   0.285  13.694 -0.0221 -0.2357  0.2296
  278TMC3    C4 4197   3.011   0.540  13.636  0.3235 -0.2113  0.3845
  278TMC3    C5 4198   2.884   0.517  13.664  0.2145 -0.0097 -0.1807
  278TMC3    C6 4199   2.843   0.392  13.705  0.4240  0.2545  0.0986
  278TMC3     C 4200   3.170   0.444  13.496 -0.1450  0.1167 -0.0008
  278TMC3     O 4201   3.168   0.343  13.425 -0.5423  0.6966 -0.2192
  278TMC3     H 4202   3.123   0.224  13.627  1.1911 -0.8422 -0.5656
  278TMC3    H1 4203   3.039   0.638  13.599 -1.3058  0.2072  0.2607
  278TMC3    H2 4204   2.740   0.368  13.729  0.9416 -0.4025  1.6287
  278TMC3    C7 4205   2.800   0.630  13.704  0.6288 -0.3303 -0.8319
  278TMC3    C8 4206   2.858   0.158  13.653 -0.0683 -0.3518  0.4194
  278TMC3    O1 4207   2.853   0.735  13.734  0.1401  0.2435 -0.0302
  278TMC3    O2 4208   2.741   0.168  13.612 -0.2841 -0.0446 -0.5718
  279MPD2     C 4209   2.675   1.023   0.327  0.0147 -0.1741 -0.6370
  279MPD2    C1 4210   2.636   1.151   0.329  0.3187  0.7600  0.5937
  279MPD2    C2 4211   2.662   1.223   0.220  0.3137  0.1804  0.3341
  279MPD2    C3 4212   2.718   1.176   0.105 -0.7959  0.6337 -0.1109
  279MPD2    C4 4213   2.763   1.046   0.103  0.5897 -0.2072 -0.0543
  279MPD2    C5 4214   2.734   0.968   0.220 -0.4767  0.2110 -0.1960
  279MPD2     H 4215   2.626   1.326   0.217  0.2877  0.0917 -2.4387
  279MPD2    H1 4216   2.810   1.008   0.012 -0.0990 -0.3775 -0.3441
  279MPD2    H2 4217   2.660   0.957   0.411  0.7243  0.0063 -0.3632
  279MPD2    H3 4218   2.767   0.865   0.217  0.8323  0.5593  2.0154
  279MPD2     N 4219   2.742   1.253  17.693 -0.0265 -0.6679  0.0279
  279MPD2    H5 4220   2.781   1.200  17.616  1.4732  1.1241 -0.4676
  279MPD2    N1 4221   2.580   1.205   0.439  0.3038 -0.0083 -0.1491
  279MPD2    H7 4222   2.620   1.181   0.528  0.1781  0.2552 -0.0205
  280TMC3    C1 4223   2.406   1.363   0.341  0.0493 -0.6770  0.2884
  280TMC3    C2 4224   2.360   1.264   0.249  0.2142  0.4139  0.5654
  280TMC3    C3 4225   2.321   1.321   0.132  0.8168  0.0018 -1.2623
  280TMC3    C4 4226   2.402   1.499   0.327  0.2819  0.3133 -0.1310
  280TMC3    C5 4227   2.351   1.545   0.208 -0.7227  0.1193 -0.0970
  280TMC3    C6 4228   2.317   1.459   0.103  0.4247 -0.1604  0.3054
  280TMC3     C 4229   2.500   1.317   0.447  0.7594  0.4823 -0.2482
  280TMC3     O 4230   2.493   1.377   0.550  0.3432 -0.3230 -0.0864
  280TMC3     H 4231   2.344   1.158   0.265  1.7428 -0.1047 -1.2806
  280TMC3    H1 4232   2.443   1.558   0.408 -1.8336  1.0203  0.4283
  280TMC3    H2 4233   2.296   1.498   0.004  0.9533  0.7172  0.5341
  280TMC3    C7 4234   2.389   1.676   0.168 -0.2310  0.0157 -0.0016
  280TMC3    C8 4235   2.313   1.245   0.006  0.3295 -0.1339  0.1380
  280TMC3    O1 4236   2.482   1.726   0.227  0.2264 -0.2749 -0.0000
  280TMC3    O2 4237   2.258   1.288  17.610  0.4936  0.3605 -0.6125
  281TMC3    C1 4238   0.770   1.093  12.788 -0.7199  0.4674  0.1422
  281TMC3    C2 4239   0.894   1.118  12.832  0.3372  0.0180 -0.2540
  281TMC3    C3 4240   0.988   1.023  12.802 -0.0901 -0.3448  0.6608
  281TMC3    C4 4241   0.730   0.982  12.721  0.8063 -0.3011 -0.0189
  281TMC3    C5 4242   0.824   0.891  12.702 -0.5747  0.1902  1.0324
  281TMC3    C6 4243   0.953   0.901  12.748  0.2886 -0.1628  0.1034
  281TMC3     C 4244   0.675   1.204  12.802 -0.0416  0.1337 -1.2416
  281TMC3     O 4245   0.555   1.174  12.805  0.7410  0.6712 -0.0501
  281TMC3     H 4246   0.924   1.204  12.891  1.7835  0.5119 -1.7201
  281TMC3    H1 4247   0.629   0.974  12.684  0.8047  1.2581 -0.3464
  281TMC3    H2 4248   1.017   0.815  12.731  1.3429  0.3147  1.6388
  281TMC3    C7 4249   0.767   0.759  12.707  0.1668 -0.3135 -0.1370
  281TMC3    C8 4250   1.132   1.040  12.813 -0.2911 -0.5046 -0.3301
  281TMC3    O1 4251   0.689   0.730  12.620 -0.1843  0.2407 -0.3269
  281TMC3    O2 4252   1.199   0.938  12.798 -0.5948 -0.2652 -0.1635
  282MPD2     C 4253   3.286   2.502  14.566 -0.2599 -0.1764  0.4624
  282MPD2    C1 4254   3.169   2.543  14.635 -0.1055  0.7832  0.8886
  282MPD2    C2 4255   3.069   2.582  14.552  0.2143  0.1792  0.5723
  282MPD2    C3 4256   3.063   2.567  14.415 -0.1642 -0.2394 -0.2619
  282MPD2    C4 4257   3.181   2.530  14.355 -0.5749  0.1763  0.2440
  282MPD2    C5 4258   3.286   2.501  14.430  0.2907 -0.0063  0.4788
  282MPD2     H 4259   2.982   2.616  14.608 -0.4754  0.1107 -0.4642
  282MPD2    H1 4260   3.181   2.496  14.252 -0.1337  2.5534 -0.5363
  282MPD2    H2 4261   3.371   2.465  14.620 -0.1518 -2.4980 -1.3065
  282MPD2    H3 4262   3.375   2.466  14.381  0.8320  1.1557  0.6388
  282MPD2     N 4263   2.946   2.601  14.344  0.1688 -0.1881 -0.0562
  282MPD2    H5 4264   2.861   2.627  14.393  0.1317  0.4505 -0.4601
  282MPD2    N1 4265   3.166   2.547  14.778 -0.5138  0.2154  0.0160
  282MPD2    H7 4266   3.258   2.538  14.819  0.4960 -3.9362 -3.0678
  283TMC3    C1 4267   3.105   2.569  14.996 -0.6009 -0.3859  0.5643
  283TMC3    C2 4268   3.197   2.664  15.034 -0.0522  0.0318  0.5960
  283TMC3    C3 4269   3.234   2.673  15.169  0.2428 -0.0109 -0.0193
  283TMC3    C4 4270   3.035   2.488  15.083  0.1326  0.2296 -0.2347
  283TMC3    C5 4271   3.069   2.498  15.218 -0.1519 -0.0094  0.8539
  283TMC3    C6 4272   3.176   2.584  15.260  0.0610 -0.4644  0.8725
  283TMC3     C 4273   3.063   2.566  14.858 -0.8446 -0.4431 -0.3573
  283TMC3     O 4274   2.944   2.554  14.845  0.2522  0.4245  0.2535
  283TMC3     H 4275   3.245   2.720  14.956  1.0209 -0.8213  0.6459
  283TMC3    H1 4276   2.968   2.413  15.042  1.6829 -0.2601 -1.8480
  283TMC3    H2 4277   3.217   2.579  15.360 -0.5918  0.3422  1.1744
  283TMC3    C7 4278   2.986   2.439  15.318  0.0565 -0.6633 -0.2887
  283TMC3    C8 4279   3.309   2.781  15.217 -0.2164  0.9332  0.6153
  283TMC3    O1 4280   2.973   2.503  15.418  0.1470  0.2149  0.2290
  283TMC3    O2 4281   3.338   2.769  15.339 -0.4517  0.1861  0.3666
  284MPD2     C 4282   1.445   1.818  11.783  0.8607  0.1214 -0.2183
  284MPD2    C1 4283   1.512   1.773  11.677 -0.5110 -0.2495  0.0990
  284MPD2    C2 4284   1.462   1.656  11.612  0.6052  0.4795  0.2416
  284MPD2    C3 4285   1.356   1.584  11.668 -0.2386  0.2263  0.7240
  284MPD2    C4 4286   1.305   1.627  11.788 -0.5320  0.2326 -0.1319
  284MPD2    C5 4287   1.353   1.748  11.841 -0.8857  0.3660 -0.2604
  284MPD2     H 4288   1.522   1.616  11.531 -0.2352  0.8620 -0.5673
  284MPD2    H1 4289   1.219   1.577  11.832 -2.8620  3.0747 -1.4333
  284MPD2    H2 4290   1.482   1.909  11.830 -0.7555  1.0032 -0.6509
  284MPD2    H3 4291   1.300   1.786  11.927  0.4950  0.4652  0.5428
  284MPD2     N 4292   1.305   1.467  11.606 -0.7977  0.3156 -0.0620
  284MPD2    H5 4293   1.227   1.431  11.660 -0.6799 -1.6722 -1.2251
  284MPD2    N1 4294   1.638   1.824  11.628  1.1421  0.1219 -0.4237
  284MPD2    H7 4295   1.666   1.781  11.541  3.5282 -0.8773  0.8417
  285TMC3    C1 4296   1.843   1.936  11.605  0.4195  0.1353  0.4774
  285TMC3    C2 4297   1.894   1.824  11.545  0.3563 -0.2262 -0.4513
  285TMC3    C3 4298   2.024   1.827  11.518 -0.3087  1.0653 -0.1085
  285TMC3    C4 4299   1.913   2.039  11.651 -0.0189 -0.2723 -0.1180
  285TMC3    C5 4300   2.044   2.036  11.626 -0.4263  0.2781 -0.0071
  285TMC3    C6 4301   2.101   1.933  11.557 -0.5967  0.1749 -0.0971
  285TMC3     C 4302   1.723   1.919  11.682 -0.1342  0.1026  0.4516
  285TMC3     O 4303   1.694   1.995  11.772  0.2122 -0.3118 -0.9136
  285TMC3     H 4304   1.828   1.743  11.516 -0.1855 -0.0570  0.2931
  285TMC3    H1 4305   1.858   2.131  11.671  0.9267 -0.0680  1.6422
  285TMC3    H2 4306   2.198   1.947  11.511 -0.6370  3.5820  0.9071
  285TMC3    C7 4307   2.110   2.168  11.615 -0.3128 -0.2342 -0.4781
  285TMC3    C8 4308   2.040   1.770  11.380 -0.2120 -1.1337  0.0986
  285TMC3    O1 4309   2.036   2.264  11.642  0.3757 -0.2615 -0.6075
  285TMC3    O2 4310   1.967   1.679  11.346  0.4603  0.7658 -0.3126
  286MPD2     C 4311   1.565   1.304   1.447 -0.9700 -0.4668 -0.7539
  286MPD2    C1 4312   1.554   1.292   1.312 -0.0109 -0.8107  0.2192
  286MPD2    C2 4313   1.623   1.187   1.257 -0.5100 -0.2464 -0.1902
  286MPD2    C3 4314   1.690   1.089   1.333  0.3413 -0.0369  0.7728
  286MPD2    C4 4315   1.702   1.104   1.467  0.0906 -0.4804 -0.3587
  286MPD2    C5 4316   1.632   1.215   1.520 -0.0873 -1.1155 -0.3513
  286MPD2     H 4317   1.627   1.179   1.149 -1.6288  0.4811 -0.2878
  286MPD2    H1 4318   1.739   1.027   1.533  1.8607  1.1543  0.5657
  286MPD2    H2 4319   1.517   1.383   1.504  0.1953  0.4942 -1.0802
  286MPD2    H3 4320   1.646   1.236   1.625  1.4068 -3.2571 -0.1262
  286MPD2     N 4321   1.755   0.967   1.288  0.1873  1.4858  0.4808
  286MPD2    H5 4322   1.781   0.900   1.360 -1.1082 -2.1329 -2.3926
  286MPD2    N1 4323   1.490   1.391   1.229 -0.1547 -0.4189  0.0551
  286MPD2    H7 4324   1.481   1.363   1.132 -1.5878 -1.2836  0.4481
  287TMC3    C1 4325   1.835   0.805   1.136 -0.8998 -0.4877 -0.0335
  287TMC3    C2 4326   1.811   0.742   1.019  0.1720 -0.6539 -0.8629
  287TMC3    C3 4327   1.868   0.617   1.008 -0.2173 -0.3781 -0.2138
  287TMC3    C4 4328   1.929   0.759   1.226 -1.1447  0.7714 -0.3405
  287TMC3    C5 4329   1.971   0.630   1.221 -0.0089  0.1549 -0.3277
  287TMC3    C6 4330   1.938   0.555   1.107  0.1182  0.2694 -0.6833
  287TMC3     C 4331   1.767   0.931   1.152  1.1383  0.6891 -0.2096
  287TMC3     O 4332   1.715   0.982   1.053 -0.4731 -0.1065  0.3249
  287TMC3     H 4333   1.755   0.786   0.938  0.0290  0.6658 -0.0419
  287TMC3    H1 4334   1.970   0.826   1.301  1.4812  0.5716 -1.5712
  287TMC3    H2 4335   1.951   0.447   1.110 -0.1226  0.2668  0.2061
  287TMC3    C7 4336   2.094   0.587   1.289  0.2673 -0.8611 -0.5041
  287TMC3    C8 4337   1.882   0.561   0.872  0.1022 -0.2204 -0.2518
  287TMC3    O1 4338   2.134   0.647   1.389  0.4396  0.2407 -0.0849
  287TMC3    O2 4339   1.933   0.450   0.875 -0.1705 -0.3378  0.8130
  288TMC3    C1 4340   3.526   0.234  14.441  0.7484 -0.1952  0.6129
  288TMC3    C2 4341   3.404   0.171  14.436 -0.0420 -0.8597 -0.0103
  288TMC3    C3 4342   3.346   0.165  14.312 -0.0242 -0.2886  0.7240
  288TMC3    C4 4343   3.593   0.283  14.330 -0.2781 -0.1022 -0.2744
  288TMC3    C5 4344   3.521   0.288  14.219  0.2979 -0.0919 -0.1055
  288TMC3    C6 4345   3.402   0.226  14.204  0.0790  0.4297 -0.5340
  288TMC3     C 4346   3.601   0.210  14.560  0.3157 -0.1381 -0.1063
  288TMC3     O 4347   3.559   0.125  14.638  0.1015  0.1365 -0.5736
  288TMC3     H 4348   3.341   0.149  14.522 -1.0534 -0.2569 -0.5888
  288TMC3    H1 4349   3.689   0.332  14.332  0.1270 -0.9782  2.2515
  288TMC3    H2 4350   3.351   0.218  14.109 -1.0960  3.4093 -0.1543
  288TMC3    C7 4351   3.563   0.376  14.111 -0.9461 -0.7086  0.1999
  288TMC3    C8 4352   3.200   0.145  14.299  0.0472  0.6490  0.5662
  288TMC3    O1 4353   3.683   0.391  14.091  0.6106 -0.4595  1.0355
  288TMC3    O2 4354   3.148   0.179  14.194  0.3461 -0.1806  0.1667
  289MPD2     C 4355   3.281   4.385  14.511  0.0361 -0.2031  0.0003
  289MPD2    C1 4356   3.293   4.443  14.387 -0.5600  0.2840  0.0651
  289MPD2    C2 4357   3.185   4.441  14.302  0.4469  0.3710 -0.1387
  289MPD2    C3 4358   3.064   4.392  14.334 -0.6235 -0.9267  0.3131
  289MPD2    C4 4359   3.052   4.326  14.458 -0.5490  0.0020  0.2955
  289MPD2    C5 4360   3.162   4.328  14.548 -0.3367  0.0752  0.0203
  289MPD2     H 4361   3.194   4.498  14.210  0.0174 -0.1760 -0.5267
  289MPD2    H1 4362   2.963   4.272  14.488  0.4473 -2.4035 -1.0205
  289MPD2    H2 4363   3.360   4.371  14.585  0.2305  0.3656 -0.1014
  289MPD2    H3 4364   3.149   4.276  14.642 -0.0449 -1.0621 -0.5681
  289MPD2     N 4365   2.953   4.395  14.238 -0.4877 -0.4034  0.2392
  289MPD2    H5 4366   2.869   4.347  14.267 -0.5887 -0.4644 -0.1597
  289MPD2    N1 4367   3.420   4.493  14.352  0.4640  0.0674 -0.5020
  289MPD2    H7 4368   3.477   4.513  14.434  0.1726 -1.6043  0.1052
  290TMC3    C1 4369   2.805   4.448  14.070  0.0389 -0.2403 -0.6588
  290TMC3    C2 4370   2.777   4.552  13.992  0.0166  0.7934 -0.1414
  290TMC3    C3 4371   2.663   4.556  13.923  0.5522  1.5630 -1.0672
  290TMC3    C4 4372   2.736   4.331  14.061  0.2075  0.4518  0.0704
  290TMC3    C5 4373   2.621   4.333  13.990  1.3214  0.3074  0.2370
  290TMC3    C6 4374   2.582   4.446  13.924  0.0273  0.2848 -0.4333
  290TMC3     C 4375   2.944   4.456  14.114 -0.2183 -0.2687  0.6589
  290TMC3     O 4376   3.017   4.519  14.040 -0.3196 -0.0582 -0.0035
  290TMC3     H 4377   2.847   4.635  13.983  1.1282 -0.1223  0.1040
  290TMC3    H1 4378   2.794   4.244  14.093  0.8529  0.8570  0.0076
  290TMC3    H2 4379   2.485   4.452  13.876 -0.5670 -1.2570  0.5717
  290TMC3    C7 4380   2.551   4.202  13.963  0.1194 -0.1747 -0.3363
  290TMC3    C8 4381   2.583   4.679  13.916 -0.2782 -0.0269 -0.3948
  290TMC3    O1 4382   2.433   4.208  13.929  0.3472  0.1104 -0.0566
  290TMC3    O2 4383   2.463   4.672  13.914  0.3816  0.3365  0.3420
  291MPD2     C 4384   3.124   0.070  17.360  0.0543 -0.8750  0.0329
  291MPD2    C1 4385   3.076   4.666  17.359 -0.1006 -0.1922 -0.1043
  291MPD2    C2 4386   3.058   4.598  17.242 -0.5845  0.4014 -0.0384
  291MPD2    C3 4387   3.114   4.653  17.127  0.1116 -0.1236  0.0704
  291MPD2    C4 4388   3.145   0.062  17.123  0.0994 -0.3833 -0.2950
  291MPD2    C5 4389   3.157   0.131  17.239  0.5785 -0.1778  0.1959
  291MPD2     H 4390   3.011   4.501  17.249  0.5514  0.0731  2.8500
  291MPD2    H1 4391   3.192   0.107  17.036  0.1824 -1.3924 -0.7679
  291MPD2    H2 4392   3.129   0.130  17.450 -1.0241 -0.3374 -0.2581
  291MPD2    H3 4393   3.198   0.231  17.232  0.7516 -0.3001 -0.5699
  291MPD2     N 4394   3.121   4.591  17.000  0.0385 -0.0536 -0.0247
  291MPD2    H5 4395   3.129   4.660  16.926  0.8927 -0.3941 -0.2538
  291MPD2    N1 4396   3.052   4.602  17.486 -0.6854  1.2288  0.0039
  291MPD2    H7 4397   3.027   4.507  17.463 -2.3098  1.7980 -0.6250
  292TMC3    C1 4398   3.043   4.556   0.020 -0.6188 -0.6764 -0.0363
  292TMC3    C2 4399   3.009   4.608   0.147 -0.0676  0.4120  0.7192
  292TMC3    C3 4400   3.016   4.514   0.246 -0.5029  0.0376  0.6616
  292TMC3    C4 4401   3.074   4.425  17.697 -0.0386 -0.5151 -0.0402
  292TMC3    C5 4402   3.057   4.334   0.099 -0.3986 -0.4043 -0.5608
  292TMC3    C6 4403   3.031   4.377   0.225  0.1136 -0.6609 -0.4415
  292TMC3     C 4404   3.046   4.653  17.613  0.0423  0.3916  0.1687
  292TMC3     O 4405   3.057   0.045  17.650  0.0802  0.4931  0.4291
  292TMC3     H 4406   3.004   4.711   0.181 -0.3946  0.3949  0.7211
  292TMC3    H1 4407   3.104   4.393  17.598  1.3216  0.2320  0.1358
  292TMC3    H2 4408   3.017   4.298   0.298 -0.4741  0.9023  1.1072
  292TMC3    C7 4409   3.026   4.193   0.063 -0.9968  0.0605 -0.7200
  292TMC3    C8 4410   2.955   4.562   0.368  0.1119  0.3100  0.4741
  292TMC3    O1 4411   3.074   4.153  17.659  0.4289  0.4813 -0.2635
  292TMC3    O2 4412   2.907   4.676   0.376  0.1994  0.0652  0.4259
  293MPD2     C 4413   4.500   0.950  12.270 -0.2875  0.0605  0.5960
  293MPD2    C1 4414   4.485   0.851  12.365  0.7477  0.1816 -1.0025
  293MPD2    C2 4415   4.489   0.881  12.501  0.0991 -1.0694 -0.6188
  293MPD2    C3 4416   4.510   1.014  12.533 -0.0299 -0.8329  0.1716
  293MPD2    C4 4417   4.532   1.109  12.440  0.0218 -0.1394  0.5407
  293MPD2    C5 4418   4.533   1.078  12.303  0.1409 -0.0517 -0.3087
  293MPD2     H 4419   4.480   0.797  12.570 -2.1055  0.3736  0.8391
  293MPD2    H1 4420   4.545   1.213  12.467  2.5053 -1.0131  2.7304
  293MPD2    H2 4421   4.497   0.928  12.164 -0.9542 -0.8902  0.8113
  293MPD2    H3 4422   4.553   1.153  12.228  0.2468  0.2947  0.0690
  293MPD2     N 4423   4.523   1.044  12.670 -0.1982 -0.0552  0.2119
  293MPD2    H5 4424   4.484   0.978  12.736  2.4589 -0.3355  1.4935
  293MPD2    N1 4425   4.460   0.725  12.312  0.2436  0.3757 -0.1377
  293MPD2    H7 4426   4.456   0.721  12.210  2.8716  0.5506 -0.2356
  294TMC3    C1 4427   4.396   0.506  12.284 -0.2054  0.6537 -0.1552
  294TMC3    C2 4428   4.427   0.379  12.331  0.0288  0.1211  0.0216
  294TMC3    C3 4429   4.391   0.269  12.245  0.3622  0.2012  0.4484
  294TMC3    C4 4430   4.345   0.528  12.159  0.2039 -0.9949  0.8492
  294TMC3    C5 4431   4.327   0.421  12.073  0.6100  0.7073 -0.2852
  294TMC3    C6 4432   4.332   0.293  12.121  0.4890 -0.4170  0.4157
  294TMC3     C 4433   4.435   0.611  12.377 -0.7474  0.4403 -0.0956
  294TMC3     O 4434   4.442   0.582  12.498  0.2402 -0.3759 -0.5490
  294TMC3     H 4435   4.481   0.360  12.424  1.1705 -0.9440 -0.8519
  294TMC3    H1 4436   4.337   0.631  12.126 -0.8651 -1.1541  0.6280
  294TMC3    H2 4437   4.312   0.210  12.054  1.5481 -1.7947  1.8063
  294TMC3    C7 4438   4.266   0.443  11.941 -0.2705  0.1567  0.4860
  294TMC3    C8 4439   4.351   0.151  12.312 -0.0736  0.0434  0.0507
  294TMC3    O1 4440   4.191   0.359  11.889 -0.0743  0.2590 -0.3716
  294TMC3    O2 4441   4.417   0.122  12.409  0.3013  0.1254 -0.3843
  295MPD2     C 4442   0.389   3.952  17.368 -0.0572 -1.1786 -0.3674
  295MPD2    C1 4443   0.404   4.084  17.420  0.2094  0.4890 -0.1504
  295MPD2    C2 4444   0.295   4.152  17.476 -0.9420 -0.2358 -0.3109
  295MPD2    C3 4445   0.166   4.102  17.471  0.0346  0.2684  0.5298
  295MPD2    C4 4446   0.154   3.976  17.419 -0.1557  0.0778 -0.8098
  295MPD2    C5 4447   0.261   3.901  17.378 -0.5163 -0.4083 -0.4423
  295MPD2     H 4448   0.320   4.242  17.530 -0.6276 -1.0547  0.9077
  295MPD2    H1 4449   0.058   3.927  17.407  0.4223 -1.5508  1.3365
  295MPD2    H2 4450   0.473   3.896  17.329 -0.4225 -1.6942 -0.4169
  295MPD2    H3 4451   0.247   3.802  17.337 -0.6214 -0.8354  0.6329
  295MPD2     N 4452   0.062   4.186  17.515  0.0156  0.1902  0.5046
  295MPD2    H5 4453   0.091   4.275  17.553  2.5171  0.3565 -1.8494
  295MPD2    N1 4454   0.526   4.160  17.413 -0.3259  0.3058  0.0604
  295MPD2    H7 4455   0.512   4.253  17.451 -0.9224  0.0631  0.4308
  296TMC3    C1 4456   4.573   4.235  17.599  0.2339 -0.4593 -0.3926
  296TMC3    C2 4457   4.615   4.369  17.619 -0.3773  0.0632 -0.0011
  296TMC3    C3 4458   4.524   4.459  17.682 -1.0116 -1.0897  0.0558
  296TMC3    C4 4459   4.453   4.190  17.645 -0.1948 -0.2209 -0.7300
  296TMC3    C5 4460   4.380   4.284   0.011 -0.1860 -0.2469 -0.6551
  296TMC3    C6 4461   4.406   4.411   0.026  1.6543  0.1778  0.4378
  296TMC3     C 4462   4.653   4.146  17.524  0.3488 -0.4165  0.7763
  296TMC3     O 4463   4.609   4.034  17.502 -0.3805  0.2185 -0.1926
  296TMC3     H 4464   4.713   4.409  17.595 -0.0365  0.6321  2.3758
  296TMC3    H1 4465   4.433   4.084  17.645  0.6859 -0.3870 -1.1777
  296TMC3    H2 4466   4.332   4.476   0.071 -0.5985 -2.0114 -0.1049
  296TMC3    C7 4467   4.273   4.241   0.096  0.8476 -0.3996  0.3405
  296TMC3    C8 4468   4.560   4.593   0.006 -0.3122 -0.1422  0.0181
  296TMC3    O1 4469   4.197   4.157   0.058  0.6997 -0.6454  0.0731
  296TMC3    O2 4470   4.463   4.667   0.013  0.1703 -0.1958  0.1523
  297MPD2     C 4471   2.105   1.879  16.030  0.5838  0.1397 -0.5688
  297MPD2    C1 4472   2.090   2.022  16.025  0.1075 -0.1582 -0.1703
  297MPD2    C2 4473   2.199   2.092  15.992  0.9426  0.8832  0.3392
  297MPD2    C3 4474   2.313   2.023  15.951 -0.5919 -0.8387 -0.0356
  297MPD2    C4 4475   2.329   1.891  15.956 -0.3657 -0.2131 -0.3121
  297MPD2    C5 4476   2.222   1.815  16.001  0.3221 -0.1642  0.2310
  297MPD2     H 4477   2.191   2.200  15.994 -1.0245  0.7727 -1.5402
  297MPD2    H1 4478   2.420   1.834  15.940  0.9807  1.7296  0.4906
  297MPD2    H2 4479   2.023   1.815  16.060  0.9399 -1.8231 -3.8435
  297MPD2    H3 4480   2.230   1.708  16.018 -3.4003 -0.1599  2.1136
  297MPD2     N 4481   2.429   2.107  15.916 -0.1242 -0.6818  0.0450
  297MPD2    H5 4482   2.423   2.208  15.928 -1.3675 -0.8245  0.6400
  297MPD2    N1 4483   1.965   2.088  16.028  0.0847  0.0027 -0.3039
  297MPD2    H7 4484   1.954   2.189  16.026  0.7796  0.0963  0.9092
  298TMC3    C1 4485   1.745   2.103  15.979  0.8313  0.3876 -0.3510
  298TMC3    C2 4486   1.747   2.140  15.843 -0.1252  0.1367 -0.0103
  298TMC3    C3 4487   1.634   2.205  15.792  0.3750 -0.1928 -0.0333
  298TMC3    C4 4488   1.630   2.111  16.048 -0.8686 -0.7616 -0.3065
  298TMC3    C5 4489   1.515   2.156  15.987  0.4714  0.1002 -0.0711
  298TMC3    C6 4490   1.514   2.209  15.859  0.6861  0.2018  0.3894
  298TMC3     C 4491   1.848   2.021  16.044  0.6871 -0.3982  0.2409
  298TMC3     O 4492   1.826   1.923  16.114  0.5040 -0.2110 -0.1528
  298TMC3     H 4493   1.841   2.137  15.788 -1.1636 -1.1774 -1.6792
  298TMC3    H1 4494   1.627   2.074  16.150  1.4939  1.5253  0.5827
  298TMC3    H2 4495   1.426   2.247  15.809 -0.0526 -1.5956  0.3439
  298TMC3    C7 4496   1.412   2.189  16.082  0.0699  0.5314  0.4219
  298TMC3    C8 4497   1.636   2.276  15.670 -0.0521 -0.9082  0.0253
  298TMC3    O1 4498   1.447   2.204  16.202 -0.2523 -0.1275  0.6294
  298TMC3    O2 4499   1.568   2.377  15.674  0.0884  0.5343  0.3282
  299MPD2     C 4500   3.239   1.187  10.728 -0.6105 -0.6467  0.1987
  299MPD2    C1 4501   3.245   1.311  10.669 -0.0179  0.1722 -0.1188
  299MPD2    C2 4502   3.166   1.329  10.555  1.0251 -0.1870 -0.3229
  299MPD2    C3 4503   3.088   1.225  10.499  0.0064  0.4535 -0.5035
  299MPD2    C4 4504   3.087   1.106  10.569  0.0296  0.6053  0.4598
  299MPD2    C5 4505   3.169   1.083  10.678 -0.5120 -0.1945 -0.2503
  299MPD2     H 4506   3.148   1.426  10.510 -1.7982 -0.5195  0.0526
  299MPD2    H1 4507   3.027   1.026  10.529  1.0404  0.7489 -1.3293
  299MPD2    H2 4508   3.301   1.172  10.816  0.3691  0.1159 -0.3551
  299MPD2    H3 4509   3.179   0.989  10.730 -0.9409  0.5530  1.2064
  299MPD2     N 4510   2.993   1.244  10.391  0.2333  0.1602 -0.2979
  299MPD2    H5 4511   2.936   1.165  10.362  0.8272 -0.0132 -0.9890
  299MPD2    N1 4512   3.311   1.418  10.732 -0.3227  0.1957  0.7993
  299MPD2    H7 4513   3.374   1.396  10.809 -1.1286  0.9070  1.6736
  300TMC3    C1 4514   2.863   1.357  10.230  0.7342 -0.1812  0.6765
  300TMC3    C2 4515   2.796   1.477  10.218 -0.4119  0.4393 -0.3632
  300TMC3    C3 4516   2.670   1.472  10.161  0.3429  0.0264  0.7544
  300TMC3    C4 4517   2.817   1.237  10.182  0.0508 -0.8267  0.4731
  300TMC3    C5 4518   2.693   1.241  10.131 -0.2964 -0.7093  0.0918
  300TMC3    C6 4519   2.617   1.354  10.115  0.0411 -0.2227 -0.0740
  300TMC3     C 4520   2.987   1.357  10.310 -0.1144 -0.5583  0.3709
  300TMC3     O 4521   3.025   1.467  10.342  0.0443  0.1319 -0.8369
  300TMC3     H 4522   2.838   1.567  10.260  3.8509 -1.3696 -0.7701
  300TMC3    H1 4523   2.864   1.145  10.212  0.5410 -0.1304  1.8340
  300TMC3    H2 4524   2.519   1.348  10.068  0.5643 -2.2002 -0.9133
  300TMC3    C7 4525   2.612   1.121  10.132  0.1691  0.5062 -0.4185
  300TMC3    C8 4526   2.578   1.577  10.189 -0.6420  0.3188 -0.5127
  300TMC3    O1 4527   2.648   1.026  10.065 -0.7084 -0.0777 -0.2224
  300TMC3    O2 4528   2.485   1.586  10.115 -0.7201  0.2604  0.3538
  301MPD2     C 4529   0.424   2.958   1.386 -0.3230  0.2861 -0.3224
  301MPD2    C1 4530   0.315   2.885   1.336  0.1559 -0.1703  0.1255
  301MPD2    C2 4531   0.328   2.752   1.338 -0.5450 -0.6131  0.6463
  301MPD2    C3 4532   0.449   2.688   1.366  0.2606 -0.4143  0.0140
  301MPD2    C4 4533   0.554   2.766   1.409  0.0044 -0.4353  0.1803
  301MPD2    C5 4534   0.542   2.902   1.421 -0.2754  0.7054  0.4506
  301MPD2     H 4535   0.241   2.696   1.306 -1.2138  0.7897  0.0305
  301MPD2    H1 4536   0.650   2.723   1.438 -0.6566  0.4502  3.6670
  301MPD2    H2 4537   0.430   3.066   1.381  1.6700  0.1968  0.0429
  301MPD2    H3 4538   0.628   2.967   1.434  1.3604 -1.3443 -0.0412
  301MPD2     N 4539   0.469   2.549   1.348  0.1334  0.0285  0.4294
  301MPD2    H5 4540   0.563   2.518   1.370  0.6200  0.2206 -1.4191
  301MPD2    N1 4541   0.188   2.942   1.314 -0.3444  0.0299 -0.3936
  301MPD2    H7 4542   0.116   2.873   1.298  0.3561 -0.5831 -0.9140
  302TMC3    C1 4543   0.409   2.318   1.288 -0.6304 -0.2222 -0.1659
  302TMC3    C2 4544   0.528   2.279   1.331 -0.4041  0.1688 -0.1416
  302TMC3    C3 4545   0.553   2.143   1.326  0.2869  0.2886  0.0626
  302TMC3    C4 4546   0.311   2.226   1.254 -0.0098  0.4792 -0.9083
  302TMC3    C5 4547   0.346   2.095   1.233  0.3468 -0.1692 -0.0809
  302TMC3    C6 4548   0.471   2.056   1.265  0.7879  0.9232  0.2002
  302TMC3     C 4549   0.376   2.458   1.290 -0.1317 -0.1940 -0.0172
  302TMC3     O 4550   0.264   2.479   1.246  0.0454 -0.2373  0.5645
  302TMC3     H 4551   0.585   2.346   1.394 -3.1740  1.0599  1.3906
  302TMC3    H1 4552   0.208   2.256   1.234 -0.3986  1.2023  2.2484
  302TMC3    H2 4553   0.499   1.952   1.249  0.1329  1.0909 -1.9966
  302TMC3    C7 4554   0.260   1.999   1.155 -0.3282  0.2284  0.0749
  302TMC3    C8 4555   0.687   2.110   1.378  0.0220  0.0394  0.0112
  302TMC3    O1 4556   0.298   1.886   1.135  0.2570  0.3706  0.6097
  302TMC3    O2 4557   0.770   2.193   1.348  0.8082  0.1787 -0.0632
  303MPD2     C 4558   0.690   1.369  10.071 -0.4375  0.5172 -0.1716
  303MPD2    C1 4559   0.619   1.254  10.087 -0.0220  0.0183 -0.1367
  303MPD2    C2 4560   0.609   1.170   9.981  0.2673  0.3426  0.0189
  303MPD2    C3 4561   0.672   1.201   9.863 -0.1636  1.0789 -0.1596
  303MPD2    C4 4562   0.749   1.308   9.854  0.5022 -0.3629 -0.4074
  303MPD2    C5 4563   0.753   1.398   9.957 -0.8164 -0.1954  0.8165
  303MPD2     H 4564   0.557   1.077   9.998  0.7511  0.3500  1.5802
  303MPD2    H1 4565   0.806   1.334   9.766 -0.3790 -1.7645 -1.4063
  303MPD2    H2 4566   0.685   1.445  10.149 -1.7073 -1.2392  1.4580
  303MPD2    H3 4567   0.812   1.485   9.933  1.2728 -2.2795 -1.5554
  303MPD2     N 4568   0.653   1.129   9.741  0.4665  0.4342  0.0746
  303MPD2    H5 4569   0.713   1.164   9.667  0.2863 -1.5371 -0.9887
  303MPD2    N1 4570   0.542   1.240  10.203  0.4227 -0.4306  0.7407
  303MPD2    H7 4571   0.526   1.317  10.266 -2.8777 -0.5672  0.0877
  304TMC3    C1 4572   0.380   1.137  10.351  0.8890 -0.4359  0.1285
  304TMC3    C2 4573   0.289   1.240  10.330 -0.4760 -0.0976 -0.3288
  304TMC3    C3 4574   0.176   1.235  10.412 -0.9607 -0.2669 -0.8534
  304TMC3    C4 4575   0.349   1.024  10.419  0.1690 -0.2560  0.2655
  304TMC3    C5 4576   0.244   1.027  10.507 -0.7351 -0.2313  0.0041
  304TMC3    C6 4577   0.156   1.132  10.499  0.8537  0.6001  0.0282
  304TMC3     C 4578   0.478   1.124  10.241  0.2008  0.5562  0.0007
  304TMC3     O 4579   0.498   1.008  10.204  0.4552 -0.3681 -0.5584
  304TMC3     H 4580   0.304   1.317  10.255  1.2773 -1.9678 -1.8926
  304TMC3    H1 4581   0.416   0.939  10.413 -0.2100 -0.5185 -0.2288
  304TMC3    H2 4582   0.063   1.135  10.556  1.5692 -1.7524  1.3164
  304TMC3    C7 4583   0.175   0.899  10.510 -0.5636  0.1066 -0.0763
  304TMC3    C8 4584   0.077   1.229  10.311 -0.4773  0.6379 -0.5309
  304TMC3    O1 4585   0.236   0.798  10.546 -0.6446 -0.1813 -0.1817
  304TMC3    O2 4586   0.037   1.115  10.289 -0.1680 -0.3584 -0.1636
  305MPD2     C 4587   3.295   3.006  13.890 -0.0447 -0.8213 -0.0094
  305MPD2    C1 4588   3.348   2.882  13.917  0.0330 -0.6070  0.0840
  305MPD2    C2 4589   3.340   2.781  13.828  0.2027  0.6685  0.1599
  305MPD2    C3 4590   3.284   2.807  13.705  0.4977  0.1807 -0.0863
  305MPD2    C4 4591   3.226   2.930  13.678 -0.2991  0.2860 -0.1341
  305MPD2    C5 4592   3.228   3.029  13.775 -0.3415  0.1298  0.3635
  305MPD2     H 4593   3.384   2.683  13.844  1.6821  1.4770  1.0520
  305MPD2    H1 4594   3.174   2.944  13.584  0.2103  3.6590  0.0955
  305MPD2    H2 4595   3.296   3.087  13.962 -2.2810 -0.5199 -0.3027
  305MPD2    H3 4596   3.182   3.125  13.758 -0.6181 -0.1026 -0.2020
  305MPD2     N 4597   3.268   2.706  13.606 -0.1738 -0.3844  0.0587
  305MPD2    H5 4598   3.248   2.750  13.517  3.0699 -1.3030 -1.1267
  305MPD2    N1 4599   3.435   2.871  14.034  0.6140  0.1024  0.9498
  305MPD2    H7 4600   3.463   2.949  14.093 -1.5568  0.2200  1.8091
  306TMC3    C1 4601   3.563   2.788  14.197  0.7416 -1.4501  0.2596
  306TMC3    C2 4602   3.576   2.693  14.296 -0.1015  0.5874  0.1725
  306TMC3    C3 4603   3.652   2.734  14.405  0.3441 -0.2448  0.6474
  306TMC3    C4 4604   3.631   2.908  14.197 -0.1844  0.1795 -0.8045
  306TMC3    C5 4605   3.719   2.930  14.301 -0.0893 -0.4161 -0.3138
  306TMC3    C6 4606   3.730   2.841  14.403  0.1878 -0.3999 -0.4729
  306TMC3     C 4607   3.489   2.752  14.082 -0.5027  0.0241  0.2139
  306TMC3     O 4608   3.467   2.635  14.048 -0.6689 -0.0076 -0.0583
  306TMC3     H 4609   3.505   2.612  14.302 -0.3410  0.6511 -1.6153
  306TMC3    H1 4610   3.636   2.978  14.114  0.3204  0.2703 -0.7007
  306TMC3    H2 4611   3.797   2.870  14.484  0.6917 -1.2443 -0.5875
  306TMC3    C7 4612   3.816   3.037  14.295 -0.3738  0.5286  0.2337
  306TMC3    C8 4613   3.632   2.670  14.533  0.6276  0.9348  0.8205
  306TMC3    O1 4614   3.872   3.062  14.188  0.2718  0.3514  0.2576
  306TMC3    O2 4615   3.608   2.550  14.524  0.2567 -0.3826  0.2714
  307MPD2     C 4616   1.359   0.361  17.670  0.5745 -0.1720  0.8318
  307MPD2    C1 4617   1.309   0.489   0.008  0.2489  0.2358 -0.4488
  307MPD2    C2 4618   1.190   0.487   0.085 -0.4989 -0.3246 -0.7403
  307MPD2    C3 4619   1.122   0.373   0.125 -0.7307  0.2532  0.3478
  307MPD2    C4 4620   1.175   0.251   0.089 -0.3232  0.6107 -0.3660
  307MPD2    C5 4621   1.294   0.250   0.017  0.5286 -0.4032 -0.5121
  307MPD2     H 4622   1.144   0.580   0.115 -0.3881 -0.2446 -0.8189
  307MPD2    H1 4623   1.136   0.155   0.123  3.1828 -0.7622 -0.2221
  307MPD2    H2 4624   1.446   0.347  17.606  0.2623  1.6927 -0.0050
  307MPD2    H3 4625   1.321   0.155  17.673 -0.1156 -0.2016 -1.3298
  307MPD2     N 4626   1.010   0.400   0.202  0.3974 -0.2678 -0.0893
  307MPD2    H5 4627   0.960   0.487   0.190 -0.3819 -0.3532  2.4679
  307MPD2    N1 4628   1.362   0.611  17.662 -0.1661 -0.9598  0.2813
  307MPD2    H7 4629   1.300   0.689  17.680 -1.8570 -1.8165 -1.8363
  308TMC3    C1 4630   0.639   0.439   0.403 -0.2376 -0.6909  0.8655
  308TMC3    C2 4631   0.688   0.540   0.479 -0.3105 -0.3641 -0.0853
  308TMC3    C3 4632   0.819   0.550   0.488  0.6498  0.3890  0.0159
  308TMC3    C4 4633   0.718   0.354   0.339  0.0342  0.7041 -0.7902
  308TMC3    C5 4634   0.854   0.365   0.359 -0.3041  0.1182 -0.7879
  308TMC3    C6 4635   0.909   0.467   0.423 -0.0218 -0.2602 -0.1070
  308TMC3     C 4636   0.504   0.460   0.359 -0.5289  0.2131 -0.7233
  308TMC3     O 4637   0.457   0.350   0.324 -0.3221 -0.1925  0.6089
  308TMC3     H 4638   0.626   0.606   0.538  0.6546  0.3752  0.1027
  308TMC3    H1 4639   0.674   0.267   0.291 -1.0410  0.9895 -0.3323
  308TMC3    H2 4640   1.015   0.477   0.443 -0.3883  0.4724  1.4593
  308TMC3    C7 4641   0.936   0.303   0.266  0.9888  0.0920  0.0313
  308TMC3    C8 4642   0.869   0.680   0.525 -0.3998 -1.0246  0.2521
  308TMC3    O1 4643   0.965   0.185   0.283 -0.1441 -0.1767 -0.4075
  308TMC3    O2 4644   0.782   0.764   0.531  0.0331  0.2859 -0.3603
  309MPD2     C 4645   0.336   1.224  16.904  0.4103 -0.9034 -0.3776
  309MPD2    C1 4646   0.295   1.282  16.784  0.3452 -0.4524 -0.5416
  309MPD2    C2 4647   0.189   1.367  16.773  0.7916 -0.3666 -0.7525
  309MPD2    C3 4648   0.110   1.381  16.887  0.0137  0.0330 -0.3850
  309MPD2    C4 4649   0.142   1.316  17.003 -0.3207 -0.7975 -0.5534
  309MPD2    C5 4650   0.255   1.237  17.012 -0.1040  0.3822 -1.0252
  309MPD2     H 4651   0.170   1.415  16.678  0.8425 -2.1609 -1.6536
  309MPD2    H1 4652   0.078   1.315  17.091  0.0342  0.6236 -0.2748
  309MPD2    H2 4653   0.421   1.158  16.921  0.5271 -0.1160  2.0654
  309MPD2    H3 4654   0.281   1.193  17.108 -1.7835 -0.6762 -1.0357
  309MPD2     N 4655   0.002   1.471  16.905  0.3166 -0.0205 -0.6817
  309MPD2    H5 4656   4.704   1.470  17.004  3.1146  0.1903 -0.0214
  309MPD2    N1 4657   0.367   1.266  16.669 -0.3205  0.7469  0.4320
  309MPD2    H7 4658   0.338   1.318  16.587 -1.5116 -0.4849  0.0674
  310TMC3    C1 4659   0.558   1.197  16.524 -0.5828 -0.4207  0.3272
  310TMC3    C2 4660   0.552   1.314  16.445  0.0058 -0.3549 -0.8607
  310TMC3    C3 4661   0.652   1.333  16.354  0.1708  0.0674  0.1225
  310TMC3    C4 4662   0.658   1.107  16.501  0.2338 -0.4141  0.1155
  310TMC3    C5 4663   0.763   1.135  16.418 -0.2679  0.2584 -0.0706
  310TMC3    C6 4664   0.758   1.246  16.342 -0.1907  1.0969  0.1408
  310TMC3     C 4665   0.485   1.192  16.656  0.0606 -0.0524  0.2373
  310TMC3     O 4666   0.545   1.132  16.741 -0.7314 -0.4665  0.1575
  310TMC3     H 4667   0.476   1.388  16.465  1.0669  0.6026 -0.3114
  310TMC3    H1 4668   0.647   1.015  16.556 -3.5094 -0.0349  0.0376
  310TMC3    H2 4669   0.852   1.275  16.297 -0.6862  0.8637 -1.0403
  310TMC3    C7 4670   0.894   1.069  16.447 -0.7512  0.3133  0.2264
  310TMC3    C8 4671   0.630   1.438  16.256 -1.1083  0.0206 -0.6128
  310TMC3    O1 4672   0.993   1.103  16.381  0.0592 -0.7145  1.4780
  310TMC3    O2 4673   0.517   1.492  16.251 -0.6849  0.6402 -0.1077
  311MPD2     C 4674   2.257   2.389  12.438  0.5219 -0.4707  1.2228
  311MPD2    C1 4675   2.220   2.516  12.475 -0.0633  0.6019  1.3791
  311MPD2    C2 4676   2.082   2.548  12.471 -0.8285 -0.3862  0.4318
  311MPD2    C3 4677   1.986   2.455  12.459 -0.4119  0.5328  0.5425
  311MPD2    C4 4678   2.025   2.323  12.427  0.9437 -0.5133 -0.4760
  311MPD2    C5 4679   2.159   2.294  12.415 -0.2622 -0.5783 -0.3070
  311MPD2     H 4680   2.057   2.648  12.504  2.0051  0.5448 -0.2640
  311MPD2    H1 4681   1.962   2.241  12.395  0.3393 -1.2310  2.5541
  311MPD2    H2 4682   2.359   2.355  12.429  1.5130  2.1179  2.6436
  311MPD2    H3 4683   2.188   2.201  12.369  0.2960  0.4215 -2.0021
  311MPD2     N 4684   1.849   2.496  12.475 -0.4227 -0.0322 -0.8855
  311MPD2    H5 4685   1.834   2.596  12.486  1.5209  0.0660  0.7926
  311MPD2    N1 4686   2.312   2.616  12.519  0.6966 -0.1828  0.6297
  311MPD2    H7 4687   2.268   2.706  12.538  1.4195  0.4144 -0.4853
  312TMC3    C1 4688   1.615   2.493  12.499  0.8154  0.0025  0.5050
  312TMC3    C2 4689   1.509   2.464  12.424  0.4425  0.1438 -0.2460
  312TMC3    C3 4690   1.397   2.538  12.440  0.2283  0.0885 -0.5616
  312TMC3    C4 4691   1.629   2.594  12.589  0.4742 -0.1405 -0.5980
  312TMC3    C5 4692   1.513   2.674  12.594  0.7228 -0.7243 -0.0888
  312TMC3    C6 4693   1.395   2.645  12.531 -0.3979 -0.4800 -0.2340
  312TMC3     C 4694   1.735   2.417  12.465 -0.5352  0.4698 -0.2521
  312TMC3     O 4695   1.721   2.302  12.425  0.0026 -0.1011  0.3013
  312TMC3     H 4696   1.507   2.387  12.348 -1.3274 -0.5346  0.4886
  312TMC3    H1 4697   1.718   2.609  12.649  0.7934  1.8358 -1.5715
  312TMC3    H2 4698   1.307   2.708  12.537 -0.8535 -1.1370 -0.0082
  312TMC3    C7 4699   1.522   2.808  12.647 -0.1455  0.7937  0.6607
  312TMC3    C8 4700   1.272   2.493  12.388 -0.3987  0.6915 -0.7382
  312TMC3    O1 4701   1.440   2.884  12.596 -0.1219  0.9406 -0.1000
  312TMC3    O2 4702   1.274   2.379  12.347  0.1643  0.6010  0.4505
  313MPD2     C 4703   1.614   1.506  10.696 -0.2145  0.7808 -0.2042
  313MPD2    C1 4704   1.723   1.593  10.679  0.3862  0.3048 -0.3481
  313MPD2    C2 4705   1.815   1.563  10.577  0.7156 -0.2019  0.6909
  313MPD2    C3 4706   1.797   1.455  10.496 -0.7989  0.2544  0.8527
  313MPD2    C4 4707   1.688   1.370  10.512  0.5136  0.1251  0.2537
  313MPD2    C5 4708   1.597   1.400  10.611 -0.6790  0.3731 -0.1427
  313MPD2     H 4709   1.903   1.626  10.575  0.1603  0.5269 -0.7293
  313MPD2    H1 4710   1.669   1.281  10.453 -0.7078  0.9251 -0.5554
  313MPD2    H2 4711   1.546   1.527  10.778  0.4351 -0.2003  0.5926
  313MPD2    H3 4712   1.511   1.338  10.630 -1.7417  1.7114 -0.5939
  313MPD2     N 4713   1.897   1.422  10.392 -0.5686  0.2032 -0.3058
  313MPD2    H5 4714   1.885   1.332  10.346 -1.2128 -0.4158  1.0552
  313MPD2    N1 4715   1.737   1.719  10.750 -0.2867  0.4965  0.7013
  313MPD2    H7 4716   1.815   1.777  10.720  1.0948 -1.9637 -0.4873
  314TMC3    C1 4717   1.675   1.909  10.843  0.6530  0.1995  0.4726
  314TMC3    C2 4718   1.788   1.977  10.886 -0.3462 -0.1895 -0.2809
  314TMC3    C3 4719   1.799   2.114  10.862 -0.3444 -0.1032 -0.6061
  314TMC3    C4 4720   1.564   1.981  10.793 -0.3438 -0.3154  0.1101
  314TMC3    C5 4721   1.576   2.113  10.768 -0.5529 -0.1079  0.1321
  314TMC3    C6 4722   1.701   2.174  10.790 -0.2151  0.2374 -0.1482
  314TMC3     C 4723   1.650   1.769  10.838  0.1006 -0.8510  0.0463
  314TMC3     O 4724   1.551   1.725  10.892 -0.3580  0.2379 -0.1450
  314TMC3     H 4725   1.863   1.918  10.936 -2.3145 -0.2318  2.5802
  314TMC3    H1 4726   1.473   1.929  10.765 -0.2448  0.1478 -1.0405
  314TMC3    H2 4727   1.711   2.280  10.767  0.1346 -0.0763 -1.4484
  314TMC3    C7 4728   1.475   2.166  10.678  0.5624  0.0552  0.5411
  314TMC3    C8 4729   1.907   2.192  10.908 -0.2457  0.1095 -0.3592
  314TMC3    O1 4730   1.357   2.140  10.694 -0.4924  0.8723 -0.3822
  314TMC3    O2 4731   1.923   2.296  10.848  0.3453 -0.5308 -0.0662
  315MPD2     C 4732   1.547   1.554  17.199  0.0036  0.0685 -0.5001
  315MPD2    C1 4733   1.646   1.562  17.290  0.5250 -0.1455  0.7508
  315MPD2    C2 4734   1.693   1.685  17.323  0.0516  0.5177  0.1898
  315MPD2    C3 4735   1.651   1.801  17.258  0.3418  0.2242  0.3020
  315MPD2    C4 4736   1.533   1.796  17.174 -0.5561  0.4183  0.4214
  315MPD2    C5 4737   1.491   1.669  17.147 -0.2872  0.9351 -0.5428
  315MPD2     H 4738   1.761   1.700  17.406  0.6885 -1.3963 -0.0049
  315MPD2    H1 4739   1.497   1.881  17.117  0.0964  0.0485 -0.5552
  315MPD2    H2 4740   1.503   1.457  17.183  0.2426 -0.0294 -0.5591
  315MPD2    H3 4741   1.416   1.651  17.070  0.7565 -0.5553 -1.2001
  315MPD2     N 4742   1.721   1.926  17.272 -0.5052 -0.6648 -0.4663
  315MPD2    H5 4743   1.795   1.914  17.340 -0.8118  1.8074  0.2910
  315MPD2    N1 4744   1.697   1.449  17.366 -0.1847 -0.0340  0.1949
  315MPD2    H7 4745   1.781   1.460  17.423 -0.3936  0.0452  0.4917
  316TMC3    C1 4746   1.816   2.132  17.219  0.6712 -0.3310  0.3440
  316TMC3    C2 4747   1.922   2.103  17.298  0.6261  0.8977 -0.1338
  316TMC3    C3 4748   2.014   2.201  17.320 -0.2709 -0.0725  0.6175
  316TMC3    C4 4749   1.801   2.246  17.152  0.0001  0.3309 -1.0795
  316TMC3    C5 4750   1.898   2.336  17.176 -0.0194  0.5092  0.4203
  316TMC3    C6 4751   2.009   2.321  17.253 -0.1625  0.0269  0.2576
  316TMC3     C 4752   1.711   2.034  17.199  0.0409  0.1229 -0.4548
  316TMC3     O 4753   1.635   2.053  17.105 -1.0606  0.6346 -0.1632
  316TMC3     H 4754   1.941   2.002  17.330 -1.6832  0.4806 -0.0858
  316TMC3    H1 4755   1.720   2.257  17.081 -1.7762 -0.5406  0.8023
  316TMC3    H2 4756   2.083   2.400  17.260  1.5568 -1.6282  0.7517
  316TMC3    C7 4757   1.903   2.460  17.092  0.0736 -0.4329  0.1032
  316TMC3    C8 4758   2.131   2.173  17.397  0.2958 -0.4852 -0.2486
  316TMC3    O1 4759   2.014   2.511  17.074 -0.3167 -0.0901  0.3779
  316TMC3    O2 4760   2.226   2.241  17.368 -0.3322 -0.2007  0.7046
  317MPD2     C 4761   3.189   4.712  12.445  0.3603 -1.0307 -0.1600
  317MPD2    C1 4762   3.124   4.592  12.429 -0.0109 -0.5732 -0.3560
  317MPD2    C2 4763   3.147   4.501  12.533 -0.5030  0.9154 -0.1274
  317MPD2    C3 4764   3.235   4.523  12.642  0.6510 -0.8143  0.1580
  317MPD2    C4 4765   3.311   4.642  12.637  0.1795  0.0578 -0.2613
  317MPD2    C5 4766   3.289   0.006  12.534  0.1614 -0.2643  0.6514
  317MPD2     H 4767   3.090   4.409  12.533 -0.6822  1.0136 -3.4680
  317MPD2    H1 4768   3.392   4.665  12.705  1.8102 -1.5151 -1.6301
  317MPD2    H2 4769   3.178   0.061  12.366 -0.9934 -0.7427  0.2934
  317MPD2    H3 4770   3.344   0.099  12.529 -1.7078  0.7756 -0.5820
  317MPD2     N 4771   3.245   4.423  12.745 -0.3543 -0.2074 -0.4397
  317MPD2    H5 4772   3.186   4.342  12.727  0.8658 -0.7887 -1.8786
  317MPD2    N1 4773   3.043   4.556  12.317 -0.0730  0.5705  0.0044
  317MPD2    H7 4774   2.997   4.466  12.317 -0.0727  0.5765  1.1835
  318TMC3    C1 4775   3.325   4.333  12.944  0.3118  0.6349 -0.2656
  318TMC3    C2 4776   3.311   4.210  12.882  0.1987  0.4171 -0.5629
  318TMC3    C3 4777   3.355   4.103  12.955 -0.0568  0.3178 -0.5711
  318TMC3    C4 4778   3.391   4.348  13.067  0.4975 -0.4357 -0.2977
  318TMC3    C5 4779   3.450   4.235  13.126 -0.5438 -0.1066 -0.4629
  318TMC3    C6 4780   3.423   4.112  13.076 -0.7187 -0.6321  0.5557
  318TMC3     C 4781   3.317   4.448  12.860  0.4692  0.9769  0.4102
  318TMC3     O 4782   3.367   4.553  12.898 -0.0808 -0.3695  0.0184
  318TMC3     H 4783   3.286   4.203  12.777 -1.5803 -0.4993 -0.0710
  318TMC3    H1 4784   3.421   4.449  13.092  1.5395 -1.2592  1.7418
  318TMC3    H2 4785   3.461   4.019  13.117  0.0198 -0.4915  0.1882
  318TMC3    C7 4786   3.524   4.264  13.244  0.2958 -0.3155 -0.8945
  318TMC3    C8 4787   3.338   3.975  12.885  0.7405 -0.9407  0.3078
  318TMC3    O1 4788   3.522   4.375  13.288  0.0726 -0.4952  0.0849
  318TMC3    O2 4789   3.411   3.881  12.918 -0.0681 -0.1380 -0.3592
  319MPD2     C 4790   3.908   0.977  16.556 -0.2290  0.0124  0.1855
  319MPD2    C1 4791   4.011   0.900  16.505  0.7484  0.3959 -0.0243
  319MPD2    C2 4792   4.016   0.864  16.368  0.2394  0.6294  0.9926
  319MPD2    C3 4793   3.912   0.897  16.289 -0.0634 -0.2736  0.3980
  319MPD2    C4 4794   3.808   0.974  16.338 -0.2277 -0.1360  0.4483
  319MPD2    C5 4795   3.809   1.015  16.471  0.3883 -0.3217 -0.0726
  319MPD2     H 4796   4.106   0.816  16.331 -1.1007 -1.5114  0.5528
  319MPD2    H1 4797   3.732   1.020  16.276 -0.7164 -0.5428  0.7508
  319MPD2    H2 4798   3.912   1.015  16.658  0.1890 -2.8196  1.2149
  319MPD2    H3 4799   3.741   1.094  16.500 -0.2473 -1.2853  1.0443
  319MPD2     N 4800   3.897   0.856  16.153  0.2603 -0.2248 -0.2006
  319MPD2    H5 4801   3.822   0.902  16.103  0.4797  0.1853 -0.1522
  319MPD2    N1 4802   4.121   0.861  16.582 -0.1075 -0.1014 -0.1277
  319MPD2    H7 4803   4.196   0.809  16.537 -0.8067 -1.2458  0.0054
  320TMC3    C1 4804   3.939   0.725  15.951  0.5458  0.2462 -0.2382
  320TMC3    C2 4805   3.855   0.804  15.879  0.5305 -0.1381 -0.1782
  320TMC3    C3 4806   3.851   0.792  15.743  0.0256 -0.3692 -0.3748
  320TMC3    C4 4807   4.021   0.636  15.892 -0.5829 -0.6068  0.2758
  320TMC3    C5 4808   4.018   0.633  15.754  0.2235 -0.2336  0.5275
  320TMC3    C6 4809   3.938   0.711  15.676  0.0304  0.0030  0.0349
  320TMC3     C 4810   3.973   0.757  16.086 -0.5640  0.1737 -0.2911
  320TMC3     O 4811   4.064   0.690  16.137 -0.0533  0.2936  0.0698
  320TMC3     H 4812   3.789   0.873  15.931  1.7181  1.2667 -0.5338
  320TMC3    H1 4813   4.070   0.557  15.948  0.5697  0.9750  1.4804
  320TMC3    H2 4814   3.954   0.705  15.569 -0.5509  0.2214 -0.0623
  320TMC3    C7 4815   4.099   0.535  15.675  0.2702  0.0155  0.2546
  320TMC3    C8 4816   3.795   0.905  15.668 -0.0018 -0.3274  0.4022
  320TMC3    O1 4817   4.072   0.507  15.560 -0.7180 -0.0533 -0.0353
  320TMC3    O2 4818   3.751   1.002  15.734  0.8647 -0.2657 -0.6358
  321TMC3    C1 4819   4.244   0.801  16.772  0.0959  0.4501  0.7095
  321TMC3    C2 4820   4.254   0.675  16.719 -0.3922 -0.0597 -0.4698
  321TMC3    C3 4821   4.285   0.575  16.805 -0.2444 -0.0391  0.0440
  321TMC3    C4 4822   4.269   0.825  16.910 -0.2424  0.4640 -0.5145
  321TMC3    C5 4823   4.301   0.721  16.995 -0.1502 -0.8415 -0.6023
  321TMC3    C6 4824   4.303   0.597  16.941  0.2862  0.0295 -0.4341
  321TMC3     C 4825   4.148   0.897  16.710  0.5424  0.4689 -0.3952
  321TMC3     O 4826   4.109   0.990  16.777  0.2331 -0.4667  0.1372
  321TMC3     H 4827   4.242   0.656  16.613  2.8098  0.6348 -0.9568
  321TMC3    H1 4828   4.252   0.923  16.955 -0.8093  0.9418 -1.7615
  321TMC3    H2 4829   4.334   0.518  17.009 -2.8832 -2.4486 -1.8888
  321TMC3    C7 4830   4.433   0.728  17.059  0.3143  0.2092 -0.6884
  321TMC3    C8 4831   4.364   0.462  16.750  0.3452 -0.3596 -0.1558
  321TMC3    O1 4832   4.520   0.656  17.010  0.4386  0.7668  0.2196
  321TMC3    O2 4833   4.345   0.433  16.634 -0.0587  0.3989  0.0947
  322MPD2     C 4834   3.546   2.221  13.599  0.6124 -0.2701 -0.2694
  322MPD2    C1 4835   3.506   2.161  13.719 -0.0265  0.4813 -0.0518
  322MPD2    C2 4836   3.491   2.020  13.728  0.1417 -0.0175  0.4561
  322MPD2    C3 4837   3.515   1.935  13.622  0.4316 -1.0883  0.0798
  322MPD2    C4 4838   3.565   1.994  13.504 -0.2773 -0.4248  0.0083
  322MPD2    C5 4839   3.579   2.130  13.495  0.8436  0.3214 -0.4755
  322MPD2     H 4840   3.454   1.982  13.822  1.4072  0.0464  0.9806
  322MPD2    H1 4841   3.589   1.932  13.419  0.6825  0.2324 -0.2029
  322MPD2    H2 4842   3.557   2.328  13.586 -1.2152 -0.1870 -1.2045
  322MPD2    H3 4843   3.616   2.174  13.403  0.5898 -1.2024 -1.2888
  322MPD2     N 4844   3.517   1.794  13.629 -0.3294 -0.0662  0.4829
  322MPD2    H5 4845   3.569   1.740  13.560 -1.9058  0.4928 -1.1158
  322MPD2    N1 4846   3.506   2.233  13.836 -0.8550 -0.3132 -0.7134
  322MPD2    H7 4847   3.541   2.328  13.828  2.1309 -1.1126  2.4337
  323TMC3    C1 4848   3.536   2.270  14.067  0.0180 -0.2225  0.3725
  323TMC3    C2 4849   3.652   2.338  14.038  0.3423  0.3731  0.0660
  323TMC3    C3 4850   3.706   2.400  14.146 -0.6735  0.2127 -0.1988
  323TMC3    C4 4851   3.479   2.263  14.187 -0.4445 -0.4104 -0.2974
  323TMC3    C5 4852   3.549   2.309  14.293 -0.5963  0.2860 -0.3070
  323TMC3    C6 4853   3.667   2.373  14.272 -0.2253  0.9830 -0.4518
  323TMC3     C 4854   3.477   2.189  13.964  0.4327  0.3935 -0.2668
  323TMC3     O 4855   3.407   2.092  13.992  0.3036 -0.2661  0.3087
  323TMC3     H 4856   3.703   2.334  13.942  0.1706 -4.2758  0.1855
  323TMC3    H1 4857   3.392   2.202  14.209 -0.0052 -0.5538  1.0444
  323TMC3    H2 4858   3.708   2.425  14.358  1.8788  0.1576 -0.9484
  323TMC3    C7 4859   3.540   2.217  14.403  0.3982  0.1973 -0.1002
  323TMC3    C8 4860   3.831   2.485  14.128  0.6196  0.2946  0.4182
  323TMC3    O1 4861   3.477   2.115  14.391  0.1328  0.2012 -0.1215
  323TMC3    O2 4862   3.920   2.466  14.205 -0.1427 -0.0427 -0.1536
  324MPD2     C 4863   4.361   2.828  14.286 -0.5923  0.2585 -0.5585
  324MPD2    C1 4864   4.429   2.933  14.231 -0.1721 -0.2369 -0.6940
  324MPD2    C2 4865   4.352   3.020  14.161 -0.0236 -0.3412 -0.3533
  324MPD2    C3 4866   4.210   3.008  14.142  0.5657  0.8456  0.6610
  324MPD2    C4 4867   4.143   2.900  14.196  0.3338  0.4484 -0.3103
  324MPD2    C5 4868   4.222   2.807  14.266  0.1291  0.3710  0.0046
  324MPD2     H 4869   4.390   3.116  14.127  0.0880 -0.0907  0.4749
  324MPD2    H1 4870   4.037   2.880  14.188  0.4406 -0.4618  0.5732
  324MPD2    H2 4871   4.419   2.754  14.340 -3.7919 -1.5695  0.3552
  324MPD2    H3 4872   4.169   2.726  14.315  0.3974  0.8721  1.1232
  324MPD2     N 4873   4.134   3.112  14.075 -0.7386  0.0411 -0.0227
  324MPD2    H5 4874   4.034   3.099  14.086 -0.7736  0.9507  0.8135
  324MPD2    N1 4875   4.574   2.961  14.236 -0.3017 -0.3355  1.1709
  324MPD2    H7 4876   4.610   3.043  14.190  1.3535 -0.7541  1.6895
  325TMC3    C1 4877   4.049   3.290  13.952 -0.2325 -0.0197 -0.9172
  325TMC3    C2 4878   3.936   3.219  13.939 -0.9614  0.4680  0.5287
  325TMC3    C3 4879   3.822   3.273  13.878 -0.1149 -0.3767 -0.0592
  325TMC3    C4 4880   4.055   3.419  13.918 -1.2110  0.9544 -0.2396
  325TMC3    C5 4881   3.944   3.477  13.871  0.6278 -0.3225  0.1988
  325TMC3    C6 4882   3.828   3.407  13.856  0.4005 -0.0332 -0.6652
  325TMC3     C 4883   4.171   3.225  14.008 -0.7425  0.1544  0.4875
  325TMC3     O 4884   4.280   3.276  13.990  0.0404  0.3017  0.0455
  325TMC3     H 4885   3.938   3.111  13.931 -1.4906  0.7775 -4.0634
  325TMC3    H1 4886   4.142   3.483  13.926 -1.2668  0.6181  3.4167
  325TMC3    H2 4887   3.736   3.456  13.828  2.3861  2.5851 -2.5661
  325TMC3    C7 4888   3.960   3.618  13.835  0.5957  0.9251  0.4669
  325TMC3    C8 4889   3.732   3.192  13.807 -0.7936  0.3310  0.2133
  325TMC3    O1 4890   4.071   3.667  13.841  0.0659 -0.2296 -0.7409
  325TMC3    O2 4891   3.734   3.076  13.840  0.1890  0.0734  0.2239
  326MPD2     C 4892   1.163   4.618  10.753  0.2449  0.0708  0.2059
  326MPD2    C1 4893   1.218   4.661  10.630 -0.1012 -0.1737  0.3485
  326MPD2    C2 4894   1.297   0.042  10.626 -0.0859  0.0555 -0.5663
  326MPD2    C3 4895   1.331   0.104  10.749 -0.3525  0.3458  0.4393
  326MPD2    C4 4896   1.274   0.057  10.872  0.4611 -1.4260 -0.1070
  326MPD2    C5 4897   1.182   4.681  10.870  0.0983  0.6892 -0.7158
  326MPD2     H 4898   1.338   0.081  10.534  0.7711 -1.5080 -0.8379
  326MPD2    H1 4899   1.294   0.103  10.968 -2.1528  1.8427 -1.1146
  326MPD2    H2 4900   1.085   4.543  10.758  0.3332 -0.2076 -2.2906
  326MPD2    H3 4901   1.142   4.656  10.967 -3.7293  2.4280 -1.8471
  326MPD2     N 4902   1.427   0.212  10.760  0.6880  0.3905  0.1443
  326MPD2    H5 4903   1.428   0.262  10.849 -0.1520 -1.0327  0.9417
  326MPD2    N1 4904   1.187   4.594  10.512  0.4839 -0.2924  0.6880
  326MPD2    H7 4905   1.231   4.634  10.430 -0.5047 -0.9404 -0.1573
  327TMC3    C1 4906   1.135   4.409  10.373 -0.5206  0.2647  0.7068
  327TMC3    C2 4907   1.095   4.471  10.253 -0.4182  0.1671 -0.2275
  327TMC3    C3 4908   1.071   4.389  10.143  0.7139  0.4049  0.0770
  327TMC3    C4 4909   1.142   4.274  10.381 -0.2969  0.4253 -0.1802
  327TMC3    C5 4910   1.122   4.198  10.272  0.8734  0.6225 -0.4496
  327TMC3    C6 4911   1.093   4.254  10.151 -0.6996  0.9055 -0.1992
  327TMC3     C 4912   1.117   4.469  10.502 -0.1540  0.4523 -0.4110
  327TMC3     O 4913   1.064   4.398  10.586 -0.4314 -0.6190 -0.2652
  327TMC3     H 4914   1.079   4.578  10.247  1.0508  0.3990  0.0883
  327TMC3    H1 4915   1.148   4.225  10.477  0.4530 -0.9037 -0.9094
  327TMC3    H2 4916   1.089   4.195  10.060  0.8459  0.5557 -0.0317
  327TMC3    C7 4917   1.162   4.058  10.275  0.5796 -0.7790 -0.4844
  327TMC3    C8 4918   1.028   4.432  10.015  0.5508  0.2482 -0.4055
  327TMC3    O1 4919   1.126   3.992  10.179  0.3169  0.0225  0.5192
  327TMC3    O2 4920   1.020   4.347   9.928 -0.7194 -0.8684 -0.5061
  328MPD2     C 4921   4.156   4.491  17.463 -0.8182  0.0079  0.0768
  328MPD2    C1 4922   4.128   4.387  17.376 -0.3945 -0.0598 -0.2303
  328MPD2    C2 4923   4.129   4.411  17.240  0.4771  0.0504 -0.3371
  328MPD2    C3 4924   4.166   4.538  17.193 -0.2220  0.3436  0.1213
  328MPD2    C4 4925   4.212   4.631  17.278 -0.0914 -0.1929  0.9691
  328MPD2    C5 4926   4.190   4.616  17.413  0.6210 -0.3471 -0.5897
  328MPD2     H 4927   4.094   4.336  17.169 -1.6490  1.6522 -1.0048
  328MPD2    H1 4928   4.240   0.007  17.249  0.5660 -0.6301  0.0846
  328MPD2    H2 4929   4.145   4.466  17.568 -0.0983  1.3086  0.4621
  328MPD2    H3 4930   4.213   4.696  17.482  0.2734 -1.6726  1.0498
  328MPD2     N 4931   4.168   4.581  17.055 -0.6420  0.1729  0.3052
  328MPD2    H5 4932   4.178   4.678  17.028 -1.2477  0.1818  0.1326
  328MPD2    N1 4933   4.077   4.271  17.440 -0.0876 -0.8284  0.3628
  328MPD2    H7 4934   4.057   4.254  17.538  2.9754  2.4239  1.5585
  329TMC3    C1 4935   3.980   4.049  17.427 -0.4164 -0.3045 -0.1289
  329TMC3    C2 4936   3.946   3.950  17.340  0.4423  0.9529  0.2749
  329TMC3    C3 4937   3.814   3.904  17.338 -0.3039  0.5902 -0.0943
  329TMC3    C4 4938   3.889   4.087  17.530  0.1052 -0.4110 -0.4186
  329TMC3    C5 4939   3.763   4.039  17.518 -0.9783  0.3535 -0.1189
  329TMC3    C6 4940   3.715   3.960  17.414  0.5492 -0.3669  1.0354
  329TMC3     C 4941   4.046   4.160  17.364  0.1642  0.8865 -0.4912
  329TMC3     O 4942   4.064   4.148  17.243  0.4792  0.0860 -0.2549
  329TMC3     H 4943   4.007   3.923  17.255 -0.7728  0.6622 -0.5147
  329TMC3    H1 4944   3.914   4.152  17.612  0.2351 -0.2063 -0.6213
  329TMC3    H2 4945   3.610   3.936  17.408  0.6956  0.3967 -5.2479
  329TMC3    C7 4946   3.672   4.057  17.628  0.4934 -0.0922 -0.0313
  329TMC3    C8 4947   3.777   3.861  17.207 -0.1667  0.4082  0.0690
  329TMC3    O1 4948   3.695   4.146   0.005  0.3240  0.5242  0.4529
  329TMC3    O2 4949   3.864   3.790  17.148  0.1813  0.2643  0.3120
  330TMC3    C1 4950   2.052   4.165   9.179 -0.0169  0.3249 -0.6791
  330TMC3    C2 4951   2.012   4.055   9.104 -0.1149  0.6902  0.2600
  330TMC3    C3 4952   2.057   3.929   9.140  0.5343  0.1298  0.1306
  330TMC3    C4 4953   2.144   4.155   9.282 -0.3467  0.0260  0.3716
  330TMC3    C5 4954   2.183   4.028   9.316 -0.3511 -0.0806  0.7179
  330TMC3    C6 4955   2.152   3.911   9.242 -0.0245  0.7567  0.0932
  330TMC3     C 4956   1.968   4.285   9.179 -0.7532 -1.0939  0.3293
  330TMC3     O 4957   2.016   4.378   9.240 -0.3095  0.8533  0.3974
  330TMC3     H 4958   1.936   4.059   9.027 -1.1238  0.0062  1.2239
  330TMC3    H1 4959   2.155   4.233   9.356 -1.8911 -0.1447  0.7813
  330TMC3    H2 4960   2.200   3.818   9.269  0.4317  0.0235 -3.2148
  330TMC3    C7 4961   2.256   4.006   9.438  0.4537  0.1891 -0.7211
  330TMC3    C8 4962   1.979   3.819   9.075 -0.1582  0.0190  0.3016
  330TMC3    O1 4963   2.341   4.089   9.460 -0.8805  0.7948  0.1159
  330TMC3    O2 4964   1.914   3.846   8.973 -0.7910 -0.1573 -0.0534
  331MPD2     C 4965   3.801   2.402  12.797  0.7057 -0.4492  0.7410
  331MPD2    C1 4966   3.920   2.447  12.750  0.2402  0.4026 -0.4322
  331MPD2    C2 4967   3.988   2.377  12.648 -0.1570  0.1660 -0.2190
  331MPD2    C3 4968   3.926   2.276  12.582  0.0849  0.3819 -0.8415
  331MPD2    C4 4969   3.798   2.234  12.625  0.5736 -0.1582 -0.5372
  331MPD2    C5 4970   3.743   2.295  12.727  0.0536  0.0861 -0.3933
  331MPD2     H 4971   4.093   2.395  12.627 -0.4260  0.4833 -1.2741
  331MPD2    H1 4972   3.768   2.139  12.580  1.0121 -1.1435  1.2428
  331MPD2    H2 4973   3.762   2.445  12.889  0.6579 -2.2419  1.5658
  331MPD2    H3 4974   3.652   2.259  12.775  0.6079 -1.2090 -0.3060
  331MPD2     N 4975   3.996   2.218  12.474 -0.7255  0.3128 -0.6389
  331MPD2    H5 4976   4.084   2.262  12.450 -0.8347  1.2161  0.6044
  331MPD2    N1 4977   3.983   2.554  12.823 -0.3115 -0.5618  0.1088
  331MPD2    H7 4978   3.919   2.610  12.879  1.7337  1.1494  0.7493
  332TMC3    C1 4979   4.088   2.075  12.341  1.2074 -0.3318  0.1663
  332TMC3    C2 4980   4.113   2.176  12.251  0.1124  0.7071 -0.1292
  332TMC3    C3 4981   4.232   2.171  12.188 -0.6571  0.0261  0.5589
  332TMC3    C4 4982   4.180   1.976  12.379  0.3156  0.9883 -0.0503
  332TMC3    C5 4983   4.300   1.984  12.312 -0.2306 -0.3853 -0.1702
  332TMC3    C6 4984   4.328   2.079  12.220 -0.0702  0.1328  0.1056
  332TMC3     C 4985   3.974   2.096  12.424  0.3042 -0.0538 -0.6755
  332TMC3     O 4986   3.921   2.002  12.484  0.2751  0.1268 -0.5397
  332TMC3     H 4987   4.038   2.253  12.233 -1.1147 -0.7454 -1.3512
  332TMC3    H1 4988   4.152   1.913  12.463  0.0362  0.9104 -0.2010
  332TMC3    H2 4989   4.410   2.072  12.149 -0.5622 -0.0429 -0.4410
  332TMC3    C7 4990   4.407   1.931  12.387 -0.2006 -0.0813  0.4614
  332TMC3    C8 4991   4.287   2.291  12.132  0.3782  0.5895 -0.9466
  332TMC3    O1 4992   4.374   1.853  12.477  0.0438  0.4020 -0.1082
  332TMC3    O2 4993   4.405   2.307  12.155 -0.4724  0.5950  0.5647
  333MPD2     C 4994   4.718   2.986  11.015 -0.2825 -0.4016  0.6416
  333MPD2    C1 4995   0.050   2.868  10.981  0.2030  0.5059  0.7346
  333MPD2    C2 4996   4.721   2.750  11.025  0.0928  0.3466 -0.5734
  333MPD2    C3 4997   4.596   2.747  11.080 -0.2838 -0.2647  0.3714
  333MPD2    C4 4998   4.535   2.871  11.101  0.5856  0.0522  0.0125
  333MPD2    C5 4999   4.595   2.984  11.078  0.1238 -0.3788  0.0527
  333MPD2     H 5000   0.055   2.659  11.020 -1.1852 -0.5830  1.7752
  333MPD2    H1 5001   4.438   2.880  11.149  2.0912  3.0138  2.5043
  333MPD2    H2 5002   0.031   3.086  10.997 -1.0647 -0.1531  0.4303
  333MPD2    H3 5003   4.536   3.071  11.102 -1.7021 -1.2832 -1.1579
  333MPD2     N 5004   4.539   2.625  11.117  0.6816 -0.0821 -0.1663
  333MPD2    H5 5005   4.595   2.547  11.082  0.1843 -0.9791  1.0351
  333MPD2    N1 5006   0.167   2.876  10.908 -0.2741 -0.0138 -0.0322
  333MPD2    H7 5007   0.192   2.972  10.889  2.6736 -0.7499  0.0671
  334TMC3    C1 5008   0.350   2.799  10.778  0.3671 -0.9508 -0.3072
  334TMC3    C2 5009   0.452   2.708  10.753 -0.2607 -0.0334  0.3517
  334TMC3    C3 5010   0.572   2.756  10.700  0.3439 -0.1727  0.0779
  334TMC3    C4 5011   0.356   2.922  10.715  0.1053 -0.4019  0.3472
  334TMC3    C5 5012   0.467   2.959  10.649 -0.2679  0.6645  0.2483
  334TMC3    C6 5013   0.585   2.886  10.655  0.0247 -0.1328 -0.3287
  334TMC3     C 5014   0.245   2.768  10.879  0.6745  1.0334  0.0945
  334TMC3     O 5015   0.245   2.651  10.924 -0.2102  0.1990 -0.0900
  334TMC3     H 5016   0.440   2.612  10.801 -1.7547 -0.3418 -0.6451
  334TMC3    H1 5017   0.272   2.991  10.717 -0.3004 -0.8456 -1.7620
  334TMC3    H2 5018   0.681   2.922  10.621 -0.2243  0.8483  0.0098
  334TMC3    C7 5019   0.482   3.097  10.600 -0.6357 -0.0553 -0.2270
  334TMC3    C8 5020   0.688   2.665  10.709  0.0998 -0.0756  0.7259
  334TMC3    O1 5021   0.407   3.183  10.646  0.0673 -0.5983 -0.3493
  334TMC3    O2 5022   0.667   2.565  10.773 -0.3686 -0.3652 -0.2283
  335TMC3    C1 5023   4.545   4.656  16.829 -0.0822  0.3068  0.6616
  335TMC3    C2 5024   4.488   4.539  16.784 -0.1866 -0.3346 -0.0170
  335TMC3    C3 5025   4.568   4.432  16.777 -0.3851  0.3909  0.6141
  335TMC3    C4 5026   4.671   4.672  16.885 -0.3513  0.5548  0.0155
  335TMC3    C5 5027   0.024   4.558  16.875  0.3303 -0.1418 -0.0703
  335TMC3    C6 5028   4.698   4.438  16.818 -0.6690 -0.5762 -0.1924
  335TMC3     C 5029   4.448   0.028  16.875 -0.2055 -0.3542 -0.1199
  335TMC3     O 5030   4.343   0.029  16.814  0.1213 -0.1650 -0.0232
  335TMC3     H 5031   4.384   4.529  16.751  0.1485 -2.3061 -0.5103
  335TMC3    H1 5032   4.707   0.041  16.926 -1.1607  2.0896 -2.7562
  335TMC3    H2 5033   0.043   4.356  16.803  0.2799 -0.2875  2.5408
  335TMC3    C7 5034   0.161   4.546  16.924  0.3146  0.5133 -0.6001
  335TMC3    C8 5035   4.513   4.304  16.768  0.7115 -0.3855  0.8551
  335TMC3    O1 5036   0.203   4.430  16.921 -0.4983  0.3360  0.3998
  335TMC3    O2 5037   4.566   4.214  16.827 -0.4668  0.4970  0.4230
  336MPD2     C 5038   3.973   2.140  16.027 -0.5235 -0.3862 -0.2596
  336MPD2    C1 5039   4.088   2.125  15.948 -0.2567  0.0602  0.5773
  336MPD2    C2 5040   4.189   2.041  16.004  1.3536  0.9935  0.3114
  336MPD2    C3 5041   4.175   1.977  16.131  0.2812  0.0041 -0.3798
  336MPD2    C4 5042   4.060   1.996  16.200  0.4197  0.2729  0.5668
  336MPD2    C5 5043   3.956   2.074  16.145 -0.6486 -0.2240  0.2206
  336MPD2     H 5044   4.282   2.031  15.949  0.3205 -1.6118 -1.0054
  336MPD2    H1 5045   4.045   1.942  16.293 -2.4588  1.4290  0.7648
  336MPD2    H2 5046   3.895   2.207  15.990 -0.6200 -1.0396 -1.2399
  336MPD2    H3 5047   3.868   2.087  16.207 -0.1418 -3.1836  1.5957
  336MPD2     N 5048   4.267   1.878  16.180 -0.5765  0.0015 -0.8926
  336MPD2    H5 5049   4.230   1.830  16.261  0.1461 -0.7441 -1.0090
  336MPD2    N1 5050   4.125   2.199  15.829  0.0129  0.0405 -0.1444
  336MPD2    H7 5051   4.220   2.191  15.796  0.5324 -0.3546  1.4687
  337TMC3    C1 5052   4.086   2.335  15.639 -0.4631 -1.1503 -0.3274
  337TMC3    C2 5053   4.002   2.363  15.535  0.7334 -0.1510 -0.0270
  337TMC3    C3 5054   4.032   2.463  15.453 -0.5558 -0.4943  0.2886
  337TMC3    C4 5055   4.207   2.391  15.658  0.2096  0.8338 -0.2424
  337TMC3    C5 5056   4.232   2.500  15.576  0.0969  0.4736 -0.3935
  337TMC3    C6 5057   4.154   2.526  15.466 -0.1429  0.2896  1.1519
  337TMC3     C 5058   4.028   2.262  15.752 -0.4581 -0.0549 -0.0883
  337TMC3     O 5059   3.908   2.236  15.746 -0.3761  0.1450  0.1875
  337TMC3     H 5060   3.918   2.294  15.531  3.1540 -3.0248 -1.6079
  337TMC3    H1 5061   4.269   2.376  15.746  0.3053  2.7086 -0.0020
  337TMC3    H2 5062   4.191   2.603  15.399  1.4870 -1.6380 -0.2080
  337TMC3    C7 5063   4.336   2.588  15.593 -0.2310 -0.0993  0.7496
  337TMC3    C8 5064   3.941   2.515  15.360  0.2527  0.1512 -0.1330
  337TMC3    O1 5065   4.448   2.540  15.621 -0.5656  0.2419 -0.0679
  337TMC3    O2 5066   3.972   2.616  15.291 -0.0385  0.0897  0.0946
  338MPD2     C 5067   0.045   1.499   0.703 -0.1312  0.3291 -0.0248
  338MPD2    C1 5068   4.687   1.539   0.601  0.8056 -0.9985 -0.9248
  338MPD2    C2 5069   4.570   1.613   0.624 -0.6711  0.5527  0.1948
  338MPD2    C3 5070   4.544   1.644   0.752  0.2246  0.3907  0.1854
  338MPD2    C4 5071   4.635   1.616   0.852  0.3712 -0.2142  0.7912
  338MPD2    C5 5072   0.019   1.539   0.827 -0.4475  0.1042 -0.4993
  338MPD2     H 5073   4.506   1.638   0.541 -1.6701  0.6769  1.0077
  338MPD2    H1 5074   4.628   1.654   0.954 -0.4979  0.4890  0.4706
  338MPD2    H2 5075   0.134   1.441   0.680 -0.0067  0.3519  0.3983
  338MPD2    H3 5076   0.084   1.523   0.912 -0.1038 -0.4651 -0.8708
  338MPD2     N 5077   4.427   1.711   0.782  0.0944  0.1639 -0.1309
  338MPD2    H5 5078   4.373   1.756   0.710  0.7536  2.7412  0.9784
  338MPD2    N1 5079   4.698   1.487   0.468  0.1082 -0.4700  0.4964
  338MPD2    H7 5080   4.631   1.523   0.400  1.9722  1.2345 -0.4093
  339TMC3    C1 5081   4.259   1.824   0.911 -0.2786  0.6465 -0.2793
  339TMC3    C2 5082   4.162   1.806   1.005 -0.1771  0.1144  0.2118
  339TMC3    C3 5083   4.047   1.863   0.974 -0.2279  0.1333 -0.8139
  339TMC3    C4 5084   4.250   1.903   0.805  0.0298  0.3268 -0.7098
  339TMC3    C5 5085   4.134   1.963   0.786 -0.2443 -0.2750  0.5546
  339TMC3    C6 5086   4.024   1.947   0.862 -0.7225 -0.0697 -0.5567
  339TMC3     C 5087   4.385   1.742   0.913  0.2497 -0.1229 -0.0046
  339TMC3     O 5088   4.401   1.678   1.019 -0.1228 -0.3233 -0.4343
  339TMC3     H 5089   4.192   1.758   1.098 -1.0241 -0.3137  0.2653
  339TMC3    H1 5090   4.330   1.923   0.734 -1.7375  1.5438 -2.3831
  339TMC3    H2 5091   3.928   1.973   0.821 -0.9159  1.4659  0.8608
  339TMC3    C7 5092   4.119   2.039   0.661  0.0367 -0.8055  0.5896
  339TMC3    C8 5093   3.928   1.808   1.032 -0.3928  0.4074  0.5997
  339TMC3    O1 5094   4.170   1.986   0.563  0.4568  0.1950 -0.0831
  339TMC3    O2 5095   3.820   1.840   0.989 -0.2066  0.1937  0.1450
  340MPD2     C 5096   4.492   4.170   9.941  0.3948  0.6947 -0.6443
  340MPD2    C1 5097   4.603   4.100   9.898  0.2314 -0.0991 -0.2362
  340MPD2    C2 5098   0.005   4.139   9.926  0.2761  0.5131 -0.5720
  340MPD2    C3 5099   0.015   4.247  10.008 -0.6807  0.9064  0.8552
  340MPD2    C4 5100   4.628   4.317  10.053  0.5597  0.1646  0.5151
  340MPD2    C5 5101   4.503   4.280  10.022 -0.0154 -0.0155 -0.1545
  340MPD2     H 5102   0.083   4.089   9.870 -0.8846 -1.6448 -0.2596
  340MPD2    H1 5103   4.638   4.394  10.129  0.7800  1.0109 -0.3822
  340MPD2    H2 5104   4.395   4.140   9.904  1.2369 -3.3446  0.4634
  340MPD2    H3 5105   4.416   4.343  10.043 -0.0970 -0.5518  1.0826
  340MPD2     N 5106   0.142   4.288  10.053 -0.2826 -0.3522  0.4011
  340MPD2    H5 5107   0.139   4.377  10.100  1.0505 -1.1839  2.0523
  340MPD2    N1 5108   4.576   3.995   9.806 -0.0462 -0.4072 -0.0806
  340MPD2    H7 5109   4.481   4.000   9.772 -0.4358 -0.5655  1.0001
  341TMC3    C1 5110   4.609   3.818   9.661 -0.2527  0.4215 -0.1603
  341TMC3    C2 5111   4.486   3.864   9.618 -0.3322  0.6193  0.0374
  341TMC3    C3 5112   4.389   3.771   9.590 -0.5418  0.5424  0.2556
  341TMC3    C4 5113   4.634   3.690   9.686 -0.2405 -0.7727 -0.8821
  341TMC3    C5 5114   4.526   3.604   9.671 -0.1641  0.4151  0.8404
  341TMC3    C6 5115   4.408   3.640   9.619 -0.0671  0.0166  0.0550
  341TMC3     C 5116   4.665   3.895   9.769 -0.3389 -0.2067  0.1365
  341TMC3     O 5117   0.050   3.875   9.818  0.5588 -0.0711  0.0936
  341TMC3     H 5118   4.473   3.969   9.595 -1.1876  0.0330 -2.1589
  341TMC3    H1 5119   0.001   3.659   9.734  0.0976 -0.0052 -1.0385
  341TMC3    H2 5120   4.319   3.579   9.602 -1.3131  2.3166 -1.6515
  341TMC3    C7 5121   4.537   3.459   9.689  0.4467 -0.2326 -0.1935
  341TMC3    C8 5122   4.292   3.802   9.483 -0.1266 -0.4236 -0.8296
  341TMC3    O1 5123   4.432   3.397   9.716 -0.2929 -0.7078  0.4165
  341TMC3    O2 5124   4.294   3.710   9.404 -0.4252  0.0020 -0.2846
  342MPD2     C 5125   2.549   2.788  17.428 -0.0099  0.3012 -0.0714
  342MPD2    C1 5126   2.681   2.771  17.431 -0.1252  0.2392  0.2849
  342MPD2    C2 5127   2.765   2.871  17.464 -0.1598  0.5573 -0.3281
  342MPD2    C3 5128   2.712   2.997  17.478  0.0763  0.2909 -0.4874
  342MPD2    C4 5129   2.581   3.017  17.478  0.6219  0.6838 -0.5291
  342MPD2    C5 5130   2.494   2.918  17.450 -0.6040 -0.9007  0.1438
  342MPD2     H 5131   2.871   2.852  17.475 -0.6489 -1.7716  0.5219
  342MPD2    H1 5132   2.547   3.117  17.499 -0.8665  0.1873 -0.6014
  342MPD2    H2 5133   2.486   2.700  17.417  1.9225 -0.7192 -3.1004
  342MPD2    H3 5134   2.389   2.944  17.458 -1.1169 -3.1077  0.7019
  342MPD2     N 5135   2.783   3.112  17.483  0.5234  0.2101 -0.1758
  342MPD2    H5 5136   2.726   3.192  17.508 -0.2560 -0.1985 -0.6344
  342MPD2    N1 5137   2.751   2.654  17.408  0.3533 -0.4244  0.7563
  342MPD2    H7 5138   2.851   2.668  17.404  0.5178 -2.5913 -2.5343
  343TMC3    C1 5139   2.789   2.431  17.346  0.0579  0.7041  0.0572
  343TMC3    C2 5140   2.898   2.469  17.276 -0.7430 -0.0037 -0.2263
  343TMC3    C3 5141   2.961   2.366  17.201 -0.1249  0.6334 -0.2555
  343TMC3    C4 5142   2.754   2.300  17.364  0.4182 -0.1005  0.3703
  343TMC3    C5 5143   2.833   2.208  17.300  1.0728  0.2272  0.0872
  343TMC3    C6 5144   2.932   2.236  17.212  0.3296  0.5367  0.4567
  343TMC3     C 5145   2.694   2.533  17.388  0.5302 -0.0980 -0.5419
  343TMC3     O 5146   2.584   2.498  17.420  0.9988  0.1611  0.1681
  343TMC3     H 5147   2.906   2.575  17.256  2.1794 -0.3461 -0.9231
  343TMC3    H1 5148   2.683   2.278  17.443  2.9514 -0.2351  2.6354
  343TMC3    H2 5149   2.980   2.153  17.162  0.7721  0.7708  0.4868
  343TMC3    C7 5150   2.764   2.087  17.287  0.0958 -0.6187 -0.2801
  343TMC3    C8 5151   3.074   2.403  17.116  0.6004  0.0938 -0.3649
  343TMC3    O1 5152   2.748   2.042  17.178  0.1073 -0.3426 -0.2184
  343TMC3    O2 5153   3.075   2.526  17.088  0.1834  0.3341 -0.2539
  344MPD2     C 5154   3.631   2.228  10.775  0.0646  0.3660 -0.3611
  344MPD2    C1 5155   3.604   2.127  10.681  0.5913  1.2826  0.0076
  344MPD2    C2 5156   3.668   2.127  10.557  0.1652 -0.1734  0.8737
  344MPD2    C3 5157   3.745   2.234  10.517 -0.0519  0.2899  0.4201
  344MPD2    C4 5158   3.755   2.344  10.600  0.0176  0.1349  0.4819
  344MPD2    C5 5159   3.705   2.335  10.730 -0.7474 -0.9068  0.4022
  344MPD2     H 5160   3.651   2.053  10.480  1.2886  1.7024 -1.1535
  344MPD2    H1 5161   3.807   2.437  10.582 -0.3969  0.6926  2.2392
  344MPD2    H2 5162   3.597   2.235  10.877 -1.5945 -0.1974 -0.8712
  344MPD2    H3 5163   3.711   2.418  10.799  0.7594 -0.3953 -0.3547
  344MPD2     N 5164   3.811   2.248  10.394 -0.2300  0.0784 -0.0321
  344MPD2    H5 5165   3.855   2.340  10.386  0.8763 -0.3982  0.5327
  344MPD2    N1 5166   3.540   2.011  10.708  0.5726  0.0202 -0.1106
  344MPD2    H7 5167   3.539   1.943  10.632 -0.6260 -1.3337  1.1081
  345TMC3    C1 5168   3.866   2.244  10.169  0.6507  0.2127 -0.0611
  345TMC3    C2 5169   3.986   2.299  10.192  0.1567  0.0248  0.2986
  345TMC3    C3 5170   4.037   2.385  10.098 -0.0364  0.1174 -0.3413
  345TMC3    C4 5171   3.802   2.255  10.054 -0.2387 -0.6430 -0.1041
  345TMC3    C5 5172   3.849   2.351   9.969  0.4532 -0.7083  1.0588
  345TMC3    C6 5173   3.966   2.424   9.991 -0.7522 -0.1482 -0.4083
  345TMC3     C 5174   3.788   2.181  10.272  0.2686  0.0558 -0.3473
  345TMC3     O 5175   3.708   2.092  10.253 -0.3542 -0.5017 -0.4279
  345TMC3     H 5176   4.027   2.290  10.292  1.8582 -0.7216 -0.4595
  345TMC3    H1 5177   3.702   2.214  10.041 -0.4955  0.1125 -0.5454
  345TMC3    H2 5178   3.992   2.506   9.925 -1.5720  1.3846  1.1639
  345TMC3    C7 5179   3.743   2.435   9.913 -0.0067  0.0402 -0.2854
  345TMC3    C8 5180   4.138   2.473  10.144 -0.6899  0.5409 -0.3488
  345TMC3    O1 5181   3.759   2.556   9.928 -0.1765 -0.4407  0.3333
  345TMC3    O2 5182   4.153   2.479  10.265  0.0238  0.2055  0.2198
  346MPD2     C 5183   2.751   3.831  13.487 -0.0059  0.9581 -0.0748
  346MPD2    C1 5184   2.885   3.806  13.480 -0.2891 -0.6011 -0.0795
  346MPD2    C2 5185   2.975   3.877  13.553  0.0557 -0.4771 -0.2163
  346MPD2    C3 5186   2.924   3.972  13.636 -0.5110 -0.2429  0.4382
  346MPD2    C4 5187   2.792   4.002  13.641 -0.2554 -0.1593 -0.3191
  346MPD2    C5 5188   2.703   3.936  13.562 -0.5490  0.4390 -0.8840
  346MPD2     H 5189   3.083   3.867  13.549  0.1032 -1.0146  2.1834
  346MPD2    H1 5190   2.754   4.070  13.716  0.7093  0.8647 -0.7616
  346MPD2    H2 5191   2.679   3.775  13.429  1.8712  1.6387 -3.0785
  346MPD2    H3 5192   2.598   3.959  13.574 -0.5367 -0.5631  1.1256
  346MPD2     N 5193   3.028   4.023  13.723 -0.2715  0.0450 -0.1114
  346MPD2    H5 5194   3.120   3.983  13.711 -0.1207 -0.0701  1.4739
  346MPD2    N1 5195   2.926   3.702  13.393 -0.5095  0.1486 -0.3921
  346MPD2    H7 5196   2.854   3.649  13.344 -1.6614  0.4446  0.9441
  347TMC3    C1 5197   3.135   4.145  13.895  0.1995  0.6205  0.0593
  347TMC3    C2 5198   3.248   4.130  13.821 -0.3803  0.2895 -0.1622
  347TMC3    C3 5199   3.366   4.150  13.887  0.9513 -0.4990 -0.2721
  347TMC3    C4 5200   3.133   4.157  14.030  0.0060  0.0398 -0.8087
  347TMC3    C5 5201   3.259   4.166  14.092 -0.5588 -0.2611 -0.2000
  347TMC3    C6 5202   3.371   4.184  14.018  0.2547 -0.1361  0.8967
  347TMC3     C 5203   3.010   4.100  13.835 -0.1803  0.5302 -0.3994
  347TMC3     O 5204   2.907   4.144  13.889 -0.1155  0.1726 -0.3078
  347TMC3     H 5205   3.245   4.126  13.713  1.4402  1.1912 -0.2595
  347TMC3    H1 5206   3.041   4.145  14.086 -0.6900  2.6330 -1.4212
  347TMC3    H2 5207   3.467   4.188  14.068  1.3051 -1.4037 -1.0644
  347TMC3    C7 5208   3.272   4.105  14.225  0.2127  0.0133  0.0767
  347TMC3    C8 5209   3.458   4.046  13.842  0.0616 -0.5980  0.2958
  347TMC3    O1 5210   3.175   4.048  14.267  0.6797  0.2678 -0.1070
  347TMC3    O2 5211   3.414   3.933  13.833  0.1343 -0.7852  0.0348
  348MPD2     C 5212   2.097   3.164  11.779 -0.7544 -0.5894  0.3829
  348MPD2    C1 5213   2.204   3.241  11.792 -0.3328  0.3249 -0.2770
  348MPD2    C2 5214   2.218   3.347  11.707 -0.0752 -0.0556  0.9066
  348MPD2    C3 5215   2.127   3.380  11.611 -0.0748 -0.3138 -0.7166
  348MPD2    C4 5216   2.019   3.291  11.602 -0.4223  0.2798  0.0289
  348MPD2    C5 5217   2.001   3.189  11.690 -0.1698  0.7146 -0.7875
  348MPD2     H 5218   2.300   3.416  11.725  1.8840 -1.6323 -2.0100
  348MPD2    H1 5219   1.935   3.318  11.538  0.0752  0.9481 -0.3368
  348MPD2    H2 5220   2.087   3.070  11.834  0.2535  0.0210  1.5955
  348MPD2    H3 5221   1.909   3.132  11.690  0.3449 -0.1275 -0.5654
  348MPD2     N 5222   2.157   3.484  11.514 -0.5387  0.0451 -0.4541
  348MPD2    H5 5223   2.234   3.545  11.539 -0.4350 -1.4301  2.8320
  348MPD2    N1 5224   2.310   3.221  11.882  0.1893  0.3618 -0.2005
  348MPD2    H7 5225   2.400   3.267  11.868  1.0846 -1.3544 -0.0880
  349TMC3    C1 5226   2.418   3.105  12.050  0.3602  0.1144  0.3440
  349TMC3    C2 5227   2.438   2.984  12.103 -0.7249  0.1392 -0.0450
  349TMC3    C3 5228   2.552   2.921  12.094  0.0720 -0.0193 -0.5960
  349TMC3    C4 5229   2.525   3.176  11.997  0.5408  0.0196 -0.4079
  349TMC3    C5 5230   2.637   3.101  11.976 -0.1399  0.2966 -0.4190
  349TMC3    C6 5231   2.650   2.969  12.011 -0.2457 -0.0186 -0.0004
  349TMC3     C 5232   2.295   3.133  11.989 -0.1569  0.8484  0.4066
  349TMC3     O 5233   2.198   3.080  12.036 -0.2097  0.4532  0.1367
  349TMC3     H 5234   2.347   2.929  12.124 -0.3931 -0.8379 -1.1680
  349TMC3    H1 5235   2.519   3.284  11.989  1.8520  0.0126 -1.5081
  349TMC3    H2 5236   2.745   2.918  12.010  0.2324  0.8539  0.9163
  349TMC3    C7 5237   2.686   3.124  11.843  1.0452  0.2259  0.0955
  349TMC3    C8 5238   2.567   2.794  12.157 -0.2382 -1.0065 -0.1185
  349TMC3    O1 5239   2.715   3.021  11.785 -0.2580  0.3561 -0.1342
  349TMC3    O2 5240   2.492   2.776  12.250 -0.1732  0.2788  0.3110
  350MPD2     C 5241   1.498   1.447   9.742  0.5949 -0.3550  0.3580
  350MPD2    C1 5242   1.560   1.323   9.738  0.4228  0.0548 -0.1480
  350MPD2    C2 5243   1.691   1.305   9.783 -0.3918  0.6486  0.1406
  350MPD2    C3 5244   1.767   1.413   9.821  0.4248 -0.4191  0.3231
  350MPD2    C4 5245   1.709   1.540   9.813  0.5679 -1.2043 -0.2251
  350MPD2    C5 5246   1.581   1.557   9.765  0.2762  0.4948 -0.6974
  350MPD2     H 5247   1.732   1.206   9.771 -1.3885  0.0629  1.4557
  350MPD2    H1 5248   1.763   1.627   9.848 -2.6950  1.6280 -2.1905
  350MPD2    H2 5249   1.397   1.478   9.714  0.0768 -1.6596  0.7627
  350MPD2    H3 5250   1.538   1.656   9.759  2.1146  1.2814 -1.1848
  350MPD2     N 5251   1.891   1.386   9.879  0.9395 -0.0890 -0.4230
  350MPD2    H5 5252   1.914   1.287   9.885 -0.9169 -0.4190  1.0050
  350MPD2    N1 5253   1.484   1.210   9.689  0.4713 -0.1216  0.4157
  350MPD2    H7 5254   1.541   1.128   9.673  0.0411 -0.2396 -0.5318
  351TMC3    C1 5255   1.299   1.064   9.631  0.1087 -0.5243 -1.1122
  351TMC3    C2 5256   1.392   0.984   9.566  0.5911 -0.2148  0.3864
  351TMC3    C3 5257   1.345   0.863   9.527 -0.0067  0.2090 -0.8471
  351TMC3    C4 5258   1.172   1.022   9.662 -0.3382 -0.4076  0.5380
  351TMC3    C5 5259   1.135   0.899   9.626 -0.1808  0.0176  0.5722
  351TMC3    C6 5260   1.217   0.816   9.553 -0.1499 -0.3813 -0.9440
  351TMC3     C 5261   1.347   1.194   9.683 -0.5737 -0.3704  0.1741
  351TMC3     O 5262   1.262   1.276   9.709 -0.1852  0.5414  0.6825
  351TMC3     H 5263   1.492   1.015   9.536  0.5806 -0.8432 -0.3047
  351TMC3    H1 5264   1.112   1.073   9.736  0.7745  2.4357 -0.5302
  351TMC3    H2 5265   1.190   0.719   9.513 -0.4604 -1.1230  1.0936
  351TMC3    C7 5266   0.997   0.866   9.641  0.5168  1.1582  0.1951
  351TMC3    C8 5267   1.440   0.786   9.448 -0.2126  0.0772 -0.3776
  351TMC3    O1 5268   0.932   0.946   9.702 -0.3411 -0.1255  0.7173
  351TMC3    O2 5269   1.561   0.810   9.458 -0.5791  0.3368  0.4891
  352MPD2     C 5270   4.084   3.661   1.249 -0.4882  0.0396 -0.3356
  352MPD2    C1 5271   4.200   3.647   1.183  0.3172  0.5170  0.4101
  352MPD2    C2 5272   4.288   3.543   1.219 -0.3480 -0.0961 -0.5168
  352MPD2    C3 5273   4.249   3.453   1.315  0.7520  0.0702  0.1841
  352MPD2    C4 5274   4.129   3.460   1.376  0.0694  0.1704 -0.4149
  352MPD2    C5 5275   4.043   3.562   1.340 -0.7674  0.3505  0.8082
  352MPD2     H 5276   4.388   3.532   1.178 -0.1768 -1.4757  0.2881
  352MPD2    H1 5277   4.100   3.394   1.458  4.8293 -2.9830 -1.3019
  352MPD2    H2 5278   4.016   3.740   1.219  1.2051  1.2842 -0.9011
  352MPD2    H3 5279   3.953   3.572   1.400 -0.9031  0.6209  0.5583
  352MPD2     N 5280   4.341   3.344   1.348 -0.1353  0.4767  0.5580
  352MPD2    H5 5281   4.299   3.263   1.393  0.5941 -0.3328 -0.2221
  352MPD2    N1 5282   4.228   3.748   1.093  0.2728 -0.2915  0.3798
  352MPD2    H7 5283   4.156   3.816   1.070  0.9215 -0.6079 -2.5564
  353TMC3    C1 5284   4.529   3.213   1.322  0.7654  0.0210 -0.5232
  353TMC3    C2 5285   4.662   3.202   1.350 -0.2323 -0.5802  0.3718
  353TMC3    C3 5286   4.719   3.077   1.340  0.2538  0.1192 -0.0706
  353TMC3    C4 5287   4.449   3.101   1.292  0.7448  0.2731  0.0315
  353TMC3    C5 5288   4.513   2.979   1.285 -0.5559 -0.5778  0.3984
  353TMC3    C6 5289   4.645   2.962   1.308 -0.2684 -0.0399  0.1350
  353TMC3     C 5290   4.474   3.343   1.315 -0.3298 -0.1602  0.2350
  353TMC3     O 5291   4.548   3.437   1.299 -0.2914  0.0790  0.2190
  353TMC3     H 5292   0.004   3.284   1.374 -2.3003  0.9831  0.8362
  353TMC3    H1 5293   4.346   3.116   1.262  0.1480 -1.4586  1.2586
  353TMC3    H2 5294   4.680   2.861   1.327 -0.8491  0.2797  2.9455
  353TMC3    C7 5295   4.451   2.854   1.248  0.0763 -0.3042 -0.2074
  353TMC3    C8 5296   0.144   3.072   1.346 -0.3147  0.7650  0.3540
  353TMC3    O1 5297   4.525   2.762   1.206  0.7695  0.5371 -0.4476
  353TMC3    O2 5298   0.213   3.172   1.367  0.2260  0.1816 -0.4171
  354TMC3    C1 5299   1.117   4.464  13.356 -0.1329 -0.2209  0.2758
  354TMC3    C2 5300   1.133   4.600  13.382  0.7802 -0.4507  0.7118
  354TMC3    C3 5301   1.057   4.693  13.316 -0.1722  1.2187 -1.0717
  354TMC3    C4 5302   1.049   4.428  13.244  0.3969 -0.1594 -0.4155
  354TMC3    C5 5303   0.961   4.516  13.183 -0.2834 -0.3528  0.1346
  354TMC3    C6 5304   0.963   4.652  13.225  0.2334  0.0108 -0.2712
  354TMC3     C 5305   1.063   4.390  13.472 -0.3820 -0.6947  0.4958
  354TMC3     O 5306   0.975   4.310  13.448 -0.4395 -0.4339  0.2462
  354TMC3     H 5307   1.217   4.631  13.445  1.5614 -3.5727  1.2112
  354TMC3    H1 5308   1.040   4.322  13.224 -1.3066  0.4134 -2.6738
  354TMC3    H2 5309   0.910   0.000  13.164 -0.3559 -0.5313 -0.4057
  354TMC3    C7 5310   0.964   4.525  13.040 -0.3654  0.6941 -0.0651
  354TMC3    C8 5311   1.129   0.066  13.228 -0.1283 -0.7291  0.1962
  354TMC3    O1 5312   0.873   4.575  12.975  0.5644 -0.2307 -0.5014
  354TMC3    O2 5313   1.069   0.165  13.186 -0.1109 -0.4063 -0.1513
  355MPD2     C 5314   1.787   0.223  12.077  0.4051  0.1019  1.0906
  355MPD2    C1 5315   1.763   0.319  11.982  0.1162 -0.3957 -0.2619
  355MPD2    C2 5316   1.863   0.408  11.937  0.4879  0.2081 -0.3487
  355MPD2    C3 5317   1.983   0.410  12.000 -0.0332  0.4693  0.5604
  355MPD2    C4 5318   2.010   0.313  12.100 -0.5183 -0.1242 -0.7672
  355MPD2    C5 5319   1.911   0.223  12.138 -0.0289  0.1300  0.6860
  355MPD2     H 5320   1.837   0.474  11.855 -0.3579 -0.3703 -0.5436
  355MPD2    H1 5321   2.108   0.314  12.146 -1.2719 -3.3513  0.8994
  355MPD2    H2 5322   1.710   0.157  12.115  1.3358 -1.2127  0.6949
  355MPD2    H3 5323   1.925   0.157  12.224  1.2883  0.1234  0.4699
  355MPD2     N 5324   2.085   0.493  11.960 -0.3568  0.3001 -0.2297
  355MPD2    H5 5325   2.166   0.492  12.021  0.1297 -0.9850 -0.9012
  355MPD2    N1 5326   1.628   0.323  11.937 -0.2614 -0.1033 -0.9284
  355MPD2    H7 5327   1.582   0.237  11.966 -2.0932  1.0720 -0.3573
  356TMC3    C1 5328   2.180   0.688  11.854 -0.2503 -0.6703  0.2563
  356TMC3    C2 5329   2.194   0.764  11.738  0.3695  0.0378 -0.9529
  356TMC3    C3 5330   2.278   0.872  11.746 -0.0475  0.0589 -0.3259
  356TMC3    C4 5331   2.239   0.720  11.971 -0.3776  0.5865 -0.1616
  356TMC3    C5 5332   2.314   0.833  11.974  0.0284 -0.5009  0.2581
  356TMC3    C6 5333   2.335   0.913  11.865 -0.4889  0.0720 -0.1785
  356TMC3     C 5334   2.080   0.583  11.853 -0.3961 -0.7259 -0.3863
  356TMC3     O 5335   1.992   0.606  11.772  0.4285  0.3301 -0.0189
  356TMC3     H 5336   2.141   0.734  11.648 -1.2460  0.1694 -0.0530
  356TMC3    H1 5337   2.211   0.669  12.062  0.4830  1.6695  0.7107
  356TMC3    H2 5338   2.409   0.992  11.865 -0.3991 -0.0121  0.7170
  356TMC3    C7 5339   2.359   0.882  12.107 -0.5480  0.0832  0.1683
  356TMC3    C8 5340   2.307   0.934  11.614 -0.5601 -0.5063 -0.2258
  356TMC3    O1 5341   2.349   0.801  12.200  0.0901 -0.1849  0.7788
  356TMC3    O2 5342   2.271   0.873  11.516 -0.4878  0.3018 -0.1887
  357MPD2     C 5343   1.288   1.193   1.760  0.0671  0.0562 -0.2470
  357MPD2    C1 5344   1.330   1.080   1.695 -0.5657 -0.0207 -0.5723
  357MPD2    C2 5345   1.333   0.964   1.771 -0.1060 -0.3923  0.1938
  357MPD2    C3 5346   1.308   0.962   1.909 -0.2889  0.5899 -0.1051
  357MPD2    C4 5347   1.272   1.076   1.971 -0.1202  0.2301 -0.0424
  357MPD2    C5 5348   1.275   1.189   1.897  0.0758 -0.0332  0.7691
  357MPD2     H 5349   1.342   0.867   1.723 -0.9499  0.1747 -1.1152
  357MPD2    H1 5350   1.244   1.085   2.075  0.9026  2.0821  0.0827
  357MPD2    H2 5351   1.279   1.286   1.705  1.5226  0.4604  0.1829
  357MPD2    H3 5352   1.251   1.281   1.948 -1.3394 -0.2710  0.5450
  357MPD2     N 5353   1.331   0.848   1.988 -0.5921 -0.7621  0.3165
  357MPD2    H5 5354   1.316   0.856   2.088  2.3172  0.8860  0.6037
  357MPD2    N1 5355   1.330   1.078   1.552  0.2151  0.5034  0.0607
  357MPD2    H7 5356   1.310   1.167   1.508 -1.6011 -0.2591 -0.6960
  358TMC3    C1 5357   1.329   1.004   1.336 -0.0885  1.0052 -0.0570
  358TMC3    C2 5358   1.376   0.907   1.254 -0.7047  0.5201 -0.4770
  358TMC3    C3 5359   1.357   0.921   1.124 -0.7933 -0.2293 -0.1628
  358TMC3    C4 5360   1.257   1.109   1.287  0.1794 -0.0009 -0.4769
  358TMC3    C5 5361   1.245   1.122   1.151  0.5145 -0.0562  0.2931
  358TMC3    C6 5362   1.297   1.029   1.066 -0.3569 -0.0709 -0.8426
  358TMC3     C 5363   1.352   0.972   1.476  0.0214  0.2750  0.5390
  358TMC3     O 5364   1.370   0.853   1.506  0.2072 -0.2300 -0.1966
  358TMC3     H 5365   1.418   0.816   1.293 -1.3389  0.1577 -0.6331
  358TMC3    H1 5366   1.218   1.179   1.359  1.9274  0.0877  0.3786
  358TMC3    H2 5367   1.266   1.030   0.962  1.0156  0.7701 -1.2497
  358TMC3    C7 5368   1.151   1.217   1.096 -0.0220  0.3349 -0.1760
  358TMC3    C8 5369   1.388   0.826   1.022 -0.1621 -0.6797  0.3278
  358TMC3    O1 5370   1.051   1.252   1.159 -0.4067 -0.2001 -0.9340
  358TMC3    O2 5371   1.407   0.857   0.904  0.6215  0.0590  0.4883
  359MPD2     C 5372   1.737   3.728  12.336  0.0190 -0.4004  0.1431
  359MPD2    C1 5373   1.671   3.633  12.257 -0.9863 -0.2528  0.3790
  359MPD2    C2 5374   1.533   3.622  12.263 -0.3708 -0.5127  0.1543
  359MPD2    C3 5375   1.460   3.701  12.352  0.2143 -0.0133 -0.2495
  359MPD2    C4 5376   1.528   3.802  12.422 -0.2455 -0.6297  0.2727
  359MPD2    C5 5377   1.661   3.814  12.410 -0.1295  0.4924 -0.2826
  359MPD2     H 5378   1.484   3.558  12.190 -0.1325  0.0950 -0.5305
  359MPD2    H1 5379   1.478   3.884  12.472  0.9724  0.8233 -0.9307
  359MPD2    H2 5380   1.844   3.745  12.331  0.3872 -1.4185  4.6156
  359MPD2    H3 5381   1.714   3.885  12.472  0.4190  1.4988 -1.9158
  359MPD2     N 5382   1.321   3.710  12.364 -0.0728  0.0279  0.3139
  359MPD2    H5 5383   1.289   3.786  12.423 -2.0680 -1.3801  1.0346
  359MPD2    N1 5384   1.745   3.573  12.155  0.1019  0.2513  0.4179
  359MPD2    H7 5385   1.703   3.560  12.063 -0.9069  0.2294  0.8768
  360TMC3    C1 5386   1.948   3.564  12.024 -0.7425  0.1902  0.7551
  360TMC3    C2 5387   2.051   3.652  12.021 -0.3296  0.1877  0.1125
  360TMC3    C3 5388   2.075   3.710  11.901 -0.7860  0.0779 -0.3604
  360TMC3    C4 5389   1.875   3.525  11.918  0.3982  0.2445  0.1898
  360TMC3    C5 5390   1.912   3.576  11.794 -0.1987 -0.0525  0.5104
  360TMC3    C6 5391   2.010   3.672  11.788 -0.5783  0.1972  0.3247
  360TMC3     C 5392   1.884   3.557  12.159 -0.1421 -0.0355  0.0286
  360TMC3     O 5393   1.966   3.563  12.253 -0.4288 -0.5087  0.3328
  360TMC3     H 5394   2.092   3.701  12.108  1.5670 -0.4258 -0.4254
  360TMC3    H1 5395   1.793   3.456  11.936  0.2801  0.8705  2.0414
  360TMC3    H2 5396   2.042   3.704  11.689 -1.0478  1.4483  0.5854
  360TMC3    C7 5397   1.824   3.572  11.674 -0.3606 -0.0454  0.0755
  360TMC3    C8 5398   2.102   3.850  11.910 -0.2161 -0.1356 -0.0257
  360TMC3    O1 5399   1.840   3.659  11.589 -0.4570 -0.2002  0.2580
  360TMC3    O2 5400   2.047   3.916  11.999 -1.0923  0.4797 -0.2882
  361MPD2     C 5401   3.566   3.161  16.460  0.8051 -0.4636  0.5461
  361MPD2    C1 5402   3.613   3.218  16.576  0.4338  0.2837  0.1633
  361MPD2    C2 5403   3.738   3.165  16.625  0.5602  0.7603 -0.8285
  361MPD2    C3 5404   3.802   3.065  16.548  0.1343  0.4237 -0.4674
  361MPD2    C4 5405   3.750   3.023  16.425  0.2152  0.0517  0.1487
  361MPD2    C5 5406   3.627   3.063  16.386  0.1863  0.4182 -0.0832
  361MPD2     H 5407   3.783   3.197  16.718 -2.5154  2.0106  0.1956
  361MPD2    H1 5408   3.808   2.964  16.355  0.0414  1.4598 -1.1898
  361MPD2    H2 5409   3.470   3.190  16.419  1.3746 -0.8508 -1.0852
  361MPD2    H3 5410   3.587   3.035  16.289  0.0274  1.3468 -0.2845
  361MPD2     N 5411   3.923   3.003  16.579  0.1408 -0.1230 -0.3272
  361MPD2    H5 5412   3.946   2.917  16.530  0.9219 -0.2941  0.3402
  361MPD2    N1 5413   3.554   3.331  16.640  0.1643  1.0156 -0.3474
  361MPD2    H7 5414   3.610   3.370  16.714  0.5559  0.8369 -0.5521
  362TMC3    C1 5415   3.404   3.504  16.699 -0.7258 -0.2943 -0.3923
  362TMC3    C2 5416   3.363   3.464  16.826  0.6188  0.0242  0.0184
  362TMC3    C3 5417   3.269   3.548  16.883  0.3127 -0.1519 -0.7809
  362TMC3    C4 5418   3.366   3.616  16.636 -0.4698  0.4532 -0.0053
  362TMC3    C5 5419   3.281   3.697  16.706 -0.5985  0.5923  0.1767
  362TMC3    C6 5420   3.228   3.670  16.833  0.3386  0.1164  0.2773
  362TMC3     C 5421   3.438   3.398  16.606  0.0755 -0.0325 -0.5935
  362TMC3     O 5422   3.357   3.371  16.520 -0.1798 -0.3863  0.4327
  362TMC3     H 5423   3.388   3.365  16.861  0.0361 -0.2187 -0.2587
  362TMC3    H1 5424   3.371   3.631  16.529  0.5467  0.4450  0.0385
  362TMC3    H2 5425   3.171   3.743  16.889  0.0621  0.7317 -0.8153
  362TMC3    C7 5426   3.219   3.804  16.630  0.0755  0.4771 -0.2771
  362TMC3    C8 5427   3.187   3.489  16.985  1.2318  0.0927  0.3107
  362TMC3    O1 5428   3.273   3.838  16.525 -0.4531 -0.1860 -0.8585
  362TMC3    O2 5429   3.175   3.368  16.992 -0.3247  0.4711 -0.5088
  363TMC3    C1 5430   2.519   0.890   9.388  0.5176 -0.3674 -0.5766
  363TMC3    C2 5431   2.464   0.780   9.444  0.3782  0.4149  0.3519
  363TMC3    C3 5432   2.326   0.768   9.463  0.2849  0.3525  0.0108
  363TMC3    C4 5433   2.438   0.998   9.348  1.2248  0.0115  0.0126
  363TMC3    C5 5434   2.299   0.982   9.366  0.5216  0.4030 -0.2641
  363TMC3    C6 5435   2.249   0.867   9.420 -0.2330  0.5145  0.2296
  363TMC3     C 5436   2.662   0.915   9.417  0.0223 -0.9247  0.6069
  363TMC3     O 5437   2.721   0.832   9.481  0.1920 -0.3517  0.2865
  363TMC3     H 5438   2.532   0.697   9.462 -0.0421  0.3087  1.4948
  363TMC3    H1 5439   2.479   1.091   9.311 -1.9935  1.0294 -0.9679
  363TMC3    H2 5440   2.143   0.860   9.445  0.0758  1.0061  1.6707
  363TMC3    C7 5441   2.205   1.076   9.322  0.6714 -0.1457 -0.1089
  363TMC3    C8 5442   2.263   0.637   9.481 -0.1910  0.4189  1.2799
  363TMC3    O1 5443   2.096   1.028   9.309 -0.8655  0.0579  0.0858
  363TMC3    O2 5444   2.143   0.626   9.479  0.2712  0.5763 -0.0889
  364MPD2     C 5445   0.903   0.033   9.635 -0.1585 -0.4345 -0.0478
  364MPD2    C1 5446   0.957   0.106   9.738 -0.5263 -0.1908  0.7167
  364MPD2    C2 5447   0.982   0.039   9.861 -0.1095  0.1069  0.4142
  364MPD2    C3 5448   0.965   4.625   9.875  0.1721 -0.0095  0.5651
  364MPD2    C4 5449   0.897   4.562   9.777 -0.5404  0.1856  0.3405
  364MPD2    C5 5450   0.866   4.626   9.661  0.2847 -0.9367 -0.0301
  364MPD2     H 5451   1.026   0.088   9.948  0.4052  0.2561  0.0665
  364MPD2    H1 5452   0.856   4.463   9.796  1.1521 -1.0125 -2.2505
  364MPD2    H2 5453   0.888   0.063   9.532  1.8086 -1.2720 -0.5807
  364MPD2    H3 5454   0.805   4.574   9.588 -0.1497 -1.8858  1.0277
  364MPD2     N 5455   1.008   4.567   9.995  0.1330  0.0688 -0.6764
  364MPD2    H5 5456   1.024   4.629  10.073 -0.5865  0.8935 -1.1826
  364MPD2    N1 5457   0.996   0.244   9.717 -0.3828 -0.0940 -0.4132
  364MPD2    H7 5458   1.007   0.270   9.620  2.9818 -1.2293 -0.3467
  365TMC3    C1 5459   1.094   0.454   9.778  0.2266 -0.3185  0.2983
  365TMC3    C2 5460   1.192   0.430   9.693 -0.7959 -0.2239  0.0904
  365TMC3    C3 5461   1.308   0.502   9.709  0.0556  0.1303 -0.4246
  365TMC3    C4 5462   1.096   0.549   9.876  0.6885 -0.1872  0.7605
  365TMC3    C5 5463   1.214   0.613   9.894  0.5337 -0.1350 -0.6889
  365TMC3    C6 5464   1.321   0.589   9.814 -0.1865  0.4781  0.0102
  365TMC3     C 5465   1.021   0.335   9.817  0.1459 -0.4979  0.3203
  365TMC3     O 5466   1.010   0.326   9.938 -1.0340  0.4966 -0.2735
  365TMC3     H 5467   1.180   0.348   9.623  0.9979  0.3418 -0.8818
  365TMC3    H1 5468   1.007   0.568   9.935  0.8105 -0.1557  0.9338
  365TMC3    H2 5469   1.411   0.646   9.836  0.3496 -0.1208 -0.6442
  365TMC3    C7 5470   1.251   0.662  10.022  0.2106  0.2280 -0.5371
  365TMC3    C8 5471   1.437   0.449   9.660  0.0839 -0.0773 -0.2791
  365TMC3    O1 5472   1.360   0.718  10.026  0.4864  0.3240  0.3439
  365TMC3    O2 5473   1.530   0.524   9.684  0.3536 -0.3272  0.6812
  366MPD2     C 5474   4.293   0.902  15.076 -1.6004  0.9815 -0.2970
  366MPD2    C1 5475   4.307   0.973  15.191  0.7389  0.0756  0.2831
  366MPD2    C2 5476   4.426   1.004  15.248 -0.0088  0.2301  0.7260
  366MPD2    C3 5477   4.539   0.962  15.188  0.0345 -0.0061 -0.5499
  366MPD2    C4 5478   4.529   0.880  15.082  0.5535 -0.0021  0.1559
  366MPD2    C5 5479   4.410   0.849  15.026 -0.1340 -0.3533 -0.5203
  366MPD2     H 5480   4.430   1.068  15.334 -2.2543  0.7421  0.4567
  366MPD2    H1 5481   4.620   0.843  15.036  0.4415  1.5012 -1.2861
  366MPD2    H2 5482   4.196   0.881  15.032 -0.5927  0.5940 -2.3454
  366MPD2    H3 5483   4.408   0.789  14.936  0.1394 -1.0655 -0.0474
  366MPD2     N 5484   4.658   1.020  15.228  0.2171  0.4614 -0.4030
  366MPD2    H5 5485   4.647   1.082  15.308  0.0575  1.8017 -1.4516
  366MPD2    N1 5486   4.192   1.028  15.251 -0.2706 -0.8050 -0.1253
  366MPD2    H7 5487   4.210   1.108  15.310  0.1795 -1.7024  0.9492
  367TMC3    C1 5488   3.998   1.134  15.267 -0.4939  0.2955  0.2097
  367TMC3    C2 5489   4.073   1.199  15.367 -0.0861 -0.5371 -0.1477
  367TMC3    C3 5490   4.052   1.336  15.383  0.5487  0.3617  0.0751
  367TMC3    C4 5491   3.924   1.208  15.170 -0.4188 -1.0819  0.0800
  367TMC3    C5 5492   3.920   1.339  15.186 -0.3477 -0.5464  0.2708
  367TMC3    C6 5493   3.987   1.405  15.286 -0.7291  0.3232 -0.2972
  367TMC3     C 5494   4.061   1.025  15.199  0.4845  0.4287  0.1591
  367TMC3     O 5495   3.994   0.946  15.134  0.2819  0.5536  0.1596
  367TMC3     H 5496   4.116   1.142  15.449  1.0568 -0.1667 -0.4931
  367TMC3    H1 5497   3.877   1.153  15.089 -0.7682  1.1157 -1.2124
  367TMC3    H2 5498   3.983   1.511  15.306  1.6427  0.0290  1.7627
  367TMC3    C7 5499   3.810   1.410  15.127 -0.3821 -0.2347  0.5814
  367TMC3    C8 5500   4.168   1.400  15.440 -0.2812  0.6737  0.1852
  367TMC3    O1 5501   3.808   1.530  15.135  0.3332 -0.1551 -0.2755
  367TMC3    O2 5502   4.272   1.335  15.442  0.0868 -0.0950 -0.4470
  368MPD2     C 5503   4.550   3.141  13.330 -0.6538 -0.3362 -0.2077
  368MPD2    C1 5504   4.597   3.273  13.314  0.1613  0.1893 -0.7912
  368MPD2    C2 5505   0.012   3.289  13.330 -0.2478 -0.3871  0.1622
  368MPD2    C3 5506   0.096   3.187  13.360 -0.4706 -0.2596  0.5637
  368MPD2    C4 5507   0.048   3.060  13.382  0.2666 -0.0295 -0.3017
  368MPD2    C5 5508   4.638   3.033  13.364 -0.0300 -0.4632  0.2809
  368MPD2     H 5509   0.049   3.385  13.296 -2.0149 -0.0509 -0.8008
  368MPD2    H1 5510   0.118   2.980  13.404 -0.4028 -0.0619  1.7365
  368MPD2    H2 5511   4.448   3.111  13.307 -0.7537  0.6076 -1.0034
  368MPD2    H3 5512   4.603   2.932  13.383 -0.3215 -0.9746 -3.0551
  368MPD2     N 5513   0.232   3.197  13.332  0.2353  0.0801  0.6383
  368MPD2    H5 5514   0.294   3.117  13.321  1.0291  0.5785  1.4354
  368MPD2    N1 5515   4.508   3.375  13.274 -0.4758 -0.4809 -0.1497
  368MPD2    H7 5516   4.415   3.336  13.263  0.1222 -2.1926  0.8908
  369TMC3    C1 5517   4.418   3.578  13.199  0.0145 -0.5069  0.1485
  369TMC3    C2 5518   4.455   3.637  13.086 -0.6332 -0.6858 -0.0627
  369TMC3    C3 5519   4.384   3.597  12.977 -0.2830 -0.2536 -0.2708
  369TMC3    C4 5520   4.312   3.495  13.212 -0.7392 -0.6885 -0.2783
  369TMC3    C5 5521   4.240   3.463  13.096  0.3009  0.7327 -0.2632
  369TMC3    C6 5522   4.282   3.514  12.978 -0.3420 -0.2598 -0.0133
  369TMC3     C 5523   4.538   3.508  13.249  0.2064  1.0966  0.3429
  369TMC3     O 5524   4.644   3.566  13.252  0.2947 -0.0841 -0.7083
  369TMC3     H 5525   4.545   3.697  13.075  0.1263 -2.0048 -1.0325
  369TMC3    H1 5526   4.284   3.455  13.310  2.2918 -0.3055  0.7545
  369TMC3    H2 5527   4.238   3.487  12.883  0.3306 -1.7458  0.1009
  369TMC3    C7 5528   4.198   3.329  13.103 -0.3536  0.5049 -0.4642
  369TMC3    C8 5529   4.444   3.622  12.848 -0.1616  0.1195 -0.0813
  369TMC3    O1 5530   4.223   3.266  13.205 -0.5693  0.6075  0.4527
  369TMC3    O2 5531   4.366   3.639  12.758  0.0173  0.1483  0.3934
  370TMC3    C1 5532   0.112   3.868  15.881 -0.3502  0.5877  0.6738
  370TMC3    C2 5533   0.022   3.845  15.985  0.7892 -0.2027  0.6608
  370TMC3    C3 5534   4.650   3.752  15.957  0.5864 -0.0473 -0.4276
  370TMC3    C4 5535   0.115   3.804  15.760  1.5612 -0.1377  0.0905
  370TMC3    C5 5536   0.011   3.722  15.726 -0.0598 -0.2467  0.2253
  370TMC3    C6 5537   4.639   3.696  15.823  0.2400  0.5743  0.0317
  370TMC3     C 5538   0.221   3.957  15.915  0.0581 -0.1409 -0.2772
  370TMC3     O 5539   0.242   3.966  16.036 -0.7138 -0.4193  0.3375
  370TMC3     H 5540   0.032   3.879  16.088  1.2095  0.9110  0.2440
  370TMC3    H1 5541   0.202   3.817  15.697  1.7454  1.6601  0.7467
  370TMC3    H2 5542   4.576   3.609  15.807 -1.2847  2.0390 -1.8926
  370TMC3    C7 5543   0.055   3.606  15.650  0.0739  0.1441 -0.2698
  370TMC3    C8 5544   4.583   3.680  16.060  0.3235  0.6133  0.2185
  370TMC3    O1 5545   0.174   3.594  15.630  0.3039  0.4223  0.2210
  370TMC3    O2 5546   4.556   3.564  16.031 -0.3570 -0.7036 -0.2144
  371TMC3    C1 5547   1.473   2.061  15.391 -0.4935  0.0967  0.8482
  371TMC3    C2 5548   1.370   2.085  15.477 -0.2902  0.1863 -0.2460
  371TMC3    C3 5549   1.308   2.207  15.469  0.1949 -0.4262  0.3717
  371TMC3    C4 5550   1.508   2.154  15.294  0.2354  0.0939 -0.0905
  371TMC3    C5 5551   1.434   2.272  15.279  0.3252  0.0170  0.0441
  371TMC3    C6 5552   1.328   2.296  15.362 -0.6994 -1.1690  0.1138
  371TMC3     C 5553   1.500   1.924  15.349 -1.0337 -0.4840 -0.5439
  371TMC3     O 5554   1.602   1.905  15.282 -0.0622  0.2499  0.2120
  371TMC3     H 5555   1.342   2.024  15.562 -2.0590  0.7712 -0.4076
  371TMC3    H1 5556   1.596   2.129  15.236 -0.8429  0.1496 -1.7520
  371TMC3    H2 5557   1.263   2.377  15.330  0.9600  1.1628  2.6644
  371TMC3    C7 5558   1.458   2.361  15.164  0.4922 -0.3745  0.3203
  371TMC3    C8 5559   1.170   2.204  15.515  0.4783  0.3248  0.1807
  371TMC3    O1 5560   1.360   2.424  15.130 -0.3572  0.4280 -0.1193
  371TMC3    O2 5561   1.118   2.092  15.515  0.2002  0.6471  0.2317
  372MPD2     C 5562   0.776   3.252  13.908 -0.1535 -0.4290  0.3504
  372MPD2    C1 5563   0.842   3.192  13.799  0.2865  0.2992 -0.2016
  372MPD2    C2 5564   0.794   3.079  13.738  0.0866 -0.7908 -0.5322
  372MPD2    C3 5565   0.669   3.039  13.779  0.3120  0.0082 -0.2717
  372MPD2    C4 5566   0.596   3.107  13.876 -0.6728  0.2043 -0.2320
  372MPD2    C5 5567   0.649   3.216  13.939  0.5391  0.1991 -0.3407
  372MPD2     H 5568   0.847   3.023  13.663 -0.0639 -0.8291 -0.6086
  372MPD2    H1 5569   0.492   3.085  13.899 -0.1692 -1.9924 -0.0386
  372MPD2    H2 5570   0.815   3.334  13.967  1.2216 -1.5857  1.0750
  372MPD2    H3 5571   0.594   3.271  14.015 -1.1777 -4.4560  1.7876
  372MPD2     N 5572   0.623   2.920  13.721 -0.0532 -0.5939 -0.6481
  372MPD2    H5 5573   0.679   2.890  13.641  0.8558  0.1287 -0.2792
  372MPD2    N1 5574   0.967   3.236  13.754  0.3161  0.1194 -0.2766
  372MPD2    H7 5575   1.022   3.173  13.696  0.3912  1.3891 -1.5844
  373TMC3    C1 5576   0.498   2.715  13.713 -0.3494  0.3551 -0.1224
  373TMC3    C2 5577   0.427   2.625  13.778  0.0017 -0.6909  0.0553
  373TMC3    C3 5578   0.422   2.499  13.727  0.5644 -0.4195  0.0667
  373TMC3    C4 5579   0.546   2.689  13.590 -0.2124  0.4254 -0.0589
  373TMC3    C5 5580   0.514   2.574  13.529 -0.2913  0.9591 -0.4046
  373TMC3    C6 5581   0.456   2.473  13.594 -0.7793 -0.1339 -0.2561
  373TMC3     C 5582   0.517   2.848  13.767 -0.1438  1.0315  0.4658
  373TMC3     O 5583   0.452   2.857  13.871  0.2408  0.1852 -0.4383
  373TMC3     H 5584   0.393   2.649  13.878  0.1708  0.6751 -0.2183
  373TMC3    H1 5585   0.603   2.762  13.533 -1.3480  0.4602 -1.1389
  373TMC3    H2 5586   0.452   2.375  13.547  0.9105 -0.1883 -0.2756
  373TMC3    C7 5587   0.590   2.530  13.418  0.2373  0.2909  0.1708
  373TMC3    C8 5588   0.476   2.402  13.827  0.0336 -0.0379  0.4034
  373TMC3    O1 5589   0.526   2.467  13.336  0.1170 -0.2019  0.4647
  373TMC3    O2 5590   0.560   2.320  13.788  0.4448 -0.4527  0.0969
  374TMC3    C1 5591   1.518   3.641   9.377  0.0666 -0.2388  0.1427
  374TMC3    C2 5592   1.594   3.739   9.421 -0.1002  0.3844  0.8428
  374TMC3    C3 5593   1.655   3.826   9.330  0.1520 -0.0103  0.1509
  374TMC3    C4 5594   1.488   3.633   9.248  0.8872  0.6989 -0.3246
  374TMC3    C5 5595   1.542   3.714   9.155 -0.0187 -1.1605 -0.4194
  374TMC3    C6 5596   1.628   3.816   9.197 -0.6629 -0.5263  0.3720
  374TMC3     C 5597   1.461   3.544   9.483  0.8515  0.1609 -0.0128
  374TMC3     O 5598   1.518   3.543   9.592  0.3869  0.2544 -0.4768
  374TMC3     H 5599   1.597   3.752   9.528  0.2905  0.1399  0.8646
  374TMC3    H1 5600   1.424   3.556   9.207  1.0723  0.5508 -0.3361
  374TMC3    H2 5601   1.664   3.892   9.127  0.8616 -1.3986  0.2077
  374TMC3    C7 5602   1.561   3.655   9.019  0.2682 -0.5383  0.2433
  374TMC3    C8 5603   1.717   3.948   9.373 -0.0757 -0.3426  0.0369
  374TMC3    O1 5604   1.523   3.543   9.006  0.2564 -0.1569  0.4703
  374TMC3    O2 5605   1.728   4.035   9.292 -0.0095  0.5532 -0.0123
  375MPD2     C 5606   1.423   4.032  17.088 -0.5982  0.5876  0.3490
  375MPD2    C1 5607   1.368   4.003  16.971  0.4659  0.7581 -0.8314
  375MPD2    C2 5608   1.449   3.948  16.875 -0.0189 -0.3585 -0.1386
  375MPD2    C3 5609   1.588   3.962  16.894 -0.6692 -0.1105  0.2266
  375MPD2    C4 5610   1.638   4.012  17.013 -0.2383 -0.3978 -0.1034
  375MPD2    C5 5611   1.554   4.030  17.109 -0.4905 -0.4422  0.5925
  375MPD2     H 5612   1.408   3.910  16.782  2.0704 -0.9042 -0.8230
  375MPD2    H1 5613   1.744   4.030  17.030 -0.1308  0.6469 -1.9506
  375MPD2    H2 5614   1.371   4.061  17.178 -1.8793 -2.1215  0.4793
  375MPD2    H3 5615   1.591   4.064  17.205 -0.1846  0.9769 -0.0272
  375MPD2     N 5616   1.682   3.922  16.795  0.0238  0.0129 -0.4845
  375MPD2    H5 5617   1.776   3.957  16.811  0.2956 -1.4337  1.1083
  375MPD2    N1 5618   1.231   4.010  16.957 -0.1057 -0.2802 -0.2411
  375MPD2    H7 5619   1.189   3.955  16.882  0.1950 -0.0988 -0.5442
  376TMC3    C1 5620   1.762   3.871  16.584  1.1591  0.4290  0.8030
  376TMC3    C2 5621   1.883   3.896  16.630 -0.1464 -0.2793  0.0363
  376TMC3    C3 5622   1.984   3.896  16.536  0.3571  0.3293  0.7395
  376TMC3    C4 5623   1.726   3.845  16.456 -0.0267  0.2298 -0.1821
  376TMC3    C5 5624   1.824   3.856  16.362 -0.4039 -0.5581 -0.2424
  376TMC3    C6 5625   1.956   3.879  16.395  0.5675 -0.3242 -0.4305
  376TMC3     C 5626   1.656   3.854  16.677  0.1120  0.3454  0.3916
  376TMC3     O 5627   1.551   3.806  16.640 -0.4066  0.1981  0.3636
  376TMC3     H 5628   1.915   3.907  16.733  2.2385  1.7143 -0.9201
  376TMC3    H1 5629   1.624   3.838  16.420 -0.3224 -1.8866  1.0398
  376TMC3    H2 5630   2.029   3.891  16.316  1.2795  2.1787  0.5985
  376TMC3    C7 5631   1.789   3.856  16.221  0.1774  0.0924  0.0931
  376TMC3    C8 5632   2.122   3.907  16.577 -0.4143 -0.0949 -0.0221
  376TMC3    O1 5633   1.839   3.945  16.151  0.0073  0.3934  0.2999
  376TMC3    O2 5634   2.143   3.947  16.691 -0.9809  0.1245  0.3671
  377MPD2     C 5635   3.828   3.406  12.233 -0.3013 -0.5980  0.4195
  377MPD2    C1 5636   3.877   3.403  12.363  0.0978  0.1660  0.1654
  377MPD2    C2 5637   3.782   3.400  12.467 -0.3686 -0.0913 -0.4500
  377MPD2    C3 5638   3.646   3.401  12.438 -0.0304  0.7888  0.0178
  377MPD2    C4 5639   3.604   3.407  12.306 -0.1433  0.3837 -0.1238
  377MPD2    C5 5640   3.698   3.413  12.206 -0.4338 -0.8476  0.1674
  377MPD2     H 5641   3.811   3.401  12.571 -1.2327 -2.7871 -0.2053
  377MPD2    H1 5642   3.498   3.422  12.289 -0.1695  0.6004  0.2157
  377MPD2    H2 5643   3.896   3.413  12.149 -0.6188 -1.8615  0.0629
  377MPD2    H3 5644   3.667   3.422  12.102  0.5209  2.1043  0.1253
  377MPD2     N 5645   3.543   3.411  12.541 -0.1971  0.4955 -0.3915
  377MPD2    H5 5646   3.448   3.431  12.514 -0.3432 -1.3148 -1.1955
  377MPD2    N1 5647   4.016   3.402  12.386  0.1154 -0.3258 -0.2744
  377MPD2    H7 5648   4.081   3.420  12.310 -1.2114 -1.5455 -1.6978
  378TMC3    C1 5649   4.415   3.450  12.423  0.1088  0.5229  0.1324
  378TMC3    C2 5650   4.278   3.446  12.413  0.1786  0.1909 -0.1277
  378TMC3    C3 5651   4.209   3.391  12.518  0.0962  0.3010 -0.0134
  378TMC3    C4 5652   4.479   3.391  12.534  0.0444  0.8095 -0.5212
  378TMC3    C5 5653   4.402   3.338  12.635 -0.1392 -0.0048  0.2157
  378TMC3    C6 5654   4.260   3.346  12.634  0.0484  0.5672 -0.0651
  378TMC3     C 5655   4.477   3.489  12.300  0.6137  0.0295  0.0186
  378TMC3     O 5656   4.403   3.509  12.205  0.3447 -0.2299 -0.8510
  378TMC3     H 5657   4.229   3.507  12.338  1.7598  2.6272  0.8119
  378TMC3    H1 5658   4.587   3.389  12.539  0.0247 -0.6882 -0.4904
  378TMC3    H2 5659   4.201   3.323  12.721 -0.4447  0.8655 -0.3203
  378TMC3    C7 5660   4.465   3.283  12.756 -0.2549  0.6414 -0.2114
  378TMC3    C8 5661   4.067   3.386  12.513 -1.1268 -0.0597 -0.1704
  378TMC3    O1 5662   4.393   3.272  12.854  0.0172 -0.7166 -0.1000
  378TMC3    O2 5663   4.011   3.351  12.616 -0.3099 -0.4091 -0.1910
  379MPD2     C 5664   0.759   1.606  15.786  0.3807 -0.3557  0.1609
  379MPD2    C1 5665   0.634   1.596  15.847  0.1803  0.0603 -0.3397
  379MPD2    C2 5666   0.629   1.548  15.978  0.8144 -0.3101 -0.4324
  379MPD2    C3 5667   0.739   1.495  16.039  0.0710 -0.2402  0.3177
  379MPD2    C4 5668   0.857   1.497  15.968 -0.2789 -0.0560  0.0212
  379MPD2    C5 5669   0.870   1.558  15.848  0.4525  0.4253 -0.3914
  379MPD2     H 5670   0.529   1.546  16.021  0.6494 -0.9710 -0.8537
  379MPD2    H1 5671   0.951   1.472  16.016  2.3840  0.8306 -4.6509
  379MPD2    H2 5672   0.774   1.653  15.689 -1.0304 -0.9076 -0.3245
  379MPD2    H3 5673   0.969   1.559  15.804  1.7992  1.6699  2.6509
  379MPD2     N 5674   0.740   1.434  16.165  0.1719 -0.0961 -0.8066
  379MPD2    H5 5675   0.830   1.391  16.189 -1.5000 -2.6020  1.0495
  379MPD2    N1 5676   0.520   1.649  15.783  0.3041 -0.2174 -0.1334
  379MPD2    H7 5677   0.542   1.672  15.686 -2.0598 -0.6259 -0.7602
  380TMC3    C1 5678   0.302   1.686  15.732 -0.1477 -0.0119  0.6340
  380TMC3    C2 5679   0.337   1.682  15.594 -0.5888 -0.6255 -0.2998
  380TMC3    C3 5680   0.237   1.698  15.502 -0.1931 -1.0301  0.3585
  380TMC3    C4 5681   0.171   1.696  15.771  0.2119  0.2322  0.2659
  380TMC3    C5 5682   0.075   1.712  15.679 -0.4311 -0.4562 -0.2117
  380TMC3    C6 5683   0.103   1.707  15.546 -0.3518  0.8735 -0.6100
  380TMC3     C 5684   0.390   1.654  15.832 -0.3632 -0.4286  0.0702
  380TMC3     O 5685   0.347   1.629  15.942 -0.2557  0.3389  0.9071
  380TMC3     H 5686   0.438   1.675  15.558 -0.7419 -1.3725 -0.5766
  380TMC3    H1 5687   0.137   1.685  15.874  0.3758 -1.8602  0.0853
  380TMC3    H2 5688   0.029   1.739  15.474 -0.9889  1.4146  0.2831
  380TMC3    C7 5689   4.662   1.733  15.725 -0.2856 -0.1539  0.3727
  380TMC3    C8 5690   0.276   1.643  15.371 -0.3755  0.4693  0.0487
  380TMC3    O1 5691   4.652   1.792  15.834  0.8181 -0.4490 -0.9101
  380TMC3    O2 5692   0.391   1.600  15.365 -0.1741 -0.5135  0.8592
  381TMC3    C1 5693   4.381   3.268  15.942  0.7231  0.3477  0.3330
  381TMC3    C2 5694   4.509   3.301  15.912  0.1057  0.1051  0.0382
  381TMC3    C3 5695   4.605   3.210  15.929 -0.6734  0.2868 -0.2977
  381TMC3    C4 5696   4.351   3.139  15.987  0.0781 -0.3722 -0.7340
  381TMC3    C5 5697   4.456   3.046  15.999  0.0665  0.5533  0.0149
  381TMC3    C6 5698   4.583   3.082  15.974  0.1172 -0.6669 -0.5805
  381TMC3     C 5699   4.300   3.358  16.019  0.2643  0.3653 -0.0166
  381TMC3     O 5700   4.266   3.311  16.126  0.1207  0.8934  0.4781
  381TMC3     H 5701   4.526   3.402  15.877  1.9228 -0.0541  0.4627
  381TMC3    H1 5702   4.248   3.108  15.995  0.1422  0.2557  2.8514
  381TMC3    H2 5703   4.665   3.018  16.005 -0.5895 -0.8160  1.0187
  381TMC3    C7 5704   4.443   2.970  16.124  0.0382  0.8090 -0.5165
  381TMC3    C8 5705   0.022   3.249  15.914 -0.1656  0.4460  0.0689
  381TMC3    O1 5706   4.522   2.877  16.149  0.1212  0.5384 -0.2345
  381TMC3    O2 5707   0.102   3.168  15.872 -0.6343 -0.0851 -0.2069
  382MPD2     C 5708   4.024   0.861  17.142 -0.1327  0.1220 -0.3122
  382MPD2    C1 5709   3.966   0.989  17.149 -0.1871 -0.6339 -0.3411
  382MPD2    C2 5710   3.835   1.003  17.103 -0.1441 -0.3247 -0.2061
  382MPD2    C3 5711   3.766   0.894  17.061  0.8992  0.5149 -0.3753
  382MPD2    C4 5712   3.821   0.765  17.051  0.3478  0.0158 -0.0196
  382MPD2    C5 5713   3.948   0.754  17.093  0.2764  0.1979 -0.3539
  382MPD2     H 5714   3.787   1.100  17.107  0.8834  0.1916 -0.3247
  382MPD2    H1 5715   3.774   0.674  17.014  0.9921 -0.1084 -0.5347
  382MPD2    H2 5716   4.120   0.843  17.188  0.1944  1.9085 -0.2955
  382MPD2    H3 5717   3.987   0.652  17.097 -2.3264 -0.7881 -0.1029
  382MPD2     N 5718   3.630   0.914  17.022  0.2740  0.2121  0.1550
  382MPD2    H5 5719   3.585   1.005  17.021  0.6697  0.4071 -0.0770
  382MPD2    N1 5720   4.035   1.108  17.192  0.5856  0.6718  0.1573
  382MPD2    H7 5721   3.989   1.198  17.182  0.4615  0.6112  0.1891
  383TMC3    C1 5722   3.407   0.855  16.976 -0.0428  0.6313  0.2742
  383TMC3    C2 5723   3.322   0.751  16.950  0.3628  0.0955 -0.2913
  383TMC3    C3 5724   3.209   0.747  17.022 -0.2575 -0.4490 -0.9844
  383TMC3    C4 5725   3.368   0.965  17.054 -0.2909  0.6644 -0.3111
  383TMC3    C5 5726   3.242   0.960  17.111  0.3530 -0.0172  0.7324
  383TMC3    C6 5727   3.167   0.845  17.103 -0.2325 -0.3001  0.2082
  383TMC3     C 5728   3.542   0.815  16.983 -0.2636 -0.0833 -0.0596
  383TMC3     O 5729   3.560   0.695  16.983 -0.0827  0.0772  0.5862
  383TMC3     H 5730   3.347   0.648  16.930  0.8241  0.1072  0.2448
  383TMC3    H1 5731   3.441   1.022  17.110 -0.7474 -2.7434  3.7969
  383TMC3    H2 5732   3.070   0.837  17.152 -0.6636  1.8877 -0.2707
  383TMC3    C7 5733   3.201   1.073  17.194 -0.2881 -0.3833 -0.1665
  383TMC3    C8 5734   3.127   0.620  17.014 -0.1924 -0.2317  0.0797
  383TMC3    O1 5735   3.127   1.044  17.285  0.3343  0.3367 -0.2642
  383TMC3    O2 5736   3.157   0.539  16.928 -0.0602 -0.0421 -0.1715
  384MPD2     C 5737   0.559   1.833  11.501 -0.6666 -0.1546 -0.0705
  384MPD2    C1 5738   0.576   1.766  11.620 -0.9607  0.3084  0.4747
  384MPD2    C2 5739   0.666   1.665  11.637 -0.2817 -0.0521  1.0535
  384MPD2    C3 5740   0.732   1.618  11.530 -0.0025 -0.0561 -0.0370
  384MPD2    C4 5741   0.700   1.671  11.399  0.3953 -0.5707  0.2904
  384MPD2    C5 5742   0.616   1.779  11.389  0.6912 -0.1889 -0.4329
  384MPD2     H 5743   0.681   1.619  11.734 -0.0151  2.1624  2.0769
  384MPD2    H1 5744   0.727   1.617  11.310 -1.2323 -0.6278 -0.1722
  384MPD2    H2 5745   0.495   1.920  11.490  0.7380  0.8288 -0.4392
  384MPD2    H3 5746   0.605   1.843  11.301  2.3099 -0.5323 -0.8784
  384MPD2     N 5747   0.804   1.502  11.552  0.1558  0.2202  0.0457
  384MPD2    H5 5748   0.805   1.475  11.650 -0.8827 -1.3691 -0.3769
  384MPD2    N1 5749   0.510   1.807  11.739  0.3663  0.5667  0.0379
  384MPD2    H7 5750   0.534   1.744  11.815 -0.7083  1.7837  1.3964
  385TMC3    C1 5751   0.921   1.312  11.509 -0.0190 -0.6739  0.3886
  385TMC3    C2 5752   0.873   1.192  11.468  0.0993 -0.1749 -0.0468
  385TMC3    C3 5753   0.869   1.084  11.554 -0.4554  0.2934  0.1647
  385TMC3    C4 5754   0.956   1.331  11.643 -0.0290  0.0969 -0.4595
  385TMC3    C5 5755   0.927   1.227  11.733 -0.9250  0.1363 -0.1977
  385TMC3    C6 5756   0.883   1.106  11.688 -0.5677  1.1039  0.2927
  385TMC3     C 5757   0.866   1.425  11.453 -0.2855  0.7038 -1.4331
  385TMC3     O 5758   0.853   1.425  11.331  0.6824  0.4523 -0.3667
  385TMC3     H 5759   0.843   1.187  11.363  3.5871 -0.2811 -1.0223
  385TMC3    H1 5760   1.005   1.420  11.680  0.1045 -0.3541  0.4414
  385TMC3    H2 5761   0.870   1.021  11.754  1.5111  1.4568  1.1440
  385TMC3    C7 5762   0.858   1.281  11.842 -0.0602 -0.1012  0.2745
  385TMC3    C8 5763   0.751   1.005  11.529 -0.1976  0.0778 -0.2427
  385TMC3    O1 5764   0.873   1.401  11.860  0.0618 -0.1296  0.3229
  385TMC3    O2 5765   0.675   0.993  11.625  0.6077 -0.0784 -0.0941
  386TMC3    C1 5766   0.671   3.628  11.508 -0.0065 -0.3221 -0.2883
  386TMC3    C2 5767   0.746   3.692  11.416  0.1179 -0.3882  0.3862
  386TMC3    C3 5768   0.722   3.823  11.399 -0.2969 -0.1794 -0.0791
  386TMC3    C4 5769   0.563   3.685  11.575 -0.0515 -1.0407  0.2367
  386TMC3    C5 5770   0.545   3.821  11.550  0.4737  0.1940 -0.2211
  386TMC3    C6 5771   0.624   3.891  11.461 -0.6003  0.0533 -0.2368
  386TMC3     C 5772   0.679   3.484  11.503  0.0844  0.3115  0.2957
  386TMC3     O 5773   0.580   3.417  11.528  0.3262  0.3032 -0.4610
  386TMC3     H 5774   0.816   3.647  11.346 -0.5202  1.6266 -1.5743
  386TMC3    H1 5775   0.511   3.639  11.658 -1.7100  1.1131  0.3890
  386TMC3    H2 5776   0.605   3.995  11.439  2.9986 -0.0573 -3.8288
  386TMC3    C7 5777   0.420   3.877  11.604 -0.4707 -0.0979 -0.1242
  386TMC3    C8 5778   0.770   3.879  11.272 -0.2963  0.2017 -0.0892
  386TMC3    O1 5779   0.367   3.809  11.688 -0.0633 -0.3141 -0.3190
  386TMC3    O2 5780   0.796   3.800  11.184 -0.1534  0.1496 -0.1385
  387MPD2     C 5781   3.202   3.785   9.251  0.2555  0.1520 -0.3879
  387MPD2    C1 5782   3.274   3.789   9.368 -0.6974  0.2923 -0.3122
  387MPD2    C2 5783   3.321   3.666   9.420 -0.2277  0.2326  0.2254
  387MPD2    C3 5784   3.290   3.545   9.356 -0.4218  0.0413  0.2463
  387MPD2    C4 5785   3.216   3.544   9.241 -0.0387  0.1964  0.1688
  387MPD2    C5 5786   3.172   3.665   9.196  0.3415  0.2031 -0.1810
  387MPD2     H 5787   3.376   3.658   9.513 -0.6826 -0.7571  0.4117
  387MPD2    H1 5788   3.175   3.453   9.200  0.7466  0.3244 -0.8910
  387MPD2    H2 5789   3.165   3.877   9.207 -1.9950 -1.1096 -1.1197
  387MPD2    H3 5790   3.113   3.666   9.105 -1.8599  0.3467  1.2783
  387MPD2     N 5791   3.334   3.423   9.426 -0.1536 -0.0032  0.2243
  387MPD2    H5 5792   3.408   3.438   9.494  1.2891  0.0146 -1.3587
  387MPD2    N1 5793   3.272   3.897   9.453 -0.3321 -0.2933 -0.8455
  387MPD2    H7 5794   3.324   3.897   9.541  1.0616 -2.6383 -1.6763
  388TMC3    C1 5795   3.153   4.052   9.569 -0.1574 -0.0023  0.6706
  388TMC3    C2 5796   3.144   4.189   9.585  0.6623  0.3673 -0.0145
  388TMC3    C3 5797   3.132   4.229   9.718 -1.0075 -0.3622  0.1760
  388TMC3    C4 5798   3.130   3.963   9.669  0.2603 -0.1629  0.6387
  388TMC3    C5 5799   3.107   4.008   9.799  0.8333 -0.8676 -0.0594
  388TMC3    C6 5800   3.119   4.137   9.824 -0.5633 -0.1969  0.1480
  388TMC3     C 5801   3.189   4.007   9.440 -0.1157  0.0740 -0.4678
  388TMC3     O 5802   3.122   4.058   9.350 -0.2460  0.6610  0.3471
  388TMC3     H 5803   3.152   4.257   9.501  0.5773  1.3683  0.7875
  388TMC3    H1 5804   3.117   3.858   9.647  2.5040 -0.6702  1.7499
  388TMC3    H2 5805   3.100   4.175   9.924 -1.8470 -0.6285  0.0655
  388TMC3    C7 5806   3.123   3.916   9.909 -0.2033 -0.3883  0.5491
  388TMC3    C8 5807   3.151   4.369   9.749  0.4579 -0.3018 -0.3927
  388TMC3    O1 5808   3.121   3.957  10.026  0.0078 -0.2020  0.2063
  388TMC3    O2 5809   3.194   4.422   9.651  0.3308 -0.2544 -0.1048
  389MPD2     C 5810   2.636   2.008  11.430  0.0487 -0.2019 -0.5595
  389MPD2    C1 5811   2.610   1.940  11.312 -0.2503 -0.3656 -0.4093
  389MPD2    C2 5812   2.550   1.814  11.312  0.3535  0.6531 -0.1785
  389MPD2    C3 5813   2.497   1.759  11.429  0.2977  0.9018 -0.2633
  389MPD2    C4 5814   2.515   1.827  11.548 -0.0672  0.0875 -0.3288
  389MPD2    C5 5815   2.586   1.948  11.547 -0.1861 -0.7842 -0.2635
  389MPD2     H 5816   2.565   1.763  11.217  2.3418  2.2671 -0.7213
  389MPD2    H1 5817   2.471   1.792  11.641 -0.5476  1.9563  0.1576
  389MPD2    H2 5818   2.691   2.101  11.435  0.8713 -0.6622 -0.9288
  389MPD2    H3 5819   2.588   2.001  11.642  0.0150  1.1159 -1.3361
  389MPD2     N 5820   2.417   1.640  11.437  0.1663 -0.0319  0.2224
  389MPD2    H5 5821   2.360   1.633  11.521 -0.2842  1.2870  0.0347
  389MPD2    N1 5822   2.635   2.000  11.180 -0.3533 -0.8455 -0.3948
  389MPD2    H7 5823   2.605   1.949  11.098  0.3631 -0.1116 -1.1232
  390TMC3    C1 5824   2.300   1.454  11.376  0.0983 -0.7854 -0.1578
  390TMC3    C2 5825   2.279   1.441  11.514 -0.1393  0.3574  0.1762
  390TMC3    C3 5826   2.172   1.360  11.542 -0.8825 -0.0246  0.1578
  390TMC3    C4 5827   2.224   1.395  11.279 -0.2300 -0.0097  0.3588
  390TMC3    C5 5828   2.113   1.326  11.315  0.1144 -0.9156 -0.1824
  390TMC3    C6 5829   2.085   1.303  11.450  0.2651  0.1247 -0.0829
  390TMC3     C 5830   2.383   1.561  11.329 -0.3670 -0.4277 -0.1120
  390TMC3     O 5831   2.419   1.572  11.213 -0.3526 -0.6349 -0.7540
  390TMC3     H 5832   2.338   1.484  11.593 -0.0526  0.1117  0.2440
  390TMC3    H1 5833   2.235   1.426  11.176  0.4879  0.4617  0.5786
  390TMC3    H2 5834   2.015   1.226  11.481  0.5096 -0.9244 -2.1777
  390TMC3    C7 5835   2.036   1.271  11.204  0.1593 -0.6034 -0.5811
  390TMC3    C8 5836   2.170   1.310  11.682  0.6431 -0.1457  0.2714
  390TMC3    O1 5837   2.082   1.262  11.092 -0.0760 -0.4426 -0.4077
  390TMC3    O2 5838   2.248   1.361  11.765  0.4238  0.4399  0.1301
  391MPD2     C 5839   2.074   3.438  10.756  0.0846 -0.0498  0.3742
  391MPD2    C1 5840   2.166   3.537  10.783  0.1539 -0.2698 -0.0332
  391MPD2    C2 5841   2.209   3.625  10.681  0.8685 -0.7296  0.0841
  391MPD2    C3 5842   2.174   3.593  10.552  0.4295  0.0141 -0.1485
  391MPD2    C4 5843   2.095   3.479  10.528  0.9543 -0.7494  0.3299
  391MPD2    C5 5844   2.057   3.404  10.632  0.5780 -0.2091  0.2772
  391MPD2     H 5845   2.273   3.711  10.697 -1.1093  1.0136 -1.3973
  391MPD2    H1 5846   2.057   3.449  10.431  0.9121 -0.3766  0.2298
  391MPD2    H2 5847   2.023   3.376  10.828  0.7149 -0.8687  0.1157
  391MPD2    H3 5848   1.997   3.316  10.615  2.0509 -1.7274  2.8291
  391MPD2     N 5849   2.213   3.686  10.449  0.3741 -0.0167  0.2240
  391MPD2    H5 5850   2.261   3.769  10.483  1.0897  0.0915 -1.0780
  391MPD2    N1 5851   2.212   3.551  10.914 -0.2474 -0.5468  1.2620
  391MPD2    H7 5852   2.175   3.479  10.975  0.4075 -0.7213  1.4537
  392TMC3    C1 5853   2.239   3.794  10.240 -0.2307  0.1013 -0.3408
  392TMC3    C2 5854   2.180   3.800  10.112 -0.6352  0.0746 -0.1296
  392TMC3    C3 5855   2.184   3.914  10.035  0.0814  0.5637 -0.3071
  392TMC3    C4 5856   2.285   3.908  10.295  0.4693  0.8151  0.3863
  392TMC3    C5 5857   2.289   4.024  10.216 -0.2486 -0.4030  0.2091
  392TMC3    C6 5858   2.234   4.034  10.089  0.4004  0.1428  0.5002
  392TMC3     C 5859   2.185   3.678  10.324 -0.4328 -0.3130  0.5636
  392TMC3     O 5860   2.114   3.600  10.268 -0.6108  0.3092  0.1951
  392TMC3     H 5861   2.144   3.708  10.065  0.7808 -0.9792  0.8542
  392TMC3    H1 5862   2.328   3.905  10.394  0.4415  0.2351  0.3802
  392TMC3    H2 5863   2.225   4.131  10.040  0.8477  1.3436  2.7966
  392TMC3    C7 5864   2.337   4.142  10.285 -0.1714 -0.1382 -0.1869
  392TMC3    C8 5865   2.080   3.913   9.928 -0.0492 -0.0989  0.5879
  392TMC3    O1 5866   2.347   4.134  10.409 -0.1685 -0.3632 -0.2089
  392TMC3    O2 5867   1.993   3.827   9.930  0.3089  0.3192 -0.2036
  393TMC3    C1 5868   1.174   1.417  10.092  0.0614  0.3838 -0.8623
  393TMC3    C2 5869   1.052   1.374  10.146  0.5009  0.1199 -0.1894
  393TMC3    C3 5870   1.022   1.246  10.181  0.5348 -0.5782  0.3523
  393TMC3    C4 5871   1.265   1.320  10.063  0.3323 -1.0707 -0.6106
  393TMC3    C5 5872   1.232   1.189  10.106 -0.2996  0.2912  0.0329
  393TMC3    C6 5873   1.117   1.149  10.156  0.0222  0.3884  0.5956
  393TMC3     C 5874   1.176   1.552  10.036  0.5799 -0.5412 -0.3248
  393TMC3     O 5875   1.063   1.597  10.013  0.1506 -0.6604 -0.3694
  393TMC3     H 5876   0.986   1.456  10.173  0.4396 -0.5231  1.6163
  393TMC3    H1 5877   1.357   1.342  10.009 -0.8325  2.5893 -1.0582
  393TMC3    H2 5878   1.117   1.049  10.197 -2.4561  0.2925  0.4028
  393TMC3    C7 5879   1.318   1.091  10.035 -0.2562  0.2743  0.1102
  393TMC3    C8 5880   0.928   1.237  10.291 -0.2888  0.1400 -0.1417
  393TMC3    O1 5881   1.252   1.004   9.984 -0.4890  0.2621  0.1787
  393TMC3    O2 5882   0.887   1.343  10.342  0.4336 -0.0733  0.1851
  394TMC3    C1 5883   2.709   2.157  11.026  0.4499 -0.4357 -0.0128
  394TMC3    C2 5884   2.610   2.107  10.944  0.4768  1.1069  0.5739
  394TMC3    C3 5885   2.628   2.104  10.808  0.3810 -0.0579  0.1984
  394TMC3    C4 5886   2.831   2.201  10.980  0.4634  0.1509 -0.6019
  394TMC3    C5 5887   2.854   2.191  10.841  0.0444  0.2681  0.1526
  394TMC3    C6 5888   2.757   2.129  10.756 -0.0783 -0.3593  0.5857
  394TMC3     C 5889   2.702   2.119  11.161  0.2148  0.6238 -0.0695
  394TMC3     O 5890   2.768   2.185  11.241 -0.4799  0.1362 -0.2182
  394TMC3     H 5891   2.509   2.098  10.983  1.0302 -0.8938  1.5291
  394TMC3    H1 5892   2.911   2.225  11.049  2.5887  0.0253 -3.0371
  394TMC3    H2 5893   2.766   2.155  10.651 -1.3950 -0.4028  0.4593
  394TMC3    C7 5894   2.988   2.215  10.785  0.0174  0.2127 -0.0461
  394TMC3    C8 5895   2.533   2.062  10.715  0.2844 -0.1044  0.3477
  394TMC3    O1 5896   3.058   2.314  10.808 -0.4574  0.5993  0.5907
  394TMC3    O2 5897   2.421   2.059  10.753 -0.2066  0.1552 -0.5440
  395TMC3    C1 5898   2.105   3.306  15.035  0.3261  0.9069 -0.2103
  395TMC3    C2 5899   2.028   3.246  14.943 -0.1987  0.6195  0.2124
  395TMC3    C3 5900   1.974   3.327  14.850  0.3152 -0.1429  1.6254
  395TMC3    C4 5901   2.155   3.427  15.031  0.5353  0.1952  0.2730
  395TMC3    C5 5902   2.104   3.506  14.931  0.5832 -0.1750  0.0676
  395TMC3    C6 5903   2.013   3.459  14.837  0.2666  0.6321 -0.2226
  395TMC3     C 5904   2.129   3.225  15.150  0.0098 -0.2820  0.0520
  395TMC3     O 5905   2.151   3.103  15.138  0.4671 -0.2780  0.3274
  395TMC3     H 5906   1.996   3.143  14.955  1.8654  0.1030  1.3947
  395TMC3    H1 5907   2.229   3.459  15.104 -1.1023 -0.6150  2.2814
  395TMC3    H2 5908   1.981   3.524  14.757 -0.7374  0.7644  0.2920
  395TMC3    C7 5909   2.150   3.641  14.924 -0.5633  1.1274  0.1356
  395TMC3    C8 5910   1.884   3.278  14.747 -0.2435  0.1525  0.7170
  395TMC3    O1 5911   2.271   3.651  14.942  0.3484  0.3388  0.5873
  395TMC3    O2 5912   1.810   3.359  14.693 -0.2683  0.2123 -0.2430
  396MPD2     C 5913   2.095   0.330  17.294 -0.0205  0.1972  0.1850
  396MPD2    C1 5914   2.065   0.301  17.160  0.2319  0.1635  0.6366
  396MPD2    C2 5915   2.104   0.389  17.064  0.6872  0.3619  0.2225
  396MPD2    C3 5916   2.187   0.499  17.089 -0.6281 -0.0399  0.8529
  396MPD2    C4 5917   2.225   0.523  17.222  0.2178 -0.6833  0.4063
  396MPD2    C5 5918   2.159   0.446  17.319  0.0776 -0.3746  0.2332
  396MPD2     H 5919   2.082   0.376  16.959 -0.6650 -1.2853  0.6965
  396MPD2    H1 5920   2.275   0.615  17.250 -0.0415  0.1705 -1.9279
  396MPD2    H2 5921   2.056   0.266  17.372 -0.1419 -0.0715 -0.0913
  396MPD2    H3 5922   2.193   0.468  17.420 -3.4469 -1.2667  1.6100
  396MPD2     N 5923   2.225   0.579  16.976 -0.2210 -0.2356  0.0547
  396MPD2    H5 5924   2.200   0.545  16.883 -1.1519 -0.6613  0.4626
  396MPD2    N1 5925   1.990   0.184  17.137 -0.1787 -0.3336  0.3326
  396MPD2    H7 5926   1.969   0.125  17.217  0.4156  0.6966  1.2543
  397TMC3    C1 5927   1.846   0.026  17.035 -0.1837 -0.2300  0.0415
  397TMC3    C2 5928   1.817   4.701  16.908  0.2294 -0.5200 -0.0703
  397TMC3    C3 5929   1.794   4.566  16.907 -0.3755 -0.3799  0.6848
  397TMC3    C4 5930   1.871   4.672  17.146 -0.4814 -0.7394  0.1907
  397TMC3    C5 5931   1.856   4.533  17.125  0.2232  0.5103  0.3958
  397TMC3    C6 5932   1.828   4.479  17.004  0.8124 -0.6408  0.3259
  397TMC3     C 5933   1.923   0.153  17.020 -0.1003 -0.1227  0.1116
  397TMC3     O 5934   1.913   0.211  16.916 -0.3070 -0.0093 -0.1277
  397TMC3     H 5935   1.789   0.038  16.824  1.4260  0.6911  0.4076
  397TMC3    H1 5936   1.880   4.713  17.246 -0.3709  0.4812 -0.3227
  397TMC3    H2 5937   1.804   4.374  16.990  0.1429 -0.7499  2.3541
  397TMC3    C7 5938   1.857   4.446  17.240  0.0678  0.3472  0.4413
  397TMC3    C8 5939   1.775   4.517  16.772 -0.2074  0.7610 -0.0199
  397TMC3    O1 5940   1.833   4.328  17.226 -0.5773  0.1266 -0.2755
  397TMC3    O2 5941   1.798   4.595  16.683  0.2803 -0.0387  0.0947
  398MPD2     C 5942   0.340   1.306  17.640  0.0842 -0.3319  0.6306
  398MPD2    C1 5943   0.439   1.215  17.685 -0.2152 -0.1849  0.2949
  398MPD2    C2 5944   0.539   1.264   0.066  0.3176 -0.4268 -0.3623
  398MPD2    C3 5945   0.537   1.393   0.110 -1.1176  0.1185  0.1202
  398MPD2    C4 5946   0.435   1.479   0.075 -0.0310  0.0153 -0.3606
  398MPD2    C5 5947   0.340   1.432  17.686 -0.3668  0.4257  0.0878
  398MPD2     H 5948   0.622   1.204   0.103  1.6657  1.7527  0.1081
  398MPD2    H1 5949   0.429   1.578   0.119 -0.6543 -0.1064 -0.1568
  398MPD2    H2 5950   0.262   1.268  17.575 -2.2901  1.8100  2.2430
  398MPD2    H3 5951   0.261   1.503  17.662  0.8026  1.1746 -1.6025
  398MPD2     N 5952   0.645   1.419   0.194  0.5444 -0.2822 -0.4314
  398MPD2    H5 5953   0.709   1.340   0.198 -0.0509 -0.7366  0.3056
  398MPD2    N1 5954   0.428   1.073  17.659  0.2639  0.2449  0.4385
  398MPD2    H7 5955   0.486   1.012   0.016  0.5679 -0.6760 -0.8517
  399TMC3    C1 5956   0.326   0.868  17.575  0.6588 -0.3027  0.2395
  399TMC3    C2 5957   0.426   0.792  17.620 -0.0844 -0.7075  0.4659
  399TMC3    C3 5958   0.399   0.655  17.604  0.1536 -0.0263 -0.3374
  399TMC3    C4 5959   0.210   0.816  17.519  0.2481 -0.0422  0.3453
  399TMC3    C5 5960   0.191   0.682  17.510 -0.0555  0.1839  0.4478
  399TMC3    C6 5961   0.285   0.598  17.558 -0.1637 -0.3681  0.3537
  399TMC3     C 5962   0.344   1.011  17.568  0.0206  0.4672  0.6210
  399TMC3     O 5963   0.286   1.070  17.478  0.9055 -0.3445 -0.4348
  399TMC3     H 5964   0.523   0.820  17.658 -1.5961  0.5850  3.4079
  399TMC3    H1 5965   0.145   0.882  17.463  0.9127  1.6411  1.5418
  399TMC3    H2 5966   0.290   0.493  17.531 -0.8362  0.0093 -1.2525
  399TMC3    C7 5967   0.055   0.634  17.513  0.4204 -0.9567 -0.5712
  399TMC3    C8 5968   0.502   0.554  17.652 -0.2045  0.0386 -0.1116
  399TMC3    O1 5969   0.037   0.514  17.502  0.3556  0.0990 -0.2116
  399TMC3    O2 5970   0.612   0.597  17.645  0.2020 -0.1026 -0.4243
  400TMC3    C1 5971   4.088   4.589  16.833 -0.1440  0.1449  0.9441
  400TMC3    C2 5972   4.067   4.516  16.716 -0.0891  0.4583 -0.5418
  400TMC3    C3 5973   3.998   4.576  16.619 -1.3563  0.2779  0.3584
  400TMC3    C4 5974   4.045   4.716  16.853  0.7564  0.1730 -0.2964
  400TMC3    C5 5975   3.981   0.047  16.751  0.2348 -0.1160 -0.6900
  400TMC3    C6 5976   3.952   4.708  16.638 -0.1885 -0.0033 -0.0519
  400TMC3     C 5977   4.122   4.508  16.945  0.6185  0.0844  0.0052
  400TMC3     O 5978   4.135   4.389  16.931 -0.0597 -0.0369  0.5495
  400TMC3     H 5979   4.075   4.409  16.702 -2.8185  0.5512 -2.9303
  400TMC3    H1 5980   4.049   0.041  16.949  2.2056 -0.0664 -0.2260
  400TMC3    H2 5981   3.896   0.029  16.557 -2.1360 -0.9472  0.7703
  400TMC3    C7 5982   3.966   0.192  16.764  0.3294  0.1905 -0.1862
  400TMC3    C8 5983   3.963   4.503  16.497  0.1040 -0.0648  0.0699
  400TMC3    O1 5984   4.007   0.241  16.871  0.1251 -0.0340 -0.0175
  400TMC3    O2 5985   4.059   4.439  16.453 -0.2836 -0.7011 -0.0450
  401MPD2     C 5986   2.309   3.762   0.474  0.4362  0.8356 -0.3952
  401MPD2    C1 5987   2.386   3.680   0.546  0.6568 -0.6149  0.0512
  401MPD2    C2 5988   2.392   3.548   0.497  0.0070 -0.0189 -0.4457
  401MPD2    C3 5989   2.341   3.510   0.376  1.7586 -0.7126  0.2919
  401MPD2    C4 5990   2.267   3.597   0.304 -0.2537  0.3383 -0.1575
  401MPD2    C5 5991   2.258   3.721   0.360 -0.4906 -0.3987  0.3279
  401MPD2     H 5992   2.425   3.469   0.563 -1.8356  0.7951  1.4563
  401MPD2    H1 5993   2.212   3.577   0.213  1.9465 -0.2443 -1.3539
  401MPD2    H2 5994   2.297   3.868   0.495 -0.6234  0.7949 -0.7953
  401MPD2    H3 5995   2.205   3.800   0.307  1.6752 -0.4212 -1.8801
  401MPD2     N 5996   2.345   3.373   0.342  0.0843  0.2624  0.7715
  401MPD2    H5 5997   2.417   3.324   0.393 -1.2030 -1.5597  0.8278
  401MPD2    N1 5998   2.458   3.729   0.655 -0.1773  0.0225 -0.1171
  401MPD2    H7 5999   2.522   3.664   0.699 -2.4234 -2.4660 -0.5225
  402TMC3    C1 6000   2.312   3.167   0.248 -0.4180  0.1874 -0.3985
  402TMC3    C2 6001   2.353   3.114   0.366  0.3152 -0.1000  0.1372
  402TMC3    C3 6002   2.384   2.980   0.362  0.4000 -0.9566 -0.5257
  402TMC3    C4 6003   2.307   3.094   0.129  0.8008  0.1612  0.0416
  402TMC3    C5 6004   2.319   2.954   0.138  0.1318 -0.1084 -0.0608
  402TMC3    C6 6005   2.363   2.899   0.254  0.4188 -0.7736  0.0301
  402TMC3     C 6006   2.295   3.308   0.231  0.3595 -0.1127 -0.2209
  402TMC3     O 6007   2.253   3.353   0.125 -0.0330 -0.0831 -0.2399
  402TMC3     H 6008   2.356   3.168   0.460  2.0742 -0.8876  0.5206
  402TMC3    H1 6009   2.259   3.132   0.040  1.1576 -0.0018 -0.2198
  402TMC3    H2 6010   2.387   2.794   0.262  1.5034 -0.5650 -0.5017
  402TMC3    C7 6011   2.255   2.872   0.034 -0.5057 -0.0307  0.4221
  402TMC3    C8 6012   2.448   2.917   0.478  0.6006 -0.3875  0.1496
  402TMC3    O1 6013   2.216   2.929  17.632  0.2332 -0.4244 -0.6861
  402TMC3    O2 6014   2.424   2.799   0.488  0.0306 -0.1724 -0.2378
  403MPD2     C 6015   0.023   1.688  13.267 -0.9711  0.3209 -0.2718
  403MPD2    C1 6016   0.086   1.570  13.221  0.4283  0.2226 -0.4707
  403MPD2    C2 6017   0.221   1.562  13.209 -0.3362  0.0391 -0.1473
  403MPD2    C3 6018   0.307   1.661  13.260 -0.4021 -0.6172  0.3916
  403MPD2    C4 6019   0.244   1.761  13.332 -0.3987 -0.9314 -0.1331
  403MPD2    C5 6020   0.106   1.769  13.341  0.2171  0.4217  0.5788
  403MPD2     H 6021   0.272   1.477  13.165  2.4094  2.3513 -1.4648
  403MPD2    H1 6022   0.297   1.828  13.399  0.7349 -1.3074 -0.6566
  403MPD2    H2 6023   4.643   1.715  13.273 -0.8587  0.8093 -0.5109
  403MPD2    H3 6024   0.072   1.847  13.408 -0.5780  1.8168 -1.4328
  403MPD2     N 6025   0.449   1.646  13.250 -0.1034 -0.4943 -0.9748
  403MPD2    H5 6026   0.473   1.558  13.205  1.0241 -1.4812  1.5725
  403MPD2    N1 6027   0.008   1.456  13.169  0.3795  0.2424 -0.9960
  403MPD2    H7 6028   0.064   1.373  13.156  0.6437  0.1936  0.4336
  404TMC3    C1 6029   4.585   1.329  13.048 -0.1558 -0.2211  0.7044
  404TMC3    C2 6030   4.603   1.221  13.131 -0.0171  0.3159 -0.2870
  404TMC3    C3 6031   4.580   1.098  13.077  0.4086 -0.0953  0.4636
  404TMC3    C4 6032   4.566   1.314  12.918  0.7341 -1.0538  0.3454
  404TMC3    C5 6033   4.559   1.184  12.866 -0.0158  0.5267  0.3259
  404TMC3    C6 6034   4.569   1.077  12.945  0.0826  0.1856  0.2459
  404TMC3     C 6035   4.602   1.460  13.116 -0.2672 -0.3406  0.2698
  404TMC3     O 6036   4.528   1.554  13.086 -0.5306  0.6044  0.7779
  404TMC3     H 6037   4.609   1.246  13.236  1.4909 -0.0279 -0.2818
  404TMC3    H1 6038   4.554   1.402  12.856  0.5590  0.1581  2.0939
  404TMC3    H2 6039   4.570   0.976  12.905 -1.4541  0.3595 -0.2274
  404TMC3    C7 6040   4.570   1.170  12.722  0.1046 -0.6069  0.2216
  404TMC3    C8 6041   4.592   0.980  13.162  1.0031  0.9201  0.2398
  404TMC3    O1 6042   4.624   1.267  12.674 -0.6018 -0.4341 -0.3079
  404TMC3    O2 6043   4.625   0.877  13.107 -0.2260 -0.5264 -0.7776
  405MPD2     C 6044   1.077   1.867  14.086 -0.4404 -0.3247  0.5299
  405MPD2    C1 6045   0.983   1.835  13.987 -0.5446  0.0988 -0.4053
  405MPD2    C2 6046   0.860   1.898  13.993  0.0829  0.5218 -0.0379
  405MPD2    C3 6047   0.814   1.954  14.106  0.0378 -0.0090  0.7497
  405MPD2    C4 6048   0.905   1.972  14.209  0.0545  0.5434 -0.1280
  405MPD2    C5 6049   1.033   1.924  14.202 -0.1084  0.0419 -0.0256
  405MPD2     H 6050   0.790   1.890  13.910 -0.0884 -2.9036  0.4525
  405MPD2    H1 6051   0.868   2.016  14.301  0.5290 -1.6160  1.0908
  405MPD2    H2 6052   1.179   1.832  14.077  0.2980  1.8069  0.6839
  405MPD2    H3 6053   1.102   1.933  14.285 -0.9856  0.9793  0.5952
  405MPD2     N 6054   0.682   2.012  14.100 -0.0141 -0.2402 -0.1014
  405MPD2    H5 6055   0.633   2.005  14.012  2.0035  0.0122 -1.2419
  405MPD2    N1 6056   1.008   1.755  13.876  0.6996  0.4444 -0.0064
  405MPD2    H7 6057   0.928   1.749  13.814  1.9205 -0.3103 -1.5219
  406TMC3    C1 6058   0.251   2.132  14.182  0.1570  0.3445 -1.3630
  406TMC3    C2 6059   0.203   2.028  14.104 -0.5332 -0.0148  1.0988
  406TMC3    C3 6060   0.296   1.931  14.068 -0.3520 -0.0918  0.2331
  406TMC3    C4 6061   0.380   2.144  14.220  0.2552 -0.5019 -0.0912
  406TMC3    C5 6062   0.470   2.057  14.160  0.0071  0.3443 -0.0715
  406TMC3    C6 6063   0.428   1.944  14.087 -0.3953 -0.1501 -0.2022
  406TMC3     C 6064   0.158   2.233  14.227  0.0928  0.3994  0.0301
  406TMC3     O 6065   0.203   2.344  14.248  0.5504 -0.2273  0.8089
  406TMC3     H 6066   0.100   2.020  14.069 -0.5875 -1.4275  1.5898
  406TMC3    H1 6067   0.408   2.240  14.261  2.2850 -2.0246  2.0663
  406TMC3    H2 6068   0.501   1.866  14.069  1.2687  1.1552  0.8113
  406TMC3    C7 6069   0.602   2.057  14.204 -0.3307  0.1085  0.0289
  406TMC3    C8 6070   0.254   1.843  13.964  0.4926 -0.7693 -0.1047
  406TMC3    O1 6071   0.633   2.094  14.320 -0.8151 -0.1560  0.5712
  406TMC3    O2 6072   0.131   1.823  13.950  0.6730  0.0665  0.1279
  407MPD2     C 6073   2.776   3.144   9.214 -0.2923 -0.2074  0.5477
  407MPD2    C1 6074   2.898   3.168   9.266  0.3888 -0.2897  0.7888
  407MPD2    C2 6075   2.906   3.229   9.388 -0.8110 -0.8299 -0.3074
  407MPD2    C3 6076   2.791   3.274   9.453 -0.0051  0.2049  0.2513
  407MPD2    C4 6077   2.669   3.252   9.393 -0.8674  0.1334 -0.2483
  407MPD2    C5 6078   2.660   3.194   9.274 -0.0639  0.1243  0.4511
  407MPD2     H 6079   3.008   3.254   9.415 -0.9160  1.3943 -1.9679
  407MPD2    H1 6080   2.579   3.291   9.438 -0.1315  1.4511  0.0797
  407MPD2    H2 6081   2.769   3.103   9.114  1.4572 -2.2843  1.2872
  407MPD2    H3 6082   2.568   3.171   9.221  0.1542 -0.2189  0.2203
  407MPD2     N 6083   2.796   3.342   9.572 -0.1684 -1.0792 -0.1813
  407MPD2    H5 6084   2.711   3.383   9.611 -0.2060 -1.1901 -0.1479
  407MPD2    N1 6085   3.016   3.135   9.202 -0.4693  1.3077 -0.2102
  407MPD2    H7 6086   3.105   3.153   9.248  0.0979  1.5172 -1.3749
  408TMC3    C1 6087   3.179   3.071   9.054 -0.1965 -0.2172 -0.6338
  408TMC3    C2 6088   3.258   2.984   9.117  0.5337 -0.2900  0.8899
  408TMC3    C3 6089   3.387   3.000   9.143 -0.7878 -0.0815  0.0197
  408TMC3    C4 6090   3.247   3.187   9.015  0.1639  0.2873  0.1757
  408TMC3    C5 6091   3.378   3.209   9.049 -0.3168  0.4680 -0.2846
  408TMC3    C6 6092   3.456   3.112   9.107 -0.4008 -0.0306 -0.1813
  408TMC3     C 6093   3.035   3.070   9.081  0.5176  0.0462  0.2193
  408TMC3     O 6094   2.961   2.998   9.014 -0.7005  0.1287  0.1875
  408TMC3     H 6095   3.213   2.894   9.157  0.1023 -1.5568 -2.4117
  408TMC3    H1 6096   3.190   3.276   8.989  2.0924  1.9355  1.6698
  408TMC3    H2 6097   3.562   3.126   9.125 -0.3804 -1.8351  1.1115
  408TMC3    C7 6098   3.425   3.345   9.063  0.3250 -0.1667 -0.3490
  408TMC3    C8 6099   3.466   2.898   9.212  0.1863 -0.2161  0.4940
  408TMC3    O1 6100   3.518   3.365   9.140  0.4872 -0.3487 -0.6342
  408TMC3    O2 6101   3.435   2.780   9.192  0.1390 -0.2436 -0.2113
  409MPD2     C 6102   2.424   4.163  16.864 -0.2576 -0.0351 -0.0904
  409MPD2    C1 6103   2.536   4.214  16.935  0.4206 -0.5624  0.1672
  409MPD2    C2 6104   2.613   4.316  16.884 -0.1895  0.3242 -0.1198
  409MPD2    C3 6105   2.579   4.369  16.758 -0.2636  0.9246 -0.2418
  409MPD2    C4 6106   2.477   4.315  16.688 -0.0895  0.8776  0.8648
  409MPD2    C5 6107   2.398   4.215  16.739  0.8411 -0.2754 -0.6331
  409MPD2     H 6108   2.687   4.357  16.952 -0.0956  0.4184 -0.2793
  409MPD2    H1 6109   2.436   4.357  16.597  1.4431  1.9600  0.6786
  409MPD2    H2 6110   2.350   4.097  16.907 -1.3699 -0.1798 -2.2070
  409MPD2    H3 6111   2.323   4.180  16.670  0.8354 -1.3537 -0.0761
  409MPD2     N 6112   2.657   4.462  16.683  0.1365  0.0694  0.1488
  409MPD2    H5 6113   2.610   4.499  16.601 -0.1666 -1.0197 -0.1587
  409MPD2    N1 6114   2.567   4.178  17.066  0.1397 -0.1646 -0.1286
  409MPD2    H7 6115   2.636   4.232  17.119  1.2860  0.3963 -2.2151
  410TMC3    C1 6116   2.811   4.644  16.651  0.6680  0.1848  0.3997
  410TMC3    C2 6117   2.835   0.024  16.734  0.4489  0.1963 -0.7830
  410TMC3    C3 6118   2.778   0.142  16.717 -0.1213  0.2822 -0.0651
  410TMC3    C4 6119   2.740   4.660  16.542  0.9032  1.0457  0.1124
  410TMC3    C5 6120   2.692   0.058  16.513  0.4672  0.3767 -0.3105
  410TMC3    C6 6121   2.715   0.170  16.602 -0.4237  0.0373  0.0649
  410TMC3     C 6122   2.783   4.512  16.712 -1.2430  0.4398  0.7948
  410TMC3     O 6123   2.850   4.490  16.810  0.1033 -0.0577 -0.8316
  410TMC3     H 6124   2.881   0.001  16.830 -0.9091  1.8057  0.2420
  410TMC3    H1 6125   2.715   4.579  16.474 -0.2228  1.8719 -0.4455
  410TMC3    H2 6126   2.674   0.269  16.582  1.8774  0.9649 -0.0497
  410TMC3    C7 6127   2.560   0.042  16.459 -0.0153  0.7193 -0.0591
  410TMC3    C8 6128   2.790   0.244  16.824 -0.4365  0.0441  0.4173
  410TMC3    O1 6129   2.505   4.660  16.478 -0.4982  0.1129  0.6116
  410TMC3    O2 6130   2.762   0.359  16.788 -0.9324 -0.3475 -0.1653
  411MPD2     C 6131   2.548   4.081  14.489 -0.5355 -0.2862 -0.3981
  411MPD2    C1 6132   2.449   4.136  14.412 -0.2423  0.0622 -0.4621
  411MPD2    C2 6133   2.335   4.068  14.382  0.5917 -0.0703  0.5304
  411MPD2    C3 6134   2.322   3.941  14.437 -0.3611 -0.2441  0.1736
  411MPD2    C4 6135   2.416   3.885  14.514  0.3395  0.3219 -0.6236
  411MPD2    C5 6136   2.524   3.968  14.554  0.2268 -0.0376 -0.2527
  411MPD2     H 6137   2.259   4.107  14.315  0.3348 -1.8984 -0.2429
  411MPD2    H1 6138   2.398   3.801  14.580 -1.6477  0.2910 -1.2055
  411MPD2    H2 6139   2.638   4.140  14.503 -0.3259 -1.2869  2.5652
  411MPD2    H3 6140   2.588   3.931  14.633 -0.8998 -0.0079  0.6876
  411MPD2     N 6141   2.200   3.875  14.420 -0.5459  0.1880 -1.1738
  411MPD2    H5 6142   2.139   3.924  14.356 -3.2119 -1.2011  0.3063
  411MPD2    N1 6143   2.451   4.272  14.380  0.0100 -0.0541  0.0343
  411MPD2    H7 6144   2.516   4.320  14.441 -1.2995 -1.8178  2.7739
  412TMC3    C1 6145   2.039   3.698  14.414  0.1443  0.3152  0.3235
  412TMC3    C2 6146   1.930   3.785  14.437 -0.3070 -0.1614  0.3562
  412TMC3    C3 6147   1.821   3.761  14.354  0.6734  0.5121  0.1422
  412TMC3    C4 6148   2.035   3.593  14.323  0.4635  0.1186 -0.2056
  412TMC3    C5 6149   1.917   3.574  14.252 -0.0494 -0.0452  0.2084
  412TMC3    C6 6150   1.814   3.655  14.263  0.1929  0.2726 -0.4549
  412TMC3     C 6151   2.176   3.739  14.456 -0.3364 -0.4865  0.0640
  412TMC3     O 6152   2.250   3.644  14.486  0.1688 -0.3419  0.3284
  412TMC3     H 6153   1.938   3.875  14.498  0.9425 -0.6689  0.9563
  412TMC3    H1 6154   2.128   3.541  14.305  0.4843  0.4922 -1.1517
  412TMC3    H2 6155   1.725   3.640  14.203 -0.9963 -1.1242  1.6499
  412TMC3    C7 6156   1.947   3.545  14.113 -0.5048  0.2037  0.7903
  412TMC3    C8 6157   1.764   3.869  14.296 -0.1119 -0.3426  1.0919
  412TMC3    O1 6158   2.018   3.446  14.097  0.0421  0.3081  0.0884
  412TMC3    O2 6159   1.742   3.886  14.175 -0.0759  0.4608  0.6259
  413MPD2     C 6160   0.102   3.168  15.107  0.4634 -0.5983 -0.1518
  413MPD2    C1 6161   4.708   3.108  15.074  0.7450  0.1291 -0.3171
  413MPD2    C2 6162   4.705   2.967  15.055 -0.3331  0.6519  0.0601
  413MPD2    C3 6163   0.095   2.891  15.074 -0.2346 -0.3651 -0.4340
  413MPD2    C4 6164   0.212   2.957  15.103 -0.1173 -0.2866 -0.0971
  413MPD2    C5 6165   0.217   3.093  15.122  0.5022 -0.5094  0.4664
  413MPD2     H 6166   4.616   2.911  15.028 -0.4082  1.5705 -1.6466
  413MPD2    H1 6167   0.299   2.900  15.135  0.7561  1.7603  1.1896
  413MPD2    H2 6168   0.102   3.271  15.141  0.6906 -0.6615  0.0387
  413MPD2    H3 6169   0.302   3.136  15.175 -0.3327  2.7585 -0.8500
  413MPD2     N 6170   0.083   2.755  15.061 -0.2633  0.1508 -0.6083
  413MPD2    H5 6171   4.721   2.709  15.036 -0.0099  1.3123 -3.5451
  413MPD2    N1 6172   4.589   3.190  15.072 -0.3151 -0.4196  0.4632
  413MPD2    H7 6173   4.597   3.291  15.080  0.1061 -0.2566 -2.0093
  414TMC3    C1 6174   0.124   2.517  15.064 -0.0698  0.2350  0.6618
  414TMC3    C2 6175   0.206   2.412  15.092  0.4015 -0.1320 -0.0946
  414TMC3    C3 6176   0.193   2.294  15.025  0.1820 -0.4996 -0.8307
  414TMC3    C4 6177   0.015   2.499  14.974 -0.0330 -0.2424 -0.3574
  414TMC3    C5 6178   4.723   2.372  14.916  0.3633  0.1303  0.2031
  414TMC3    C6 6179   0.082   2.265  14.950  0.0111  0.0805 -0.0937
  414TMC3     C 6180   0.173   2.655  15.095 -0.4490  0.8497  0.4965
  414TMC3     O 6181   0.284   2.672  15.136 -0.1354 -0.1775  0.0739
  414TMC3     H 6182   0.290   2.427  15.160 -0.8655 -1.0695  1.6873
  414TMC3    H1 6183   4.674   2.578  14.938  1.6149  1.4137  0.2413
  414TMC3    H2 6184   0.071   2.162  14.920 -0.5571 -1.1890  4.4435
  414TMC3    C7 6185   4.635   2.369  14.795  0.3928 -0.2405  0.4647
  414TMC3    C8 6186   0.300   2.196  15.012 -0.6493 -0.0219  0.0246
  414TMC3    O1 6187   4.532   2.432  14.810 -0.6103 -0.2083  0.0699
  414TMC3    O2 6188   0.274   2.082  14.968  0.0232  0.1192 -0.0145
  415TMC3    C1 6189   0.591   0.955   9.588  0.7192  0.2379  0.5014
  415TMC3    C2 6190   0.703   0.983   9.518  0.3087  0.5625  0.4813
  415TMC3    C3 6191   0.689   0.947   9.385 -0.7117 -0.1402  0.0357
  415TMC3    C4 6192   0.482   0.890   9.543 -0.4749 -0.3603 -0.2124
  415TMC3    C5 6193   0.479   0.857   9.411 -0.0629  0.0587 -0.7172
  415TMC3    C6 6194   0.588   0.876   9.328  1.4311 -0.0388 -0.1209
  415TMC3     C 6195   0.576   1.011   9.723 -1.0024  0.2043 -0.4427
  415TMC3     O 6196   0.490   0.971   9.797  0.1370  0.1654  0.4630
  415TMC3     H 6197   0.787   1.038   9.558  1.5799  0.1255 -1.6286
  415TMC3    H1 6198   0.401   0.868   9.612 -0.8101  1.9290  0.1297
  415TMC3    H2 6199   0.585   0.861   9.220 -0.1848  0.7419 -0.1690
  415TMC3    C7 6200   0.361   0.794   9.353 -0.2342 -0.0771  0.3496
  415TMC3    C8 6201   0.806   0.946   9.305 -0.0066 -0.1185  0.1112
  415TMC3    O1 6202   0.367   0.757   9.241 -0.5040 -0.4898  0.5173
  415TMC3    O2 6203   0.823   0.851   9.226  0.2055  0.1110  0.5241
  416MPD2     C 6204   1.490   4.544  11.137  0.5298  0.4257 -0.2614
  416MPD2    C1 6205   1.414   4.461  11.222  0.0554  0.5507  0.8186
  416MPD2    C2 6206   1.442   4.328  11.220 -0.3964  0.6803 -0.3094
  416MPD2    C3 6207   1.535   4.275  11.137 -0.3277 -0.1011  0.0144
  416MPD2    C4 6208   1.609   4.358  11.055 -0.3110  0.1246  0.1206
  416MPD2    C5 6209   1.602   4.490  11.075  0.4651 -0.0336  0.1557
  416MPD2     H 6210   1.392   4.262  11.290 -1.9613  1.2761 -0.8782
  416MPD2    H1 6211   1.693   4.332  10.991 -0.1473 -0.3691  0.5413
  416MPD2    H2 6212   1.469   4.650  11.144 -1.3831  0.0550 -0.5562
  416MPD2    H3 6213   1.680   4.552  11.031 -2.2558  3.0431 -0.3136
  416MPD2     N 6214   1.558   4.136  11.120  0.1369  0.4355 -0.0314
  416MPD2    H5 6215   1.623   4.120  11.044  0.8555 -1.5101  1.0082
  416MPD2    N1 6216   1.322   4.524  11.304 -0.0084 -1.0781  0.6272
  416MPD2    H7 6217   1.315   4.623  11.279  0.4577 -0.6952  2.0192
  417TMC3    C1 6218   1.165   4.571  11.460 -0.1881 -0.0472  0.0425
  417TMC3    C2 6219   1.203   4.608  11.591 -0.3964 -0.5637 -0.1604
  417TMC3    C3 6220   1.170   0.004  11.636 -0.4865  0.0173  0.0645
  417TMC3    C4 6221   1.124   4.662  11.367 -0.3057  0.3175 -0.4780
  417TMC3    C5 6222   1.098   0.060  11.422 -0.3892 -0.8807  0.0491
  417TMC3    C6 6223   1.128   0.096  11.552 -0.1299  0.0643 -0.3559
  417TMC3     C 6224   1.245   4.469  11.402  0.1233  0.3643 -1.2012
  417TMC3     O 6225   1.245   4.353  11.449  0.2066 -0.1189  0.2137
  417TMC3     H 6226   1.233   4.541  11.670  0.1969  0.9290  0.8808
  417TMC3    H1 6227   1.098   4.642  11.264  0.9120  2.9484 -1.3138
  417TMC3    H2 6228   1.092   0.189  11.594  1.3569  1.0577 -1.2870
  417TMC3    C7 6229   1.046   0.162  11.334 -0.2015  0.0333  0.1463
  417TMC3    C8 6230   1.200   0.050  11.776  0.1250  0.3985  0.2692
  417TMC3    O1 6231   1.100   0.271  11.329 -0.2519 -0.1955  0.1149
  417TMC3    O2 6232   1.157   0.160  11.804 -0.0092  0.2960  0.0328
  418TMC3    C1 6233   1.019   1.533   0.286 -0.5977 -0.3429  0.5014
  418TMC3    C2 6234   0.898   1.597   0.287  0.1135  0.1630 -0.1078
  418TMC3    C3 6235   0.790   1.533   0.343  0.0905  1.2747 -0.3102
  418TMC3    C4 6236   1.036   1.412   0.346  0.0493 -0.3175 -0.0083
  418TMC3    C5 6237   0.929   1.352   0.413  0.2169  0.2664 -0.6352
  418TMC3    C6 6238   0.810   1.406   0.397  0.2127  0.3229  0.5161
  418TMC3     C 6239   1.110   1.578   0.188 -0.0132  0.3006 -0.5493
  418TMC3     O 6240   1.131   1.699   0.176 -0.4348  0.1148  0.0048
  418TMC3     H 6241   0.897   1.681   0.218  2.0969  0.8497  0.6874
  418TMC3    H1 6242   1.125   1.353   0.327  0.0199 -0.4500  0.2711
  418TMC3    H2 6243   0.719   1.357   0.430 -0.2714  0.3561 -0.7713
  418TMC3    C7 6244   0.926   1.216   0.461 -0.0418  0.2725  0.0163
  418TMC3    C8 6245   0.668   1.543   0.255  0.0070  0.5606 -0.2180
  418TMC3    O1 6246   0.823   1.165   0.477  0.0475 -0.2321  0.2430
  418TMC3    O2 6247   0.600   1.643   0.271 -0.1257  0.3673 -0.1486
  419MPD2     C 6248   3.485   4.153  12.562  0.6284  0.1006  0.0799
  419MPD2    C1 6249   3.469   4.274  12.495  0.0225 -0.5022 -0.3012
  419MPD2    C2 6250   3.523   4.392  12.553  0.1129  0.6417  0.2014
  419MPD2    C3 6251   3.590   4.375  12.674 -1.1497 -0.0320  1.0793
  419MPD2    C4 6252   3.601   4.255  12.741  0.2668  0.5874 -0.1938
  419MPD2    C5 6253   3.540   4.140  12.690 -0.6370 -0.5250 -0.3648
  419MPD2     H 6254   3.510   4.491  12.512 -0.2581  0.9559  1.0745
  419MPD2    H1 6255   3.655   4.243  12.834 -1.1484 -0.9385  0.4279
  419MPD2    H2 6256   3.446   4.063  12.516 -1.5998  1.7733 -1.2643
  419MPD2    H3 6257   3.554   4.043  12.737 -1.9973 -0.0886  0.9469
  419MPD2     N 6258   3.655   4.486  12.735  0.0987  0.5727  0.0135
  419MPD2    H5 6259   3.690   4.479  12.830 -0.9427  3.9812  0.6641
  419MPD2    N1 6260   3.400   4.259  12.365  0.0886  0.2990 -0.2360
  419MPD2    H7 6261   3.366   4.164  12.349 -1.2553  0.7162  0.1034
  420TMC3    C1 6262   3.766   4.693  12.761  0.1150 -0.4524 -0.4080
  420TMC3    C2 6263   3.845   0.065  12.704  0.3226 -0.0693  1.0013
  420TMC3    C3 6264   3.883   0.166  12.776  0.7378  0.2665  0.5296
  420TMC3    C4 6265   3.731   4.687  12.896 -0.3889 -0.0359 -0.1728
  420TMC3    C5 6266   3.764   0.075  12.966 -0.3282 -0.2020  0.1217
  420TMC3    C6 6267   3.846   0.178  12.910  0.7710  0.4091  0.5739
  420TMC3     C 6268   3.693   4.603  12.670 -0.5098 -1.0695  0.4192
  420TMC3     O 6269   3.700   4.629  12.556  0.1312  0.1047  0.1729
  420TMC3     H 6270   3.858   0.065  12.597  1.5530 -0.0722  1.1499
  420TMC3    H1 6271   3.657   4.618  12.937 -0.4704  0.1118 -0.0731
  420TMC3    H2 6272   3.885   0.262  12.966  2.0400 -0.2380  0.6707
  420TMC3    C7 6273   3.703   0.096  13.095 -0.1929  0.1554 -0.2889
  420TMC3    C8 6274   3.888   0.289  12.695  0.5714  0.3603 -1.2308
  420TMC3    O1 6275   3.620   0.014  13.130 -0.0255 -0.3113 -0.3811
  420TMC3    O2 6276   3.809   0.378  12.733 -0.4679  0.3169 -0.5186
  421TMC3    C1 6277   0.679   1.713  13.258  0.5662  0.4634  0.1841
  421TMC3    C2 6278   0.775   1.806  13.286  0.1031 -0.1411 -0.5179
  421TMC3    C3 6279   0.907   1.771  13.255 -0.0647 -0.8346  0.1539
  421TMC3    C4 6280   0.716   1.587  13.216  0.7837  0.6154 -0.4109
  421TMC3    C5 6281   0.846   1.553  13.192  0.0460  0.4383  0.2588
  421TMC3    C6 6282   0.944   1.653  13.195 -0.1001 -0.3697 -0.2934
  421TMC3     C 6283   0.540   1.742  13.299 -0.1451 -0.3428  0.0122
  421TMC3     O 6284   0.520   1.844  13.358 -0.4412  0.5392 -0.0096
  421TMC3     H 6285   0.743   1.903  13.324  3.3218  0.3648  0.8906
  421TMC3    H1 6286   0.656   1.498  13.227  1.2618  0.0858 -2.0442
  421TMC3    H2 6287   1.047   1.620  13.188  0.3456  1.0827 -0.4368
  421TMC3    C7 6288   0.890   1.415  13.178 -0.5857  0.6586 -0.1347
  421TMC3    C8 6289   1.014   1.829  13.336 -0.0111  0.7059  0.3032
  421TMC3    O1 6290   1.010   1.407  13.161  1.1052 -0.1117 -0.2038
  421TMC3    O2 6291   1.127   1.777  13.329  0.0144  0.0559  0.1459
  422TMC3    C1 6292   2.742   2.805  12.533 -0.5750 -0.1666 -0.7211
  422TMC3    C2 6293   2.697   2.934  12.523  0.4545  0.2489  0.5424
  422TMC3    C3 6294   2.566   2.954  12.533 -0.0063 -1.0918 -0.0996
  422TMC3    C4 6295   2.655   2.703  12.568 -0.1143  0.2334 -0.0190
  422TMC3    C5 6296   2.520   2.724  12.581  0.1878  0.7020  0.3727
  422TMC3    C6 6297   2.475   2.851  12.555 -0.3205 -1.0700 -0.2731
  422TMC3     C 6298   2.865   2.776  12.464  0.0431 -0.0736 -0.9182
  422TMC3     O 6299   2.927   2.862  12.408 -0.3625  0.3479 -0.4584
  422TMC3     H 6300   2.764   3.018  12.508  0.4265 -0.0965 -1.5279
  422TMC3    H1 6301   2.683   2.598  12.566 -3.3194 -0.6669  2.1005
  422TMC3    H2 6302   2.374   2.875  12.587  0.6654 -0.1462  2.1116
  422TMC3    C7 6303   2.447   2.601  12.543 -0.5653  0.2587  0.0398
  422TMC3    C8 6304   2.527   3.091  12.517  0.9156  0.0865 -0.1985
  422TMC3    O1 6305   2.506   2.493  12.525  0.7858  0.0304  0.4653
  422TMC3    O2 6306   2.608   3.175  12.553  0.5750  0.1481  0.0437
  423MPD2     C 6307   4.659   4.087   0.375 -0.5084  0.3935 -0.0535
  423MPD2    C1 6308   4.552   3.997   0.382 -0.6398  0.5805  0.2011
  423MPD2    C2 6309   4.530   3.924   0.269 -0.2561  0.6165 -0.3838
  423MPD2    C3 6310   4.601   3.939   0.150 -0.6489  0.0332 -0.3993
  423MPD2    C4 6311   4.688   4.037   0.138 -0.2324 -0.4281  0.2043
  423MPD2    C5 6312   4.716   4.113   0.249 -0.7790 -0.6414 -0.5431
  423MPD2     H 6313   4.461   3.842   0.287  0.8379 -0.7263 -2.3063
  423MPD2    H1 6314   0.020   4.056   0.048 -1.7861  2.3595 -0.2028
  423MPD2    H2 6315   4.691   4.141   0.463 -0.3049 -1.3852  0.9614
  423MPD2    H3 6316   0.062   4.193   0.235 -0.8673 -0.0317  2.3703
  423MPD2     N 6317   4.605   3.846   0.045 -0.1425 -0.0936 -0.0645
  423MPD2    H5 6318   4.661   3.862  17.662  3.4942 -1.3392  2.1849
  423MPD2    N1 6319   4.472   3.973   0.502 -0.3387 -0.5937 -0.2551
  423MPD2    H7 6320   4.393   3.910   0.490 -1.7366  0.8923  1.0908
  424TMC3    C1 6321   4.401   3.971   0.715 -0.2103 -0.9652  0.0934
  424TMC3    C2 6322   4.428   3.905   0.838  0.5743 -0.1334  0.7068
  424TMC3    C3 6323   4.318   3.846   0.900 -0.5976  0.0216 -0.1567
  424TMC3    C4 6324   4.271   3.988   0.674 -0.0185  0.2205 -0.0341
  424TMC3    C5 6325   4.169   3.940   0.749  0.6843  0.1134  0.5543
  424TMC3    C6 6326   4.189   3.865   0.859 -0.7234  0.1880  0.5291
  424TMC3     C 6327   4.510   4.003   0.632  0.2879 -0.8945 -0.0777
  424TMC3     O 6328   4.609   4.052   0.677 -0.7681 -1.1622 -0.3553
  424TMC3     H 6329   4.530   3.886   0.869  0.6288  1.0201  1.2387
  424TMC3    H1 6330   4.246   4.043   0.584  2.9246  1.6113 -0.0150
  424TMC3    H2 6331   4.104   3.811   0.899  0.3725 -0.5929  1.7955
  424TMC3    C7 6332   4.032   3.961   0.701 -0.0370  0.3813  0.7689
  424TMC3    C8 6333   4.341   3.765   1.021 -0.6797 -0.1570 -0.3887
  424TMC3    O1 6334   4.022   3.958   0.580 -0.2675 -0.0878 -0.2930
  424TMC3    O2 6335   4.459   3.721   1.031  0.2982  0.0117 -0.0839
  425MPD2     C 6336   3.694   3.341  17.156  0.5221 -0.0778  0.9853
  425MPD2    C1 6337   3.598   3.264  17.099 -0.6168 -1.4537  0.0038
  425MPD2    C2 6338   3.465   3.284  17.143 -0.3027  0.5399  0.7051
  425MPD2    C3 6339   3.432   3.381  17.238  0.0902  0.2849 -0.6236
  425MPD2    C4 6340   3.536   3.462  17.279 -0.0343  0.5488 -0.3985
  425MPD2    C5 6341   3.667   3.444  17.231 -0.6188 -0.4309 -0.5354
  425MPD2     H 6342   3.392   3.214  17.103 -0.7257  1.5223 -0.2326
  425MPD2    H1 6343   3.532   3.534  17.360  0.2609 -0.0081  0.1093
  425MPD2    H2 6344   3.799   3.315  17.154  0.2974 -0.8978 -0.6405
  425MPD2    H3 6345   3.749   3.498  17.276 -0.2405 -2.3641  1.0817
  425MPD2     N 6346   3.313   3.373  17.312  0.2936  0.6023  0.2702
  425MPD2    H5 6347   3.244   3.303  17.286  1.6917 -0.6624 -0.0232
  425MPD2    N1 6348   3.632   3.150  17.012 -0.4463 -0.2610  0.5776
  425MPD2    H7 6349   3.732   3.143  17.001 -0.3979  1.6011 -0.1821
  426TMC3    C1 6350   3.606   2.955  16.898  0.2078  0.4197 -0.1055
  426TMC3    C2 6351   3.556   2.892  16.784  0.8963 -0.2465 -0.2693
  426TMC3    C3 6352   3.630   2.789  16.727  0.6454  0.4673  0.3485
  426TMC3    C4 6353   3.723   2.910  16.955 -0.3066 -0.2675  0.6314
  426TMC3    C5 6354   3.798   2.816  16.888 -1.6076  0.3926 -0.1030
  426TMC3    C6 6355   3.750   2.754  16.774  0.0779  0.2640 -0.4507
  426TMC3     C 6356   3.545   3.074  16.937 -0.4496  0.3492 -1.5933
  426TMC3     O 6357   3.429   3.096  16.908  0.0908  0.3630 -0.2079
  426TMC3     H 6358   3.470   2.930  16.728 -0.4122  1.5982  3.0096
  426TMC3    H1 6359   3.730   2.944  17.057 -3.9628  1.0031  0.4701
  426TMC3    H2 6360   3.793   2.657  16.751  1.2651  1.0084 -1.3822
  426TMC3    C7 6361   3.840   2.712  16.984 -0.1492  0.3037  0.3843
  426TMC3    C8 6362   3.561   2.680  16.654 -0.0312 -0.5157  0.4378
  426TMC3    O1 6363   3.920   2.629  16.940  0.7317 -0.1851  0.3249
  426TMC3    O2 6364   3.628   2.609  16.586 -0.1718  0.3174 -0.0986
  427MPD2     C 6365   1.436   4.228  14.744  0.5295  0.2605  0.8562
  427MPD2    C1 6366   1.506   4.310  14.827 -0.0363 -0.3440  0.6168
  427MPD2    C2 6367   1.461   4.445  14.828  0.1950 -0.3406 -0.6152
  427MPD2    C3 6368   1.367   4.495  14.737 -0.8907  0.3634 -0.3415
  427MPD2    C4 6369   1.298   4.409  14.658 -0.3524  0.0523  0.4373
  427MPD2    C5 6370   1.340   4.279  14.654  0.2539 -0.1659 -0.3663
  427MPD2     H 6371   1.508   4.511  14.900 -1.0162 -0.4816  0.2961
  427MPD2    H1 6372   1.222   4.449  14.592  0.2525  0.6743  0.1170
  427MPD2    H2 6373   1.453   4.121  14.738  1.7691  0.4698  0.5251
  427MPD2    H3 6374   1.289   4.199  14.602 -0.9289 -0.7211  1.6544
  427MPD2     N 6375   1.321   4.631  14.732  0.1572  0.4282 -0.4023
  427MPD2    H5 6376   1.228   4.644  14.694 -0.9213  0.6826  2.3202
  427MPD2    N1 6377   1.611   4.270  14.918  0.3241  0.4919  0.4181
  427MPD2    H7 6378   1.645   4.346  14.975 -2.4192  0.5887  1.9238
  428TMC3    C1 6379   1.782   4.139  15.002 -0.1878  0.0573  0.1915
  428TMC3    C2 6380   1.811   4.024  15.064  0.1823  0.4820  0.2507
  428TMC3    C3 6381   1.943   3.996  15.089 -0.7185 -0.5374  0.2016
  428TMC3    C4 6382   1.878   4.239  14.989 -0.3037 -0.5411 -0.5108
  428TMC3    C5 6383   2.002   4.211  15.026  0.3155 -0.7584 -0.4775
  428TMC3    C6 6384   2.036   4.093  15.083 -0.6489 -0.4456 -0.3195
  428TMC3     C 6385   1.656   4.143  14.932 -0.4054  0.6786 -0.3687
  428TMC3     O 6386   1.609   4.040  14.888  0.3945  0.7639  0.9220
  428TMC3     H 6387   1.734   3.948  15.074  0.1968  0.3300 -0.7594
  428TMC3    H1 6388   1.839   4.335  14.956 -0.1622  0.4846  2.2952
  428TMC3    H2 6389   2.138   4.068  15.110 -0.8850 -0.1358  0.8533
  428TMC3    C7 6390   2.107   4.309  15.019  0.1398 -0.1841 -0.3535
  428TMC3    C8 6391   1.953   3.889  15.190 -0.2465  0.1701 -1.6063
  428TMC3    O1 6392   2.213   4.283  15.077  0.3733 -1.1483  0.2457
  428TMC3    O2 6393   1.854   3.854  15.251 -0.1427  0.5693  0.0527
  429MPD2     C 6394   2.789   0.809  17.030 -0.4149  0.5701  0.2260
  429MPD2    C1 6395   2.774   0.705  16.937 -0.0250  1.0152 -0.1454
  429MPD2    C2 6396   2.838   0.706  16.818 -0.4906 -0.5881  0.6014
  429MPD2    C3 6397   2.931   0.799  16.786  0.4052 -0.2550 -0.7006
  429MPD2    C4 6398   2.941   0.899  16.873  0.0074 -0.5972  0.1035
  429MPD2    C5 6399   2.876   0.908  16.995  0.7573 -1.0317 -0.4702
  429MPD2     H 6400   2.823   0.618  16.757 -0.9546 -0.3997  0.4482
  429MPD2    H1 6401   3.009   0.979  16.845 -2.4510  1.2846 -0.4740
  429MPD2    H2 6402   2.738   0.802  17.125  0.6090 -1.2724  0.6552
  429MPD2    H3 6403   2.889   0.995  17.059 -0.4175 -0.9409 -0.3667
  429MPD2     N 6404   3.004   0.787  16.668 -0.7696 -0.3483 -0.6476
  429MPD2    H5 6405   2.984   0.710  16.604  1.8126 -0.3307 -1.4691
  429MPD2    N1 6406   2.695   0.594  16.965  0.3760  0.0936  0.0971
  429MPD2    H7 6407   2.687   0.521  16.895 -2.0390 -0.1622  0.6274
  430TMC3    C1 6408   3.195   0.787  16.533 -0.6346 -0.4992 -0.8649
  430TMC3    C2 6409   3.110   0.737  16.437 -0.9210 -0.3127 -0.0446
  430TMC3    C3 6410   3.176   0.647  16.350  0.9291 -0.5621  0.1424
  430TMC3    C4 6411   3.331   0.757  16.547 -0.4531 -0.5177 -0.5030
  430TMC3    C5 6412   3.380   0.653  16.472 -0.2746 -0.3020  0.1555
  430TMC3    C6 6413   3.305   0.600  16.371  0.5284  0.1921 -0.4829
  430TMC3     C 6414   3.125   0.853  16.639 -0.6388  0.2559 -0.0490
  430TMC3     O 6415   3.195   0.907  16.720 -0.2760 -0.5177 -0.0757
  430TMC3     H 6416   3.016   0.784  16.415 -0.3909  0.6740 -0.2025
  430TMC3    H1 6417   3.392   0.799  16.626 -0.1230  1.8871 -2.0427
  430TMC3    H2 6418   3.342   0.514  16.317 -0.5853  1.1629 -2.8312
  430TMC3    C7 6419   3.516   0.595  16.491  0.0060  0.2983 -0.0205
  430TMC3    C8 6420   3.104   0.615  16.230  0.1036 -0.1976  0.2439
  430TMC3    O1 6421   3.537   0.491  16.421  0.4351  0.0922 -0.4216
  430TMC3    O2 6422   2.985   0.596  16.245  0.5727 -0.2525  0.5234
  431MPD2     C 6423   4.202   4.641  12.440 -0.4658  0.3203 -0.7645
  431MPD2    C1 6424   4.156   4.711  12.325  0.3828 -0.3627 -0.2584
  431MPD2    C2 6425   4.028   4.679  12.290  0.0088  0.2395  0.3842
  431MPD2    C3 6426   3.945   4.583  12.351 -0.0109 -0.8333 -0.0906
  431MPD2    C4 6427   3.994   4.522  12.462  0.2535  0.3275  0.8685
  431MPD2    C5 6428   4.117   4.559  12.512 -1.0975 -0.4524 -0.7106
  431MPD2     H 6429   3.990   0.011  12.207 -3.2050 -0.5659  1.3126
  431MPD2    H1 6430   3.950   4.438  12.515 -1.2453 -0.3925 -1.5410
  431MPD2    H2 6431   4.298   4.671  12.481 -0.6452 -1.2098  0.7925
  431MPD2    H3 6432   4.165   4.509  12.595 -1.0397  0.4576 -0.1964
  431MPD2     N 6433   3.817   4.554  12.306 -0.0345 -0.1488 -0.1165
  431MPD2    H5 6434   3.764   4.498  12.372 -0.3206 -0.9237 -0.9961
  431MPD2    N1 6435   4.240   0.089  12.260 -0.1949 -0.1741 -0.0728
  431MPD2    H7 6436   4.206   0.122  12.170  3.4541 -0.1418 -1.4345
  432TMC3    C1 6437   3.622   4.582  12.189  0.2251  0.0591 -0.0280
  432TMC3    C2 6438   3.560   4.667  12.110  0.6157 -0.3477  0.0930
  432TMC3    C3 6439   3.426   4.657  12.102  0.1930  0.0695 -0.4994
  432TMC3    C4 6440   3.558   4.481  12.259 -0.1615 -0.0209  0.2098
  432TMC3    C5 6441   3.421   4.484  12.275 -0.3961 -0.2933 -0.0089
  432TMC3    C6 6442   3.355   4.570  12.189  0.1134 -0.3715 -0.0249
  432TMC3     C 6443   3.763   4.591  12.186 -0.0858  0.0898  0.3339
  432TMC3     O 6444   3.813   4.640  12.085  0.1082 -0.2355  0.3276
  432TMC3     H 6445   3.619   0.020  12.062 -2.0642  1.6550  0.0768
  432TMC3    H1 6446   3.612   4.409  12.319  0.2064  1.3583  1.5394
  432TMC3    H2 6447   3.247   4.571  12.195  0.2893  1.2343  2.8380
  432TMC3    C7 6448   3.360   4.354  12.277  0.4585  0.3689 -0.7130
  432TMC3    C8 6449   3.386   4.646  11.965 -0.1815  0.7991 -0.2227
  432TMC3    O1 6450   3.280   4.338  12.188 -0.4492 -0.3166  0.4445
  432TMC3    O2 6451   3.268   4.642  11.930 -0.0932  0.4110  0.1885
  433MPD2     C 6452   2.540   4.025  10.713  0.3154  0.6085 -0.3713
  433MPD2    C1 6453   2.597   3.922  10.786 -0.4566  0.3902  0.3825
  433MPD2    C2 6454   2.659   3.961  10.904  0.3196  0.4616 -0.2159
  433MPD2    C3 6455   2.654   4.082  10.960  0.1695  0.0162 -0.2508
  433MPD2    C4 6456   2.589   4.183  10.884 -0.0499 -0.2615  0.2800
  433MPD2    C5 6457   2.530   4.152  10.764  1.0326 -0.3526  0.3534
  433MPD2     H 6458   2.715   3.882  10.953 -1.1738 -1.8492 -2.1801
  433MPD2    H1 6459   2.583   4.286  10.916 -0.0617 -0.1896  0.0445
  433MPD2    H2 6460   2.502   4.010  10.613  1.3077 -1.0707 -0.5061
  433MPD2    H3 6461   2.490   4.230  10.700 -0.3169  0.3159  2.0331
  433MPD2     N 6462   2.700   4.098  11.096 -0.0294 -0.2487 -0.0202
  433MPD2    H5 6463   2.739   4.013  11.136 -0.0355 -0.5199 -0.5881
  433MPD2    N1 6464   2.603   3.783  10.742  0.0991  0.1248 -0.3211
  433MPD2    H7 6465   2.648   3.720  10.808 -1.6131 -1.2209 -0.4445
  434TMC3    C1 6466   2.612   3.610  10.574 -0.0315 -0.8886 -0.2828
  434TMC3    C2 6467   2.653   3.518  10.666 -0.2769 -0.6977  0.1200
  434TMC3    C3 6468   2.706   3.399  10.622 -0.5098  0.1101  0.2563
  434TMC3    C4 6469   2.615   3.584  10.441 -0.0076 -0.0637 -0.2582
  434TMC3    C5 6470   2.666   3.461  10.398  0.2359 -0.8021  0.0577
  434TMC3    C6 6471   2.720   3.375  10.489 -0.2184 -0.1110 -0.6987
  434TMC3     C 6472   2.564   3.739  10.615 -0.1965 -0.6724 -0.4367
  434TMC3     O 6473   2.489   3.796  10.538 -0.2036 -0.3897 -0.1249
  434TMC3     H 6474   2.619   3.532  10.768 -1.5052 -0.3561 -0.3342
  434TMC3    H1 6475   2.573   3.649  10.365 -1.3978  2.2643  2.4967
  434TMC3    H2 6476   2.768   3.288  10.445 -2.9650 -1.8468 -0.2515
  434TMC3    C7 6477   2.637   3.425  10.263 -0.5355  0.6062  0.0665
  434TMC3    C8 6478   2.760   3.301  10.721 -0.2823 -0.5376  0.1539
  434TMC3    O1 6479   2.596   3.513  10.186 -0.0784  0.3799  0.4306
  434TMC3    O2 6480   2.768   3.359  10.827 -0.5890  1.2601  0.1123
  435MPD2     C 6481   0.150   3.484  15.009 -0.2494  0.6932 -1.0998
  435MPD2    C1 6482   0.126   3.518  15.142  0.1928  0.3543  0.3370
  435MPD2    C2 6483   0.237   3.528  15.230 -0.1033 -1.0637 -0.4056
  435MPD2    C3 6484   0.364   3.505  15.185 -0.3295  0.9307 -0.2615
  435MPD2    C4 6485   0.384   3.489  15.052  1.2477  0.1720 -0.0728
  435MPD2    C5 6486   0.282   3.481  14.966 -0.0416  0.6307  0.1420
  435MPD2     H 6487   0.212   3.557  15.332  0.0821  2.9956 -1.4893
  435MPD2    H1 6488   0.482   3.482  15.007 -0.0231  1.3068 -3.0455
  435MPD2    H2 6489   0.076   3.474  14.931  0.7601  0.7899 -2.0709
  435MPD2    H3 6490   0.303   3.482  14.860 -1.0548 -0.1337 -0.0630
  435MPD2     N 6491   0.465   3.503  15.285  0.1434  0.0381 -0.3993
  435MPD2    H5 6492   0.436   3.514  15.381 -1.6046 -0.1741 -0.9097
  435MPD2    N1 6493   4.722   3.550  15.197  0.3718 -0.4245  0.1675
  435MPD2    H7 6494   4.724   3.588  15.291 -1.7289 -0.8581  0.3858
  436TMC3    C1 6495   4.365   3.679  15.360  0.0241  0.1439  0.1909
  436TMC3    C2 6496   4.482   3.634  15.309  0.6347  0.2717 -0.0977
  436TMC3    C3 6497   4.494   3.618  15.175  0.4883  0.3802  0.0047
  436TMC3    C4 6498   4.263   3.691  15.278  0.7123 -0.7364 -0.1398
  436TMC3    C5 6499   4.269   3.662  15.148 -0.4262 -0.1413  0.1948
  436TMC3    C6 6500   4.389   3.637  15.091  0.0913  0.6659 -0.2406
  436TMC3     C 6501   4.364   3.711  15.496 -0.1619  0.4168 -0.2917
  436TMC3     O 6502   4.436   3.641  15.563  0.4743  0.3821  0.5363
  436TMC3     H 6503   4.566   3.611  15.373  1.1040 -1.6392 -1.3969
  436TMC3    H1 6504   4.166   3.720  15.316 -0.2453 -0.5060 -2.7382
  436TMC3    H2 6505   4.410   3.629  14.985 -0.7804 -0.0550 -0.3525
  436TMC3    C7 6506   4.153   3.676  15.063 -0.1039 -0.7272  0.1254
  436TMC3    C8 6507   4.606   3.554  15.116  0.5062  0.7627 -0.4956
  436TMC3    O1 6508   4.047   3.650  15.115 -0.4730 -0.5728 -0.2907
  436TMC3    O2 6509   4.588   3.481  15.018 -0.0925  0.3501  0.6413
  437TMC3    C1 6510   3.343   1.197  12.444  1.0402 -0.1137  0.4489
  437TMC3    C2 6511   3.329   1.255  12.565 -0.2136 -0.0217  0.1212
  437TMC3    C3 6512   3.274   1.380  12.563 -0.5366  0.4467  0.3251
  437TMC3    C4 6513   3.305   1.251  12.325 -0.1522  0.4884  0.4987
  437TMC3    C5 6514   3.259   1.379  12.325 -0.2318  0.0689  0.3593
  437TMC3    C6 6515   3.237   1.444  12.446 -0.2609  0.4869  0.1491
  437TMC3     C 6516   3.440   1.089  12.432 -0.2993 -0.2270  0.4849
  437TMC3     O 6517   3.493   1.061  12.325 -0.0913  1.0337  0.4613
  437TMC3     H 6518   3.355   1.206  12.658 -0.0058  1.6160  0.9257
  437TMC3    H1 6519   3.305   1.197  12.232  1.7915  1.7665 -0.2458
  437TMC3    H2 6520   3.201   1.546  12.438 -0.8633  0.2505 -0.2144
  437TMC3    C7 6521   3.308   1.462  12.212  0.2758  0.0486  0.8266
  437TMC3    C8 6522   3.223   1.426  12.687 -1.0811  0.4438 -0.8732
  437TMC3    O1 6523   3.303   1.583  12.225  0.2663 -0.0477 -0.0942
  437TMC3    O2 6524   3.271   1.374  12.785  0.2423  0.1055  0.2354
  438MPD2     C 6525   1.060   1.925  16.703  0.5553  0.2216  0.5625
  438MPD2    C1 6526   1.154   1.824  16.698  0.0631 -0.1026  0.1051
  438MPD2    C2 6527   1.152   1.728  16.789 -0.1751 -0.2412  0.5893
  438MPD2    C3 6528   1.048   1.718  16.884 -0.0566 -0.4624 -0.5311
  438MPD2    C4 6529   0.945   1.819  16.886  0.0074 -0.2709 -0.4563
  438MPD2    C5 6530   0.952   1.916  16.790 -0.2194  0.3730  0.3302
  438MPD2     H 6531   1.233   1.656  16.789 -0.2997 -0.3872 -0.3511
  438MPD2    H1 6532   0.869   1.816  16.962  0.5187 -2.8010 -0.0334
  438MPD2    H2 6533   1.074   2.015  16.645 -0.1764  1.4134  2.2313
  438MPD2    H3 6534   0.891   2.006  16.790  0.6843  0.9790  1.2383
  438MPD2     N 6535   1.033   1.614  16.976  0.3055  0.2254 -0.5143
  438MPD2    H5 6536   0.953   1.616  17.038  1.1593 -1.5141  0.6274
  438MPD2    N1 6537   1.257   1.812  16.604 -0.7071  0.1896  0.5402
  438MPD2    H7 6538   1.314   1.728  16.600 -0.1570  0.4557  2.6305
  439TMC3    C1 6539   1.368   1.830  16.415  0.5460  0.0881 -0.0474
  439TMC3    C2 6540   1.378   1.859  16.281 -0.9544  0.5074  0.0950
  439TMC3    C3 6541   1.494   1.837  16.213  0.1041 -0.0514  0.2207
  439TMC3    C4 6542   1.477   1.785  16.484 -0.4229 -0.4919 -0.3696
  439TMC3    C5 6543   1.593   1.772  16.412 -0.2605  0.3494  0.2909
  439TMC3    C6 6544   1.607   1.793  16.280  0.7079  0.0389  1.0048
  439TMC3     C 6545   1.267   1.894  16.493  0.1311 -0.1158 -0.1509
  439TMC3     O 6546   1.192   1.985  16.458  0.3409  0.2516 -0.9837
  439TMC3     H 6547   1.300   1.916  16.232 -0.5778  1.7867  0.9920
  439TMC3    H1 6548   1.488   1.799  16.591  3.7947 -1.0399 -0.7417
  439TMC3    H2 6549   1.704   1.767  16.240 -0.1272  0.9720 -1.6258
  439TMC3    C7 6550   1.715   1.786  16.491  0.4959 -0.5057 -0.0006
  439TMC3    C8 6551   1.475   1.807  16.071  0.3750  0.7706  0.2028
  439TMC3    O1 6552   1.715   1.747  16.609  0.2978 -0.3530 -0.1119
  439TMC3    O2 6553   1.385   1.857  16.003  0.3133 -0.1839  0.5021
  440MPD2     C 6554   0.040   1.754  14.635 -0.4918 -0.0681 -0.2166
  440MPD2    C1 6555   0.125   1.817  14.724 -0.2353 -0.0140  0.3120
  440MPD2    C2 6556   0.263   1.811  14.697  0.5142  0.0857 -0.1254
  440MPD2    C3 6557   0.316   1.737  14.599 -0.5768  0.1766  0.5456
  440MPD2    C4 6558   0.234   1.670  14.513 -0.3303 -0.3427  0.7072
  440MPD2    C5 6559   0.099   1.679  14.532 -0.2473  0.1945 -0.1395
  440MPD2     H 6560   0.332   1.864  14.761  0.2920 -0.8516  0.8846
  440MPD2    H1 6561   0.264   1.600  14.436 -0.1074  0.5752 -0.0391
  440MPD2    H2 6562   4.657   1.744  14.651 -0.5760  2.2073  0.6281
  440MPD2    H3 6563   0.028   1.628  14.469  0.1515 -1.9441  1.1508
  440MPD2     N 6564   0.450   1.707  14.581  0.2004  0.5299 -0.7297
  440MPD2    H5 6565   0.471   1.624  14.526 -1.4658  0.2720 -0.9563
  440MPD2    N1 6566   0.079   1.883  14.843 -0.0990 -0.5343 -0.5150
  440MPD2    H7 6567   0.147   1.938  14.895  0.7277 -1.4241 -0.6439
  441TMC3    C1 6568   0.660   1.680  14.651  0.5164  0.9818 -0.6432
  441TMC3    C2 6569   0.764   1.750  14.703 -0.2869 -0.0565 -0.2307
  441TMC3    C3 6570   0.825   1.712  14.817 -0.1592  0.4750 -0.2379
  441TMC3    C4 6571   0.620   1.560  14.705  0.6882 -0.1250  0.3876
  441TMC3    C5 6572   0.662   1.535  14.831 -0.0597  0.0054  0.0006
  441TMC3    C6 6573   0.774   1.598  14.888  0.2430  0.6707 -0.4984
  441TMC3     C 6574   0.547   1.762  14.648 -0.1664 -0.5244  0.3252
  441TMC3     O 6575   0.554   1.873  14.698  0.3625 -0.7129  0.7045
  441TMC3     H 6576   0.790   1.845  14.656 -1.6350 -0.0061 -0.8592
  441TMC3    H1 6577   0.562   1.489  14.648  1.2458 -0.5323  0.3274
  441TMC3    H2 6578   0.807   1.590  14.991 -0.8210 -0.4588 -0.2525
  441TMC3    C7 6579   0.554   1.497  14.920 -0.8155 -0.0687  0.3623
  441TMC3    C8 6580   0.843   1.824  14.902  0.1976 -0.2911  0.0277
  441TMC3    O1 6581   0.598   1.498  15.034  0.3820 -0.1664  0.1687
  441TMC3    O2 6582   0.939   1.843  14.972  0.5240  0.1978 -0.5272
  442MPD2     C 6583   3.127   2.690  16.334  0.4410 -0.0363 -0.2065
  442MPD2    C1 6584   2.994   2.707  16.304 -0.3790  0.4199  0.0837
  442MPD2    C2 6585   2.942   2.630  16.204 -0.7194 -0.1339  0.1889
  442MPD2    C3 6586   3.008   2.532  16.133  0.3067  0.2610  0.0731
  442MPD2    C4 6587   3.145   2.507  16.172 -0.1095 -0.2819  0.1885
  442MPD2    C5 6588   3.200   2.591  16.270  0.5581  0.1353  0.5403
  442MPD2     H 6589   2.837   2.649  16.185 -1.1886 -1.6086  1.2830
  442MPD2    H1 6590   3.196   2.425  16.122  0.5363  1.3074 -1.7619
  442MPD2    H2 6591   3.179   2.743  16.413 -2.7727  0.8541  1.3049
  442MPD2    H3 6592   3.302   2.573  16.301  0.8280 -0.0618 -0.4473
  442MPD2     N 6593   2.954   2.440  16.036  0.0475  0.2620  0.3698
  442MPD2    H5 6594   3.020   2.377  15.993 -2.3546 -1.0763 -1.2894
  442MPD2    N1 6595   2.912   2.801  16.368  0.4435  0.3336  0.8094
  442MPD2    H7 6596   2.815   2.800  16.337  0.9495 -0.3349 -0.7283
  443TMC3    C1 6597   2.861   2.991  16.488 -0.3814  0.1674  0.1840
  443TMC3    C2 6598   2.799   3.035  16.375 -0.2871  0.1058 -0.0140
  443TMC3    C3 6599   2.673   3.085  16.374 -0.1817 -0.1778  0.2476
  443TMC3    C4 6600   2.788   2.988  16.604  0.8999 -0.2998  0.4186
  443TMC3    C5 6601   2.660   3.031  16.600 -0.3126 -0.8634 -0.0475
  443TMC3    C6 6602   2.603   3.079  16.489 -0.3441  0.5690 -0.0990
  443TMC3     C 6603   2.952   2.885  16.468 -0.0132 -0.1047 -0.5795
  443TMC3     O 6604   3.051   2.877  16.540  0.0655 -0.6889  0.4722
  443TMC3     H 6605   2.862   3.041  16.287 -0.8617  0.8297 -0.3858
  443TMC3    H1 6606   2.833   2.947  16.694  1.4369 -0.3402  0.1349
  443TMC3    H2 6607   2.498   3.106  16.483 -0.0062  2.5788  3.4132
  443TMC3    C7 6608   2.566   2.943  16.663  0.9505 -0.6069 -0.0791
  443TMC3    C8 6609   2.590   3.098  16.253  0.1579  0.5524  0.1186
  443TMC3    O1 6610   2.456   2.914  16.613  0.2200 -0.7930  0.1717
  443TMC3    O2 6611   2.469   3.075  16.263 -0.2194 -0.1641 -0.0033
  444MPD2     C 6612   3.344   2.420  16.994  0.1215  0.3345 -0.6100
  444MPD2    C1 6613   3.297   2.312  17.073 -0.0491 -0.7744 -0.0785
  444MPD2    C2 6614   3.387   2.210  17.104 -0.9087 -0.0915  0.1157
  444MPD2    C3 6615   3.518   2.223  17.062 -0.2191 -0.3753 -0.0668
  444MPD2    C4 6616   3.563   2.329  16.986  0.0457 -0.5768 -0.5940
  444MPD2    C5 6617   3.470   2.419  16.938  0.3444 -0.1141 -0.7131
  444MPD2     H 6618   3.358   2.118  17.156 -0.4715 -0.1680  0.2202
  444MPD2    H1 6619   3.664   2.348  16.953 -0.5925 -0.3148 -2.4325
  444MPD2    H2 6620   3.277   2.501  16.967  2.9708  2.5186 -1.0575
  444MPD2    H3 6621   3.516   2.499  16.883 -0.9069  1.2543  0.2388
  444MPD2     N 6622   3.603   2.115  17.094 -0.7535 -0.1638  0.5143
  444MPD2    H5 6623   3.567   2.035  17.145 -1.4545 -1.0529 -1.4047
  444MPD2    N1 6624   3.166   2.301  17.111 -0.6753  0.4553 -0.6520
  444MPD2    H7 6625   3.135   2.215  17.156  0.3898  0.0037 -0.7896
  445TMC3    C1 6626   3.805   1.993  17.115 -0.0602 -0.3301 -0.4712
  445TMC3    C2 6627   3.731   1.907  17.203  0.1022  0.8263 -0.2872
  445TMC3    C3 6628   3.771   1.780  17.205 -0.3400  0.4325 -0.0549
  445TMC3    C4 6629   3.889   1.945  17.027 -0.3512  0.0699  0.0870
  445TMC3    C5 6630   3.920   1.813  17.031 -0.2584  0.0840 -0.0253
  445TMC3    C6 6631   3.863   1.726  17.118  0.2274  0.1625  0.0710
  445TMC3     C 6632   3.731   2.105  17.050  0.3462  0.7176  0.0333
  445TMC3     O 6633   3.802   2.172  16.977  0.0794 -0.9482  0.1045
  445TMC3     H 6634   3.671   1.951  17.281  0.7763  1.9868 -0.4183
  445TMC3    H1 6635   3.931   1.996  16.942 -0.2779 -1.0398 -0.5429
  445TMC3    H2 6636   3.880   1.620  17.107 -0.1007  0.0328  0.8603
  445TMC3    C7 6637   4.013   1.761  16.927 -0.0106  0.8271  0.0818
  445TMC3    C8 6638   3.722   1.693  17.308  0.5791  0.5700 -0.2834
  445TMC3    O1 6639   4.011   1.815  16.816  0.9107 -0.4063 -0.1358
  445TMC3    O2 6640   3.683   1.745  17.415  0.1755 -0.7729  0.3227
  446MPD2     C 6641   2.768   3.048  11.265 -0.3039  0.2957  0.6816
  446MPD2    C1 6642   2.717   3.089  11.143  0.3176  0.5353 -0.0904
  446MPD2    C2 6643   2.743   3.213  11.096 -0.7303 -0.1466  0.5757
  446MPD2    C3 6644   2.817   3.304  11.165 -0.0689 -0.2240  0.0306
  446MPD2    C4 6645   2.858   3.269  11.292  0.1919 -0.3942 -0.7005
  446MPD2    C5 6646   2.829   3.147  11.340  0.4172  0.2375  0.2314
  446MPD2     H 6647   2.702   3.241  10.999  1.0855 -0.3806 -0.2740
  446MPD2    H1 6648   2.916   3.331  11.361 -0.1781 -0.5072 -0.2905
  446MPD2    H2 6649   2.759   2.948  11.306  0.8816 -0.4612 -0.9073
  446MPD2    H3 6650   2.868   3.126  11.439 -0.7375  1.0140  0.8468
  446MPD2     N 6651   2.855   3.426  11.098 -0.1381  0.2065 -0.2223
  446MPD2    H5 6652   2.802   3.451  11.015  3.2199 -2.5960 -3.1702
  446MPD2    N1 6653   2.648   2.998  11.060  0.4816  0.7314  0.0099
  446MPD2    H7 6654   2.617   3.035  10.971 -0.9122  2.0629  1.0581
  447TMC3    C1 6655   2.942   3.640  11.054  0.6398 -0.3540  0.2132
  447TMC3    C2 6656   2.943   3.623  10.921 -0.2731 -0.1126 -0.7112
  447TMC3    C3 6657   3.003   3.716  10.844 -0.4558 -0.3401  0.3592
  447TMC3    C4 6658   3.007   3.755  11.100  0.7012  0.7224 -0.1028
  447TMC3    C5 6659   3.078   3.844  11.023  0.0342 -0.5763  0.5785
  447TMC3    C6 6660   3.073   3.825  10.888 -0.0390 -0.0524  0.5547
  447TMC3     C 6661   2.939   3.528  11.142  0.6008 -0.0451 -0.0372
  447TMC3     O 6662   3.000   3.524  11.248 -0.2426  0.1077  0.4315
  447TMC3     H 6663   2.893   3.538  10.876 -2.6464 -0.2232  2.1569
  447TMC3    H1 6664   3.005   3.763  11.208 -1.8237  1.7864 -0.2187
  447TMC3    H2 6665   3.131   3.885  10.819  0.1727  1.2963  1.9196
  447TMC3    C7 6666   3.216   3.831  11.056  0.1641  0.0456  0.2253
  447TMC3    C8 6667   3.014   3.691  10.700 -0.2883  0.2435  0.3173
  447TMC3    O1 6668   3.277   3.764  10.970  0.1999 -0.1170 -0.5739
  447TMC3    O2 6669   3.006   3.781  10.619  0.1417  0.3051  0.6861
  448TMC3    C1 6670   0.730   3.728  16.941 -0.0622  0.1209 -0.1481
  448TMC3    C2 6671   0.728   3.591  16.920  0.1547 -0.1407  0.0835
  448TMC3    C3 6672   0.838   3.520  16.970  0.1022 -0.3525  0.2431
  448TMC3    C4 6673   0.828   3.788  17.021 -0.1446 -0.1952 -0.3651
  448TMC3    C5 6674   0.937   3.711  17.062 -0.1032  0.7476  0.4589
  448TMC3    C6 6675   0.943   3.572  17.038  0.0341 -0.3528  0.1652
  448TMC3     C 6676   0.615   3.811  16.930  0.0781 -0.1730  0.0268
  448TMC3     O 6677   0.579   3.894  17.015 -0.1203  0.2053 -0.1034
  448TMC3     H 6678   0.649   3.542  16.864 -0.9302 -1.2372  2.6170
  448TMC3    H1 6679   0.827   3.895  17.032  1.8268 -0.1594 -0.4858
  448TMC3    H2 6680   1.022   3.502  17.059  0.1182  0.4307  2.4778
  448TMC3    C7 6681   1.018   3.781  17.150 -0.0539 -0.7649 -0.8160
  448TMC3    C8 6682   0.856   3.387  16.935 -0.4289 -0.2291 -0.1450
  448TMC3    O1 6683   0.974   3.882  17.206 -0.0345  0.2309  0.1369
  448TMC3    O2 6684   0.969   3.336  16.936 -0.3972  0.2617  0.4019
  449MPD2     C 6685   3.127   1.684  14.321  0.0320  0.4576 -0.5100
  449MPD2    C1 6686   3.045   1.662  14.220  0.9418 -0.2632  0.1192
  449MPD2    C2 6687   2.989   1.541  14.193  0.4405 -0.0436 -0.3986
  449MPD2    C3 6688   3.014   1.439  14.280  0.0195  0.2579  0.1133
  449MPD2    C4 6689   3.103   1.456  14.389 -0.4091 -0.2876  0.6452
  449MPD2    C5 6690   3.156   1.582  14.411  0.5118 -0.3621  0.2905
  449MPD2     H 6691   2.930   1.526  14.103 -2.1887 -1.5558  1.5537
  449MPD2    H1 6692   3.124   1.379  14.462  2.2005 -1.2092 -1.1182
  449MPD2    H2 6693   3.176   1.780  14.334 -1.9224  1.0872  2.1946
  449MPD2    H3 6694   3.230   1.598  14.489 -0.3114 -0.4471  1.0971
  449MPD2     N 6695   2.956   1.314  14.247  0.4356 -0.7746  0.2463
  449MPD2    H5 6696   2.902   1.309  14.161  2.3321 -0.2036 -0.9839
  449MPD2    N1 6697   3.019   1.757  14.119  0.0761  0.3794  0.8174
  449MPD2    H7 6698   2.951   1.728  14.049  0.3450 -1.1789  1.1954
  450TMC3    C1 6699   3.021   1.939  13.988  0.0254 -0.3342 -0.3803
  450TMC3    C2 6700   3.106   1.954  13.880  0.3147  0.0044  0.5052
  450TMC3    C3 6701   3.055   1.938  13.758  0.3544  0.1525 -0.5545
  450TMC3    C4 6702   2.897   1.891  13.962 -0.1472  0.6673 -0.0683
  450TMC3    C5 6703   2.859   1.849  13.832 -0.2720  0.4845 -0.2453
  450TMC3    C6 6704   2.941   1.873  13.730  0.0417  0.1504 -0.3015
  450TMC3     C 6705   3.069   1.883  14.113 -0.5787 -0.1592 -0.0392
  450TMC3     O 6706   3.170   1.932  14.169  0.4722  0.2986 -0.0462
  450TMC3     H 6707   3.202   1.997  13.908  0.9595 -0.6289 -0.7592
  450TMC3    H1 6708   2.816   1.896  14.034 -0.2372 -0.3713 -0.0929
  450TMC3    H2 6709   2.909   1.839  13.632  1.9200  1.3105 -1.3125
  450TMC3    C7 6710   2.769   1.732  13.829  0.2204  0.7688 -0.1817
  450TMC3    C8 6711   3.138   1.962  13.634 -0.4539 -0.1360  0.2348
  450TMC3    O1 6712   2.748   1.694  13.943 -0.6505  0.3208  0.1162
  450TMC3    O2 6713   3.170   2.078  13.609  0.3492 -0.0830  0.2728
  451MPD2     C 6714   3.395   0.360   0.986  0.4353 -0.0812 -0.3077
  451MPD2    C1 6715   3.509   0.408   1.042  0.5915 -0.6334  0.1918
  451MPD2    C2 6716   3.617   0.321   1.050  0.6251  0.3197  0.1853
  451MPD2    C3 6717   3.616   0.199   0.989 -0.5099 -0.0045  0.1437
  451MPD2    C4 6718   3.510   0.165   0.909 -0.5962  0.7726  0.6913
  451MPD2    C5 6719   3.400   0.240   0.922 -0.1550  0.5682 -0.1418
  451MPD2     H 6720   3.707   0.364   1.093 -1.1683  2.4841  1.7772
  451MPD2    H1 6721   3.512   0.067   0.864  0.3681  0.9099  0.4389
  451MPD2    H2 6722   3.307   0.423   0.999 -0.9133 -1.7707 -1.3320
  451MPD2    H3 6723   3.308   0.203   0.876 -0.1053  1.4316 -0.9195
  451MPD2     N 6724   3.725   0.112   0.993  0.0087  0.0479  0.2337
  451MPD2    H5 6725   3.723   0.042   0.920  1.3294 -0.0890  0.3436
  451MPD2    N1 6726   3.503   0.539   1.092  0.4092  0.0482  0.2655
  451MPD2    H7 6727   3.413   0.586   1.085 -0.7658 -1.9043  2.0722
  452TMC3    C1 6728   3.942   0.030   1.047  0.1102 -0.3058 -0.1507
  452TMC3    C2 6729   4.028   4.712   1.150 -0.3622 -0.0287 -0.9056
  452TMC3    C3 6730   4.134   4.642   1.111 -0.6802 -0.2230 -0.0923
  452TMC3    C4 6731   3.976   0.026   0.919 -0.2867  0.2341 -0.7425
  452TMC3    C5 6732   4.084   4.670   0.890  0.3198 -0.3459 -1.2486
  452TMC3    C6 6733   4.170   4.608   0.984 -0.4325  0.0815  0.5458
  452TMC3     C 6734   3.828   0.116   1.086 -1.3272 -0.5233 -0.1847
  452TMC3     O 6735   3.835   0.195   1.181  0.2062  0.3149 -0.7288
  452TMC3     H 6736   4.003   0.007   1.254  0.9275 -3.6907  0.0997
  452TMC3    H1 6737   3.909   0.064   0.843 -0.0197  2.0051 -0.0942
  452TMC3    H2 6738   4.253   4.542   0.960 -0.8521 -0.7148  1.3207
  452TMC3    C7 6739   4.116   4.666   0.752 -0.3704  0.9999 -0.1402
  452TMC3    C8 6740   4.189   4.572   1.218  0.4998  0.2350  0.6675
  452TMC3    O1 6741   4.032   4.664   0.663 -0.7023  0.3601 -1.1285
  452TMC3    O2 6742   4.117   4.545   1.310 -0.1020  0.0794 -0.2110
  453TMC3    C1 6743   0.093   2.676  11.594  0.3481 -0.2402  0.6075
  453TMC3    C2 6744   4.718   2.586  11.608 -0.1352  0.4868 -0.0542
  453TMC3    C3 6745   4.598   2.623  11.552  0.1118  0.8290 -0.7069
  453TMC3    C4 6746   0.074   2.795  11.530 -0.2947  0.8895 -0.0290
  453TMC3    C5 6747   4.686   2.824  11.458  0.2518 -0.2709 -0.5645
  453TMC3    C6 6748   4.583   2.741  11.477 -0.3645  0.8341  0.2826
  453TMC3     C 6749   0.232   2.645  11.632  0.0305 -0.0228 -1.9884
  453TMC3     O 6750   0.306   2.742  11.614 -0.1700 -0.0834  0.3098
  453TMC3     H 6751   0.016   2.489  11.650 -3.4079 -0.0540  0.4644
  453TMC3    H1 6752   0.159   2.863  11.526 -0.5306  1.1007 -1.6552
  453TMC3    H2 6753   4.481   2.753  11.441  0.2261  2.1046 -0.9773
  453TMC3    C7 6754   4.646   2.952  11.423  0.1016 -0.2742 -0.4558
  453TMC3    C8 6755   4.486   2.528  11.562 -0.3626  0.2707  0.1123
  453TMC3    O1 6756   4.527   2.974  11.442 -0.7260  0.1316 -0.1496
  453TMC3    O2 6757   4.376   2.572  11.540  0.0327  0.6085  0.1175
  454MPD2     C 6758   3.936   1.642  15.834  0.0701 -0.3788  0.7841
  454MPD2    C1 6759   3.812   1.703  15.815  0.3431 -0.5511  0.9698
  454MPD2    C2 6760   3.746   1.766  15.921  0.3458 -0.4207  0.1077
  454MPD2    C3 6761   3.807   1.770  16.049  0.7325 -0.5656 -0.3699
  454MPD2    C4 6762   3.934   1.707  16.071  0.0338 -0.5079 -0.7647
  454MPD2    C5 6763   3.992   1.646  15.963  0.1393 -0.8922  0.5799
  454MPD2     H 6764   3.658   1.824  15.896  0.6700  0.3093  0.6715
  454MPD2    H1 6765   3.982   1.710  16.168  0.8921 -0.3362 -1.1921
  454MPD2    H2 6766   3.998   1.600  15.756  0.6395  3.3921 -0.7986
  454MPD2    H3 6767   4.089   1.599  15.974  0.7035  0.4019  1.1199
  454MPD2     N 6768   3.726   1.827  16.148 -0.7256  0.4157  0.4869
  454MPD2    H5 6769   3.643   1.874  16.114 -1.3351 -1.0577 -0.0434
  454MPD2    N1 6770   3.745   1.712  15.690  0.0468  0.5068  0.1149
  454MPD2    H7 6771   3.659   1.763  15.679 -0.9621 -1.2312 -0.0385
  455TMC3    C1 6772   3.620   1.872  16.343 -0.4910  0.1045  0.4557
  455TMC3    C2 6773   3.617   2.001  16.380 -0.1521 -0.1817  0.6468
  455TMC3    C3 6774   3.507   2.080  16.349 -0.1654  0.0325  0.0551
  455TMC3    C4 6775   3.517   1.825  16.269  0.0027 -0.3356 -0.4065
  455TMC3    C5 6776   3.408   1.906  16.240  0.2039  0.3863  0.0491
  455TMC3    C6 6777   3.405   2.035  16.276 -0.0378  0.3275  0.9313
  455TMC3     C 6778   3.746   1.828  16.285 -0.7226 -0.4702 -0.0595
  455TMC3     O 6779   3.834   1.774  16.347 -0.2540  0.2994 -0.7749
  455TMC3     H 6780   3.687   2.045  16.450  1.6736  2.1675 -2.6266
  455TMC3    H1 6781   3.525   1.718  16.248 -1.0254 -0.3266 -0.8859
  455TMC3    H2 6782   3.326   2.100  16.240  0.1346  0.4033  0.6841
  455TMC3    C7 6783   3.334   1.854  16.128  0.4383  0.3629  1.2437
  455TMC3    C8 6784   3.487   2.205  16.419  0.0020  0.7074  0.0178
  455TMC3    O1 6785   3.400   1.793  16.046 -0.5656  0.7330  0.2654
  455TMC3    O2 6786   3.584   2.254  16.472 -0.6109 -0.1623 -0.4207
  456MPD2     C 6787   1.054   2.194  16.058  0.3819  0.1428 -0.3543
  456MPD2    C1 6788   1.177   2.235  16.099 -0.4879  0.6461 -0.1726
  456MPD2    C2 6789   1.189   2.317  16.204  0.0764  0.2799 -0.3478
  456MPD2    C3 6790   1.080   2.361  16.277  0.1381  0.7041 -0.0630
  456MPD2    C4 6791   0.958   2.300  16.250 -0.4678  0.6802 -0.8348
  456MPD2    C5 6792   0.944   2.218  16.146 -0.1212  0.6413 -0.3667
  456MPD2     H 6793   1.285   2.364  16.221 -0.4344  0.7147  1.2631
  456MPD2    H1 6794   0.878   2.304  16.323  1.2959  0.3976  1.1197
  456MPD2    H2 6795   1.045   2.129  15.972  4.1233  0.1386 -0.7325
  456MPD2    H3 6796   0.847   2.173  16.127  0.1578 -0.2983  0.4081
  456MPD2     N 6797   1.097   2.463  16.381 -0.2325 -0.3693 -0.1267
  456MPD2    H5 6798   1.192   2.495  16.394 -0.0880 -0.6073 -0.6082
  456MPD2    N1 6799   1.288   2.194  16.016  0.5147  0.0869 -0.5732
  456MPD2    H7 6800   1.274   2.147  15.927 -0.7404 -2.6536  1.0534
  457TMC3    C1 6801   1.059   2.565  16.580 -0.3596 -0.2948 -0.6283
  457TMC3    C2 6802   0.984   2.666  16.631  0.1137  0.0570  0.3257
  457TMC3    C3 6803   1.052   2.773  16.680  0.0832 -0.1390  0.1590
  457TMC3    C4 6804   1.194   2.559  16.596 -0.2558 -0.4893  0.0058
  457TMC3    C5 6805   1.254   2.665  16.658  0.0770  0.2983 -0.1452
  457TMC3    C6 6806   1.187   2.769  16.705  0.1740 -0.5437  0.3105
  457TMC3     C 6807   0.998   2.504  16.463 -0.1986  0.6331  0.2418
  457TMC3     O 6808   0.875   2.498  16.450  0.1326 -0.5276  0.8295
  457TMC3     H 6809   0.876   2.671  16.620  0.1195 -0.0165  0.2420
  457TMC3    H1 6810   1.241   2.466  16.568 -0.7087 -0.3608 -1.1727
  457TMC3    H2 6811   1.239   2.856  16.743  2.9669 -2.0022 -0.1458
  457TMC3    C7 6812   1.384   2.634  16.720  0.2727  0.0316  0.0759
  457TMC3    C8 6813   0.981   2.891  16.725  0.0625  0.0767 -0.3377
  457TMC3    O1 6814   1.404   2.519  16.746  0.3176 -0.6191 -0.3143
  457TMC3    O2 6815   1.047   2.992  16.733 -0.4308 -0.0937 -0.2708
  458MPD2     C 6816   3.703   1.549  11.893  0.3506 -0.5140  0.0852
  458MPD2    C1 6817   3.738   1.457  11.983 -0.2552 -0.8012 -0.2356
  458MPD2    C2 6818   3.638   1.401  12.065 -0.3118  0.5212 -0.0890
  458MPD2    C3 6819   3.506   1.454  12.059  0.5475 -0.1143 -0.6285
  458MPD2    C4 6820   3.483   1.561  11.980 -0.8733  0.0561  1.0034
  458MPD2    C5 6821   3.576   1.599  11.891 -0.2488 -0.5025  0.4277
  458MPD2     H 6822   3.652   1.317  12.131  0.2751 -0.7806 -1.8696
  458MPD2    H1 6823   3.386   1.607  11.993  0.2312  2.9850 -1.1220
  458MPD2    H2 6824   3.778   1.582  11.822  0.4739  0.3602  0.6203
  458MPD2    H3 6825   3.543   1.674  11.821  1.2672  0.2452  0.4949
  458MPD2     N 6826   3.402   1.393  12.136 -0.3048 -0.0060 -0.3258
  458MPD2    H5 6827   3.425   1.303  12.176 -1.0222  0.3540  0.8899
  458MPD2    N1 6828   3.871   1.416  11.985 -0.6363 -0.0792 -0.5010
  458MPD2    H7 6829   3.921   1.448  11.902 -1.1460 -0.5865 -1.0006
  459TMC3    C1 6830   4.069   1.293  12.073  0.3172  0.1799  0.8424
  459TMC3    C2 6831   4.155   1.399  12.052 -0.2006  0.2286 -0.0242
  459TMC3    C3 6832   4.248   1.432  12.140  0.1384 -0.1379  0.1544
  459TMC3    C4 6833   4.097   1.202  12.169 -0.4425 -0.0207 -0.2020
  459TMC3    C5 6834   4.193   1.239  12.266 -0.4840 -0.0347  0.0216
  459TMC3    C6 6835   4.276   1.349  12.251  0.0702 -0.7403 -0.0277
  459TMC3     C 6836   3.926   1.329  12.078 -0.5729  0.1576 -0.0577
  459TMC3     O 6837   3.875   1.302  12.186 -0.0143 -0.4409 -0.1430
  459TMC3     H 6838   4.136   1.469  11.971 -4.1621  1.2752  1.7707
  459TMC3    H1 6839   4.022   1.124  12.177  0.0395 -0.5465 -0.7734
  459TMC3    H2 6840   4.353   1.367  12.325  0.1899 -4.2919  0.6876
  459TMC3    C7 6841   4.184   1.175  12.396  0.4687 -0.2678  0.4212
  459TMC3    C8 6842   4.353   1.526  12.106 -0.5951 -0.7687  0.2835
  459TMC3    O1 6843   4.149   1.061  12.404 -0.3437  0.2203  0.3470
  459TMC3    O2 6844   4.463   1.496  12.148 -0.0538  0.4122  0.4577
  460MPD2     C 6845   3.168   3.371  10.597  0.1068  0.0858  0.4515
  460MPD2    C1 6846   3.098   3.494  10.574  0.3945  0.0048  0.4898
  460MPD2    C2 6847   3.044   3.527  10.449  0.2470 -0.1676  1.0225
  460MPD2    C3 6848   3.047   3.439  10.348 -0.3332 -0.0031  0.0334
  460MPD2    C4 6849   3.132   3.325  10.367  0.5421 -0.5918 -0.7269
  460MPD2    C5 6850   3.192   3.295  10.489 -0.6138 -0.0557 -0.2359
  460MPD2     H 6851   2.991   3.621  10.439 -0.1878 -0.7721 -2.3027
  460MPD2    H1 6852   3.160   3.262  10.284  1.2937 -0.7150 -0.3774
  460MPD2    H2 6853   3.204   3.330  10.690  0.2038  0.8179  0.7356
  460MPD2    H3 6854   3.251   3.204  10.490  1.6985  1.4492 -0.9742
  460MPD2     N 6855   2.983   3.464  10.222  0.8891 -0.8949  0.3381
  460MPD2    H5 6856   2.938   3.555  10.217  1.0660 -0.8368 -0.2070
  460MPD2    N1 6857   3.079   3.571  10.690 -0.3410  0.4064 -0.0297
  460MPD2    H7 6858   3.114   3.531  10.776  2.0752  0.5657 -0.9355
  461TMC3    C1 6859   2.911   3.445   9.998 -0.4332 -0.6078  0.6473
  461TMC3    C2 6860   2.935   3.381   9.879 -0.2397 -0.6603  0.9026
  461TMC3    C3 6861   2.878   3.441   9.771  0.7988  0.7055 -0.1538
  461TMC3    C4 6862   2.844   3.566  10.002 -0.6699  0.1420  0.6542
  461TMC3    C5 6863   2.805   3.623   9.887  0.4308 -1.0008 -0.0466
  461TMC3    C6 6864   2.832   3.572   9.768  0.2021 -0.6271  0.1314
  461TMC3     C 6865   2.969   3.383  10.116 -0.3165  0.3385  0.1915
  461TMC3     O 6866   3.001   3.264  10.098  0.2062  0.1904 -0.0458
  461TMC3     H 6867   2.985   3.285   9.866  0.7578 -0.1907  1.2078
  461TMC3    H1 6868   2.816   3.606  10.099  0.7372  0.1278  1.0588
  461TMC3    H2 6869   2.801   3.617   9.675 -1.7059  0.6885  1.4031
  461TMC3    C7 6870   2.782   3.771   9.888 -0.0018 -0.7398 -0.5049
  461TMC3    C8 6871   2.906   3.363   9.650  0.3106  0.3550 -0.6823
  461TMC3    O1 6872   2.782   3.818   9.774  0.5899  0.0931 -0.6626
  461TMC3    O2 6873   3.024   3.332   9.630  0.1223 -0.2041 -0.1374
  462TMC3    C1 6874   3.223   4.492  16.629  0.2112 -0.6597 -0.5310
  462TMC3    C2 6875   3.276   4.369  16.607 -0.2788 -0.7455 -0.4030
  462TMC3    C3 6876   3.260   4.278  16.701 -0.1125 -0.5362  0.5875
  462TMC3    C4 6877   3.164   4.520  16.748 -0.4506  0.5620 -0.3103
  462TMC3    C5 6878   3.141   4.420  16.842  0.2765  1.0580 -0.2593
  462TMC3    C6 6879   3.183   4.291  16.812 -0.2665 -0.2278  0.6630
  462TMC3     C 6880   3.255   4.591  16.527 -0.1735 -0.2635  0.0033
  462TMC3     O 6881   3.316   4.550  16.430  0.7421 -0.2497  0.0557
  462TMC3     H 6882   3.348   4.353  16.528  0.2087 -2.4622  0.3889
  462TMC3    H1 6883   3.138   4.623  16.766 -0.4356  0.4751  0.2111
  462TMC3    H2 6884   3.174   4.207  16.880 -2.0854  1.2247  2.2060
  462TMC3    C7 6885   3.111   4.453  16.980  0.0374  0.1579  0.3784
  462TMC3    C8 6886   3.364   4.172  16.698  0.4000 -0.5259 -0.1868
  462TMC3    O1 6887   3.102   4.362  17.061  0.7792 -0.3212 -0.3779
  462TMC3    O2 6888   3.395   4.136  16.585 -0.0417  0.1595  0.1632
  463MPD2     C 6889   4.363   3.765   1.609 -0.2895  0.4805  0.1206
  463MPD2    C1 6890   4.247   3.835   1.561  0.2538 -0.2582 -0.7192
  463MPD2    C2 6891   4.266   3.930   1.464  0.3366  0.0770  0.6432
  463MPD2    C3 6892   4.388   3.953   1.401  0.4260  0.2125  0.5691
  463MPD2    C4 6893   4.496   3.879   1.446  0.1279 -0.2735 -0.6453
  463MPD2    C5 6894   4.480   3.790   1.543 -0.3820 -0.0761 -0.0138
  463MPD2     H 6895   4.179   3.986   1.431  1.0124  0.1283 -1.0565
  463MPD2    H1 6896   4.595   3.890   1.404  1.3591 -0.4203  2.2150
  463MPD2    H2 6897   4.360   3.687   1.685 -0.6543  0.0897 -0.2951
  463MPD2    H3 6898   4.569   3.739   1.580 -1.0556 -0.1705  1.5079
  463MPD2     N 6899   4.403   4.042   1.290  0.2114  0.3681 -0.3155
  463MPD2    H5 6900   4.498   4.054   1.257  0.3571 -1.8607 -0.7008
  463MPD2    N1 6901   4.118   3.810   1.614 -0.1571 -0.0591 -0.0560
  463MPD2    H7 6902   4.047   3.871   1.573  0.9061 -1.1733 -3.6181
  464TMC3    C1 6903   3.952   3.684   1.707 -0.7963 -0.0845 -0.0731
  464TMC3    C2 6904   3.868   3.712   1.603  0.0621 -0.3898 -0.1084
  464TMC3    C3 6905   3.733   3.690   1.625  0.1424  0.1605 -0.3133
  464TMC3    C4 6906   3.909   3.611   1.816  0.4744  0.4145 -0.0361
  464TMC3    C5 6907   3.775   3.572   1.823  0.4167 -0.2522 -0.5567
  464TMC3    C6 6908   3.683   3.622   1.735  0.4188  0.0660 -0.0846
  464TMC3     C 6909   4.085   3.703   1.696  0.8534  0.1437  0.2896
  464TMC3     O 6910   4.156   3.627   1.759 -0.4499 -0.2228  0.2692
  464TMC3     H 6911   3.892   3.761   1.509 -3.3622  2.0030  0.2486
  464TMC3    H1 6912   3.976   3.576   1.894  2.3816 -0.3304 -2.0216
  464TMC3    H2 6913   3.582   3.583   1.736 -0.3503  2.0763  1.2358
  464TMC3    C7 6914   3.771   3.431   1.855  0.4127 -0.0783  0.2900
  464TMC3    C8 6915   3.641   3.737   1.522  1.2013 -0.1806 -0.6716
  464TMC3    O1 6916   3.840   3.388   1.946 -0.1683 -0.4160 -0.4490
  464TMC3    O2 6917   3.682   3.775   1.415 -0.4039  0.3318  0.5804
  465MPD2     C 6918   0.956   1.772  16.242 -0.2816 -0.1293  0.6700
  465MPD2    C1 6919   0.825   1.768  16.294  0.4844  0.0741  0.2930
  465MPD2    C2 6920   0.725   1.823  16.213 -0.1798 -0.6283 -0.2447
  465MPD2    C3 6921   0.748   1.889  16.095 -0.0969  0.3291 -0.3163
  465MPD2    C4 6922   0.877   1.907  16.050 -0.6819 -0.1857 -0.0585
  465MPD2    C5 6923   0.977   1.845  16.129  0.2654  0.7991  0.6764
  465MPD2     H 6924   0.623   1.802  16.243 -0.0610 -1.5024 -0.4478
  465MPD2    H1 6925   0.916   1.955  15.961 -1.3211 -3.1417 -1.9074
  465MPD2    H2 6926   1.040   1.738  16.301  0.3660  1.2535  0.5341
  465MPD2    H3 6927   1.076   1.840  16.085 -0.6792 -0.1271 -1.3247
  465MPD2     N 6928   0.640   1.955  16.036  0.6186  0.7047  0.0879
  465MPD2    H5 6929   0.556   1.953  16.092  0.4770  1.5553 -0.1090
  465MPD2    N1 6930   0.789   1.718  16.421 -0.3918  0.2318  0.4897
  465MPD2    H7 6931   0.691   1.721  16.445 -0.7280  0.4866 -0.9365
  466TMC3    C1 6932   0.311   2.047  16.027  0.2906  0.6602  0.1124
  466TMC3    C2 6933   0.292   2.181  16.000  0.5509 -0.3658 -0.7079
  466TMC3    C3 6934   0.373   2.231  15.902 -0.0653 -1.1264  0.3119
  466TMC3    C4 6935   0.410   1.979  15.971 -0.6279 -0.5213  0.5908
  466TMC3    C5 6936   0.495   2.036  15.883 -0.1306  0.2348 -0.0717
  466TMC3    C6 6937   0.473   2.162  15.835 -0.1908  0.0074 -0.1446
  466TMC3     C 6938   0.285   2.006  16.158 -1.1359 -0.5022  0.7874
  466TMC3     O 6939   0.365   1.944  16.226  0.1911  0.0610  0.4549
  466TMC3     H 6940   0.208   2.236  16.043  2.0250  1.5894 -0.3118
  466TMC3    H1 6941   0.427   1.881  16.013  1.3128 -0.5184 -0.1800
  466TMC3    H2 6942   0.540   2.224  15.776  0.5322 -0.7567 -0.1274
  466TMC3    C7 6943   0.635   2.022  15.919 -0.4539  0.0925 -0.2313
  466TMC3    C8 6944   0.349   2.362  15.843 -0.7057  0.4485 -0.5358
  466TMC3    O1 6945   0.718   2.074  15.846 -0.1906 -0.2008  0.3258
  466TMC3    O2 6946   0.392   2.384  15.728  0.6296  0.1359  0.1957
  467TMC3    C1 6947   0.930   0.363  13.499 -0.1742 -0.4110  0.1241
  467TMC3    C2 6948   0.867   0.341  13.378  0.4418 -0.6477  0.3301
  467TMC3    C3 6949   0.730   0.309  13.394  0.5006 -0.8884 -0.3848
  467TMC3    C4 6950   0.865   0.370  13.619 -0.6121  0.7398 -0.5318
  467TMC3    C5 6951   0.731   0.355  13.632  0.1382 -0.3036  0.1333
  467TMC3    C6 6952   0.665   0.327  13.509 -0.2819 -0.4975 -0.4247
  467TMC3     C 6953   1.068   0.419  13.499  1.1039  0.2147 -0.3069
  467TMC3     O 6954   1.121   0.438  13.607  0.4597  0.2034  0.0494
  467TMC3     H 6955   0.913   0.307  13.286 -0.6660  0.6717 -0.7137
  467TMC3    H1 6956   0.918   0.402  13.709 -0.6244 -1.6093  0.3265
  467TMC3    H2 6957   0.556   0.328  13.507 -0.3066 -1.1970  0.3256
  467TMC3    C7 6958   0.681   0.339  13.774 -0.4782 -0.6705  0.4187
  467TMC3    C8 6959   0.652   0.320  13.273  0.2152  0.2536  0.5918
  467TMC3    O1 6960   0.762   0.323  13.864  0.2493  0.2660 -0.3331
  467TMC3    O2 6961   0.562   0.242  13.257 -0.4170  0.5654 -0.0585
  468MPD2     C 6962   0.592   3.448  10.246 -0.3213  0.2422 -0.0745
  468MPD2    C1 6963   0.562   3.459  10.378  0.1091 -0.0021  0.5700
  468MPD2    C2 6964   0.556   3.350  10.453 -0.1871  0.9133 -0.1343
  468MPD2    C3 6965   0.560   3.227  10.395  0.3821 -0.0361 -0.5350
  468MPD2    C4 6966   0.592   3.214  10.264 -0.0812  0.4295 -0.0175
  468MPD2    C5 6967   0.619   3.325  10.191  0.1991  0.2448  0.9721
  468MPD2     H 6968   0.540   3.358  10.560 -0.2758  0.7773 -0.1373
  468MPD2    H1 6969   0.595   3.118  10.214  0.4304  0.2793  0.3009
  468MPD2    H2 6970   0.597   3.537  10.184  0.6323 -1.7696 -2.8805
  468MPD2    H3 6971   0.651   3.311  10.089 -2.1017  1.3268  0.0767
  468MPD2     N 6972   0.547   3.107  10.476 -0.4531  0.0579  0.2278
  468MPD2    H5 6973   0.567   3.018  10.430  0.0265  1.1454 -1.6566
  468MPD2    N1 6974   0.549   3.582  10.440 -0.2248  0.4641  0.3297
  468MPD2    H7 6975   0.548   3.585  10.541 -0.9027  3.4319  0.2508
  469TMC3    C1 6976   0.518   3.809  10.467 -0.3772 -0.4410 -0.1090
  469TMC3    C2 6977   0.582   3.808  10.587  0.5701  0.0275 -0.3060
  469TMC3    C3 6978   0.557   3.918  10.667 -0.4671 -0.1052 -0.6135
  469TMC3    C4 6979   0.433   3.903  10.428 -0.4850  0.3915 -1.0300
  469TMC3    C5 6980   0.399   4.005  10.508 -0.3196 -0.2080 -0.3015
  469TMC3    C6 6981   0.467   4.020  10.626  0.1769 -0.0832 -0.1494
  469TMC3     C 6982   0.524   3.699  10.373 -0.1896  0.6079 -0.0761
  469TMC3     O 6983   0.490   3.715  10.257  0.2365 -0.7820 -0.2942
  469TMC3     H 6984   0.649   3.728  10.616  1.2686  0.7071 -0.0157
  469TMC3    H1 6985   0.370   3.906  10.339 -0.9220  1.3438 -0.6882
  469TMC3    H2 6986   0.447   4.106  10.690 -1.1600  0.9590 -1.9712
  469TMC3    C7 6987   0.287   4.082  10.482 -0.0009  0.0874 -0.2783
  469TMC3    C8 6988   0.642   3.936  10.776 -0.3827  0.9259  0.3480
  469TMC3    O1 6989   0.246   4.070  10.369  0.5462  0.5064  0.1053
  469TMC3    O2 6990   0.696   3.842  10.826  0.2359 -0.0153  0.2354
  470TMC3    C1 6991   3.252   4.705   0.465  0.4184 -0.1729 -0.3228
  470TMC3    C2 6992   3.153   0.067   0.496 -0.1275 -0.2550 -0.7902
  470TMC3    C3 6993   3.117   0.072   0.628 -0.2659 -0.4890  0.2813
  470TMC3    C4 6994   3.312   4.620   0.555  0.1200  0.7421  0.1460
  470TMC3    C5 6995   3.261   4.629   0.677 -0.7900  0.6623  0.3472
  470TMC3    C6 6996   3.160   4.707   0.719  0.1431 -0.0058 -0.0761
  470TMC3     C 6997   3.283   4.714   0.323 -0.1174 -0.3800 -0.3136
  470TMC3     O 6998   3.256   0.096   0.275  0.2477 -0.0704 -0.2750
  470TMC3     H 6999   3.112   0.144   0.431  0.7100  0.4816 -0.4441
  470TMC3    H1 7000   3.402   4.565   0.530 -0.8085  0.0228 -1.6450
  470TMC3    H2 7001   3.114   4.710   0.817  0.2128  0.4937 -0.0587
  470TMC3    C7 7002   3.354   4.577   0.778 -0.0540  0.2691  0.1098
  470TMC3    C8 7003   3.009   0.156   0.673  0.6112 -0.0924 -0.2881
  470TMC3    O1 7004   3.462   4.535   0.740  0.0883  0.0389  0.2977
  470TMC3    O2 7005   3.002   0.182   0.793  0.1343  0.1983 -0.1795
  471MPD2     C 7006   3.045   0.653  15.722 -0.3144 -0.1898  0.9940
  471MPD2    C1 7007   2.959   0.603  15.820 -0.1236 -0.6272  1.0026
  471MPD2    C2 7008   3.009   0.591  15.955 -0.0178  0.1954 -0.5066
  471MPD2    C3 7009   3.137   0.630  15.984 -0.0425 -0.0625  0.3167
  471MPD2    C4 7010   3.221   0.677  15.885 -0.7697 -0.0750 -0.3895
  471MPD2    C5 7011   3.174   0.698  15.759  0.3282 -0.0604  0.2701
  471MPD2     H 7012   2.948   0.544  16.031  0.6352 -1.7187 -1.1884
  471MPD2    H1 7013   3.322   0.712  15.904 -1.0601 -0.4991  1.9597
  471MPD2    H2 7014   3.020   0.667  15.618  0.8677 -0.5129  0.6632
  471MPD2    H3 7015   3.240   0.739  15.684 -1.5291 -0.3094 -1.4780
  471MPD2     N 7016   3.182   0.631  16.118 -0.3018  0.2018 -0.1798
  471MPD2    H5 7017   3.281   0.648  16.128  0.2867 -3.4227  0.2766
  471MPD2    N1 7018   2.829   0.556  15.799 -0.0940 -0.2115 -0.5715
  471MPD2    H7 7019   2.783   0.514  15.879  2.3754 -1.2936  0.2703
  472TMC3    C1 7020   2.620   0.508  15.693  0.1993  0.1613 -0.1019
  472TMC3    C2 7021   2.573   0.427  15.597  0.0159  0.0804  0.7935
  472TMC3    C3 7022   2.464   0.353  15.616 -0.0236  0.1442  0.0924
  472TMC3    C4 7023   2.565   0.518  15.817  0.0313 -0.0055  0.2894
  472TMC3    C5 7024   2.454   0.438  15.833  0.2781  0.1225  0.5596
  472TMC3    C6 7025   2.400   0.358  15.737  0.1582 -0.2026  0.1242
  472TMC3     C 7026   2.758   0.554  15.679 -0.2404  0.0968 -0.2316
  472TMC3     O 7027   2.814   0.582  15.570 -0.3547  0.7564  0.0684
  472TMC3     H 7028   2.622   0.426  15.500  0.9300 -0.5477  1.2605
  472TMC3    H1 7029   2.586   0.599  15.886  0.2732  0.8120 -0.7538
  472TMC3    H2 7030   2.300   0.318  15.754  0.1056 -0.7036 -1.3138
  472TMC3    C7 7031   2.413   0.420  15.975 -0.1884  0.4673  0.1276
  472TMC3    C8 7032   2.450   0.235  15.535  0.1181  0.6069 -0.8480
  472TMC3    O1 7033   2.487   0.480  16.053  0.1334 -0.5924  0.3648
  472TMC3    O2 7034   2.516   0.220  15.431 -0.5588  0.0254 -0.4364
  473MPD2     C 7035   2.932   2.688  13.630 -0.6606  0.4571  0.2524
  473MPD2    C1 7036   2.889   2.804  13.569 -0.9063 -0.2922 -0.2275
  473MPD2    C2 7037   2.869   2.911  13.652 -0.0457  0.0322 -0.2371
  473MPD2    C3 7038   2.906   2.910  13.791  0.5434 -0.4178 -0.0150
  473MPD2    C4 7039   2.942   2.787  13.841  0.2156  0.4090 -0.5143
  473MPD2    C5 7040   2.950   2.675  13.763  0.7979 -0.5085 -0.5050
  473MPD2     H 7041   2.848   3.008  13.606  2.4047  0.3370 -0.6762
  473MPD2    H1 7042   2.975   2.772  13.944 -2.0528  0.0397  0.1693
  473MPD2    H2 7043   2.961   2.603  13.569 -2.0312  0.4834 -0.4309
  473MPD2    H3 7044   2.976   2.581  13.810 -1.0678 -0.3791  0.7577
  473MPD2     N 7045   2.887   3.031  13.867  0.8015 -0.2812 -0.3325
  473MPD2    H5 7046   2.873   3.120  13.821  1.4984 -0.0043 -0.0037
  473MPD2    N1 7047   2.855   2.820  13.435 -0.1951 -0.7808 -0.4975
  473MPD2    H7 7048   2.808   2.903  13.399 -0.2685 -0.9298 -0.7388
  474TMC3    C1 7049   2.944   3.181  14.027  1.2173  0.0029 -0.7770
  474TMC3    C2 7050   2.832   3.268  13.992  0.7616 -0.4117  0.4406
  474TMC3    C3 7051   2.855   3.404  14.012  0.0293 -0.0482 -0.0184
  474TMC3    C4 7052   3.055   3.228  14.093  0.2383 -0.8387  0.6298
  474TMC3    C5 7053   3.066   3.363  14.107  0.3681  0.3004 -0.5201
  474TMC3    C6 7054   2.970   3.454  14.064  0.2470 -0.7108 -0.1890
  474TMC3     C 7055   2.936   3.044  13.994 -0.1797  0.6697  0.1543
  474TMC3     O 7056   2.983   2.962  14.073  0.7589  0.0859  0.3351
  474TMC3     H 7057   2.744   3.223  13.948  1.6950 -1.8705  0.0547
  474TMC3    H1 7058   3.126   3.156  14.133 -0.3927 -1.0723  1.3148
  474TMC3    H2 7059   2.983   3.557  14.096  0.0158 -0.4416 -0.9435
  474TMC3    C7 7060   3.183   3.416  14.178  0.3915 -0.1027  0.0983
  474TMC3    C8 7061   2.747   3.485  13.965  0.3621 -0.3562  0.6059
  474TMC3    O1 7062   3.257   3.335  14.233  0.0129  0.8080  0.0730
  474TMC3    O2 7063   2.648   3.426  13.919 -0.4958 -0.3574  0.1701
  475MPD2     C 7064   1.784   0.924   9.890 -0.3233 -0.0013  0.7575
  475MPD2    C1 7065   1.792   1.029   9.988 -0.0441 -0.0913 -0.3649
  475MPD2    C2 7066   1.679   1.095  10.025 -0.9694  0.6990  0.2471
  475MPD2    C3 7067   1.556   1.053   9.982 -0.1637 -0.0319 -0.5951
  475MPD2    C4 7068   1.547   0.938   9.901  0.2342  0.3262 -0.3842
  475MPD2    C5 7069   1.664   0.874   9.856  0.1528  0.1497 -0.3046
  475MPD2     H 7070   1.679   1.173  10.100 -0.2404 -0.0466  1.0225
  475MPD2    H1 7071   1.447   0.903   9.875  0.4711 -0.7016  0.1025
  475MPD2    H2 7072   1.869   0.876   9.843 -2.1264 -1.7795 -0.7044
  475MPD2    H3 7073   1.650   0.795   9.784  1.6109 -2.1527  1.9446
  475MPD2     N 7074   1.447   1.128  10.035  0.0914  0.0516  0.2570
  475MPD2    H5 7075   1.465   1.204  10.101 -1.2905 -1.3895  2.2963
  475MPD2    N1 7076   1.919   1.073  10.030  0.1094  0.2329 -0.5162
  475MPD2    H7 7077   1.994   1.048   9.967  0.4417 -0.3439  0.1117
  476TMC3    C1 7078   2.079   1.220  10.130 -0.8582 -0.6556 -0.0220
  476TMC3    C2 7079   2.080   1.284  10.006 -0.6963 -0.6402  0.5033
  476TMC3    C3 7080   2.075   1.421  10.012 -0.0592 -0.1150 -0.0488
  476TMC3    C4 7081   2.076   1.283  10.251  0.4019 -0.4098  0.0439
  476TMC3    C5 7082   2.077   1.423  10.250  0.0754 -0.5741  0.3710
  476TMC3    C6 7083   2.075   1.490  10.132 -0.6674 -0.6295 -0.8490
  476TMC3     C 7084   1.951   1.152  10.136  0.5489  0.2295 -0.0653
  476TMC3     O 7085   1.879   1.184  10.230  0.4129  0.6635 -0.0065
  476TMC3     H 7086   2.073   1.227   9.914  3.0143 -1.1438  0.5206
  476TMC3    H1 7087   2.069   1.230  10.345 -1.4377 -0.1085  0.0709
  476TMC3    H2 7088   2.078   1.598  10.137 -0.5142 -0.7110  0.6191
  476TMC3    C7 7089   2.007   1.496  10.349  0.5433  0.0434 -0.6224
  476TMC3    C8 7090   1.984   1.479   9.917  0.6862 -0.1422 -0.9139
  476TMC3    O1 7091   2.042   1.607  10.383 -0.0163 -0.0153  0.3429
  476TMC3    O2 7092   1.981   1.600   9.918  0.2009 -0.5039  0.2541
  477MPD2     C 7093   3.834   3.234  11.673 -0.3842  0.3495 -0.0590
  477MPD2    C1 7094   3.754   3.146  11.594 -0.3599 -0.1083  0.2771
  477MPD2    C2 7095   3.724   3.026  11.653 -0.2059 -0.3797  0.6284
  477MPD2    C3 7096   3.763   2.996  11.786  0.4374  0.6610 -0.2837
  477MPD2    C4 7097   3.843   3.082  11.852 -0.9658 -0.1579  0.2261
  477MPD2    C5 7098   3.882   3.195  11.797 -0.1093  0.3836 -0.5506
  477MPD2     H 7099   3.659   2.958  11.600  1.9777 -1.1778 -1.0524
  477MPD2    H1 7100   3.889   3.043  11.943 -1.6902 -1.2016  0.1425
  477MPD2    H2 7101   3.872   3.322  11.623  0.0902  0.7884  1.0929
  477MPD2    H3 7102   3.961   3.253  11.844  0.3739  0.0071 -0.8883
  477MPD2     N 7103   3.740   2.868  11.836 -0.1846  0.2038  0.1557
  477MPD2    H5 7104   3.695   2.814  11.762 -2.6674  0.7194  1.2916
  477MPD2    N1 7105   3.689   3.197  11.479 -0.6261  0.3463  1.1702
  477MPD2    H7 7106   3.691   3.298  11.472 -0.6277  0.2771  0.1715
  478TMC3    C1 7107   3.508   3.194  11.314 -0.3295 -0.2311  0.6162
  478TMC3    C2 7108   3.445   3.289  11.382 -0.7965 -0.2539  0.1632
  478TMC3    C3 7109   3.311   3.312  11.354 -0.0373  0.0725 -0.2961
  478TMC3    C4 7110   3.448   3.137  11.206  0.3372 -0.2033  0.5218
  478TMC3    C5 7111   3.322   3.168  11.182 -0.1267 -0.4065 -0.3572
  478TMC3    C6 7112   3.252   3.263  11.252  0.3740  0.4606  0.4220
  478TMC3     C 7113   3.611   3.126  11.389  0.1018 -0.1477 -0.0384
  478TMC3     O 7114   3.604   3.004  11.373  0.0130  0.4488 -0.1188
  478TMC3     H 7115   3.488   3.334  11.470  0.1174 -2.7066  0.9739
  478TMC3    H1 7116   3.498   3.071  11.136  0.3064  0.7390 -0.3878
  478TMC3    H2 7117   3.151   3.291  11.222  0.1028 -1.2693 -0.2531
  478TMC3    C7 7118   3.247   3.085  11.087  0.2852 -0.1903  0.4778
  478TMC3    C8 7119   3.231   3.348  11.473 -0.8074 -0.3139 -0.0084
  478TMC3    O1 7120   3.291   2.973  11.070 -0.3625  0.0390 -0.0365
  478TMC3    O2 7121   3.274   3.308  11.578  0.3122  0.2385  0.2845
  479MPD2     C 7122   2.077   4.646  14.884  0.0391  0.1915  0.3636
  479MPD2    C1 7123   2.142   4.538  14.946 -0.1803  0.0981  0.2539
  479MPD2    C2 7124   2.269   4.557  15.007  0.2445 -0.1252  0.2469
  479MPD2    C3 7125   2.336   4.677  14.991  0.0456 -0.2378 -0.4173
  479MPD2    C4 7126   2.281   0.053  14.915  0.0101 -0.0762 -0.0518
  479MPD2    C5 7127   2.147   0.040  14.884 -0.3642  0.4248 -0.0160
  479MPD2     H 7128   2.318   4.481  15.066 -1.7714 -0.8623  0.9538
  479MPD2    H1 7129   2.338   0.144  14.901  1.1710 -0.8679 -0.4792
  479MPD2    H2 7130   1.975   4.657  14.848 -1.0991  0.2374  3.6125
  479MPD2    H3 7131   2.101   0.123  14.831 -1.6310 -0.6467 -0.6091
  479MPD2     N 7132   2.459   4.701  15.056  0.2291 -0.0544 -0.6306
  479MPD2    H5 7133   2.499   0.067  15.032 -0.4179  0.0105 -1.4642
  479MPD2    N1 7134   2.064   4.426  14.956  0.4628 -0.0666  0.0046
  479MPD2    H7 7135   1.969   4.426  14.919 -0.0262 -0.9705  1.2657
  480TMC3    C1 7136   2.867   4.711  15.234  0.0277  0.1840 -0.6254
  480TMC3    C2 7137   2.872   0.121  15.195  0.4621  0.5587  0.0508
  480TMC3    C3 7138   2.758   0.193  15.174 -0.0562 -0.1899 -0.7272
  480TMC3    C4 7139   2.745   4.652  15.249 -0.6204  0.0536  0.2724
  480TMC3    C5 7140   2.628   4.718  15.209  0.1547  0.9041  1.0189
  480TMC3    C6 7141   2.634   0.124  15.171  0.0138  0.1713  0.3173
  480TMC3     C 7142   2.970   4.683  15.334  0.1841 -0.7357 -0.3499
  480TMC3     O 7143   3.083   0.010  15.319 -0.5738  0.4719  0.3142
  480TMC3     H 7144   2.963   0.177  15.216 -0.7003  1.9999  1.2031
  480TMC3    H1 7145   2.733   4.547  15.271  1.1693  0.0560  1.2459
  480TMC3    H2 7146   2.554   0.179  15.123  1.7754  2.3418 -0.1531
  480TMC3    C7 7147   2.520   4.634  15.156  0.3434 -0.0072 -0.0316
  480TMC3    C8 7148   2.765   0.279  15.054 -0.0438 -0.3634  0.4147
  480TMC3    O1 7149   2.524   4.515  15.183  0.0502  0.8494  0.0499
  480TMC3    O2 7150   2.785   0.399  15.071  0.7472 -0.1596 -0.1311
  481MPD2     C 7151   3.888   4.631  13.625  0.1160 -0.0407 -0.3299
  481MPD2    C1 7152   3.810   4.554  13.703 -0.8318 -0.1224 -0.2967
  481MPD2    C2 7153   3.869   4.496  13.811  0.5453 -0.8598 -0.8637
  481MPD2    C3 7154   3.997   4.521  13.846 -0.0410  0.1206  0.0457
  481MPD2    C4 7155   4.075   4.606  13.768 -0.0771  0.7005 -0.3944
  481MPD2    C5 7156   4.017   4.660  13.660  0.2420  0.2709  0.0682
  481MPD2     H 7157   3.803   4.443  13.880  1.7827 -0.8129  0.3712
  481MPD2    H1 7158   4.174   4.634  13.803 -0.2820 -0.7876  1.4046
  481MPD2    H2 7159   3.843   4.684  13.541  2.0224  4.0052  1.2055
  481MPD2    H3 7160   4.072   0.008  13.601  0.2191 -0.3304 -0.7014
  481MPD2     N 7161   4.063   4.471  13.968 -0.0385  0.5217 -0.3855
  481MPD2    H5 7162   4.161   4.491  13.986 -0.2835  1.2904  0.0805
  481MPD2    N1 7163   3.673   4.557  13.681  0.1296  0.2651 -0.2021
  481MPD2    H7 7164   3.644   4.621  13.608  0.6257  0.2536 -0.4081
  482TMC3    C1 7165   3.452   4.510  13.668 -0.0383 -0.4456 -0.2485
  482TMC3    C2 7166   3.389   4.404  13.618 -0.2019  0.5830  0.0955
  482TMC3    C3 7167   3.296   4.413  13.513 -0.8210 -0.5181  0.1013
  482TMC3    C4 7168   3.423   4.640  13.636 -0.1559 -0.7621  0.6123
  482TMC3    C5 7169   3.332   4.653  13.530 -0.6577 -0.1184 -0.0491
  482TMC3    C6 7170   3.269   4.544  13.475 -0.1746 -0.7854 -0.6100
  482TMC3     C 7171   3.575   4.476  13.732 -0.3743 -0.4582 -0.2027
  482TMC3     O 7172   3.572   4.380  13.804 -0.4040 -0.0023 -0.5570
  482TMC3     H 7173   3.423   4.302  13.633 -1.0671  0.5961  2.1925
  482TMC3    H1 7174   3.480   4.721  13.679  0.0951 -1.3110  1.3158
  482TMC3    H2 7175   3.193   4.559  13.399  0.7416  0.8504 -1.2081
  482TMC3    C7 7176   3.343   0.044  13.439 -0.2304  0.4475  0.1765
  482TMC3    C8 7177   3.240   4.301  13.427 -0.9059 -0.1184  0.0276
  482TMC3    O1 7178   3.292   0.033  13.326 -0.0859  0.0843  0.4804
  482TMC3    O2 7179   3.288   4.190  13.446 -0.8158 -0.3017 -0.1718
  483TMC3    C1 7180   2.567   3.861   0.817 -0.6302 -0.4871  0.7907
  483TMC3    C2 7181   2.615   3.983   0.836 -0.0806  0.4312  0.5016
  483TMC3    C3 7182   2.741   3.998   0.886  0.1927 -0.0075 -0.6593
  483TMC3    C4 7183   2.629   3.752   0.858  0.3614  0.1292  0.0340
  483TMC3    C5 7184   2.752   3.767   0.909 -0.3145 -0.5350  0.0969
  483TMC3    C6 7185   2.821   3.886   0.919  0.3574  0.5550 -0.8704
  483TMC3     C 7186   2.464   3.850   0.713  0.2270 -0.3492  0.3647
  483TMC3     O 7187   2.396   3.951   0.686 -0.2797 -0.2002 -0.6210
  483TMC3     H 7188   2.559   4.068   0.798 -0.3666  0.3739  0.8038
  483TMC3    H1 7189   2.583   3.655   0.874  0.2106  0.4986  1.8801
  483TMC3    H2 7190   2.926   3.892   0.947  0.5817 -0.7469 -1.3946
  483TMC3    C7 7191   2.809   3.643   0.945  0.3138 -0.2667  0.0256
  483TMC3    C8 7192   2.810   4.099   0.811  0.0778 -0.2100  0.3596
  483TMC3    O1 7193   2.773   3.534   0.895 -0.4417  0.2917 -0.0041
  483TMC3    O2 7194   2.907   4.058   0.753 -0.6452  0.3220 -0.6664
  484MPD2     C 7195   4.329   1.846  11.937 -0.0186 -0.2279 -0.5228
  484MPD2    C1 7196   4.396   1.753  12.004  0.2243  0.6767  0.8485
  484MPD2    C2 7197   4.525   1.773  12.038  0.3251 -0.2235 -0.3224
  484MPD2    C3 7198   4.595   1.887  11.999  0.7182  0.5666 -0.5552
  484MPD2    C4 7199   4.521   1.985  11.931 -0.2131 -0.1220  0.0448
  484MPD2    C5 7200   4.389   1.963  11.905  0.4398 -0.4170 -0.6459
  484MPD2     H 7201   4.580   1.703  12.101 -0.3895 -0.1812  0.3466
  484MPD2    H1 7202   4.562   2.079  11.896 -0.3157 -0.7897 -1.8628
  484MPD2    H2 7203   4.227   1.829  11.905  0.5897 -0.3816 -2.3656
  484MPD2    H3 7204   4.329   2.042  11.863  1.0403 -0.5848 -1.8064
  484MPD2     N 7205   0.009   1.906  12.007  0.2827  0.2363 -0.0083
  484MPD2    H5 7206   0.053   1.991  11.974  0.6213 -0.2050 -0.6804
  484MPD2    N1 7207   4.317   1.641  12.040 -0.1322  0.1754  0.5953
  484MPD2    H7 7208   4.218   1.655  12.020 -0.1994 -0.1210  0.7128
  485TMC3    C1 7209   0.230   1.828  12.030 -0.4550 -0.3477 -0.2243
  485TMC3    C2 7210   0.323   1.763  12.104 -0.2242 -0.2231 -0.5313
  485TMC3    C3 7211   0.454   1.772  12.072 -0.2409  0.3799 -0.4601
  485TMC3    C4 7212   0.269   1.919  11.930 -0.3247 -0.5372 -0.5499
  485TMC3    C5 7213   0.399   1.922  11.901 -0.4027  0.0807 -0.2450
  485TMC3    C6 7214   0.498   1.860  11.968  0.1981 -0.1839  0.4116
  485TMC3     C 7215   0.092   1.811  12.070 -1.6376  0.4692 -0.2300
  485TMC3     O 7216   0.064   1.714  12.143  0.0633  0.4615 -0.2489
  485TMC3     H 7217   0.298   1.711  12.196 -4.1877 -0.5855 -1.8075
  485TMC3    H1 7218   0.206   1.986  11.873  1.1179  1.2281 -0.0517
  485TMC3    H2 7219   0.603   1.876  11.944 -0.7152 -0.2151 -3.7168
  485TMC3    C7 7220   0.438   1.922  11.763  0.3955  0.2403  0.1672
  485TMC3    C8 7221   0.528   1.648  12.053 -0.4444 -0.2036  0.6858
  485TMC3    O1 7222   0.387   1.997  11.683  0.2914  0.3022  0.5869
  485TMC3    O2 7223   0.627   1.662  11.985  0.0829  0.2468 -0.1475
  486MPD2     C 7224   2.025   0.327  12.789  0.3978  1.0010 -0.2571
  486MPD2    C1 7225   1.910   0.280  12.740  0.6253  0.6800 -0.1870
  486MPD2    C2 7226   1.812   0.364  12.689  0.5879  0.0249 -0.1355
  486MPD2    C3 7227   1.829   0.502  12.697 -0.2024  0.6638 -0.9292
  486MPD2    C4 7228   1.944   0.553  12.758 -0.6116 -0.4303 -0.4256
  486MPD2    C5 7229   2.042   0.462  12.804  0.4264  0.3960 -0.0802
  486MPD2     H 7230   1.717   0.325  12.656  0.3823  1.0349 -0.7283
  486MPD2    H1 7231   1.986   0.653  12.751 -1.1553 -0.2260 -0.7180
  486MPD2    H2 7232   2.087   0.267  12.855  1.4414  3.3175  0.9088
  486MPD2    H3 7233   2.136   0.500  12.843  0.7564  0.9165 -1.3904
  486MPD2     N 7234   1.735   0.586  12.640  0.3526  0.0656 -0.6444
  486MPD2    H5 7235   1.657   0.543  12.589 -0.1563 -1.6230  1.5848
  486MPD2    N1 7236   1.904   0.138  12.741 -0.1913  0.3145 -0.1113
  486MPD2    H7 7237   1.985   0.094  12.782  0.2979  1.4782  0.1717
  487TMC3    C1 7238   1.832   4.639  12.690  0.2945 -0.2112  0.1808
  487TMC3    C2 7239   1.762   4.558  12.603  0.1063  0.0469 -0.4176
  487TMC3    C3 7240   1.690   4.453  12.652  0.5622 -0.4667 -0.4757
  487TMC3    C4 7241   1.860   4.596  12.819  0.0103  0.3645 -0.0570
  487TMC3    C5 7242   1.804   4.477  12.857 -0.2662 -0.2048  0.1584
  487TMC3    C6 7243   1.716   4.409  12.779 -0.1153  0.3738 -0.0829
  487TMC3     C 7244   1.811   0.057  12.669 -0.1263  0.2182 -1.2262
  487TMC3     O 7245   1.731   0.092  12.584 -0.0509 -0.1315 -0.0401
  487TMC3     H 7246   1.732   4.599  12.508  0.1695  0.3737 -0.2978
  487TMC3    H1 7247   1.925   4.651  12.887 -2.2582  0.0317  2.4176
  487TMC3    H2 7248   1.691   4.307  12.806  0.2705  0.1451 -0.5932
  487TMC3    C7 7249   1.806   4.452  13.000  0.2568  0.1536 -0.4412
  487TMC3    C8 7250   1.552   4.460  12.607  0.7842  0.2276 -0.1460
  487TMC3    O1 7251   1.906   4.495  13.055  0.6493 -0.0163 -0.4371
  487TMC3    O2 7252   1.532   4.520  12.499  0.5047 -0.4614 -0.1725
  488MPD2     C 7253   1.865   2.432  16.005 -0.0406  0.0115  0.2042
  488MPD2    C1 7254   1.987   2.473  16.051  0.0520  0.2672 -0.0766
  488MPD2    C2 7255   2.008   2.461  16.191 -0.1819  0.2600 -0.1714
  488MPD2    C3 7256   1.909   2.416  16.275  0.0262 -0.0506  0.0746
  488MPD2    C4 7257   1.781   2.404  16.226  0.0169  0.0726  0.0395
  488MPD2    C5 7258   1.760   2.417  16.093  0.0150  0.0644 -0.3441
  488MPD2     H 7259   2.100   2.489  16.241  1.1528  1.8135 -3.5157
  488MPD2    H1 7260   1.694   2.385  16.288  2.4187  0.9931  3.7512
  488MPD2    H2 7261   1.843   2.451  15.901  0.5970 -0.8173 -0.0844
  488MPD2    H3 7262   1.660   2.418  16.050 -0.8897 -0.1879  1.7430
  488MPD2     N 7263   1.934   2.409  16.413 -0.3989  0.0951  0.5961
  488MPD2    H5 7264   2.028   2.431  16.445  0.5683 -2.3965 -0.4852
  488MPD2    N1 7265   2.088   2.519  15.965 -0.2045  0.2211  0.0070
  488MPD2    H7 7266   2.149   2.587  16.009 -0.1693 -0.4826  1.0333
  489TMC3    C1 7267   1.941   2.342  16.634  0.4212 -0.3327 -0.2659
  489TMC3    C2 7268   2.011   2.459  16.660  0.1771  0.2447 -0.2061
  489TMC3    C3 7269   2.090   2.453  16.773  0.0498  0.2098  0.0891
  489TMC3    C4 7270   1.942   2.232  16.710  0.1127  0.5250  0.6064
  489TMC3    C5 7271   2.036   2.229  16.814  0.0809 -0.3977  0.3481
  489TMC3    C6 7272   2.112   2.338  16.836 -0.5501 -0.2350  0.0086
  489TMC3     C 7273   1.873   2.331  16.503 -0.1991  0.5220 -0.2497
  489TMC3     O 7274   1.776   2.264  16.493 -0.0821  1.2085 -0.1256
  489TMC3     H 7275   1.987   2.559  16.625 -0.6145 -0.3892 -1.5046
  489TMC3    H1 7276   1.867   2.155  16.696 -1.0143  1.5087  1.1993
  489TMC3    H2 7277   2.192   2.328  16.909 -0.7546  0.5478  0.3501
  489TMC3    C7 7278   2.066   2.107  16.885  0.6400  0.6180 -0.1670
  489TMC3    C8 7279   2.188   2.554  16.787  0.2675  0.0036 -0.5918
  489TMC3    O1 7280   2.180   2.095  16.938 -0.3174 -0.1440  0.7888
  489TMC3    O2 7281   2.194   2.642  16.700 -0.7827 -0.3404  0.1969
  490MPD2     C 7282   3.085   1.971  17.502 -0.2295  0.2406 -0.2505
  490MPD2    C1 7283   3.099   1.852  17.574 -0.3028 -0.1040  0.1000
  490MPD2    C2 7284   3.157   1.857  17.699  0.6508 -0.4006 -0.3305
  490MPD2    C3 7285   3.215   1.975   0.049 -0.1502  0.0811 -0.0285
  490MPD2    C4 7286   3.199   2.093  17.672  0.8322  0.0199 -0.1764
  490MPD2    C5 7287   3.127   2.091  17.552 -0.1677 -0.7340  0.2561
  490MPD2     H 7288   3.163   1.764   0.055  1.1932 -1.7999 -2.6964
  490MPD2    H1 7289   3.242   2.182   0.016  1.8882 -0.5601 -0.0314
  490MPD2    H2 7290   3.018   1.978  17.417  0.3728  1.5746 -0.6242
  490MPD2    H3 7291   3.114   2.183  17.496  2.9129 -0.2248  0.3731
  490MPD2     N 7292   3.293   1.987   0.164  0.5678 -0.7497  0.6796
  490MPD2    H5 7293   3.319   2.082   0.187 -0.0366 -0.4133 -0.0220
  490MPD2    N1 7294   3.050   1.727  17.532 -0.4371 -0.0673  0.3746
  490MPD2    H7 7295   3.060   1.642  17.586 -2.2928 -0.2459  0.4353
  491TMC3    C1 7296   2.920   1.577  17.426 -0.3372  1.0585  1.0865
  491TMC3    C2 7297   2.861   1.544  17.552  0.6310  0.4743  0.0538
  491TMC3    C3 7298   2.774   1.442  17.550 -0.0214  0.4105  0.3271
  491TMC3    C4 7299   2.882   1.515  17.305 -0.4955 -0.9019 -0.1046
  491TMC3    C5 7300   2.786   1.418  17.319  0.4765  0.3131 -0.1938
  491TMC3    C6 7301   2.728   1.382  17.436  0.0453 -0.0273 -0.1069
  491TMC3     C 7302   2.997   1.700  17.412  0.0761  0.5708  0.7429
  491TMC3     O 7303   3.006   1.763  17.307 -0.2789  0.1442 -0.0041
  491TMC3     H 7304   2.885   1.596  17.643 -3.4740  0.8016  0.9213
  491TMC3    H1 7305   2.930   1.541  17.212  0.3826 -0.4782  0.4730
  491TMC3    H2 7306   2.641   1.318  17.447 -0.7751  0.9904 -0.6750
  491TMC3    C7 7307   2.715   1.377  17.204  0.1932 -0.7583 -0.1891
  491TMC3    C8 7308   2.725   1.387  17.678  0.2479  0.1210 -0.1215
  491TMC3    O1 7309   2.667   1.266  17.217 -0.6243 -0.0555  0.0671
  491TMC3    O2 7310   2.707   1.469   0.067 -0.2063  0.7988  0.1072
  492MPD2     C 7311   3.363   1.850  11.460 -0.3490  0.1857 -0.1453
  492MPD2    C1 7312   3.334   1.737  11.387 -0.0545  0.5415 -0.0764
  492MPD2    C2 7313   3.266   1.628  11.443 -0.3484  0.9066 -0.2576
  492MPD2    C3 7314   3.237   1.638  11.580  0.0411  0.1766 -0.5719
  492MPD2    C4 7315   3.270   1.748  11.647 -0.0306  0.0117 -0.1704
  492MPD2    C5 7316   3.326   1.855  11.587 -0.4158 -0.2157  0.0513
  492MPD2     H 7317   3.230   1.542  11.389 -2.3507  0.1532  2.2739
  492MPD2    H1 7318   3.235   1.758  11.749  0.5775  1.5372 -0.0961
  492MPD2    H2 7319   3.412   1.939  11.423 -0.8962  0.0672 -1.1668
  492MPD2    H3 7320   3.329   1.954  11.630 -1.9482 -0.2835  0.2984
  492MPD2     N 7321   3.155   1.542  11.642  0.3183  0.2724 -0.0717
  492MPD2    H5 7322   3.124   1.565  11.736 -0.6496  1.1501 -0.6109
  492MPD2    N1 7323   3.389   1.739  11.252  0.2296  0.1857  0.0053
  492MPD2    H7 7324   3.430   1.826  11.218  2.1760  0.5331  3.3259
  493TMC3    C1 7325   3.405   1.672  11.021 -0.1575  0.0723  0.3384
  493TMC3    C2 7326   3.443   1.805  10.989 -0.3723  0.0532  0.0142
  493TMC3    C3 7327   3.452   1.844  10.852 -0.0484  0.4615  0.0739
  493TMC3    C4 7328   3.369   1.590  10.922 -0.0861  0.1575 -0.2408
  493TMC3    C5 7329   3.371   1.631  10.791 -0.7686  0.6968 -0.5650
  493TMC3    C6 7330   3.404   1.758  10.753  0.0988 -0.2872  0.1093
  493TMC3     C 7331   3.369   1.634  11.158  0.3800  0.3722  0.2486
  493TMC3     O 7332   3.322   1.526  11.173  0.1716 -0.3450 -0.4321
  493TMC3     H 7333   3.474   1.876  11.065 -2.5328  0.2897  0.6806
  493TMC3    H1 7334   3.339   1.491  10.956  2.2909 -0.1517  0.9803
  493TMC3    H2 7335   3.396   1.788  10.649  1.3898  2.1824  0.7459
  493TMC3    C7 7336   3.324   1.550  10.686  0.5930 -0.0811 -0.5459
  493TMC3    C8 7337   3.501   1.980  10.833  0.0169  0.0596  0.2493
  493TMC3    O1 7338   3.260   1.605  10.596  0.7342  0.4513 -0.1943
  493TMC3    O2 7339   3.496   2.052  10.927  0.4340 -0.3135  0.2114
  494TMC3    C1 7340   4.092   3.471   0.336  0.2635 -0.5339 -0.4747
  494TMC3    C2 7341   4.093   3.337   0.351 -0.0797 -0.8068  0.3364
  494TMC3    C3 7342   4.143   3.263   0.253 -0.7670 -0.0703 -0.0766
  494TMC3    C4 7343   4.117   3.528   0.218 -0.4865 -0.3494  0.4698
  494TMC3    C5 7344   4.163   3.449   0.118  0.1703 -0.1089  0.6621
  494TMC3    C6 7345   4.179   3.317   0.128  0.2344 -0.3748  0.4244
  494TMC3     C 7346   4.007   3.546   0.425  0.4138  0.2910  0.2821
  494TMC3     O 7347   3.935   3.634   0.381 -0.0053  0.1087  0.1119
  494TMC3     H 7348   4.058   3.280   0.437 -0.7884  0.6757  1.0330
  494TMC3    H1 7349   4.107   3.635   0.207  1.2422 -0.1181  1.1171
  494TMC3    H2 7350   4.206   3.249   0.047  3.7028  1.6594 -0.1445
  494TMC3    C7 7351   4.180   3.506  17.682 -0.1205  0.3042 -0.7372
  494TMC3    C8 7352   4.149   3.118   0.276  0.6297 -0.4107 -0.9904
  494TMC3    O1 7353   4.156   3.439  17.582 -0.6988  0.3659 -0.2384
  494TMC3    O2 7354   4.179   3.095   0.392 -0.5721  0.9174  0.0595
  495TMC3    C1 7355   2.387   4.482  14.299 -0.1613 -0.1935  0.1623
  495TMC3    C2 7356   2.334   4.559  14.202 -0.1071  0.2708 -0.2189
  495TMC3    C3 7357   2.308   4.691  14.220 -0.0135  0.3007 -0.5278
  495TMC3    C4 7358   2.412   4.550  14.416  0.0571  0.0493  0.2959
  495TMC3    C5 7359   2.393   4.685  14.438 -0.4265  0.5555 -0.2563
  495TMC3    C6 7360   2.345   0.043  14.333 -0.0794  0.9980  0.9454
  495TMC3     C 7361   2.358   4.338  14.304 -0.3328  0.4495 -0.5272
  495TMC3     O 7362   2.275   4.304  14.223  0.1432 -0.0544  0.1195
  495TMC3     H 7363   2.287   4.504  14.121 -2.2162  0.5767  0.7705
  495TMC3    H1 7364   2.462   4.506  14.502  1.6307  2.0669  0.4236
  495TMC3    H2 7365   2.326   0.149  14.337  1.3601  1.3156 -0.4251
  495TMC3    C7 7366   2.446   0.017  14.555 -0.4799 -0.0400 -0.5054
  495TMC3    C8 7367   2.192   0.017  14.146  0.0335  0.2711  0.3664
  495TMC3    O1 7368   2.449   4.673  14.656 -0.0058 -0.6843 -0.0141
  495TMC3    O2 7369   2.107   0.069  14.214 -0.2240 -0.0373  0.2403
  496MPD2     C 7370   4.209   0.852  15.501 -0.2851 -0.4263  0.3336
  496MPD2    C1 7371   4.337   0.800  15.507 -0.0609  0.5830 -0.2389
  496MPD2    C2 7372   4.430   0.844  15.597  0.2641 -0.0456  0.0005
  496MPD2    C3 7373   4.396   0.929  15.696 -0.7057  0.0722  0.0058
  496MPD2    C4 7374   4.274   0.988  15.687 -0.0575 -0.1657  1.0203
  496MPD2    C5 7375   4.182   0.951  15.592 -0.0633 -0.5266 -0.3159
  496MPD2     H 7376   4.534   0.814  15.591  1.2092  3.3184 -0.5953
  496MPD2    H1 7377   4.242   1.065  15.756  1.0671 -1.0333  2.5158
  496MPD2    H2 7378   4.136   0.808  15.433 -0.0830 -1.5323  0.8346
  496MPD2    H3 7379   4.085   0.998  15.610  0.4005  0.8252 -1.3246
  496MPD2     N 7380   4.479   0.971  15.808 -0.6951  0.4067 -0.4531
  496MPD2    H5 7381   4.430   1.022  15.881  0.2404 -0.4820  0.7890
  496MPD2    N1 7382   4.371   0.708  15.404  0.3300  0.4046  0.0072
  496MPD2    H7 7383   4.308   0.684  15.328 -0.6903  1.6579  0.4633
  497TMC3    C1 7384   4.669   0.975  15.958 -0.0178 -0.4661 -0.3266
  497TMC3    C2 7385   4.602   0.977  16.075 -0.7543  0.3331  0.5480
  497TMC3    C3 7386   4.662   1.016  16.193  0.3176  0.3851  0.3958
  497TMC3    C4 7387   0.078   1.006  15.956 -0.2508 -0.3645 -0.1506
  497TMC3    C5 7388   0.136   1.041  16.079 -0.0782 -0.4571  0.0082
  497TMC3    C6 7389   0.067   1.049  16.197 -0.2543 -0.6516 -0.1392
  497TMC3     C 7390   4.614   0.941  15.827 -0.8714 -0.1941  0.4042
  497TMC3     O 7391   4.683   0.893  15.740 -0.3349  0.3903  0.0766
  497TMC3     H 7392   4.495   0.962  16.069 -0.8957  1.3868  0.5048
  497TMC3    H1 7393   0.134   1.005  15.863 -0.2882 -1.4929 -0.1648
  497TMC3    H2 7394   0.122   1.089  16.281 -1.0202 -1.4277  0.7280
  497TMC3    C7 7395   0.282   1.057  16.088  0.0673 -0.1570  0.0354
  497TMC3    C8 7396   4.588   1.015  16.316  0.8430  0.3946 -0.2735
  497TMC3    O1 7397   0.341   1.108  16.185 -0.0863 -0.2427  0.0407
  497TMC3    O2 7398   4.468   0.994  16.306 -0.3326 -0.1164 -1.0052
  498MPD2     C 7399   1.287   1.124   9.198 -0.0647 -0.3894 -0.1284
  498MPD2    C1 7400   1.231   1.202   9.302  0.0044  0.1789 -0.4112
  498MPD2    C2 7401   1.103   1.172   9.342 -0.1780  0.7645 -0.3639
  498MPD2    C3 7402   1.029   1.061   9.295 -0.0805  0.3776  0.4897
  498MPD2    C4 7403   1.093   0.978   9.207 -0.1214 -0.3076  0.6667
  498MPD2    C5 7404   1.216   1.019   9.150  0.1803 -0.6751  0.3552
  498MPD2     H 7405   1.049   1.238   9.410  1.3781  0.9797  0.6670
  498MPD2    H1 7406   1.049   0.885   9.173  0.6991  0.3789 -2.2919
  498MPD2    H2 7407   1.390   1.132   9.165 -0.1929  0.1328 -0.4005
  498MPD2    H3 7408   1.256   0.953   9.073  2.5839 -0.4462  1.4280
  498MPD2     N 7409   0.899   1.044   9.345 -0.2660 -0.6066 -0.1130
  498MPD2    H5 7410   0.862   1.115   9.408  0.3523 -1.0643  0.7582
  498MPD2    N1 7411   1.304   1.312   9.358 -0.2047 -0.0741  0.1282
  498MPD2    H7 7412   1.254   1.372   9.422 -1.1557 -0.8396  0.0988
  499TMC3    C1 7413   1.496   1.459   9.397 -0.3017  0.4602  0.2020
  499TMC3    C2 7414   1.633   1.459   9.408  0.0517 -0.4093 -0.3371
  499TMC3    C3 7415   1.696   1.581   9.427  0.2307  0.4727  0.3236
  499TMC3    C4 7416   1.417   1.571   9.405 -0.1136  0.7364 -0.4700
  499TMC3    C5 7417   1.483   1.685   9.432  0.8808  0.0214  0.2822
  499TMC3    C6 7418   1.618   1.692   9.444 -0.1451 -0.0144  0.0028
  499TMC3     C 7419   1.445   1.332   9.340  0.0791 -0.2906  0.1423
  499TMC3     O 7420   1.523   1.274   9.269  0.1573 -0.0160  0.0285
  499TMC3     H 7421   1.686   1.365   9.402 -0.6182 -0.8773  1.0566
  499TMC3    H1 7422   1.313   1.556   9.378 -0.6862 -1.5521  2.9620
  499TMC3    H2 7423   1.665   1.782   9.480 -0.2655  0.2485 -0.4988
  499TMC3    C7 7424   1.420   1.813   9.455 -0.4001 -0.0801 -0.8025
  499TMC3    C8 7425   1.837   1.601   9.461  0.3998 -0.2471 -0.6175
  499TMC3    O1 7426   1.482   1.916   9.432 -0.0018  0.2581  0.0854
  499TMC3    O2 7427   1.886   1.711   9.471  0.1322 -0.2085 -0.3121
  500MPD2     C 7428   2.401   2.277  10.287  0.1696  0.1878 -0.2453
  500MPD2    C1 7429   2.417   2.381  10.196  0.3910 -0.0351  0.6056
  500MPD2    C2 7430   2.309   2.421  10.120 -0.1123  0.3973 -0.4969
  500MPD2    C3 7431   2.183   2.370  10.142  0.3803  0.9272 -0.6979
  500MPD2    C4 7432   2.172   2.272  10.237  1.0028  0.0406  0.1359
  500MPD2    C5 7433   2.277   2.227  10.306  0.1024  0.1601 -0.4990
  500MPD2     H 7434   2.324   2.503  10.050  0.2899  0.6141 -0.1568
  500MPD2    H1 7435   2.072   2.238  10.261  1.4093 -1.2386 -0.0042
  500MPD2    H2 7436   2.474   2.217  10.340 -0.8908  1.3707  2.5365
  500MPD2    H3 7437   2.257   2.158  10.387  2.3488  0.7029  0.5098
  500MPD2     N 7438   2.064   2.411  10.076  0.6682 -0.1544  0.4484
  500MPD2    H5 7439   1.981   2.358  10.102  1.7489 -2.1802 -0.2377
  500MPD2    N1 7440   2.536   2.446  10.175 -0.4835  0.4857  0.2953
  500MPD2    H7 7441   2.527   2.529  10.118  0.5703 -0.6829 -1.5895
  501TMC3    C1 7442   2.765   2.498  10.176 -0.3810 -0.1624 -0.6699
  501TMC3    C2 7443   2.744   2.608  10.100  0.0346 -0.5513  0.0765
  501TMC3    C3 7444   2.839   2.698  10.094 -0.0355 -0.3122  0.4562
  501TMC3    C4 7445   2.881   2.488  10.249 -0.1944 -0.1294 -0.3063
  501TMC3    C5 7446   2.982   2.574  10.230 -0.2221 -0.7367  0.0568
  501TMC3    C6 7447   2.967   2.684  10.148  0.0058 -0.3164 -1.0516
  501TMC3     C 7448   2.658   2.412  10.224  0.4731 -0.4151  0.0893
  501TMC3     O 7449   2.676   2.307  10.284 -0.2237 -0.2138 -0.5221
  501TMC3     H 7450   2.646   2.617  10.054  0.6544  0.5873 -0.9942
  501TMC3    H1 7451   2.874   2.412  10.326 -0.8031  0.9442  0.7046
  501TMC3    H2 7452   3.040   2.763  10.133 -2.0936  1.5919 -1.1103
  501TMC3    C7 7453   3.076   2.590  10.345 -1.1676  0.7445 -0.3625
  501TMC3    C8 7454   2.808   2.834  10.089 -0.0787 -0.6086  0.5669
  501TMC3    O1 7455   3.088   2.485  10.413 -0.1731  0.3878  0.2292
  501TMC3    O2 7456   2.872   2.897  10.177  0.9642  0.0507  0.6119
  502TMC3    C1 7457   1.915   0.642  14.880  0.3086  0.1547  0.4010
  502TMC3    C2 7458   1.879   0.736  14.791  0.0722  0.2905 -0.2229
  502TMC3    C3 7459   1.751   0.767  14.763 -0.0297 -0.2114 -0.1887
  502TMC3    C4 7460   1.821   0.587  14.957 -0.2350 -0.3736 -0.0964
  502TMC3    C5 7461   1.688   0.613  14.947  0.3625 -0.5879  0.1474
  502TMC3    C6 7462   1.662   0.702  14.847  1.0653  0.3882 -0.3835
  502TMC3     C 7463   2.025   0.709  14.950  0.5356 -0.3617 -0.2807
  502TMC3     O 7464   2.133   0.700  14.895 -0.1780  0.0486 -0.4670
  502TMC3     H 7465   1.953   0.796  14.739 -1.1617  1.3726 -0.7085
  502TMC3    H1 7466   1.862   0.513  15.026  1.2823 -0.7374 -1.3833
  502TMC3    H2 7467   1.558   0.717  14.823  0.7130 -0.3902  0.6777
  502TMC3    C7 7468   1.644   0.651  15.081  0.3297  0.4023  0.0001
  502TMC3    C8 7469   1.741   0.915  14.752  0.7275  0.3153 -0.6435
  502TMC3    O1 7470   1.731   0.637  15.167 -0.0816  0.0459  0.1670
  502TMC3    O2 7471   1.810   0.970  14.668 -0.2090  0.2652 -0.2523
  503MPD2     C 7472   4.179   2.335  16.494  0.2869  0.4294 -0.0132
  503MPD2    C1 7473   4.235   2.355  16.617 -0.4066 -0.0187  0.4718
  503MPD2    C2 7474   4.272   2.246  16.694 -0.6509 -0.7471 -0.1023
  503MPD2    C3 7475   4.278   2.116  16.648  0.0480  0.6131  0.3665
  503MPD2    C4 7476   4.246   2.101  16.513 -0.3690 -0.9003  0.5031
  503MPD2    C5 7477   4.191   2.209  16.444  0.5091 -0.8049  0.6170
  503MPD2     H 7478   4.307   2.264  16.796 -0.6706 -1.8894  0.1113
  503MPD2    H1 7479   4.250   2.011  16.452  2.1953  1.3133 -2.5700
  503MPD2    H2 7480   4.131   2.406  16.427  0.1787  0.8145  0.4682
  503MPD2    H3 7481   4.148   2.193  16.345 -1.3239 -0.0594  1.2813
  503MPD2     N 7482   4.325   2.016  16.731  0.2475 -0.1864  0.0370
  503MPD2    H5 7483   4.358   2.051  16.821  0.7568 -0.9680  0.1506
  503MPD2    N1 7484   4.228   2.484  16.677  0.3508  0.8512 -0.0772
  503MPD2    H7 7485   4.243   2.484  16.777 -1.2976 -0.7245  0.1574
  504TMC3    C1 7486   4.431   1.821  16.792 -0.0187  0.1812  0.1743
  504TMC3    C2 7487   4.391   1.836  16.924  0.0984 -0.8902 -0.8617
  504TMC3    C3 7488   4.449   1.754  17.020  0.5017 -0.2398 -0.2454
  504TMC3    C4 7489   4.528   1.733  16.755  0.6582 -0.0530  0.2146
  504TMC3    C5 7490   4.587   1.658  16.852  0.2664 -0.6389 -0.6653
  504TMC3    C6 7491   4.553   1.669  16.988  0.3489  0.3852 -0.2637
  504TMC3     C 7492   4.354   1.890  16.688  0.2460  0.2874  0.0661
  504TMC3     O 7493   4.362   1.836  16.580 -0.2776  0.3759  0.6996
  504TMC3     H 7494   4.299   1.889  16.947  1.2012  0.8119 -0.3878
  504TMC3    H1 7495   4.542   1.721  16.648  0.0422  4.2967 -0.3708
  504TMC3    H2 7496   4.603   1.615  17.068 -1.5446 -1.4080 -0.2870
  504TMC3    C7 7497   4.691   1.565  16.812 -0.0214 -0.5227 -0.1567
  504TMC3    C8 7498   4.421   1.795  17.158 -0.2544 -0.5914  0.1922
  504TMC3    O1 7499   0.012   1.588  16.698 -0.0151 -0.4021  0.1712
  504TMC3    O2 7500   4.352   1.891  17.179  0.0382 -0.2837 -0.4832
  505MPD2     C 7501   4.533   1.431   9.927 -0.6401  0.1488  0.2982
  505MPD2    C1 7502   4.507   1.315   9.998  0.0344 -0.9169 -0.0658
  505MPD2    C2 7503   4.586   1.288  10.112 -0.3770  0.1240  0.0585
  505MPD2    C3 7504   4.685   1.381  10.148 -0.1730  0.3167  0.1914
  505MPD2    C4 7505   4.691   1.507  10.092  0.2887  0.1811  1.1267
  505MPD2    C5 7506   4.618   1.528   9.977  0.2274  0.2499 -0.0867
  505MPD2     H 7507   4.584   1.195  10.168  0.0699  0.9288  1.4219
  505MPD2    H1 7508   0.031   1.586  10.129  1.6585 -0.0269 -0.8153
  505MPD2    H2 7509   4.484   1.447   9.832 -1.2753  1.7596  0.9043
  505MPD2    H3 7510   4.635   1.621   9.925  0.0297  0.1870 -0.2611
  505MPD2     N 7511   0.057   1.344  10.249  0.5592 -0.0694 -0.0396
  505MPD2    H5 7512   0.116   1.420  10.282  1.2762 -0.6016 -0.1060
  505MPD2    N1 7513   4.407   1.231   9.945  0.2668  0.1537 -0.6325
  505MPD2    H7 7514   4.372   1.259   9.854 -1.6556  2.2577  0.7610
  506TMC3    C1 7515   4.311   1.014   9.905 -0.3114  0.3364 -0.2126
  506TMC3    C2 7516   4.368   1.005   9.779 -0.6697  0.4723 -0.3979
  506TMC3    C3 7517   4.394   0.882   9.724  0.2288  0.1056 -0.4411
  506TMC3    C4 7518   4.285   0.901   9.977 -0.2031  0.2132 -0.1472
  506TMC3    C5 7519   4.319   0.783   9.925 -0.1637 -0.0953 -0.6817
  506TMC3    C6 7520   4.364   0.772   9.797  0.0422  0.1093 -0.2854
  506TMC3     C 7521   4.376   1.105   9.999 -0.1813 -0.5780 -0.5886
  506TMC3     O 7522   4.409   1.059  10.111  0.0932 -0.2345 -0.1317
  506TMC3     H 7523   4.393   1.097   9.727 -0.1234  0.3821 -0.3005
  506TMC3    H1 7524   4.242   0.906  10.077  0.1960  1.9945 -0.0564
  506TMC3    H2 7525   4.376   0.673   9.753 -0.8525 -0.8996  1.7369
  506TMC3    C7 7526   4.394   0.695  10.022  0.5378 -0.1627 -0.4128
  506TMC3    C8 7527   4.495   0.883   9.628 -0.9581  0.4908  0.5360
  506TMC3    O1 7528   4.429   0.582   9.985  0.4194  0.5613 -0.2819
  506TMC3    O2 7529   4.557   0.986   9.610  0.4322  0.9639 -0.3311
  507TMC3    C1 7530   0.979   1.376  13.771  0.3723  0.2873 -0.4988
  507TMC3    C2 7531   0.871   1.425  13.698  0.2180  0.5589  0.1294
  507TMC3    C3 7532   0.880   1.553  13.641  0.5476  0.5472  0.3570
  507TMC3    C4 7533   1.091   1.451  13.799 -0.8520 -0.7439  0.5617
  507TMC3    C5 7534   1.086   1.577  13.752 -0.0196 -0.1843  0.2290
  507TMC3    C6 7535   0.983   1.632  13.672 -0.0191 -0.4983 -0.6266
  507TMC3     C 7536   0.959   1.251  13.832  0.2035 -0.1895  0.3767
  507TMC3     O 7537   0.841   1.217  13.861 -0.9341 -0.0456  0.5036
  507TMC3     H 7538   0.789   1.356  13.680  1.8398 -1.4373  0.2862
  507TMC3    H1 7539   1.162   1.429  13.878 -0.1030  1.1857  0.4267
  507TMC3    H2 7540   1.010   1.723  13.620 -0.1562  0.5627  1.1599
  507TMC3    C7 7541   1.118   1.679  13.847 -0.8305  0.6227 -0.4397
  507TMC3    C8 7542   0.763   1.626  13.627 -0.8759 -0.7722 -0.0731
  507TMC3    O1 7543   1.213   1.656  13.919  0.0796 -0.5187  0.2931
  507TMC3    O2 7544   0.774   1.745  13.646  0.0440 -0.9324 -0.6565
  508MPD2     C 7545   1.574   3.611  16.037  0.2460  0.3429  0.2895
  508MPD2    C1 7546   1.666   3.717  16.057  0.2792  1.0168 -0.2183
  508MPD2    C2 7547   1.681   3.803  15.945  0.0241  0.6676 -0.0319
  508MPD2    C3 7548   1.617   3.777  15.828 -0.0912 -0.6832 -0.5336
  508MPD2    C4 7549   1.562   3.652  15.807  0.5133 -0.0647 -0.0011
  508MPD2    C5 7550   1.548   3.566  15.908  0.2249 -0.2728  0.0601
  508MPD2     H 7551   1.733   3.897  15.957  1.9599 -0.6025  1.6456
  508MPD2    H1 7552   1.529   3.619  15.709 -0.9774 -0.4019  0.6148
  508MPD2    H2 7553   1.541   3.545  16.117 -0.2658  1.1436  0.7412
  508MPD2    H3 7554   1.502   3.470  15.886 -2.0642  1.2451 -1.7031
  508MPD2     N 7555   1.637   3.871  15.727  0.0070 -0.0216 -0.7927
  508MPD2    H5 7556   1.692   3.955  15.740 -0.4727  0.1498  0.1000
  508MPD2    N1 7557   1.702   3.750  16.190  0.4697  0.5501  0.3760
  508MPD2    H7 7558   1.686   3.684  16.265 -0.8414 -0.3394 -0.6887
  509TMC3    C1 7559   1.519   4.122  15.359 -0.2502  0.0160 -0.3080
  509TMC3    C2 7560   1.641   4.185  15.363 -0.5614  0.1622 -0.0188
  509TMC3    C3 7561   1.740   4.143  15.439  0.0385 -0.0933  0.1815
  509TMC3    C4 7562   1.499   4.009  15.429  0.1187 -0.6941 -0.1106
  509TMC3    C5 7563   1.596   3.975  15.519 -0.6550  0.4635  0.5792
  509TMC3    C6 7564   1.719   4.043  15.526 -0.0937  0.2193  0.0888
  509TMC3     C 7565   1.408   4.167  15.285 -0.0940  0.0644 -0.3257
  509TMC3     O 7566   1.322   4.080  15.267 -0.0154 -0.2186 -0.4713
  509TMC3     H 7567   1.661   4.266  15.293 -0.0586 -1.1366 -1.3583
  509TMC3    H1 7568   1.414   3.942  15.419 -1.0061  0.7598 -0.3405
  509TMC3    H2 7569   1.797   4.001  15.588 -0.0320 -0.5828 -0.5237
  509TMC3    C7 7570   1.582   3.859  15.601  0.3677 -0.4818  0.1284
  509TMC3    C8 7571   1.865   4.216  15.441  0.8232 -0.2001 -0.3466
  509TMC3    O1 7572   1.491   3.781  15.569 -0.3262  0.3326 -0.0030
  509TMC3    O2 7573   1.964   4.145  15.442 -0.1054  0.2378 -0.2635
  510MPD2     C 7574   3.574   0.810  14.149  0.1733 -0.0534  0.3656
  510MPD2    C1 7575   3.638   0.847  14.270 -0.4865 -0.3157  0.3694
  510MPD2    C2 7576   3.770   0.890  14.275  0.1002  0.1844 -0.2857
  510MPD2    C3 7577   3.840   0.888  14.156  0.3023 -0.1063  0.4395
  510MPD2    C4 7578   3.779   0.863  14.038  0.3114  0.6708  0.0792
  510MPD2    C5 7579   3.643   0.833  14.034 -0.1528 -0.4953  0.8382
  510MPD2     H 7580   3.823   0.914  14.367 -0.2698 -0.7271  0.1605
  510MPD2    H1 7581   3.837   0.860  13.946 -1.6991  0.1050 -1.1702
  510MPD2    H2 7582   3.478   0.761  14.143  0.7421 -1.4302  2.6124
  510MPD2    H3 7583   3.590   0.806  13.943  0.0260 -1.1186  0.9197
  510MPD2     N 7584   3.979   0.915  14.164  0.6249 -0.2210  0.1172
  510MPD2    H5 7585   4.012   0.915  14.260  1.1134  1.6100 -0.0450
  510MPD2    N1 7586   3.572   0.821  14.385  0.7321  0.2872 -0.4119
  510MPD2    H7 7587   3.486   0.768  14.377  0.6772  0.1668  0.8458
  511TMC3    C1 7588   3.534   0.775  14.605  0.5372 -0.0280  0.0891
  511TMC3    C2 7589   3.509   0.840  14.725 -0.2990  0.2430 -0.1300
  511TMC3    C3 7590   3.440   0.771  14.817  0.5944  0.7642  0.5649
  511TMC3    C4 7591   3.492   0.653  14.574 -0.2407  0.2232 -0.1624
  511TMC3    C5 7592   3.450   0.583  14.687  0.2338 -0.9698 -0.7359
  511TMC3    C6 7593   3.418   0.640  14.808  0.5589 -0.0971 -0.4756
  511TMC3     C 7594   3.604   0.864  14.513  0.1199 -0.9617  0.8591
  511TMC3     O 7595   3.692   0.940  14.553 -0.0613  0.6213 -0.1456
  511TMC3     H 7596   3.528   0.946  14.737  1.6766 -0.4104  2.5424
  511TMC3    H1 7597   3.519   0.610  14.478  1.2017 -0.0161  0.3419
  511TMC3    H2 7598   3.365   0.580  14.881 -1.4419  1.3006 -0.7881
  511TMC3    C7 7599   3.354   0.485  14.645  0.4683 -0.5043 -0.1539
  511TMC3    C8 7600   3.374   0.843  14.926 -0.1831  0.0199 -1.0066
  511TMC3    O1 7601   3.314   0.473  14.528  0.8762  0.0350 -0.2085
  511TMC3    O2 7602   3.365   0.965  14.912  0.0050 -0.1205  0.1703
  512TMC3    C1 7603   2.366   4.635  13.236 -0.2109  0.0655 -0.3763
  512TMC3    C2 7604   2.431   4.530  13.299 -1.5105  0.6060  0.2467
  512TMC3    C3 7605   2.514   4.448  13.225  0.4610 -0.0306  0.6086
  512TMC3    C4 7606   2.399   4.676  13.113 -0.2096 -0.6227  0.5180
  512TMC3    C5 7607   2.487   4.587  13.048 -0.6077 -0.5905  0.0395
  512TMC3    C6 7608   2.552   4.484  13.102 -0.1584 -0.5043 -0.0370
  512TMC3     C 7609   2.246   4.674  13.306  0.8209  0.6538  0.7746
  512TMC3     O 7610   2.218   4.629  13.416 -0.7318  0.0811 -0.2701
  512TMC3     H 7611   2.424   4.509  13.405  2.1705  2.9996  0.9215
  512TMC3    H1 7612   2.340   0.018  13.052  1.1497  0.1003 -0.0047
  512TMC3    H2 7613   2.622   4.421  13.048 -1.9139 -0.6633 -2.1614
  512TMC3    C7 7614   2.473   4.600  12.904  0.7026  0.0058 -0.1241
  512TMC3    C8 7615   2.615   4.390  13.302 -0.2733  0.0977  0.0606
  512TMC3    O1 7616   2.438   4.710  12.858 -0.2939 -0.2476 -0.1821
  512TMC3    O2 7617   2.658   4.279  13.277 -0.0755 -0.1970  0.4945
  513MPD2     C 7618   3.892   4.274  12.984  0.8898  0.0767 -0.2860
  513MPD2    C1 7619   3.997   4.284  12.887 -0.3974  0.0499 -1.5564
  513MPD2    C2 7620   4.071   4.398  12.884 -0.7246  0.1948 -0.4950
  513MPD2    C3 7621   4.049   4.492  12.984  0.2712  0.4608 -0.2963
  513MPD2    C4 7622   3.946   4.475  13.077  0.0485  0.6917  0.0960
  513MPD2    C5 7623   3.862   4.374  13.079 -0.0966  0.1058  0.0229
  513MPD2     H 7624   4.132   4.416  12.796 -0.7252  1.6732 -0.1839
  513MPD2    H1 7625   3.920   4.555  13.146 -3.4804 -0.4890  0.1045
  513MPD2    H2 7626   3.827   4.187  12.984  0.5943  0.2929 -1.5739
  513MPD2    H3 7627   3.783   4.371  13.153  0.4076 -0.0656  0.5586
  513MPD2     N 7628   4.135   4.604  12.973  0.7371  0.2378 -0.7560
  513MPD2    H5 7629   4.211   4.600  12.906  2.2795 -1.0807  1.0611
  513MPD2    N1 7630   4.017   4.199  12.778 -0.6310  0.0481 -0.2182
  513MPD2    H7 7631   4.081   4.235  12.708 -0.2301  0.3999  0.3252
  514TMC3    C1 7632   3.971   4.040  12.615  0.3595 -0.2309 -0.3639
  514TMC3    C2 7633   3.888   4.086  12.519 -0.1559 -0.0725  0.5810
  514TMC3    C3 7634   3.936   4.112  12.397 -0.1639 -0.0416  0.3125
  514TMC3    C4 7635   4.100   4.017  12.596  0.0676  0.2969 -0.1397
  514TMC3    C5 7636   4.154   4.069  12.484  0.5839 -0.3738  0.7488
  514TMC3    C6 7637   4.072   4.109  12.385 -0.0310  0.0079  0.3171
  514TMC3     C 7638   3.933   4.092  12.744  0.7212  0.6845 -0.0562
  514TMC3     O 7639   3.839   4.045  12.802 -0.7539 -0.3929 -0.2592
  514TMC3     H 7640   3.784   4.101  12.547 -0.2500  0.6417 -0.1687
  514TMC3    H1 7641   4.164   3.998  12.681 -0.6777  0.2046  0.4089
  514TMC3    H2 7642   4.115   4.157  12.298  1.5902 -1.7987  0.1342
  514TMC3    C7 7643   4.248   4.180  12.514  1.0532  0.5628 -0.8018
  514TMC3    C8 7644   3.844   4.152  12.296 -0.8381 -0.2225 -0.2578
  514TMC3    O1 7645   4.190   4.285  12.550  0.0102 -0.6815  0.0788
  514TMC3    O2 7646   3.738   4.202  12.329 -0.2752 -0.9443 -0.6773
  515MPD2     C 7647   2.826   2.085  14.330  0.4578  0.3770  0.0740
  515MPD2    C1 7648   2.871   1.967  14.386 -0.2023 -0.8656 -0.8161
  515MPD2    C2 7649   2.983   1.969  14.456 -0.6752 -0.5963  0.3256
  515MPD2    C3 7650   3.044   2.083  14.503  0.6034  0.8529  0.1551
  515MPD2    C4 7651   2.999   2.197  14.445 -0.4011  0.6429 -0.3018
  515MPD2    C5 7652   2.898   2.201  14.358 -0.7069  0.2179 -0.5396
  515MPD2     H 7653   3.015   1.873  14.497 -0.5077 -0.6746  0.0098
  515MPD2    H1 7654   3.045   2.289  14.481  1.1679 -0.7739  1.3573
  515MPD2    H2 7655   2.747   2.082  14.257  0.1119 -1.3662  0.5165
  515MPD2    H3 7656   2.864   2.293  14.313 -0.9267  0.5435  0.2881
  515MPD2     N 7657   3.152   2.095  14.594 -0.2074 -0.1842  0.8204
  515MPD2    H5 7658   3.196   2.184  14.612 -0.2125 -0.2416  1.1151
  515MPD2    N1 7659   2.809   1.843  14.368  0.5840 -0.3042  0.2911
  515MPD2    H7 7660   2.851   1.763  14.414 -1.5498 -1.3614  0.4240
  516TMC3    C1 7661   2.668   1.678  14.302  0.0380  0.6840 -0.4936
  516TMC3    C2 7662   2.595   1.655  14.186  0.1317  0.4181  0.5324
  516TMC3    C3 7663   2.561   1.525  14.170 -0.2280  0.2267  0.1320
  516TMC3    C4 7664   2.719   1.589  14.392 -0.2045  0.1709  0.3189
  516TMC3    C5 7665   2.664   1.463  14.373 -0.7031 -0.1346 -0.6969
  516TMC3    C6 7666   2.587   1.428  14.266 -0.0492  0.2588 -0.0718
  516TMC3     C 7667   2.693   1.818  14.306 -0.0486  0.5080  0.2951
  516TMC3     O 7668   2.622   1.896  14.243  0.2029 -0.1305  0.3698
  516TMC3     H 7669   2.572   1.729  14.110 -1.4937 -1.7023 -0.9945
  516TMC3    H1 7670   2.778   1.613  14.480 -2.5512  2.8754  1.1775
  516TMC3    H2 7671   2.552   1.326  14.257 -1.7229  0.9533 -1.4292
  516TMC3    C7 7672   2.669   1.386  14.494 -0.1805  0.7332 -0.7510
  516TMC3    C8 7673   2.447   1.502  14.092  0.1909 -0.1130 -0.2235
  516TMC3    O1 7674   2.754   1.421  14.573 -0.4294 -0.0926  0.1409
  516TMC3    O2 7675   2.382   1.403  14.129 -0.6538  0.0347  0.7107
  517MPD2     C 7676   2.718   3.783   0.088 -0.5466  0.0057  0.0313
  517MPD2    C1 7677   2.842   3.804   0.031 -0.3495  0.2727 -0.0580
  517MPD2    C2 7678   2.907   3.922   0.046  0.0515 -0.2320  0.1040
  517MPD2    C3 7679   2.846   4.027   0.105  0.7722 -0.4757  0.0793
  517MPD2    C4 7680   2.716   4.014   0.136  0.0306 -0.0234  0.2945
  517MPD2    C5 7681   2.652   3.895   0.133  0.5395  0.1853  0.0494
  517MPD2     H 7682   3.012   3.930   0.019  0.3635 -0.6242  1.2199
  517MPD2    H1 7683   2.654   4.089   0.184 -1.1855 -0.6974 -0.2187
  517MPD2    H2 7684   2.665   3.689   0.092 -2.1192  0.8857 -0.5231
  517MPD2    H3 7685   2.556   3.868   0.177 -0.4600  0.6538 -1.8789
  517MPD2     N 7686   2.911   4.152   0.120 -0.4247 -0.6673  0.3295
  517MPD2    H5 7687   2.864   4.221   0.178  0.7044 -0.2121  0.7108
  517MPD2    N1 7688   2.914   3.691  17.685  0.5545 -0.0038  0.8254
  517MPD2    H7 7689   3.014   3.702  17.672  0.5251 -1.6647 -0.8585
  518TMC3    C1 7690   2.956   3.462  17.608  0.2702 -0.4137  0.2903
  518TMC3    C2 7691   2.908   3.343  17.583 -0.0990  0.5033  1.0221
  518TMC3    C3 7692   2.975   3.248  17.516  0.4040 -0.3970 -0.1823
  518TMC3    C4 7693   3.081   3.491  17.559 -0.0683  0.1792  0.3370
  518TMC3    C5 7694   3.151   3.392  17.482  0.1298  0.0324 -0.0171
  518TMC3    C6 7695   3.100   3.272  17.469  0.1158  0.5977 -0.4331
  518TMC3     C 7696   2.859   3.567  17.647 -0.1836 -0.5892  0.8763
  518TMC3     O 7697   2.743   3.535  17.652  0.3264 -0.6014  0.1717
  518TMC3     H 7698   2.809   3.321  17.622  0.0801 -0.4853  0.9304
  518TMC3    H1 7699   3.123   3.589  17.576 -1.4659  0.7953  0.2303
  518TMC3    H2 7700   3.163   3.201  17.416  0.7896  0.9272 -0.0748
  518TMC3    C7 7701   3.276   3.441  17.423  0.1902 -0.9664 -0.4964
  518TMC3    C8 7702   2.916   3.123  17.466 -0.6565 -0.4624 -0.2460
  518TMC3    O1 7703   3.335   3.540  17.470 -0.0191 -0.0720 -0.2187
  518TMC3    O2 7704   2.997   3.031  17.445  0.1452 -0.9471 -0.6535
  519MPD2     C 7705   4.458   2.109  14.015 -0.0816 -0.8083 -0.2669
  519MPD2    C1 7706   4.418   1.993  14.077  0.6156  0.1454  0.0658
  519MPD2    C2 7707   4.442   1.873  14.015  0.3107  0.0381  0.6407
  519MPD2    C3 7708   4.512   1.870  13.897 -0.3372  0.0862  0.0878
  519MPD2    C4 7709   4.546   1.983  13.830  0.0416  0.1687 -0.3807
  519MPD2    C5 7710   4.518   2.100  13.894 -0.2667  0.5068 -0.1952
  519MPD2     H 7711   4.415   1.776  14.053 -0.4193 -0.0097 -0.0066
  519MPD2    H1 7712   4.611   1.986  13.743  0.1882  0.9392 -0.2476
  519MPD2    H2 7713   4.437   2.208  14.055  1.5816 -1.4962  2.3458
  519MPD2    H3 7714   4.555   2.192  13.850  2.2059 -1.1551 -1.6058
  519MPD2     N 7715   4.551   1.751  13.830 -0.2190  0.2918  0.1285
  519MPD2    H5 7716   4.574   1.752  13.731 -0.8916 -1.9695 -0.0610
  519MPD2    N1 7717   4.339   2.001  14.197  0.5466 -0.3040  0.1687
  519MPD2    H7 7718   4.307   2.092  14.227  0.4035 -0.5233  0.6742
  520TMC3    C1 7719   4.604   1.530  13.796  0.6626  0.0472 -0.3128
  520TMC3    C2 7720   4.543   1.518  13.678 -0.0412 -0.3265 -0.0102
  520TMC3    C3 7721   4.557   1.396  13.609  0.8250  0.3305  1.0160
  520TMC3    C4 7722   4.683   1.430  13.842  0.5383 -0.2392  0.5721
  520TMC3    C5 7723   4.708   1.321  13.766  0.3073  0.3684  0.5478
  520TMC3    C6 7724   4.644   1.298  13.649  0.1359  0.0578  0.2452
  520TMC3     C 7725   4.560   1.634  13.891 -0.3966 -0.4212  0.1954
  520TMC3     O 7726   4.558   1.605  14.009  0.0032 -0.5970 -0.2900
  520TMC3     H 7727   4.469   1.591  13.648 -1.8834 -1.3420  2.0062
  520TMC3    H1 7728   4.718   1.436  13.944 -2.2114 -0.4889  1.5309
  520TMC3    H2 7729   4.654   1.203  13.597 -0.2552 -0.6323  1.4333
  520TMC3    C7 7730   0.062   1.212  13.824  0.4062  0.3182  1.1075
  520TMC3    C8 7731   4.469   1.367  13.502  0.1178  0.1136 -0.0023
  520TMC3    O1 7732   0.084   1.230  13.942  0.1703 -0.4191 -0.8046
  520TMC3    O2 7733   4.495   1.281  13.418  0.3011 -0.3561  0.4442
  521MPD2     C 7734   0.428   0.060  17.047  0.3600  0.6218 -0.5890
  521MPD2    C1 7735   0.366   4.668  17.006  0.8519  0.0425 -0.0449
  521MPD2    C2 7736   0.450   4.560  16.992 -0.4031  0.0211  0.1174
  521MPD2    C3 7737   0.585   4.554  17.022 -0.4667 -1.2793  0.5696
  521MPD2    C4 7738   0.639   4.665  17.077  0.0810  0.1698  0.0040
  521MPD2    C5 7739   0.562   0.057  17.089  0.2183 -0.7547  0.6569
  521MPD2     H 7740   0.414   4.469  16.944  0.9051 -1.2855  1.6157
  521MPD2    H1 7741   0.740   4.668  17.116 -0.7768  1.1915  2.1898
  521MPD2    H2 7742   0.368   0.148  17.063  4.0358  2.8522  0.7921
  521MPD2    H3 7743   0.607   0.150  17.123  2.6259 -1.0812 -1.6296
  521MPD2     N 7744   0.645   4.422  17.011 -0.5323 -0.3270  0.0961
  521MPD2    H5 7745   0.579   4.346  17.004 -2.7860  1.6816 -0.5325
  521MPD2    N1 7746   0.224   4.664  16.973  0.1489  0.4357 -0.5024
  521MPD2    H7 7747   0.176   0.026  16.994  0.9962  0.8484 -0.2885
  522TMC3    C1 7748   0.824   4.262  16.983  0.7643  0.0561  0.4334
  522TMC3    C2 7749   0.950   4.233  17.025 -0.0991 -0.7091 -0.5816
  522TMC3    C3 7750   1.020   4.131  16.962 -0.1165 -0.2152 -0.4313
  522TMC3    C4 7751   0.768   4.198  16.876  0.1639 -0.5006  0.0095
  522TMC3    C5 7752   0.848   4.102  16.814 -0.1554 -0.7600  0.3890
  522TMC3    C6 7753   0.970   4.062  16.854 -1.2347 -0.1388 -0.1193
  522TMC3     C 7754   0.782   4.403  17.010  0.0396  0.5601  0.2665
  522TMC3     O 7755   0.871   4.482  17.034  0.5303 -0.3067 -0.2686
  522TMC3     H 7756   0.992   4.278  17.115  1.9871 -0.0183 -1.8962
  522TMC3    H1 7757   0.671   4.227  16.836  1.0003 -0.5914 -2.1155
  522TMC3    H2 7758   1.037   4.002  16.793 -1.0106 -1.5024  1.4641
  522TMC3    C7 7759   0.791   4.034  16.696 -0.2157 -0.3217  0.1487
  522TMC3    C8 7760   1.153   4.099  17.025 -0.4207 -0.1062  0.0818
  522TMC3    O1 7761   0.847   3.934  16.650  0.1362  0.2346  0.0408
  522TMC3    O2 7762   1.181   4.172  17.119  0.0083 -0.0231  0.3685
  523MPD2     C 7763   2.689   4.006  10.159 -1.0099  0.0432  0.0796
  523MPD2    C1 7764   2.724   3.968  10.033 -0.6917  0.4999  0.5741
  523MPD2    C2 7765   2.739   4.069   9.935 -0.1323  0.4715  0.1776
  523MPD2    C3 7766   2.720   4.203   9.966  0.1449 -1.1238  0.3844
  523MPD2    C4 7767   2.711   4.240  10.096 -0.0513 -0.4256 -0.1438
  523MPD2    C5 7768   2.696   4.140  10.190 -0.2397  0.0766  0.6719
  523MPD2     H 7769   2.764   4.049   9.832  2.6051  2.5958  0.4290
  523MPD2    H1 7770   2.704   4.345  10.122  1.5492 -0.2266 -0.4796
  523MPD2    H2 7771   2.660   3.953  10.249 -0.0390 -1.8717 -0.7210
  523MPD2    H3 7772   2.676   4.166  10.293 -0.0837 -2.2410  1.2808
  523MPD2     N 7773   2.733   4.312   9.877 -0.3303  0.1825 -0.0085
  523MPD2    H5 7774   2.731   4.405   9.917 -1.3917 -0.0366  0.4450
  523MPD2    N1 7775   2.749   3.826  10.012 -0.0061  0.1454  0.1048
  523MPD2    H7 7776   2.748   3.770  10.097 -0.2447  1.4787  0.9751
  524TMC3    C1 7777   2.760   4.415   9.672  0.4732 -1.1748  0.1503
  524TMC3    C2 7778   2.841   4.431   9.564 -0.2189 -0.8537  0.5952
  524TMC3    C3 7779   2.827   4.551   9.496 -0.6763 -0.1105 -0.3900
  524TMC3    C4 7780   2.661   4.505   9.703 -0.6691  0.0979 -0.8089
  524TMC3    C5 7781   2.653   4.617   9.631 -0.4388  0.5959  0.0885
  524TMC3    C6 7782   2.733   4.649   9.524 -0.2195  0.5404  0.1018
  524TMC3     C 7783   2.761   4.291   9.744 -0.5570  0.3785  0.0171
  524TMC3     O 7784   2.767   4.196   9.670  0.9663 -0.3130  0.2590
  524TMC3     H 7785   2.932   4.374   9.549 -0.4143 -0.0145 -3.8072
  524TMC3    H1 7786   2.583   4.479   9.774  0.0312 -0.0503 -0.1046
  524TMC3    H2 7787   2.741   0.013   9.462 -1.0628  0.8444  0.4271
  524TMC3    C7 7788   2.533   4.694   9.651  0.5340 -0.7028  0.7761
  524TMC3    C8 7789   2.947   4.590   9.434 -0.8045 -0.3761 -0.2712
  524TMC3    O1 7790   2.474   4.664   9.750 -0.5998  0.2090 -0.0428
  524TMC3    O2 7791   2.983   4.709   9.440  0.0752 -0.6971 -0.3847
  525MPD2     C 7792   0.721   0.821  14.416  0.0209  0.6763 -0.2053
  525MPD2    C1 7793   0.810   0.899  14.493 -0.0053 -0.4359 -0.3344
  525MPD2    C2 7794   0.847   1.027  14.447  0.2198 -0.2531 -0.2517
  525MPD2    C3 7795   0.810   1.076  14.324 -0.2357 -0.1837  1.0759
  525MPD2    C4 7796   0.726   0.997  14.249  0.6739  0.9641  0.2070
  525MPD2    C5 7797   0.680   0.873  14.296  0.1532 -0.1836 -0.6752
  525MPD2     H 7798   0.919   1.090  14.499  0.2617 -1.3269  0.9812
  525MPD2    H1 7799   0.687   1.032  14.154  2.4425  0.3524 -0.7409
  525MPD2    H2 7800   0.700   0.717  14.442 -1.4040  0.8573 -0.6095
  525MPD2    H3 7801   0.611   0.825  14.227 -0.8748 -1.2442  1.0637
  525MPD2     N 7802   0.847   1.189  14.259  0.5473 -0.1661 -0.6393
  525MPD2    H5 7803   0.804   1.207  14.169 -0.6595  1.3787  0.2318
  525MPD2    N1 7804   0.861   0.850  14.611  0.4554  0.4140 -0.1534
  525MPD2    H7 7805   0.952   0.883  14.641  0.6087 -0.9412  0.8307
  526TMC3    C1 7806   0.895   0.723  14.807  0.0498  0.2223  0.2608
  526TMC3    C2 7807   0.837   0.697  14.928  0.3253 -0.6082 -0.4418
  526TMC3    C3 7808   0.909   0.664  15.041 -0.2847  0.3781 -0.2809
  526TMC3    C4 7809   1.028   0.692  14.779 -0.2651 -0.0007  0.0075
  526TMC3    C5 7810   1.099   0.657  14.892  0.0837  0.7609 -0.1415
  526TMC3    C6 7811   1.043   0.643  15.021 -0.5339 -0.3858  0.0448
  526TMC3     C 7812   0.803   0.764  14.700 -0.3763 -0.0497  0.2600
  526TMC3     O 7813   0.685   0.737  14.712  0.1088  0.0671 -0.2160
  526TMC3     H 7814   0.730   0.712  14.934  1.0985  4.3682  0.8600
  526TMC3    H1 7815   1.081   0.710  14.686 -2.5265  0.2556 -1.2495
  526TMC3    H2 7816   1.110   0.615  15.101 -0.5013  0.0112  0.1576
  526TMC3    C7 7817   1.227   0.594  14.879 -0.0945 -0.1477  0.3961
  526TMC3    C8 7818   0.891   0.739  15.160  0.3566 -0.0804 -0.4143
  526TMC3    O1 7819   1.304   0.602  14.970  0.1275 -0.1372 -0.6069
  526TMC3    O2 7820   0.996   0.779  15.211 -0.1932  0.3383 -0.5962
  527MPD2     C 7821   3.562   4.143   0.774  0.3229  0.0305 -0.3876
  527MPD2    C1 7822   3.605   4.097   0.898  0.1409 -0.4643  0.2938
  527MPD2    C2 7823   3.736   4.043   0.898  0.5528  0.4241  0.5847
  527MPD2    C3 7824   3.813   4.029   0.786  0.3051 -0.1736 -0.0979
  527MPD2    C4 7825   3.763   4.062   0.663 -0.2020 -0.1603  0.9235
  527MPD2    C5 7826   3.642   4.129   0.662  0.1426 -0.4599  0.3472
  527MPD2     H 7827   3.778   4.002   0.989  1.3361  0.2501  0.1458
  527MPD2    H1 7828   3.828   4.066   0.576  0.2069  3.3722  1.3636
  527MPD2    H2 7829   3.467   4.195   0.765  0.3786  0.3977  1.1175
  527MPD2    H3 7830   3.611   4.172   0.567  0.4529  2.6011  1.6208
  527MPD2     N 7831   3.942   3.976   0.802 -0.1149 -1.0618 -0.2545
  527MPD2    H5 7832   3.970   3.948   0.895  0.0015 -2.0924 -0.5977
  527MPD2    N1 7833   3.542   4.115   1.023  0.0433 -0.4805 -0.4046
  527MPD2    H7 7834   3.589   4.083   1.107  0.9415  2.9180  0.3971
  528TMC3    C1 7835   3.395   4.183   1.187 -0.3342  0.0369  0.0067
  528TMC3    C2 7836   3.482   4.118   1.276 -0.3575 -0.8730 -0.2009
  528TMC3    C3 7837   3.444   4.124   1.408 -0.5015 -0.1973  0.2773
  528TMC3    C4 7838   3.293   4.270   1.229  0.3473 -0.0820 -0.3194
  528TMC3    C5 7839   3.268   4.279   1.363 -0.7158 -0.4383 -0.7630
  528TMC3    C6 7840   3.346   4.211   1.453 -0.4865  0.2258  0.5175
  528TMC3     C 7841   3.430   4.191   1.051  0.2921 -0.2074  0.3277
  528TMC3     O 7842   3.359   4.255   0.975  0.0636  0.0762  0.1690
  528TMC3     H 7843   3.560   4.047   1.249  2.6762  2.6124 -0.5483
  528TMC3    H1 7844   3.260   4.349   1.163 -0.8489  0.5810  1.0734
  528TMC3    H2 7845   3.323   4.217   1.558 -2.3947 -0.7977  0.1656
  528TMC3    C7 7846   3.142   4.345   1.411  0.4317 -1.3872 -0.2178
  528TMC3    C8 7847   3.546   4.087   1.499 -0.4522  0.2934  0.0432
  528TMC3    O1 7848   3.129   4.364   1.532  0.3256 -0.6486 -0.0214
  528TMC3    O2 7849   3.660   4.068   1.453 -0.3603 -0.3540 -0.4475
  529MPD2     C 7850   2.047   3.320   0.516 -0.6420 -0.2322 -0.3211
  529MPD2    C1 7851   2.005   3.211   0.446 -0.0599 -0.2987 -0.0946
  529MPD2    C2 7852   1.944   3.230   0.324  0.3184  0.4995  0.5039
  529MPD2    C3 7853   1.928   3.359   0.273 -0.4861 -1.0237  0.0599
  529MPD2    C4 7854   1.958   3.466   0.349  0.4164 -0.3113 -0.0440
  529MPD2    C5 7855   2.013   3.442   0.473 -1.0650 -0.0559 -0.4425
  529MPD2     H 7856   1.914   3.150   0.257 -1.9733 -0.9661  3.2714
  529MPD2    H1 7857   1.940   3.566   0.312 -3.4872 -0.6276  0.9880
  529MPD2    H2 7858   2.070   3.312   0.621 -0.3985 -0.7158 -0.4108
  529MPD2    H3 7859   2.032   3.530   0.533 -3.8238 -0.1185  0.5320
  529MPD2     N 7860   1.878   3.389   0.141  0.8937 -0.3776 -0.5395
  529MPD2    H5 7861   1.890   3.484   0.107  0.9726 -0.1121  0.2384
  529MPD2    N1 7862   2.034   3.078   0.490  0.2990 -0.7553  0.2137
  529MPD2    H7 7863   1.982   3.008   0.438 -2.4746  0.8551  0.8290
  530TMC3    C1 7864   2.070   2.904   0.652  0.3630 -0.1117  0.2760
  530TMC3    C2 7865   2.163   2.850   0.726  0.1588 -0.2000  0.2016
  530TMC3    C3 7866   2.153   2.722   0.773  0.2270 -0.0047 -0.1882
  530TMC3    C4 7867   1.953   2.835   0.621 -0.1688 -0.4571 -0.4073
  530TMC3    C5 7868   1.938   2.718   0.691  0.2559  0.0575 -0.4421
  530TMC3    C6 7869   2.037   2.658   0.760 -0.2243 -0.1608  0.2399
  530TMC3     C 7870   2.093   3.042   0.612  0.4400  0.2363 -0.0839
  530TMC3     O 7871   2.159   3.113   0.684  0.1427  0.0881 -0.5390
  530TMC3     H 7872   2.252   2.909   0.741  0.8960 -1.6041  1.3851
  530TMC3    H1 7873   1.870   2.873   0.562 -1.5584 -2.7266  0.0972
  530TMC3    H2 7874   2.027   2.557   0.797 -0.0110 -0.4227 -0.4301
  530TMC3    C7 7875   1.807   2.657   0.680  0.0022  0.0416 -0.6572
  530TMC3    C8 7876   2.241   2.699   0.887  0.1563  0.1589 -0.1933
  530TMC3    O1 7877   1.714   2.721   0.635 -0.5857 -0.5025 -0.0176
  530TMC3    O2 7878   2.318   2.787   0.910  0.0293  0.1313  0.3933
  531MPD2     C 7879   4.671   4.342  12.754  0.5604  0.2624 -0.6133
  531MPD2    C1 7880   4.548   4.402  12.742 -0.3572  0.5651 -0.7873
  531MPD2    C2 7881   4.449   4.331  12.682  0.8548 -0.4246 -0.0339
  531MPD2    C3 7882   4.479   4.206  12.621 -0.7371 -0.5928  0.0157
  531MPD2    C4 7883   4.599   4.144  12.636  0.6063 -0.7246  0.8968
  531MPD2    C5 7884   4.695   4.212  12.710 -0.1879 -0.4418  0.0855
  531MPD2     H 7885   4.351   4.378  12.673  1.0312  0.1301  0.8852
  531MPD2    H1 7886   4.615   4.042  12.605  0.7604 -0.1525 -0.9224
  531MPD2    H2 7887   0.025   4.389  12.812 -2.4379  1.0602  2.8095
  531MPD2    H3 7888   0.065   4.161  12.720 -0.4903 -1.5059 -2.4128
  531MPD2     N 7889   4.370   4.130  12.551 -0.0009 -0.0244  0.3935
  531MPD2    H5 7890   4.390   4.033  12.528  1.4913 -0.2258  2.5832
  531MPD2    N1 7891   4.537   4.531  12.805 -0.0622  0.0553 -0.0533
  531MPD2    H7 7892   4.621   4.567  12.850 -0.3714  1.4549 -0.5833
  532TMC3    C1 7893   4.425   4.725  12.894 -0.2853 -0.1411 -1.2539
  532TMC3    C2 7894   4.299   0.046  12.908  0.5508  0.4411  0.9695
  532TMC3    C3 7895   4.245   0.071  13.031 -0.0635 -0.5198  0.6630
  532TMC3    C4 7896   4.502   4.713  13.005 -0.5055  0.4039  0.0671
  532TMC3    C5 7897   4.453   0.038  13.125  0.1106 -0.3679  0.3579
  532TMC3    C6 7898   4.328   0.082  13.142  0.0519 -0.3953  0.2398
  532TMC3     C 7899   4.425   4.615  12.804 -0.9753 -0.1076  0.5233
  532TMC3     O 7900   4.317   4.579  12.763  0.1762 -0.9226 -0.3485
  532TMC3     H 7901   4.239   0.052  12.818  0.9345 -0.6813  0.6468
  532TMC3    H1 7902   4.605   4.679  12.997 -0.4270  0.7518 -0.3714
  532TMC3    H2 7903   4.297   0.109  13.242  1.4418 -0.6740  0.7396
  532TMC3    C7 7904   4.551   0.071  13.222 -0.0678 -0.4400 -0.3890
  532TMC3    C8 7905   4.135   4.709  13.065  0.0646 -0.0405 -0.8288
  532TMC3    O1 7906   4.544   0.181  13.273 -0.3402  0.0659  0.2334
  532TMC3    O2 7907   4.080   4.720  13.176  0.1462  0.2255  0.2522
  533TMC3    C1 7908   1.003   1.364  14.212  0.6378  0.1411 -0.8309
  533TMC3    C2 7909   1.132   1.374  14.179  0.2437  0.4230 -0.1589
  533TMC3    C3 7910   1.198   1.490  14.198 -0.5872 -0.6147  0.5308
  533TMC3    C4 7911   0.946   1.465  14.276  0.1343  0.0014 -0.2400
  533TMC3    C5 7912   1.017   1.576  14.320 -0.6067 -0.9857  0.0263
  533TMC3    C6 7913   1.142   1.591  14.267 -0.0255  0.5637 -0.0585
  533TMC3     C 7914   0.975   1.239  14.279 -0.7417  0.0229  0.0412
  533TMC3     O 7915   1.066   1.202  14.355  0.2142 -0.2132  0.0762
  533TMC3     H 7916   1.179   1.287  14.135  3.1267  2.1182 -0.4396
  533TMC3    H1 7917   0.848   1.439  14.314 -0.3311  1.6370 -0.3280
  533TMC3    H2 7918   1.195   1.685  14.277  1.2787 -0.5680  3.7254
  533TMC3    C7 7919   1.007   1.582  14.464  0.0403 -0.2340  0.9675
  533TMC3    C8 7920   1.346   1.485  14.191 -0.8664  0.2701  0.2493
  533TMC3    O1 7921   0.913   1.518  14.515 -0.0303  0.6133  0.2471
  533TMC3    O2 7922   1.403   1.392  14.248  0.2754  0.2980 -0.8365
  534MPD2     C 7923   3.736   3.140   1.864 -0.1201 -0.4648 -0.2107
  534MPD2    C1 7924   3.734   3.212   1.747 -0.7327 -0.1664  0.0141
  534MPD2    C2 7925   3.715   3.148   1.626 -0.2788  0.6055 -0.5318
  534MPD2    C3 7926   3.705   3.017   1.616  1.1224  0.1483 -0.6859
  534MPD2    C4 7927   3.696   2.949   1.737 -0.1235 -0.6658 -0.7075
  534MPD2    C5 7928   3.703   3.007   1.858 -0.4714  0.1619  1.3142
  534MPD2     H 7929   3.705   3.212   1.539 -0.5591 -1.3026 -1.8976
  534MPD2    H1 7930   3.680   2.841   1.742  0.8238 -0.6691  2.1112
  534MPD2    H2 7931   3.727   3.188   1.961 -0.7436 -0.2878 -0.3517
  534MPD2    H3 7932   3.693   2.946   1.947 -2.1954 -0.1737  0.8904
  534MPD2     N 7933   3.689   2.940   1.492 -0.3284  0.4634 -0.1971
  534MPD2    H5 7934   3.667   2.841   1.501 -0.5870  0.5178 -0.2343
  534MPD2    N1 7935   3.730   3.354   1.744  0.1108  0.1777 -0.2759
  534MPD2    H7 7936   3.684   3.403   1.668  1.8369  0.0153 -1.4097
  535TMC3    C1 7937   3.736   2.902   1.258  0.6717 -0.4379 -0.0388
  535TMC3    C2 7938   3.691   2.778   1.277  0.9744  0.1197 -0.0572
  535TMC3    C3 7939   3.677   2.702   1.164 -0.7792 -0.3657  0.6813
  535TMC3    C4 7940   3.742   2.959   1.137  0.0574  0.4123  0.2075
  535TMC3    C5 7941   3.724   2.885   1.023 -0.1371 -0.4015 -0.0483
  535TMC3    C6 7942   3.702   2.753   1.039 -0.5856  0.0625 -0.3072
  535TMC3     C 7943   3.725   2.994   1.374  0.8360  0.0500 -0.4389
  535TMC3     O 7944   3.760   3.108   1.355  0.5452  0.2325  0.0345
  535TMC3     H 7945   3.691   2.735   1.377 -1.9828 -0.8193 -0.4701
  535TMC3    H1 7946   3.770   3.063   1.131 -1.2784  0.7315 -0.5396
  535TMC3    H2 7947   3.692   2.704   0.942 -0.8231 -0.2919 -0.1041
  535TMC3    C7 7948   3.723   2.945   0.889 -0.1643  0.2600  0.9453
  535TMC3    C8 7949   3.571   2.602   1.175 -0.4377 -0.9121  0.1145
  535TMC3    O1 7950   3.673   2.875   0.798  0.3566 -0.0015  0.0166
  535TMC3    O2 7951   3.488   2.621   1.266 -0.4619  0.5766  0.4429
  536MPD2     C 7952   2.187   0.543  16.319 -0.3713  0.2180 -0.9053
  536MPD2    C1 7953   2.219   0.675  16.341  1.2425  0.3428 -0.4315
  536MPD2    C2 7954   2.195   0.761  16.233 -0.7879  0.2035 -0.0446
  536MPD2    C3 7955   2.135   0.708  16.117 -0.2768 -0.4229 -0.3980
  536MPD2    C4 7956   2.099   0.578  16.097 -0.4478  0.2140  0.8212
  536MPD2    C5 7957   2.115   0.495  16.207 -0.1285  0.0799 -0.4975
  536MPD2     H 7958   2.209   0.869  16.239  0.3301  0.1218 -1.1773
  536MPD2    H1 7959   2.060   0.544  16.002  2.3180 -0.4657 -0.0665
  536MPD2    H2 7960   2.208   0.477  16.403  1.6207 -1.0906 -2.4219
  536MPD2    H3 7961   2.078   0.394  16.201  0.4696 -0.2179  0.8131
  536MPD2     N 7962   2.084   0.798  16.009 -0.0372  0.1357 -0.3019
  536MPD2    H5 7963   2.050   0.749  15.926  1.6399 -1.6923  0.0917
  536MPD2    N1 7964   2.269   0.714  16.466 -0.3711  0.3151  0.2350
  536MPD2    H7 7965   2.265   0.637  16.533  3.9085 -0.8582 -0.8632
  537TMC3    C1 7966   2.340   0.844  16.646  0.5670 -0.3033 -0.0395
  537TMC3    C2 7967   2.438   0.936  16.666 -0.1475  0.2036 -0.0592
  537TMC3    C3 7968   2.501   0.928  16.784 -0.2671  0.3046 -0.4878
  537TMC3    C4 7969   2.295   0.755  16.739 -0.6054 -0.4844  0.8120
  537TMC3    C5 7970   2.360   0.748  16.861  0.5296 -0.5034 -0.5970
  537TMC3    C6 7971   2.470   0.836  16.877 -0.7431  0.2164  0.0481
  537TMC3     C 7972   2.296   0.842  16.507  0.3315  0.4006  0.3299
  537TMC3     O 7973   2.328   0.940  16.444 -0.1390 -0.1667 -0.6083
  537TMC3     H 7974   2.466   1.009  16.591 -0.5274  1.4349  1.0018
  537TMC3    H1 7975   2.211   0.689  16.719 -1.0366  0.8182 -1.6421
  537TMC3    H2 7976   2.536   0.822  16.962 -0.7392 -1.2858 -0.1986
  537TMC3    C7 7977   2.306   0.691  16.991  0.4344  0.9128 -0.7022
  537TMC3    C8 7978   2.546   1.057  16.842 -0.4103 -0.1420 -0.3502
  537TMC3    O1 7979   2.344   0.756  17.087 -0.3166 -0.3354  0.2080
  537TMC3    O2 7980   2.574   1.046  16.963  0.5397  0.0666 -0.1531
  538TMC3    C1 7981   3.598   4.045  11.179 -0.4247 -0.0818 -0.8528
  538TMC3    C2 7982   3.615   3.957  11.078  0.0629  0.6635 -0.3352
  538TMC3    C3 7983   3.531   3.972  10.976  0.5717 -0.2680  0.0205
  538TMC3    C4 7984   3.493   4.134  11.183  0.8317  0.4063 -0.5141
  538TMC3    C5 7985   3.398   4.130  11.083  0.6115 -0.4226 -0.5433
  538TMC3    C6 7986   3.423   4.060  10.974 -0.2463  0.1982  0.0976
  538TMC3     C 7987   3.644   4.009  11.315 -0.3397  0.2574 -0.1049
  538TMC3     O 7988   3.564   4.050  11.396  0.6112  0.0984 -0.4226
  538TMC3     H 7989   3.690   3.879  11.084  0.4819  1.0416 -0.6637
  538TMC3    H1 7990   3.478   4.205  11.263 -0.3586 -0.3401 -0.0788
  538TMC3    H2 7991   3.350   4.053  10.895  1.9740  1.3257 -2.0222
  538TMC3    C7 7992   3.276   4.215  11.099 -0.9656  0.1355  0.0313
  538TMC3    C8 7993   3.563   3.911  10.850  0.7034 -0.4305  0.0431
  538TMC3    O1 7994   3.212   4.221  10.991  0.1138  0.0003  0.5511
  538TMC3    O2 7995   3.639   3.812  10.867  0.0693  0.3274 -0.1274
  539MPD2     C 7996   3.081   3.495  11.691 -0.4603 -0.0804  0.3099
  539MPD2    C1 7997   3.092   3.535  11.558 -0.5599  0.3115 -0.3696
  539MPD2    C2 7998   3.042   3.660  11.512 -0.6452  0.4021 -0.3248
  539MPD2    C3 7999   2.982   3.748  11.600  0.1108 -0.1893 -0.0033
  539MPD2    C4 8000   2.967   3.704  11.730  0.4165 -0.3414  0.3939
  539MPD2    C5 8001   3.013   3.585  11.770  0.6514 -0.3530 -0.3345
  539MPD2     H 8002   3.068   3.690  11.411 -2.2677 -0.6491 -1.0510
  539MPD2    H1 8003   2.919   3.762  11.809  1.8563  4.9852 -2.6241
  539MPD2    H2 8004   3.105   3.394  11.722 -1.0245 -0.3293 -0.0655
  539MPD2    H3 8005   3.002   3.556  11.874  0.6850  3.1895  0.6365
  539MPD2     N 8006   2.935   3.876  11.567  0.2953  0.9959  0.0306
  539MPD2    H5 8007   2.889   3.923  11.644  1.3562 -1.2011  2.0033
  539MPD2    N1 8008   3.152   3.454  11.456 -0.0879 -0.0499 -0.0226
  539MPD2    H7 8009   3.148   3.483  11.358  1.0106  0.1340 -0.0148
  540TMC3    C1 8010   2.888   4.068  11.449 -0.3353  0.3080 -0.6951
  540TMC3    C2 8011   2.851   4.103  11.325  0.4710  0.6078 -0.0229
  540TMC3    C3 8012   2.750   4.191  11.305 -0.5895  0.1201  0.3633
  540TMC3    C4 8013   2.831   4.120  11.556 -0.3561 -0.3185  0.5917
  540TMC3    C5 8014   2.716   4.201  11.540 -0.6786 -0.1535  0.3997
  540TMC3    C6 8015   2.680   4.241  11.414  0.9132 -0.5008  0.3434
  540TMC3     C 8016   2.959   3.938  11.448 -0.0423 -0.2041 -0.2788
  540TMC3     O 8017   3.038   3.918  11.356 -0.7157  0.0189 -0.1960
  540TMC3     H 8018   2.900   4.058  11.239 -1.3362  1.6459 -1.6212
  540TMC3    H1 8019   2.877   4.093  11.650  1.8413  1.1517 -0.0519
  540TMC3    H2 8020   2.600   4.313  11.400  1.0844 -0.6522 -1.3892
  540TMC3    C7 8021   2.606   4.125  11.600  0.0105  0.6686 -0.2546
  540TMC3    C8 8022   2.689   4.205  11.179  0.1360 -0.3075 -0.3164
  540TMC3    O1 8023   2.622   4.005  11.627  0.2934  0.1620  0.0060
  540TMC3    O2 8024   2.616   4.303  11.171 -0.5198  0.2277  0.4224
  541MPD2     C 8025   1.457   4.716  13.089  0.2076 -0.1685  0.6724
  541MPD2    C1 8026   1.332   0.052  13.099  0.0817 -0.5782 -0.5888
  541MPD2    C2 8027   1.294   0.137  12.994 -0.4989  0.0801 -0.2563
  541MPD2    C3 8028   1.374   0.151  12.878 -0.7012  0.1453 -0.0852
  541MPD2    C4 8029   1.504   0.100  12.875 -0.3911 -1.0231 -0.5884
  541MPD2    C5 8030   1.540   0.021  12.983  0.2367 -0.4169 -0.0527
  541MPD2     H 8031   1.195   0.179  13.003 -1.4637 -2.5721  1.5754
  541MPD2    H1 8032   1.571   0.111  12.791  1.7690 -1.8114  1.0273
  541MPD2    H2 8033   1.495   4.646  13.162  2.0440  2.1859  1.9964
  541MPD2    H3 8034   1.643   4.710  12.983  0.4901  0.3024 -0.4440
  541MPD2     N 8035   1.324   0.220  12.767 -0.1409  0.0544 -0.1299
  541MPD2    H5 8036   1.386   0.216  12.686  1.3341  0.0748  0.9968
  541MPD2    N1 8037   1.257   0.023  13.210 -0.3113 -0.0588  0.5621
  541MPD2    H7 8038   1.297   4.681  13.275  0.7294  1.4633  1.4874
  542TMC3    C1 8039   1.188   0.350  12.627 -0.3803  0.2880 -0.0681
  542TMC3    C2 8040   1.219   0.279  12.517  0.0741 -0.8390 -0.1837
  542TMC3    C3 8041   1.214   0.341  12.400 -0.1063  0.5666  0.6335
  542TMC3    C4 8042   1.144   0.475  12.622  0.5699 -0.1178  0.0035
  542TMC3    C5 8043   1.145   0.535  12.504  0.5481 -0.2273  0.4118
  542TMC3    C6 8044   1.187   0.474  12.393  0.1864  1.1597 -0.5800
  542TMC3     C 8045   1.210   0.294  12.764 -0.2798  0.6932  0.5135
  542TMC3     O 8046   1.155   0.341  12.862  0.9408  0.1847  0.4727
  542TMC3     H 8047   1.246   0.174  12.520 -0.5008 -0.9751  0.3079
  542TMC3    H1 8048   1.118   0.535  12.709 -0.7784 -0.6434 -0.0336
  542TMC3    H2 8049   1.185   0.523  12.296  1.0690 -0.1933 -1.2887
  542TMC3    C7 8050   1.168   0.678  12.516 -0.4905 -0.6567  0.2547
  542TMC3    C8 8051   1.221   0.269  12.274  0.3499 -0.3765  0.3377
  542TMC3    O1 8052   1.229   0.710  12.613 -0.0884  0.0762 -0.0587
  542TMC3    O2 8053   1.146   0.298  12.181 -0.0398 -0.0878  0.1384
  543TMC3    C1 8054   1.074   1.419  17.100  0.5016  0.0354  0.7714
  543TMC3    C2 8055   1.146   1.302  17.101 -0.2089  0.0999  0.2859
  543TMC3    C3 8056   1.121   1.225  17.209  0.4931  0.3717  0.1007
  543TMC3    C4 8057   1.005   1.470  17.203  0.1325  0.9484 -0.4950
  543TMC3    C5 8058   0.994   1.401  17.314 -0.2198 -0.2256 -0.8705
  543TMC3    C6 8059   1.045   1.273  17.318 -0.3874 -0.2042  0.0270
  543TMC3     C 8060   1.108   1.502  16.989 -0.6049 -0.8277  0.1322
  543TMC3     O 8061   1.189   1.464  16.907 -0.5265 -0.0576  0.2317
  543TMC3     H 8062   1.186   1.256  17.011 -0.2849 -0.6542  0.6330
  543TMC3    H1 8063   0.956   1.567  17.199 -2.4473 -0.2418  2.1693
  543TMC3    H2 8064   1.023   1.217  17.408  0.6713 -0.3548  0.1917
  543TMC3    C7 8065   0.962   1.462  17.440 -0.9820 -0.1390  0.0656
  543TMC3    C8 8066   1.159   1.088  17.198  0.1914 -0.1600 -0.1355
  543TMC3    O1 8067   0.918   1.381  17.519  0.1180  0.0379 -0.3797
  543TMC3    O2 8068   1.225   1.053  17.099 -0.1824  0.2040  0.2034
  544MPD2     C 8069   1.177   0.608  17.391 -0.1974 -0.1495  0.2666
  544MPD2    C1 8070   1.237   0.662  17.276 -0.2373 -0.0595  0.2372
  544MPD2    C2 8071   1.203   0.790  17.244  0.1332  0.0203 -0.8950
  544MPD2    C3 8072   1.115   0.870  17.321 -0.8210  0.2990 -0.0521
  544MPD2    C4 8073   1.058   0.818  17.435 -0.2628 -0.0750 -0.6572
  544MPD2    C5 8074   1.087   0.684  17.469  0.1147  0.4855  0.5177
  544MPD2     H 8075   1.246   0.831  17.154  0.7073 -1.3773 -1.2492
  544MPD2    H1 8076   1.003   0.873  17.510 -0.1137  1.3427 -1.5844
  544MPD2    H2 8077   1.202   0.509  17.429  0.0611 -0.1159  0.1857
  544MPD2    H3 8078   1.041   0.642  17.557  0.8326  0.3720  0.8420
  544MPD2     N 8079   1.103   1.010  17.301 -0.5027 -0.0674  0.6354
  544MPD2    H5 8080   1.033   1.053  17.360 -0.0549  0.2083  0.9684
  544MPD2    N1 8081   1.335   0.582  17.203  0.1092 -0.1473  0.6470
  544MPD2    H7 8082   1.350   0.492  17.246 -0.7021 -0.1967  0.8330
  545TMC3    C1 8083   1.469   0.496  17.036 -0.1973  0.0360 -0.1475
  545TMC3    C2 8084   1.462   0.465  16.905  0.5238  0.1881 -0.3344
  545TMC3    C3 8085   1.489   0.332  16.871  0.2021 -0.1134  0.0002
  545TMC3    C4 8086   1.531   0.414  17.127  0.1017 -0.0328  0.1903
  545TMC3    C5 8087   1.564   0.287  17.092  0.6622  0.1948 -0.3620
  545TMC3    C6 8088   1.531   0.242  16.967  0.7987  1.0708  0.0300
  545TMC3     C 8089   1.398   0.614  17.083 -0.1204  0.2163  0.2039
  545TMC3     O 8090   1.397   0.711  17.010  0.2240  0.1128  0.4141
  545TMC3     H 8091   1.422   0.534  16.832  1.6192 -0.6327 -1.7192
  545TMC3    H1 8092   1.527   0.444  17.232 -1.3161  2.4492 -0.5635
  545TMC3    H2 8093   1.549   0.138  16.940  2.4289  1.0146  1.3911
  545TMC3    C7 8094   1.601   0.191  17.195  0.9466  0.6357 -0.3462
  545TMC3    C8 8095   1.493   0.291  16.725 -0.3906 -0.3254 -0.0138
  545TMC3    O1 8096   1.583   0.071  17.174 -0.1285 -0.0022  0.2657
  545TMC3    O2 8097   1.561   0.191  16.703 -0.5021  0.1110  0.1634
  546MPD2     C 8098   2.513   1.682  17.490  0.2058 -0.3117  0.1140
  546MPD2    C1 8099   2.521   1.726  17.364  0.3807  0.0418 -0.2124
  546MPD2    C2 8100   2.597   1.840  17.336 -0.0164  0.4567 -0.0336
  546MPD2    C3 8101   2.676   1.902  17.431 -0.2521  0.0585 -0.0324
  546MPD2    C4 8102   2.686   1.842  17.554  0.3342 -0.8147  0.2570
  546MPD2    C5 8103   2.599   1.731  17.580 -0.3767  0.3925  0.8351
  546MPD2     H 8104   2.591   1.868  17.232  1.6307  0.9191 -0.0091
  546MPD2    H1 8105   2.738   1.882  17.640  2.1422  0.3551 -1.3856
  546MPD2    H2 8106   2.450   1.598  17.516  0.7198 -1.8584 -3.5779
  546MPD2    H3 8107   2.603   1.689  17.680 -5.2040 -0.1048  0.7737
  546MPD2     N 8108   2.740   2.025  17.405 -0.0310  0.0666 -0.1243
  546MPD2    H5 8109   2.751   2.078  17.490 -0.9440 -0.8176  0.5423
  546MPD2    N1 8110   2.463   1.643  17.260 -0.2298 -0.0257 -0.0101
  546MPD2    H7 8111   2.409   1.562  17.289  0.0583 -0.1209  0.2744
  547TMC3    C1 8112   2.361   1.596  17.045 -0.4268 -0.3350  0.3514
  547TMC3    C2 8113   2.300   1.657  16.939 -0.5133  0.1037 -0.1814
  547TMC3    C3 8114   2.249   1.576  16.842  0.0771  0.1543 -0.4578
  547TMC3    C4 8115   2.369   1.463  17.057 -0.4171 -0.4005  0.1295
  547TMC3    C5 8116   2.322   1.388  16.960 -0.8541  0.4173 -0.1909
  547TMC3    C6 8117   2.254   1.442  16.856  0.2575  0.0545 -0.4399
  547TMC3     C 8118   2.426   1.687  17.136 -0.2899 -0.5704 -0.0109
  547TMC3     O 8119   2.442   1.800  17.095  0.1462 -0.1624  0.0292
  547TMC3     H 8120   2.282   1.764  16.940 -0.8397  0.0529 -0.8512
  547TMC3    H1 8121   2.402   1.417  17.149  0.3434 -1.0875 -0.4876
  547TMC3    H2 8122   2.209   1.386  16.775  0.7842  3.1800 -2.8709
  547TMC3    C7 8123   2.294   1.251  16.998  0.7460  0.0492 -0.0775
  547TMC3    C8 8124   2.158   1.630  16.742 -0.6633  0.2370 -0.2664
  547TMC3    O1 8125   2.354   1.205  17.095  0.2981  0.6686 -0.1348
  547TMC3    O2 8126   2.064   1.558  16.707  0.1708 -0.0252 -0.6244
  548MPD2     C 8127   2.243   2.245  12.048  0.1673  0.1889 -0.5037
  548MPD2    C1 8128   2.201   2.118  12.095 -0.4292  0.6762  0.5773
  548MPD2    C2 8129   2.297   2.022  12.114  0.1583 -0.6242  0.3368
  548MPD2    C3 8130   2.430   2.042  12.096 -0.3375  0.1790  0.1922
  548MPD2    C4 8131   2.464   2.171  12.067  0.5149  0.5504  0.5558
  548MPD2    C5 8132   2.372   2.268  12.035 -0.1875  0.2336 -0.5599
  548MPD2     H 8133   2.269   1.938  12.177 -0.9742  0.9969  1.9579
  548MPD2    H1 8134   2.567   2.202  12.081  0.8220 -0.6094  0.8894
  548MPD2    H2 8135   2.163   2.317  12.039  0.0753  0.1232 -0.2217
  548MPD2    H3 8136   2.400   2.372  12.022 -1.2998  0.9351  2.6553
  548MPD2     N 8137   2.529   1.947  12.131 -0.1914  0.1134 -0.2651
  548MPD2    H5 8138   2.490   1.868  12.182  1.0642 -0.5223 -0.3120
  548MPD2    N1 8139   2.062   2.094  12.131  0.0962  0.0487 -0.2545
  548MPD2    H7 8140   1.999   2.168  12.105  1.2774  0.4066 -2.1544
  549TMC3    C1 8141   1.854   1.989  12.155 -0.5031 -0.2489  0.0818
  549TMC3    C2 8142   1.785   2.097  12.104  1.2254 -0.6128  0.1794
  549TMC3    C3 8143   1.644   2.093  12.113 -0.4150 -0.1828 -0.0812
  549TMC3    C4 8144   1.786   1.880  12.211  0.1018  0.1760  0.2169
  549TMC3    C5 8145   1.650   1.877  12.210 -0.0392 -0.6146 -0.2542
  549TMC3    C6 8146   1.583   1.989  12.171  0.0586  0.0572 -0.4158
  549TMC3     C 8147   1.994   1.978  12.157  0.3674 -0.0454 -0.6878
  549TMC3     O 8148   2.038   1.869  12.179 -0.1094  0.8301 -0.1001
  549TMC3     H 8149   1.838   2.173  12.048  1.3533 -1.7494 -1.2553
  549TMC3    H1 8150   1.839   1.791  12.243  1.7551  1.3486  0.7393
  549TMC3    H2 8151   1.476   1.972  12.180 -0.1547  1.2254 -0.7755
  549TMC3    C7 8152   1.584   1.809  12.321 -0.0363  0.4699  0.3598
  549TMC3    C8 8153   1.563   2.215  12.104  0.3200 -0.4697 -0.5577
  549TMC3    O1 8154   1.518   1.884  12.392  0.1983  0.6420 -0.4351
  549TMC3    O2 8155   1.446   2.206  12.129  0.2360  0.7596 -0.3517
  550TMC3    C1 8156   0.044   4.301  12.381  0.1328 -0.5356 -0.6559
  550TMC3    C2 8157   0.108   4.412  12.437 -0.3336 -0.7955 -0.5260
  550TMC3    C3 8158   0.034   4.528  12.452 -0.1819  0.4802  0.1685
  550TMC3    C4 8159   4.646   4.315  12.331 -0.8805 -0.6882  0.1227
  550TMC3    C5 8160   4.576   4.433  12.353 -0.4417  0.4927  0.1838
  550TMC3    C6 8161   4.625   4.536  12.425  0.6870 -0.0596  1.1089
  550TMC3     C 8162   0.129   4.233  12.292 -0.4714  0.3720  0.2287
  550TMC3     O 8163   0.217   4.159  12.330  0.1242 -0.1685 -0.6161
  550TMC3     H 8164   0.212   4.409  12.465 -0.0471  2.5882 -1.2215
  550TMC3    H1 8165   4.599   4.234  12.277 -1.0249 -0.8116  0.4337
  550TMC3    H2 8166   4.562   4.622  12.444 -1.0573 -1.5831  2.2301
  550TMC3    C7 8167   4.496   4.465  12.238 -0.2012  0.3618  0.3231
  550TMC3    C8 8168   0.086   4.642  12.381  0.3016 -0.2579  0.6884
  550TMC3    O1 8169   4.426   4.377  12.191  0.4595  0.7702 -0.7822
  550TMC3    O2 8170   0.008   0.009  12.372 -0.3219  0.1434 -0.1831
  551TMC3    C1 8171   3.201   2.303  13.392 -0.1362 -0.3087  0.4894
  551TMC3    C2 8172   3.296   2.330  13.295 -0.0401  0.5491 -0.4348
  551TMC3    C3 8173   3.359   2.455  13.288 -0.4003 -0.7082 -0.0843
  551TMC3    C4 8174   3.183   2.391  13.494  0.0726 -0.1262 -0.5198
  551TMC3    C5 8175   3.268   2.507  13.496  0.2532 -0.2529 -0.6823
  551TMC3    C6 8176   3.351   2.542  13.391  0.3714  0.1184 -0.5291
  551TMC3     C 8177   3.082   2.259  13.328  0.1959 -1.3296  0.2191
  551TMC3     O 8178   3.084   2.164  13.252  0.4636 -0.0436  0.2807
  551TMC3     H 8179   3.317   2.250  13.225 -0.5324  0.4910 -0.5192
  551TMC3    H1 8180   3.116   2.367  13.575 -1.3471  0.9464 -1.3742
  551TMC3    H2 8181   3.405   2.636  13.394 -1.0215  0.9175 -0.6052
  551TMC3    C7 8182   3.281   2.572  13.623  0.2279 -0.0303 -0.0264
  551TMC3    C8 8183   3.419   2.508  13.172  0.0987 -0.1247 -0.8212
  551TMC3    O1 8184   3.307   2.507  13.720 -0.3146 -0.2733 -1.0557
  551TMC3    O2 8185   3.437   2.417  13.090 -0.2769 -0.2741 -0.6881
  552MPD2     C 8186   4.599   0.035  13.697  0.0901  0.1231  0.1286
  552MPD2    C1 8187   4.599   4.626  13.711  0.4853 -0.6999 -0.6919
  552MPD2    C2 8188   4.692   4.572  13.797  0.3379  0.0811 -0.4721
  552MPD2    C3 8189   0.066   4.656  13.859  0.5788  0.0015  0.2364
  552MPD2    C4 8190   0.067   0.068  13.839 -0.2792  0.1554  0.7819
  552MPD2    C5 8191   4.695   0.116  13.758 -0.1560  0.6243 -0.6086
  552MPD2     H 8192   4.689   4.466  13.820 -1.5732 -0.1051 -1.6458
  552MPD2    H1 8193   0.144   0.133  13.879 -1.2558  1.4156  0.6099
  552MPD2    H2 8194   4.524   0.083  13.635 -0.0196 -0.3300 -0.0951
  552MPD2    H3 8195   4.691   0.224  13.748 -0.1493  0.6317 -0.5318
  552MPD2     N 8196   0.175   4.615  13.942  0.0441  0.3045 -0.6695
  552MPD2    H5 8197   0.242   4.688  13.966 -1.1926  1.3780 -0.4699
  552MPD2    N1 8198   4.506   4.545  13.637 -0.4192 -0.4729 -0.1124
  552MPD2    H7 8199   4.506   4.445  13.655  1.0904 -0.6566 -1.0880
  553TMC3    C1 8200   4.334   4.469  13.502 -0.5921 -0.5902  0.2691
  553TMC3    C2 8201   4.309   4.465  13.369 -0.1505 -0.1458 -0.1415
  553TMC3    C3 8202   4.308   4.344  13.305  0.1334  0.2262 -0.2958
  553TMC3    C4 8203   4.328   4.357  13.585  0.0476 -0.9025  0.4274
  553TMC3    C5 8204   4.307   4.238  13.518 -0.1611 -0.5921  0.3440
  553TMC3    C6 8205   4.289   4.234  13.383  0.3410  0.1027 -0.0382
  553TMC3     C 8206   4.411   4.583  13.539 -0.7829  0.3989 -0.3437
  553TMC3     O 8207   4.397   4.689  13.482 -0.3786  0.3141  0.4394
  553TMC3     H 8208   4.330   4.547  13.300  0.1419  0.2402  0.4110
  553TMC3    H1 8209   4.333   4.360  13.693 -1.8602 -2.7187  0.5823
  553TMC3    H2 8210   4.286   4.135  13.339 -0.4474  0.1007  0.0308
  553TMC3    C7 8211   4.326   4.116  13.594  0.9000 -0.1421 -0.0915
  553TMC3    C8 8212   4.408   4.330  13.199  0.3572 -0.0361  0.5877
  553TMC3    O1 8213   4.227   4.050  13.616  0.2031 -0.1944 -0.1995
  553TMC3    O2 8214   4.504   4.404  13.211 -0.3149  0.1293  0.4624
  554TMC3    C1 8215   2.156   3.616  11.317 -0.1642 -1.1881  0.6698
  554TMC3    C2 8216   2.171   3.586  11.184 -0.2311  0.3162 -0.3021
  554TMC3    C3 8217   2.276   3.653  11.118 -0.1154 -0.2447 -0.1764
  554TMC3    C4 8218   2.218   3.718  11.377 -0.2987 -0.3329  0.3388
  554TMC3    C5 8219   2.319   3.777  11.303 -1.1238  0.2598 -0.3034
  554TMC3    C6 8220   2.350   3.740  11.178 -0.1403  0.7925  0.3508
  554TMC3     C 8221   2.087   3.517  11.399 -0.2440 -0.0423  0.4008
  554TMC3     O 8222   1.987   3.466  11.351 -0.1687  0.0870 -0.0496
  554TMC3     H 8223   2.102   3.525  11.127 -1.7117  1.1144  0.6105
  554TMC3    H1 8224   2.205   3.736  11.483 -1.3173  1.9786 -0.1806
  554TMC3    H2 8225   2.431   3.796  11.132  1.1531  0.1346  1.8244
  554TMC3    C7 8226   2.361   3.914  11.330  0.0772  0.6488  0.8025
  554TMC3    C8 8227   2.288   3.646  10.969  0.4110  0.1007 -0.5348
  554TMC3    O1 8228   2.468   3.957  11.287  0.1952  0.4929  0.3212
  554TMC3    O2 8229   2.336   3.742  10.918 -0.4471 -0.4452 -0.4030
  555TMC3    C1 8230   1.140   2.761  14.529  0.8329 -0.4943 -0.3800
  555TMC3    C2 8231   1.096   2.877  14.587  0.2736  0.4450  0.0603
  555TMC3    C3 8232   1.176   2.942  14.678  0.4554 -0.6830  0.4557
  555TMC3    C4 8233   1.264   2.712  14.557  0.5058  0.7798  0.2180
  555TMC3    C5 8234   1.352   2.779  14.637  0.4474 -0.1457  0.0110
  555TMC3    C6 8235   1.304   2.898  14.694  0.6915  0.0605 -0.1999
  555TMC3     C 8236   1.073   2.711  14.406  0.4915  0.1338  0.1751
  555TMC3     O 8237   1.134   2.626  14.338 -0.1912  0.5049 -0.0613
  555TMC3     H 8238   0.996   2.920  14.579  0.3367  0.9837  1.9614
  555TMC3    H1 8239   1.290   2.614  14.518 -1.1717  0.4338 -0.0207
  555TMC3    H2 8240   1.375   2.953  14.754  1.7031  0.1333 -1.4599
  555TMC3    C7 8241   1.417   2.707  14.739 -0.3740  0.4639 -0.3626
  555TMC3    C8 8242   1.133   3.009  14.797 -0.0376 -0.5649  0.5265
  555TMC3    O1 8243   1.401   2.742  14.856 -0.8725  0.1353 -0.4181
  555TMC3    O2 8244   1.021   3.057  14.795  0.5560  0.0703 -0.3477
  556MPD2     C 8245   3.929   0.255  10.145 -0.8613 -0.4223  0.4186
  556MPD2    C1 8246   3.925   0.171  10.252  0.1894  0.4732  1.2403
  556MPD2    C2 8247   3.907   0.035  10.227  0.0077 -0.4398  0.4858
  556MPD2    C3 8248   3.899   4.706  10.105  0.1602  0.0102 -0.4930
  556MPD2    C4 8249   3.896   0.066   9.999  0.2790 -0.1651  0.4628
  556MPD2    C5 8250   3.919   0.201  10.019 -0.1951 -0.0553 -0.5636
  556MPD2     H 8251   3.890   4.707  10.320 -0.5110  0.3567  0.8413
  556MPD2    H1 8252   3.878   0.032   9.898 -0.0507  0.9611  0.1328
  556MPD2    H2 8253   3.947   0.361  10.159  2.0706 -0.8197 -0.2918
  556MPD2    H3 8254   3.933   0.271   9.937 -1.5475  1.9591  0.9194
  556MPD2     N 8255   3.876   4.567  10.097  0.3671  0.4001  0.0132
  556MPD2    H5 8256   3.871   4.513  10.183  1.3624  1.7461  0.9156
  556MPD2    N1 8257   3.931   0.214  10.387  0.2747 -0.0413  0.1379
  556MPD2    H7 8258   3.938   0.140  10.455  2.0619 -0.1595 -0.1760
  557TMC3    C1 8259   3.851   4.343  10.011  0.2567 -0.2939  0.3399
  557TMC3    C2 8260   3.915   4.251   9.931 -0.2674  0.5758 -0.2857
  557TMC3    C3 8261   3.889   4.119   9.952 -1.0021 -0.1739 -0.2843
  557TMC3    C4 8262   3.760   4.307  10.110  0.1453  0.0971 -0.7865
  557TMC3    C5 8263   3.735   4.174  10.126 -0.3709  0.2774 -0.2012
  557TMC3    C6 8264   3.796   4.076  10.046  0.6197  0.4591  0.7123
  557TMC3     C 8265   3.887   4.485   9.989 -0.1989 -0.4703  0.3125
  557TMC3     O 8266   3.926   4.509   9.874  0.2603 -0.4620  0.2307
  557TMC3     H 8267   3.988   4.280   9.856  0.0859 -0.2192 -0.2460
  557TMC3    H1 8268   3.715   4.389  10.165  0.6964 -0.7367  0.9003
  557TMC3    H2 8269   3.753   3.977  10.051 -0.4676  0.9663  1.5836
  557TMC3    C7 8270   3.706   4.149  10.257 -0.4219 -1.1363  0.3358
  557TMC3    C8 8271   3.912   4.035   9.835  0.5569  0.1586  0.1758
  557TMC3    O1 8272   3.646   4.234  10.326  0.0507 -0.0551  0.1586
  557TMC3    O2 8273   3.962   4.089   9.741 -0.1407 -0.6113  0.9316
  558TMC3    C1 8274   1.921   2.540   9.932 -0.0318  0.3899  0.2574
  558TMC3    C2 8275   1.811   2.515  10.008 -0.2664  0.5123  0.3240
  558TMC3    C3 8276   1.683   2.528   9.954  0.0318 -0.5113 -0.3363
  558TMC3    C4 8277   1.911   2.593   9.806  0.2322  0.3149  0.4905
  558TMC3    C5 8278   1.781   2.605   9.759  0.0207 -0.1404  0.4870
  558TMC3    C6 8279   1.672   2.571   9.826  0.4721 -0.2719 -0.6621
  558TMC3     C 8280   2.053   2.509   9.982 -0.2373  0.1223  0.4227
  558TMC3     O 8281   2.148   2.576   9.947  0.0677 -0.2921  0.3084
  558TMC3     H 8282   1.823   2.492  10.114 -0.7282  0.7892  0.4378
  558TMC3    H1 8283   1.992   2.618   9.739 -0.1489 -0.9148 -0.4367
  558TMC3    H2 8284   1.579   2.592   9.775  0.0578  0.1027  0.2612
  558TMC3    C7 8285   1.770   2.646   9.616  0.2103 -0.6111 -0.0749
  558TMC3    C8 8286   1.571   2.508  10.033  0.4235  0.1976 -0.3158
  558TMC3    O1 8287   1.874   2.691   9.569  0.3426 -0.6499  0.3524
  558TMC3    O2 8288   1.465   2.538   9.985  0.0781  0.3690 -0.0317
  559MPD2     C 8289   2.083   3.123  10.338 -0.5819 -0.2718 -0.6540
  559MPD2    C1 8290   2.022   3.012  10.397  0.6652  0.5883  0.8260
  559MPD2    C2 8291   2.100   2.922  10.476  0.6253 -0.6265  0.0213
  559MPD2    C3 8292   2.240   2.949  10.499 -1.1577  1.4484 -0.7160
  559MPD2    C4 8293   2.292   3.067  10.449 -0.7678 -0.3503 -0.8627
  559MPD2    C5 8294   2.216   3.147  10.366  0.9270  0.5813 -0.2183
  559MPD2     H 8295   2.058   2.836  10.526 -0.2620  0.2654  0.7926
  559MPD2    H1 8296   2.395   3.093  10.466 -1.5368  0.6847  2.1296
  559MPD2    H2 8297   2.025   3.195  10.281  0.1891  2.3702  1.9612
  559MPD2    H3 8298   2.269   3.229  10.318 -2.1265  1.9381 -1.2546
  559MPD2     N 8299   2.300   2.868  10.600  0.0434  0.3269  0.5669
  559MPD2    H5 8300   2.244   2.796  10.643  0.2608  0.9213  1.8310
  559MPD2    N1 8301   1.881   2.988  10.377 -0.1138 -0.0702 -0.0425
  559MPD2    H7 8302   1.827   3.043  10.311  1.7019  2.3901  0.5424
  560TMC3    C1 8303   2.473   2.808  10.751  0.0361 -0.0759  0.0522
  560TMC3    C2 8304   2.408   2.693  10.777  0.4984 -0.5831 -0.2427
  560TMC3    C3 8305   2.416   2.627  10.896 -0.1109 -0.3032  0.3769
  560TMC3    C4 8306   2.551   2.865  10.846  0.7516 -0.3811 -0.1022
  560TMC3    C5 8307   2.559   2.804  10.966  0.8356 -0.6615  0.3698
  560TMC3    C6 8308   2.494   2.677  10.995  0.1288  0.5854 -0.0061
  560TMC3     C 8309   2.427   2.894  10.652  0.6834 -0.7436 -0.2068
  560TMC3     O 8310   2.509   2.981  10.625  0.2927  0.3369  0.0637
  560TMC3     H 8311   2.359   2.650  10.690 -1.2137 -2.8340  1.8516
  560TMC3    H1 8312   2.617   2.948  10.823 -0.7667  0.4035 -1.6731
  560TMC3    H2 8313   2.506   2.630  11.092 -0.7639 -1.6441 -0.9717
  560TMC3    C7 8314   2.626   2.864  11.081 -0.1450 -0.0969  0.2047
  560TMC3    C8 8315   2.323   2.521  10.926 -0.2863  0.1236 -0.1814
  560TMC3    O1 8316   2.649   2.784  11.173  0.2124  0.4054 -0.5331
  560TMC3    O2 8317   2.248   2.495  10.834 -0.8651  0.4906  0.7906
  561TMC3    C1 8318   4.298   2.356  10.969 -0.3573  0.2039 -0.2711
  561TMC3    C2 8319   4.184   2.312  11.034 -0.3947  0.2232  1.0116
  561TMC3    C3 8320   4.154   2.361  11.155 -0.2235  0.4305  0.7563
  561TMC3    C4 8321   4.375   2.459  11.010 -0.7255  0.0307  0.1616
  561TMC3    C5 8322   4.346   2.501  11.136 -0.3381  0.1738  0.2714
  561TMC3    C6 8323   4.239   2.453  11.212  0.4158 -0.1256  0.7478
  561TMC3     C 8324   4.342   2.276  10.851  0.3370 -0.2292 -0.2064
  561TMC3     O 8325   4.274   2.189  10.808 -0.2300 -0.4430 -0.2163
  561TMC3     H 8326   4.118   2.242  10.985 -0.1922  2.1077 -1.9171
  561TMC3    H1 8327   4.442   2.500  10.936  0.7027 -1.1973  0.7694
  561TMC3    H2 8328   4.226   2.500  11.309 -0.4213  1.7801 -0.2968
  561TMC3    C7 8329   4.414   2.618  11.179 -0.5112  0.1470 -0.2632
  561TMC3    C8 8330   4.048   2.295  11.228  0.4345 -0.8172 -0.3229
  561TMC3    O1 8331   4.357   2.696  11.252  0.1544 -0.2032  0.3039
  561TMC3    O2 8332   4.017   2.192  11.168  0.0960 -0.0627 -0.6844
  562TMC3    C1 8333   1.002   4.116  16.072  0.1992  0.2716  0.0481
  562TMC3    C2 8334   0.977   4.164  15.948  0.0095  0.7478  0.2057
  562TMC3    C3 8335   0.862   4.114  15.888 -0.6835 -0.4706  1.0774
  562TMC3    C4 8336   0.922   4.020  16.130 -0.4894  0.3924  0.7605
  562TMC3    C5 8337   0.814   3.970  16.058 -0.7038  0.2430 -0.7008
  562TMC3    C6 8338   0.775   4.020  15.938  0.2149  0.6604 -0.7767
  562TMC3     C 8339   1.102   4.168  16.158  0.7755  0.6769  0.0586
  562TMC3     O 8340   1.114   4.135  16.272  0.2815 -0.0871  0.0426
  562TMC3     H 8341   1.022   4.257  15.913 -0.4607  2.2910  3.7076
  562TMC3    H1 8342   0.958   3.984  16.225 -0.4849 -0.1867  0.5435
  562TMC3    H2 8343   0.683   3.992  15.888  1.6246 -0.9461 -2.4883
  562TMC3    C7 8344   0.737   3.856  16.100  0.2079 -0.0112  0.5663
  562TMC3    C8 8345   0.806   4.189  15.785  0.6108 -0.2296 -0.4534
  562TMC3    O1 8346   0.624   3.846  16.059  0.6193 -0.0186  0.1619
  562TMC3    O2 8347   0.835   4.309  15.792 -0.2666 -0.1151  0.2365
  563MPD2     C 8348   3.568   4.716  15.084  0.0501  0.2176 -0.7609
  563MPD2    C1 8349   3.613   0.062  15.191  0.0446 -0.4696 -0.2260
  563MPD2    C2 8350   3.738   0.022  15.240 -0.3483  0.6142 -0.0621
  563MPD2    C3 8351   3.797   4.632  15.198 -0.0886 -0.2803  0.3542
  563MPD2    C4 8352   3.748   4.552  15.104  0.3208 -0.1657  0.1439
  563MPD2    C5 8353   3.636   4.605  15.040  1.0164  0.0486 -0.3200
  563MPD2     H 8354   3.792   0.086  15.309  2.8708 -1.8570 -0.2856
  563MPD2    H1 8355   3.781   4.457  15.063  1.6903  0.2115  0.3930
  563MPD2    H2 8356   3.482   0.032  15.031 -2.3793 -2.3488  1.2183
  563MPD2    H3 8357   3.606   4.547  14.953 -2.2852  2.6905 -0.9316
  563MPD2     N 8358   3.919   4.597  15.256  0.7676 -0.5531  0.7505
  563MPD2    H5 8359   3.949   4.675  15.314  1.2297 -0.8805  0.9454
  563MPD2    N1 8360   3.556   0.179  15.236 -0.5696  0.0569 -0.0324
  563MPD2    H7 8361   3.605   0.235  15.304 -0.2474 -0.3805  0.0962
  564TMC3    C1 8362   3.409   0.342  15.286  0.6258 -0.6016 -0.3333
  564TMC3    C2 8363   3.304   0.334  15.365  0.1338 -0.2379 -0.1188
  564TMC3    C3 8364   3.306   0.394  15.483  0.9483  0.4242  0.0035
  564TMC3    C4 8365   3.514   0.408  15.327 -0.5659 -0.0029  0.7999
  564TMC3    C5 8366   3.517   0.464  15.448  0.7558  0.2573  0.2203
  564TMC3    C6 8367   3.411   0.462  15.531 -0.0220 -0.0676 -0.3929
  564TMC3     C 8368   3.432   0.225  15.207  0.6150 -0.6158  0.3943
  564TMC3     O 8369   3.339   0.159  15.164  0.1353 -0.4230  0.1448
  564TMC3     H 8370   3.222   0.272  15.330  0.6251 -0.2054 -1.3559
  564TMC3    H1 8371   3.594   0.416  15.254 -0.3979  0.8971  1.0803
  564TMC3    H2 8372   3.408   0.511  15.627  1.2719  0.6771 -0.7262
  564TMC3    C7 8373   3.647   0.431  15.505 -0.4042  0.2466 -0.3537
  564TMC3    C8 8374   3.228   0.334  15.593  0.4564  0.4443 -0.4555
  564TMC3    O1 8375   3.722   0.355  15.435  0.5100  0.7211  0.2053
  564TMC3    O2 8376   3.285   0.309  15.700 -0.2807 -0.0017 -0.0184
  565TMC3    C1 8377   3.631   0.959  10.080 -0.1293  0.7540  0.7020
  565TMC3    C2 8378   3.695   0.883  10.169  0.7234 -0.0214 -0.2091
  565TMC3    C3 8379   3.631   0.766  10.207 -0.2512 -0.8125  0.0759
  565TMC3    C4 8380   3.525   0.917  10.000 -0.0402  0.5575 -0.5387
  565TMC3    C5 8381   3.478   0.790  10.031  0.2960  0.0097  1.0783
  565TMC3    C6 8382   3.537   0.714  10.132  0.7484  1.2558 -0.6222
  565TMC3     C 8383   3.653   1.103  10.092  0.5502  0.0347 -0.5402
  565TMC3     O 8384   3.675   1.153  10.199  0.0971 -0.7974 -0.1282
  565TMC3     H 8385   3.783   0.908  10.228  0.3446  3.5834 -1.1517
  565TMC3    H1 8386   3.465   0.986   9.943 -0.4413  0.3619 -0.3561
  565TMC3    H2 8387   3.474   0.636  10.174 -0.0194  1.6989 -0.9385
  565TMC3    C7 8388   3.380   0.726   9.949 -0.3669 -0.2404  0.2328
  565TMC3    C8 8389   3.669   0.729  10.342 -0.2737 -0.0380  0.5652
  565TMC3    O1 8390   3.304   0.649  10.009  0.5178 -0.4914 -0.2113
  565TMC3    O2 8391   3.723   0.812  10.416 -0.0758 -0.1179  0.2153
  566MPD2     C 8392   0.727   2.414  14.270 -0.6507 -0.1924 -0.1446
  566MPD2    C1 8393   0.777   2.393  14.141  0.0073 -0.3869  0.2604
  566MPD2    C2 8394   0.682   2.403  14.040 -0.0185  0.3275 -0.2080
  566MPD2    C3 8395   0.548   2.434  14.057  0.1863  0.0883 -0.4409
  566MPD2    C4 8396   0.509   2.453  14.186  0.0294 -0.5426  0.0323
  566MPD2    C5 8397   0.599   2.441  14.294  0.4731  0.3385 -0.7030
  566MPD2     H 8398   0.720   2.394  13.939  1.9283 -1.7323  0.7038
  566MPD2    H1 8399   0.406   2.481  14.207 -0.0893  0.9982 -2.4775
  566MPD2    H2 8400   0.791   2.414  14.357 -0.5941 -1.6226 -0.1903
  566MPD2    H3 8401   0.573   2.464  14.397 -1.0798 -1.4935 -0.6935
  566MPD2     N 8402   0.453   2.445  13.953  0.6695 -0.2550 -0.0690
  566MPD2    H5 8403   0.364   2.489  13.973  1.2046  0.2182  1.3129
  566MPD2    N1 8404   0.922   2.374  14.130 -0.2369 -0.3399 -0.4879
  566MPD2    H7 8405   0.972   2.353  14.216  0.2392  1.6523 -0.2810
  567TMC3    C1 8406   1.125   2.390  14.025 -1.0667 -0.0558  0.8511
  567TMC3    C2 8407   1.183   2.491  13.953  0.4156  0.0948 -0.0534
  567TMC3    C3 8408   1.316   2.524  13.971  0.3887 -0.1654  1.1686
  567TMC3    C4 8409   1.198   2.322  14.112 -0.7407 -0.0172  0.1808
  567TMC3    C5 8410   1.328   2.351  14.128  0.0018 -0.5452 -0.3907
  567TMC3    C6 8411   1.396   2.450  14.059  0.3211  0.1279 -0.0536
  567TMC3     C 8412   0.985   2.382  14.010 -0.6922  0.1393  0.0498
  567TMC3     O 8413   0.947   2.416  13.900  0.0380  0.1767  0.3080
  567TMC3     H 8414   1.123   2.556  13.890 -0.9698  0.4035  1.5942
  567TMC3    H1 8415   1.158   2.241  14.171  2.0547  0.6944  3.0127
  567TMC3    H2 8416   1.500   2.467  14.084 -0.3061  2.2072  1.1737
  567TMC3    C7 8417   1.380   2.338  14.264  0.2296  0.6909 -0.2771
  567TMC3    C8 8418   1.364   2.659  13.935 -0.2014  0.7608  0.0816
  567TMC3    O1 8419   1.499   2.345  14.296  0.5114  0.2799  0.7919
  567TMC3    O2 8420   1.275   2.732  13.903 -0.1934 -0.4254 -0.0130
  568MPD2     C 8421   2.927   3.993  16.740  0.5401  0.0531 -0.5832
  568MPD2    C1 8422   3.026   3.952  16.649  0.6875 -0.1628 -0.5305
  568MPD2    C2 8423   3.062   4.033  16.549 -0.3324  0.8711 -0.2803
  568MPD2    C3 8424   2.997   4.158  16.529 -0.6083 -0.4016 -0.1154
  568MPD2    C4 8425   2.890   4.185  16.613  0.2710 -0.0080 -0.1577
  568MPD2    C5 8426   2.850   4.100  16.717 -0.0328  0.1734 -0.4176
  568MPD2     H 8427   3.141   4.013  16.477 -0.2485 -1.2474  0.4216
  568MPD2    H1 8428   2.840   4.280  16.606 -0.6368 -0.4172  0.8392
  568MPD2    H2 8429   2.906   3.929  16.825  0.5944 -0.1755 -0.7438
  568MPD2    H3 8430   2.774   4.123  16.790 -1.7935  0.4566 -2.3254
  568MPD2     N 8431   3.041   4.236  16.413 -0.6101  0.2794 -0.2771
  568MPD2    H5 8432   3.119   4.200  16.359 -0.8178 -2.4089  1.2085
  568MPD2    N1 8433   3.105   3.844  16.691 -0.2685 -0.0940  0.1957
  568MPD2    H7 8434   3.083   3.787  16.772  2.1628 -1.6642 -0.2422
  569TMC3    C1 8435   3.030   4.397  16.257 -0.7786 -0.1370 -0.0125
  569TMC3    C2 8436   3.168   4.392  16.237 -0.1672 -0.1416  0.5561
  569TMC3    C3 8437   3.214   4.459  16.130  0.1230 -0.5265  0.0524
  569TMC3    C4 8438   2.944   4.482  16.188 -0.2478  0.1092 -0.2432
  569TMC3    C5 8439   2.999   4.550  16.088  0.1415  0.1102 -0.4516
  569TMC3    C6 8440   3.134   4.544  16.057  0.1267  0.0738 -0.8668
  569TMC3     C 8441   2.990   4.355  16.387  0.3819 -0.0409 -0.8456
  569TMC3     O 8442   2.900   4.419  16.434 -0.6185 -0.4709 -0.0542
  569TMC3     H 8443   3.231   4.326  16.296  0.7412  0.4589  0.2579
  569TMC3    H1 8444   2.837   4.475  16.207  0.3259 -3.3184  1.6298
  569TMC3    H2 8445   3.178   4.574  15.962 -0.2384  1.5868 -0.5515
  569TMC3    C7 8446   2.917   4.622  15.981  0.1113 -0.6047  0.2864
  569TMC3    C8 8447   3.354   4.453  16.097 -0.2247 -0.2713 -1.4028
  569TMC3    O1 8448   2.798   4.601  15.983  0.6959  0.1896 -0.3787
  569TMC3    O2 8449   3.396   4.478  15.982  0.5212 -0.2618  0.0816
  570TMC3    C1 8450   2.191   2.555  15.762 -0.2094  1.0743  0.2748
  570TMC3    C2 8451   2.288   2.492  15.691 -0.0411  0.7302  0.2285
  570TMC3    C3 8452   2.393   2.570  15.643 -0.5051  0.0108  0.0359
  570TMC3    C4 8453   2.205   2.684  15.813 -0.0440 -0.4913 -0.3359
  570TMC3    C5 8454   2.315   2.753  15.771 -0.3065  1.3426 -0.7849
  570TMC3    C6 8455   2.414   2.701  15.689  0.0260 -0.2335 -0.2410
  570TMC3     C 8456   2.105   2.470  15.834  0.5100  0.7398  0.6816
  570TMC3     O 8457   2.056   2.366  15.788 -0.4782 -0.0986 -0.2096
  570TMC3     H 8458   2.263   2.391  15.661  1.3799  1.1153 -2.2436
  570TMC3    H1 8459   2.133   2.736  15.874  2.2225  0.6339  1.3970
  570TMC3    H2 8460   2.507   2.755  15.672  0.9730 -1.1372  2.0072
  570TMC3    C7 8461   2.342   2.882  15.840  0.5411  0.3257 -0.0092
  570TMC3    C8 8462   2.502   2.506  15.564  0.4034  0.1639 -0.1214
  570TMC3    O1 8463   2.300   2.887  15.955  0.2715  0.8710 -0.0735
  570TMC3    O2 8464   2.582   2.590  15.531 -0.5002 -0.0926  0.6601
  571MPD2     C 8465   1.558   4.217   0.014  0.3755  0.3898 -0.7724
  571MPD2    C1 8466   1.455   4.132   0.049 -0.0630  0.8297  0.3482
  571MPD2    C2 8467   1.330   4.162  17.693 -0.5841 -0.0676  0.6065
  571MPD2    C3 8468   1.312   4.254  17.588 -1.2554  0.3079 -0.2543
  571MPD2    C4 8469   1.421   4.335  17.561  0.6504  0.2638  0.7947
  571MPD2    C5 8470   1.539   4.322  17.631 -0.1199 -0.2013 -0.0129
  571MPD2     H 8471   1.247   4.097   0.018 -0.4911  0.0260  1.1634
  571MPD2    H1 8472   1.424   4.409  17.482 -0.1903 -1.0264 -0.4505
  571MPD2    H2 8473   1.653   4.211   0.065 -1.5368 -0.3476  2.7205
  571MPD2    H3 8474   1.623   4.382  17.597 -0.0054 -0.7283 -0.6762
  571MPD2     N 8475   1.188   4.292  17.530  0.3023  0.0398 -0.5456
  571MPD2    H5 8476   1.178   4.374  17.471 -0.1571  0.6900  0.4407
  571MPD2    N1 8477   1.480   4.019   0.133  0.3326  0.1982  0.5425
  571MPD2    H7 8478   1.577   4.009   0.161  0.1577 -0.3061  0.9676
  572TMC3    C1 8479   0.963   4.256  17.443 -0.2387  0.4586  0.4489
  572TMC3    C2 8480   0.878   4.165  17.394 -0.0255 -0.0090  0.2952
  572TMC3    C3 8481   0.750   4.207  17.363 -0.3974 -0.2716 -0.4074
  572TMC3    C4 8482   0.930   4.395  17.451 -0.6199 -0.7954 -0.8652
  572TMC3    C5 8483   0.801   4.432  17.414  1.1451 -0.3080  0.1326
  572TMC3    C6 8484   0.708   4.341  17.360 -0.3116  0.1279  0.5330
  572TMC3     C 8485   1.078   4.210  17.522  0.1086  0.0771  0.7372
  572TMC3     O 8486   1.075   4.098  17.571 -0.0422 -0.1115  0.4618
  572TMC3     H 8487   0.908   4.062  17.409 -1.6402 -0.3454  1.2514
  572TMC3    H1 8488   1.003   4.466  17.489  0.5608 -1.9267 -1.0124
  572TMC3    H2 8489   0.614   4.373  17.318  0.0450 -0.0351 -0.4025
  572TMC3    C7 8490   0.751   4.575  17.407 -0.6215 -0.1292  0.9350
  572TMC3    C8 8491   0.648   4.109  17.375 -0.3546  0.4258  0.0887
  572TMC3    O1 8492   0.631   4.596  17.399 -0.3112  0.8297  0.5019
  572TMC3    O2 8493   0.674   3.989  17.361 -0.1277 -0.3082  0.3984
  573MPD2     C 8494   1.525   0.487   1.086  0.1958 -0.5013  0.4768
  573MPD2    C1 8495   1.485   0.601   1.014 -0.3266 -0.3725 -0.0852
  573MPD2    C2 8496   1.495   0.586   0.873  0.1142  0.2718  0.5924
  573MPD2    C3 8497   1.559   0.481   0.805  0.2409 -0.4723 -0.5010
  573MPD2    C4 8498   1.588   0.377   0.884  0.8088 -0.2761  0.0421
  573MPD2    C5 8499   1.575   0.381   1.018  0.2570 -0.3867  0.5945
  573MPD2     H 8500   1.449   0.663   0.812  0.5364  1.7469  2.1252
  573MPD2    H1 8501   1.627   0.288   0.836 -1.0449 -0.0374 -1.8822
  573MPD2    H2 8502   1.512   0.476   1.193  0.1248  1.8889  0.7102
  573MPD2    H3 8503   1.600   0.292   1.075 -0.6833  0.2613  2.0312
  573MPD2     N 8504   1.583   0.462   0.670  0.5105  0.0474  0.0214
  573MPD2    H5 8505   1.617   0.374   0.632 -2.9219 -0.7748 -1.1273
  573MPD2    N1 8506   1.423   0.710   1.083  0.2385 -0.7710  0.5412
  573MPD2    H7 8507   1.401   0.692   1.180 -2.0454 -2.5740 -0.3270
  574TMC3    C1 8508   1.544   0.513   0.429  0.9893 -0.1105 -0.1959
  574TMC3    C2 8509   1.631   0.416   0.386 -0.6847  0.8118  0.0545
  574TMC3    C3 8510   1.700   0.431   0.269  0.0363  0.2594  1.0917
  574TMC3    C4 8511   1.507   0.611   0.346  0.0650  0.0449 -0.0981
  574TMC3    C5 8512   1.579   0.624   0.228 -0.4686  0.2109 -0.2426
  574TMC3    C6 8513   1.673   0.537   0.188 -0.0589  0.1150  0.2313
  574TMC3     C 8514   1.537   0.551   0.570 -0.4815 -0.2885  0.3654
  574TMC3     O 8515   1.493   0.665   0.584 -0.3097 -0.1141 -0.0340
  574TMC3     H 8516   1.668   0.339   0.452 -3.5843 -0.7255 -0.1406
  574TMC3    H1 8517   1.428   0.674   0.386 -0.7819 -0.9872 -0.1202
  574TMC3    H2 8518   1.718   0.555   0.090 -0.2304 -0.0474  0.1223
  574TMC3    C7 8519   1.605   0.761   0.197 -0.4344  0.6419 -0.1597
  574TMC3    C8 8520   1.717   0.303   0.190 -0.1898  0.1666  0.3357
  574TMC3    O1 8521   1.655   0.790   0.087 -0.2173 -0.1241  0.0834
  574TMC3    O2 8522   1.731   0.205   0.258 -0.3080 -0.6610  0.4987
  575TMC3    C1 8523   4.042   0.814  11.112 -0.9267  0.6649  0.9812
  575TMC3    C2 8524   3.969   0.794  11.230  0.0765  0.7214  0.2502
  575TMC3    C3 8525   3.842   0.739  11.218 -0.3126  0.0521 -0.8402
  575TMC3    C4 8526   3.997   0.778  10.991  0.1215  0.2658 -0.1145
  575TMC3    C5 8527   3.866   0.727  10.981 -0.4387 -0.0018  0.9216
  575TMC3    C6 8528   3.789   0.707  11.097 -0.3288  0.4793  0.4833
  575TMC3     C 8529   4.164   0.890  11.125  0.2008 -0.5078 -0.4874
  575TMC3     O 8530   4.225   0.888  11.231 -0.6242 -0.4094 -0.3115
  575TMC3     H 8531   4.017   0.810  11.326  0.0024  2.0346  0.0726
  575TMC3    H1 8532   4.047   0.805  10.899  1.4694 -0.0871  0.5238
  575TMC3    H2 8533   3.688   0.667  11.093 -0.3136  0.3613  1.2015
  575TMC3    C7 8534   3.813   0.691  10.858 -0.1453  0.7058 -0.2026
  575TMC3    C8 8535   3.794   0.664  11.333 -0.5414 -0.5577 -0.5097
  575TMC3    O1 8536   3.876   0.738  10.759 -0.2090 -0.5942  0.1739
  575TMC3    O2 8537   3.744   0.558  11.307 -0.3019  0.1008  0.6432
  576MPD2     C 8538   3.419   2.487  12.556  0.7094  0.0759  0.0886
  576MPD2    C1 8539   3.446   2.600  12.479  0.0010  0.2464 -0.2998
  576MPD2    C2 8540   3.381   2.718  12.525 -0.2923 -0.5689 -0.0737
  576MPD2    C3 8541   3.293   2.716  12.631 -0.3461  1.0476 -0.5313
  576MPD2    C4 8542   3.274   2.599  12.706 -0.3722  0.0950  0.8130
  576MPD2    C5 8543   3.347   2.491  12.669  0.2884  0.2132 -1.3177
  576MPD2     H 8544   3.399   2.811  12.472 -0.6179 -0.2870  0.3019
  576MPD2    H1 8545   3.209   2.590  12.792 -0.2066 -1.6542  0.7566
  576MPD2    H2 8546   3.470   2.394  12.533 -1.7818 -0.8035 -1.8055
  576MPD2    H3 8547   3.328   2.407  12.735 -1.3428  1.3266 -0.3573
  576MPD2     N 8548   3.231   2.837  12.663 -0.0503 -0.3930  0.3805
  576MPD2    H5 8549   3.266   2.920  12.616  0.3245 -0.1260  1.1377
  576MPD2    N1 8550   3.516   2.610  12.358 -0.4817 -0.0709 -0.0059
  576MPD2    H7 8551   3.519   2.693  12.301 -3.6716 -0.3012 -0.4946
  577TMC3    C1 8552   3.597   2.547  12.148 -0.0288  0.3635  0.2743
  577TMC3    C2 8553   3.588   2.457  12.049  0.1419  0.1960 -0.3039
  577TMC3    C3 8554   3.617   2.495  11.924  0.3910  0.6346 -0.0583
  577TMC3    C4 8555   3.634   2.677  12.126  0.5007 -0.7501  0.0222
  577TMC3    C5 8556   3.657   2.711  11.992  0.2212 -0.0757  0.2602
  577TMC3    C6 8557   3.657   2.623  11.889 -0.2303 -0.2285  1.2736
  577TMC3     C 8558   3.555   2.503  12.278 -0.3373  0.0340 -0.2543
  577TMC3     O 8559   3.563   2.387  12.313 -0.0203  0.1602  0.4005
  577TMC3     H 8560   3.560   2.358  12.083 -1.3071  0.0934 -1.8240
  577TMC3    H1 8561   3.635   2.759  12.197 -0.0500 -1.7026  1.1286
  577TMC3    H2 8562   3.659   2.652  11.785  0.7256  0.1928  1.4100
  577TMC3    C7 8563   3.720   2.842  11.968  0.0682  0.7644 -0.9183
  577TMC3    C8 8564   3.648   2.388  11.831  0.4282  0.6416  0.0518
  577TMC3    O1 8565   3.755   2.901  12.069  0.4627  0.0078  0.2597
  577TMC3    O2 8566   3.589   2.284  11.860 -0.0457  0.2706 -0.0996
  578MPD2     C 8567   2.643   3.076   0.745 -0.4198 -0.6397  0.5207
  578MPD2    C1 8568   2.581   2.978   0.677 -0.5640  0.1624 -0.0379
  578MPD2    C2 8569   2.583   2.853   0.726  0.2352 -0.0951 -0.3821
  578MPD2    C3 8570   2.649   2.820   0.843  0.2945 -0.5709 -0.3755
  578MPD2    C4 8571   2.709   2.918   0.915  0.1995 -0.2413 -0.0108
  578MPD2    C5 8572   2.717   3.042   0.862 -0.4414  0.9204 -0.9533
  578MPD2     H 8573   2.530   2.768   0.684 -0.6390  0.8566 -1.1786
  578MPD2    H1 8574   2.759   2.896   1.008  1.4521  0.0966 -0.6105
  578MPD2    H2 8575   2.649   3.175   0.699 -0.3975 -0.4035  1.0367
  578MPD2    H3 8576   2.763   3.119   0.922 -1.0998 -0.5939  1.5224
  578MPD2     N 8577   2.650   2.684   0.884 -0.7692 -0.1087 -0.0273
  578MPD2    H5 8578   2.607   2.617   0.821  1.5779 -2.3438  0.7937
  578MPD2    N1 8579   2.520   3.006   0.547  0.0452 -0.8640 -0.4067
  578MPD2    H7 8580   2.522   3.103   0.516  1.3604 -1.3259 -1.7667
  579TMC3    C1 8581   2.738   2.491   1.008  0.1984 -0.8561  0.5584
  579TMC3    C2 8582   2.853   2.457   1.067 -0.4278 -0.4928 -0.6406
  579TMC3    C3 8583   2.870   2.334   1.124 -0.1247  0.0596 -0.1696
  579TMC3    C4 8584   2.638   2.406   0.995  0.2947  0.4916  0.4467
  579TMC3    C5 8585   2.661   2.276   1.042 -1.2566  0.7185  0.7825
  579TMC3    C6 8586   2.772   2.240   1.114  0.4723  0.2767 -0.4375
  579TMC3     C 8587   2.720   2.640   0.997  0.5439 -0.2456  0.4164
  579TMC3     O 8588   2.768   2.706   1.088  0.3574 -0.2365  0.3788
  579TMC3     H 8589   2.935   2.528   1.077 -1.3746  0.7217 -1.4621
  579TMC3    H1 8590   2.547   2.447   0.954  0.5325  2.4991  1.9410
  579TMC3    H2 8591   2.772   2.143   1.163  0.0918  0.8370  0.6790
  579TMC3    C7 8592   2.551   2.184   1.037  0.2330 -0.2495 -0.1518
  579TMC3    C8 8593   2.997   2.270   1.108 -0.7668  0.5103  0.1214
  579TMC3    O1 8594   2.548   2.095   1.117 -0.5633  0.3897 -0.5737
  579TMC3    O2 8595   2.999   2.155   1.064  0.2020 -0.2799 -0.0777
  580TMC3    C1 8596   1.277   1.278  11.487  0.0724  0.1428  0.3428
  580TMC3    C2 8597   1.279   1.213  11.365 -0.2037  0.0807  0.5670
  580TMC3    C3 8598   1.268   1.075  11.361  0.0023 -0.1696  0.9722
  580TMC3    C4 8599   1.259   1.204  11.599 -0.1396  0.3730  0.4126
  580TMC3    C5 8600   1.224   1.071  11.591  0.2591  0.3989  0.5008
  580TMC3    C6 8601   1.232   1.006  11.472 -0.4257 -0.0635  0.0761
  580TMC3     C 8602   1.336   1.404  11.493  0.4274 -0.0139  0.0429
  580TMC3     O 8603   1.414   1.433  11.404 -0.0837  0.3205 -0.3511
  580TMC3     H 8604   1.290   1.273  11.276  0.1524 -0.9072 -0.0593
  580TMC3    H1 8605   1.260   1.244  11.700 -1.8782  0.4515  0.3951
  580TMC3    H2 8606   1.205   0.902  11.465 -1.1212  0.2211 -1.4710
  580TMC3    C7 8607   1.261   1.004  11.713  0.0226  0.0922 -0.1041
  580TMC3    C8 8608   1.373   1.002  11.283  0.3655 -0.1733  0.9527
  580TMC3    O1 8609   1.343   1.061  11.784  0.2332 -0.1336 -0.7916
  580TMC3    O2 8610   1.358   0.884  11.243  0.4824 -0.0971  0.3924
  581MPD2     C 8611   4.329   1.085  14.767 -0.3050  0.0838 -0.3240
  581MPD2    C1 8612   4.324   1.188  14.860  0.7558  0.4551  0.9415
  581MPD2    C2 8613   4.199   1.258  14.871 -0.1320  0.4999 -0.7983
  581MPD2    C3 8614   4.090   1.227  14.788 -0.6341  0.3931  1.0889
  581MPD2    C4 8615   4.101   1.132  14.690 -0.3584  0.1999 -0.3400
  581MPD2    C5 8616   4.222   1.063  14.687  0.9171 -0.0047  0.2135
  581MPD2     H 8617   4.193   1.341  14.940 -0.4888  1.7551 -2.3614
  581MPD2    H1 8618   4.032   1.115  14.607 -1.0921  1.8247 -0.0545
  581MPD2    H2 8619   4.416   1.021  14.764 -0.9857 -0.8614  0.4130
  581MPD2    H3 8620   4.233   0.986  14.612  2.9688  1.1440 -0.6790
  581MPD2     N 8621   3.979   1.314  14.795 -0.5990 -0.8510  0.0003
  581MPD2    H5 8622   4.004   1.402  14.839  0.4169 -0.8259 -0.6220
  581MPD2    N1 8623   4.442   1.215  14.932  0.1133 -0.2602  0.3524
  581MPD2    H7 8624   4.522   1.154  14.917  0.8928  0.4904  1.5236
  582TMC3    C1 8625   4.582   1.298  15.112  0.4985  0.3873 -0.3061
  582TMC3    C2 8626   4.598   1.364  15.230  0.4361  0.1431 -0.5030
  582TMC3    C3 8627   4.717   1.333  15.299 -0.5494  0.0291 -0.5479
  582TMC3    C4 8628   4.683   1.226  15.060  0.2850 -0.6901  0.7499
  582TMC3    C5 8629   0.062   1.183  15.140  0.8549 -0.8252  0.4211
  582TMC3    C6 8630   0.089   1.236  15.261  0.3791  0.8569  0.0858
  582TMC3     C 8631   4.451   1.296  15.042  0.6344 -0.4989  0.2824
  582TMC3     O 8632   4.362   1.362  15.095 -0.3441  0.1269 -0.2184
  582TMC3     H 8633   4.526   1.432  15.274  1.5177  0.5962  0.5969
  582TMC3    H1 8634   4.673   1.168  14.969  1.2102  0.3828 -0.0298
  582TMC3    H2 8635   0.156   1.186  15.329 -1.3737  0.0936  1.2461
  582TMC3    C7 8636   0.044   1.037  15.151 -0.5479  0.2398  0.4178
  582TMC3    C8 8637   4.711   1.381  15.441 -0.7412 -0.1626  0.3266
  582TMC3    O1 8638   0.077   0.972  15.050 -0.0763 -0.3498 -0.5822
  582TMC3    O2 8639   4.623   1.459  15.473  0.1459 -0.5632 -0.1641
  583MPD2     C 8640   4.402   2.911  16.410 -0.4455  0.0399 -0.4883
  583MPD2    C1 8641   4.374   3.035  16.353  0.2089  0.0728 -0.4044
  583MPD2    C2 8642   4.343   3.139  16.433 -0.0222 -0.2190  0.0717
  583MPD2    C3 8643   4.355   3.135  16.567 -0.1641  0.6871  0.0608
  583MPD2    C4 8644   4.402   3.022  16.625  0.4447 -0.3857  0.4444
  583MPD2    C5 8645   4.416   2.908  16.546  0.7791 -0.2817 -0.1964
  583MPD2     H 8646   4.335   3.236  16.384 -2.3120 -0.3583  0.1952
  583MPD2    H1 8647   4.418   3.018  16.732  3.5977 -0.8699 -0.0471
  583MPD2    H2 8648   4.397   2.818  16.355 -3.9228  0.7438 -1.3637
  583MPD2    H3 8649   4.435   2.812  16.592  2.1246 -0.3119 -0.8370
  583MPD2     N 8650   4.329   3.250  16.644  0.5854  0.0021 -0.1238
  583MPD2    H5 8651   4.316   3.339  16.596 -0.0866 -1.2662 -2.3104
  583MPD2    N1 8652   4.384   3.059  16.217 -0.9769  0.1104 -0.7928
  583MPD2    H7 8653   4.353   3.149  16.181 -2.0166 -0.8630 -2.3317
  584TMC3    C1 8654   4.294   3.389  16.838  0.2204 -0.3951 -0.6984
  584TMC3    C2 8655   4.265   3.499  16.752 -0.1173 -0.1241 -0.2585
  584TMC3    C3 8656   4.257   3.622  16.804 -0.1056  0.3655 -0.3105
  584TMC3    C4 8657   4.317   3.416  16.972  0.0988  0.0315  0.6995
  584TMC3    C5 8658   4.289   3.542  17.020  0.9550  0.2974  0.2774
  584TMC3    C6 8659   4.270   3.645  16.939 -0.4123 -0.7847 -0.2429
  584TMC3     C 8660   4.319   3.259  16.780  0.6720 -0.4780 -0.2602
  584TMC3     O 8661   4.324   3.166  16.860 -0.1704  0.2139  0.3413
  584TMC3     H 8662   4.265   3.490  16.644  1.3377  3.0105 -0.5347
  584TMC3    H1 8663   4.337   3.336  17.042 -1.5792 -0.2570  0.8312
  584TMC3    H2 8664   4.210   3.729  16.971 -0.0514 -0.8691  0.6486
  584TMC3    C7 8665   4.293   3.563  17.164  0.5508  0.1456 -0.1792
  584TMC3    C8 8666   4.240   3.726  16.705  0.4096  0.2559  0.3720
  584TMC3    O1 8667   4.287   3.464  17.235 -0.2792  0.1142  0.0003
  584TMC3    O2 8668   4.204   3.688  16.590  0.4811  0.4308  0.1357
  585MPD2     C 8669   3.405   2.684   0.571 -0.9150 -1.0457  0.5264
  585MPD2    C1 8670   3.443   2.664   0.439 -0.1312 -0.1580 -0.2038
  585MPD2    C2 8671   3.481   2.543   0.394 -0.5337  0.1451  0.7067
  585MPD2    C3 8672   3.480   2.435   0.478 -1.2823 -0.7109  0.1763
  585MPD2    C4 8673   3.440   2.451   0.609 -0.5079  0.1060 -0.9639
  585MPD2    C5 8674   3.404   2.577   0.653 -0.0268  0.8472 -0.4302
  585MPD2     H 8675   3.510   2.529   0.290 -0.9116 -0.7797  0.7315
  585MPD2    H1 8676   3.429   2.368   0.678  0.9960  0.5772 -0.1720
  585MPD2    H2 8677   3.371   2.779   0.611 -0.0958 -0.6837  0.3627
  585MPD2    H3 8678   3.363   2.592   0.752 -2.7515 -0.7465 -1.3298
  585MPD2     N 8679   3.511   2.302   0.433  0.2877  0.0799  0.5431
  585MPD2    H5 8680   3.478   2.230   0.496 -0.7379  1.1970  1.2780
  585MPD2    N1 8681   3.445   2.779   0.355 -0.4429 -1.0068 -0.9331
  585MPD2    H7 8682   3.419   2.865   0.403  0.8559 -1.1333  0.0046
  586TMC3    C1 8683   3.580   2.119   0.299 -0.6669 -0.4226 -0.3252
  586TMC3    C2 8684   3.682   2.080   0.215 -0.3452 -0.0667 -0.5400
  586TMC3    C3 8685   3.686   1.942   0.197  0.1791 -0.3549 -0.1804
  586TMC3    C4 8686   3.472   2.044   0.340  0.0275 -1.2178  0.8425
  586TMC3    C5 8687   3.471   1.916   0.295 -0.3701 -0.7374 -0.8196
  586TMC3    C6 8688   3.582   1.861   0.239  0.0694  0.1850 -0.1079
  586TMC3     C 8689   3.576   2.269   0.314  0.6522 -0.1374 -0.0119
  586TMC3     O 8690   3.634   2.332   0.228 -0.3295 -0.1089 -0.1404
  586TMC3     H 8691   3.761   2.146   0.181 -0.5783  0.1418 -0.6727
  586TMC3    H1 8692   3.384   2.089   0.386  0.4580 -1.0806  1.5324
  586TMC3    H2 8693   3.583   1.753   0.227 -0.6940  0.4308 -2.3213
  586TMC3    C7 8694   3.347   1.882   0.235  0.2254 -0.2228 -0.3885
  586TMC3    C8 8695   3.786   1.888   0.116  0.2025  0.7798  0.1909
  586TMC3    O1 8696   3.323   1.761   0.216  0.0309 -0.4435 -0.1222
  586TMC3    O2 8697   3.818   1.779   0.160 -0.3191  0.5252 -0.7312
  587TMC3    C1 8698   1.625   0.672  16.279  0.3047  0.3472  0.2319
  587TMC3    C2 8699   1.527   0.711  16.371 -0.0300  0.2903  1.4185
  587TMC3    C3 8700   1.565   0.760  16.497  0.6661  0.0276  0.2638
  587TMC3    C4 8701   1.758   0.663  16.319 -0.1136 -0.3158 -0.1679
  587TMC3    C5 8702   1.790   0.693  16.449  0.3700  0.1939  0.4021
  587TMC3    C6 8703   1.691   0.746  16.539  0.8443  0.4659 -1.0689
  587TMC3     C 8704   1.585   0.558  16.198 -0.0971 -0.1645 -0.0450
  587TMC3     O 8705   1.659   0.459  16.208 -0.3741 -0.4172 -0.1733
  587TMC3     H 8706   1.422   0.690  16.350 -0.0088  1.3951  0.1813
  587TMC3    H1 8707   1.828   0.618  16.250 -0.6641 -0.9573 -0.3038
  587TMC3    H2 8708   1.718   0.775  16.640 -1.0988 -2.2086  0.2319
  587TMC3    C7 8709   1.871   0.600  16.514 -0.4576 -0.2880  0.3391
  587TMC3    C8 8710   1.464   0.775  16.596  0.0567  0.0780 -0.4312
  587TMC3    O1 8711   1.939   0.622  16.613 -0.1165  0.1915  0.3458
  587TMC3    O2 8712   1.491   0.757  16.712  0.2399 -0.0677  0.1528
  588TMC3    C1 8713   3.348   3.212   9.514 -0.3368 -0.0657 -0.2362
  588TMC3    C2 8714   3.328   3.078   9.502 -0.0535  0.1032 -0.3051
  588TMC3    C3 8715   3.357   2.997   9.604  0.3310  0.4632 -0.4384
  588TMC3    C4 8716   3.389   3.261   9.630  0.7272  0.7118 -0.0584
  588TMC3    C5 8717   3.407   3.175   9.741  0.1768  0.5522 -0.0716
  588TMC3    C6 8718   3.386   3.042   9.732 -0.1586 -0.4504 -0.0326
  588TMC3     C 8719   3.294   3.293   9.409 -0.7422 -0.3102 -0.1180
  588TMC3     O 8720   3.231   3.244   9.318 -0.0153  0.2460  0.0825
  588TMC3     H 8721   3.282   3.032   9.416 -1.2790  0.3956  0.1889
  588TMC3    H1 8722   3.415   3.366   9.636 -0.1454  1.0982 -2.7795
  588TMC3    H2 8723   3.397   2.981   9.821  1.7309 -1.3231 -0.8640
  588TMC3    C7 8724   3.355   3.234   9.863  0.6708  0.1252 -0.6295
  588TMC3    C8 8725   3.350   2.854   9.580 -0.3124 -0.5397 -0.1407
  588TMC3    O1 8726   3.375   3.184   9.971  0.5396  0.2773 -0.2142
  588TMC3    O2 8727   3.263   2.821   9.501  0.9858 -0.5208  0.4342
  589TMC3    C1 8728   2.368   0.717   1.032 -0.0989  0.2681  0.3765
  589TMC3    C2 8729   2.430   0.779   1.141  0.3394 -0.3376 -0.2979
  589TMC3    C3 8730   2.549   0.729   1.187  0.1533 -0.3188 -0.4524
  589TMC3    C4 8731   2.423   0.607   0.974 -0.0362  0.4237  0.0893
  589TMC3    C5 8732   2.548   0.561   1.017 -0.0247 -0.4153 -0.0921
  589TMC3    C6 8733   2.606   0.626   1.120 -0.2607 -0.2010  0.0265
  589TMC3     C 8734   2.250   0.767   0.967  0.4981  0.5153 -0.0712
  589TMC3     O 8735   2.221   0.726   0.853  0.4329  0.4968  0.3667
  589TMC3     H 8736   2.417   0.885   1.157  1.9072 -0.5729  2.4161
  589TMC3    H1 8737   2.359   0.553   0.904  0.0677 -0.3566  0.5968
  589TMC3    H2 8738   2.703   0.584   1.146  0.4203  1.6097  0.3772
  589TMC3    C7 8739   2.632   0.477   0.940 -0.0208  0.4824  0.1281
  589TMC3    C8 8740   2.628   0.812   1.278 -0.0449 -0.9874  0.8082
  589TMC3    O1 8741   2.745   0.439   0.980  0.5791  0.2856  0.0942
  589TMC3    O2 8742   2.566   0.902   1.334  0.0579  0.3452 -0.2021
  590MPD2     C 8743   2.425   3.912  16.597 -0.3806 -0.1433  0.0503
  590MPD2    C1 8744   2.353   3.905  16.479 -0.2458  0.1909  0.2514
  590MPD2    C2 8745   2.427   3.904  16.361  0.7063  0.4437 -0.0427
  590MPD2    C3 8746   2.563   3.899  16.360 -0.3024 -0.4202  0.1618
  590MPD2    C4 8747   2.634   3.912  16.480  0.1242  0.8736  0.4033
  590MPD2    C5 8748   2.558   3.918  16.595 -0.0491  0.0697  0.1397
  590MPD2     H 8749   2.369   3.892  16.270  0.0375  1.6298  0.2341
  590MPD2    H1 8750   2.743   3.906  16.481  0.2202  2.6428 -0.5693
  590MPD2    H2 8751   2.365   3.904  16.687 -1.3441 -0.1815 -0.5877
  590MPD2    H3 8752   2.613   3.920  16.688  0.3427  1.4376 -0.1265
  590MPD2     N 8753   2.632   3.892  16.235 -0.4435 -0.1009  0.4313
  590MPD2    H5 8754   2.585   3.882  16.146 -1.3566  0.1101  0.8828
  590MPD2    N1 8755   2.212   3.899  16.475  0.1873  0.3467  0.1883
  590MPD2    H7 8756   2.175   3.883  16.382  2.0016 -1.6454 -0.2037
  591TMC3    C1 8757   2.798   3.956  16.080 -0.0578 -0.2277  0.4771
  591TMC3    C2 8758   2.735   3.880  15.984  0.2598  0.2736  0.2311
  591TMC3    C3 8759   2.755   3.928  15.852 -0.0526  0.0382  0.1498
  591TMC3    C4 8760   2.886   4.059  16.060 -0.7335  0.2716 -0.2725
  591TMC3    C5 8761   2.882   4.113  15.933 -0.0445 -0.3858 -0.1840
  591TMC3    C6 8762   2.816   4.044  15.829  0.6215 -0.2590  0.8828
  591TMC3     C 8763   2.770   3.913  16.214 -0.6019 -0.1176  0.2219
  591TMC3     O 8764   2.862   3.938  16.286  0.0235  0.1451 -0.1437
  591TMC3     H 8765   2.690   3.786  16.016 -0.8177  0.2016 -1.4964
  591TMC3    H1 8766   2.922   4.122  16.140  0.9225  1.2625 -1.8338
  591TMC3    H2 8767   2.828   4.071  15.725 -2.4173 -3.0856 -0.1956
  591TMC3    C7 8768   2.973   4.218  15.895  0.4832  0.9582  0.2202
  591TMC3    C8 8769   2.711   3.846  15.746 -0.2573  0.7376 -0.1872
  591TMC3    O1 8770   3.072   4.237  15.957 -0.2983 -0.0336 -0.5358
  591TMC3    O2 8771   2.705   3.726  15.755 -0.2472 -0.5092  0.4287
  592MPD2     C 8772   2.592   1.248  11.326  0.2527 -0.2254 -0.0710
  592MPD2    C1 8773   2.593   1.300  11.450 -0.0175  0.1550 -0.2345
  592MPD2    C2 8774   2.523   1.229  11.542 -0.6125 -1.2079 -0.3108
  592MPD2    C3 8775   2.448   1.111  11.509  0.0799  0.1020  0.2677
  592MPD2    C4 8776   2.460   1.061  11.380  0.5026  0.0223  0.6430
  592MPD2    C5 8777   2.530   1.135  11.290 -0.4703 -0.1479  0.0964
  592MPD2     H 8778   2.516   1.266  11.644  0.9444 -1.6438 -0.0458
  592MPD2    H1 8779   2.400   0.980  11.339  2.1943 -0.5331 -0.7535
  592MPD2    H2 8780   2.657   1.300  11.257 -2.5037  1.1297 -1.6375
  592MPD2    H3 8781   2.525   1.114  11.184  1.0942  2.0656 -0.4170
  592MPD2     N 8782   2.375   1.057  11.619  0.6156  0.2887  0.6457
  592MPD2    H5 8783   2.387   1.097  11.711  0.3325  1.1429  0.3075
  592MPD2    N1 8784   2.662   1.421  11.471 -0.0649  0.9113  0.0181
  592MPD2    H7 8785   2.721   1.454  11.396  1.3913  2.1238  1.7042
  593TMC3    C1 8786   2.769   1.593  11.604  0.2698  0.5508  0.6078
  593TMC3    C2 8787   2.800   1.648  11.725 -0.1541 -0.7322 -0.1975
  593TMC3    C3 8788   2.870   1.764  11.729 -0.0910  1.0168 -0.7084
  593TMC3    C4 8789   2.814   1.650  11.486 -0.0088  0.1697 -0.1924
  593TMC3    C5 8790   2.880   1.767  11.493  0.0726 -0.8356 -0.1848
  593TMC3    C6 8791   2.900   1.828  11.615 -0.1023 -0.1186 -0.3065
  593TMC3     C 8792   2.674   1.484  11.599  0.6314 -0.3210  0.4833
  593TMC3     O 8793   2.627   1.451  11.705 -0.2112  0.0239 -0.1815
  593TMC3     H 8794   2.787   1.591  11.816 -0.3425 -1.5905 -0.7571
  593TMC3    H1 8795   2.790   1.616  11.386  0.7417 -0.3122 -0.2117
  593TMC3    H2 8796   2.965   1.914  11.622 -1.3784  0.5860  3.1507
  593TMC3    C7 8797   2.925   1.838  11.374  0.2646 -0.2793  0.5403
  593TMC3    C8 8798   2.951   1.776  11.848 -0.2705 -0.3412 -0.1024
  593TMC3    O1 8799   2.947   1.955  11.384  0.0305  0.2365 -0.4029
  593TMC3    O2 8800   3.003   1.679  11.901  0.3802 -0.4205 -0.2946
  594MPD2     C 8801   0.775   4.708  13.738  0.1733 -0.2485 -0.1024
  594MPD2    C1 8802   0.781   4.720  13.879  0.4525 -0.5393  0.4852
  594MPD2    C2 8803   0.900   0.031  13.937  0.4525  0.1119  0.9781
  594MPD2    C3 8804   1.017   0.055  13.869 -0.5082  0.3268 -0.1561
  594MPD2    C4 8805   1.016   0.039  13.731 -0.1735  0.3724 -0.0274
  594MPD2    C5 8806   0.896   0.013  13.669  0.2959  0.2338  0.3524
  594MPD2     H 8807   0.901   0.047  14.044  0.4269 -0.1884  1.0232
  594MPD2    H1 8808   1.101   0.055  13.666  1.5715 -0.0758  2.1625
  594MPD2    H2 8809   0.691   4.657  13.693  0.2815 -1.2213  0.7906
  594MPD2    H3 8810   0.912   4.708  13.566 -0.1299 -2.0867  0.9613
  594MPD2     N 8811   1.134   0.074  13.943  0.1333  0.1887  0.4748
  594MPD2    H5 8812   1.122   0.089  14.043 -1.7101  0.7201  0.1804
  594MPD2    N1 8813   0.674   4.655  13.945 -0.0634 -0.2454 -0.1663
  594MPD2    H7 8814   0.591   4.632  13.890  0.4533 -2.0000 -0.2055
  595TMC3    C1 8815   1.580   0.208  14.025 -0.3433 -0.5686 -0.0178
  595TMC3    C2 8816   1.486   0.134  13.953 -0.0081  0.3955 -0.2963
  595TMC3    C3 8817   1.356   0.140  13.988  0.2741  0.4015 -0.6540
  595TMC3    C4 8818   1.536   0.270  14.138  0.4664  0.4096 -0.2179
  595TMC3    C5 8819   1.404   0.258  14.181 -0.4756 -0.0739 -0.3554
  595TMC3    C6 8820   1.308   0.192  14.107 -0.1771  0.3986  0.0782
  595TMC3     C 8821   1.720   0.191  14.006  0.0208  0.3035 -0.5850
  595TMC3     O 8822   1.791   0.224  14.100  0.1905  0.9212 -0.4942
  595TMC3     H 8823   1.515   0.084  13.861  3.1376  2.3290 -0.3668
  595TMC3    H1 8824   1.609   0.336  14.182  1.8744 -1.2383 -0.0649
  595TMC3    H2 8825   1.205   0.190  14.141 -0.5149  2.7273 -0.8756
  595TMC3    C7 8826   1.360   0.324  14.302  0.3726  0.3264  0.8843
  595TMC3    C8 8827   1.263   0.095  13.888 -0.4401 -0.0679  0.0598
  595TMC3    O1 8828   1.252   0.381  14.308  0.5869  0.1829  0.1771
  595TMC3    O2 8829   1.303   0.074  13.770  0.0992 -0.2034  0.4242
  596MPD2     C 8830   0.482   2.781  16.375  0.2022  0.2039 -0.4367
  596MPD2    C1 8831   0.509   2.908  16.336 -0.6322  0.4909  0.4314
  596MPD2    C2 8832   0.530   2.932  16.205 -0.1285 -0.0027  0.4560
  596MPD2    C3 8833   0.560   2.831  16.115 -0.1175  0.5095 -0.1763
  596MPD2    C4 8834   0.536   2.697  16.153 -0.3949 -0.9854 -0.1098
  596MPD2    C5 8835   0.491   2.682  16.279  0.2867 -0.0513 -0.5792
  596MPD2     H 8836   0.567   3.033  16.189  0.0882 -0.0867  0.4264
  596MPD2    H1 8837   0.535   2.619  16.078  0.6192 -0.5930 -0.5329
  596MPD2    H2 8838   0.460   2.744  16.475  2.8494  0.6039  0.2969
  596MPD2    H3 8839   0.467   2.585  16.322  2.4463 -0.7912 -1.0707
  596MPD2     N 8840   0.569   2.847  15.976  0.9391  0.1644 -0.2762
  596MPD2    H5 8841   0.557   2.766  15.916 -0.4195  1.2120 -1.4089
  596MPD2    N1 8842   0.503   3.013  16.430  0.2766  0.1648 -0.0980
  596MPD2    H7 8843   0.557   3.091  16.395 -0.9546  0.9969 -0.1155
  597TMC3    C1 8844   0.452   3.138  16.610 -0.5793 -0.4249 -0.2028
  597TMC3    C2 8845   0.559   3.224  16.582 -0.2092 -0.3906 -0.5550
  597TMC3    C3 8846   0.547   3.354  16.617  0.7836 -0.3502 -0.3361
  597TMC3    C4 8847   0.346   3.181  16.686 -0.4916 -0.3300 -0.2021
  597TMC3    C5 8848   0.342   3.312  16.718  0.1161  0.9635  0.1175
  597TMC3    C6 8849   0.439   3.402  16.688  0.7277  0.0826 -0.3183
  597TMC3     C 8850   0.447   3.010  16.555 -0.0029  0.0989 -0.0396
  597TMC3     O 8851   0.386   2.926  16.617 -0.4909  0.7977  0.1868
  597TMC3     H 8852   0.656   3.193  16.545  1.4934  1.9208  1.9653
  597TMC3    H1 8853   0.260   3.116  16.699 -0.5634 -0.6341 -2.1255
  597TMC3    H2 8854   0.442   3.505  16.722 -2.3885  0.2953 -0.6453
  597TMC3    C7 8855   0.242   3.358  16.817  0.1053 -0.3654  0.4490
  597TMC3    C8 8856   0.652   3.452  16.603 -0.2523  0.2709 -0.2552
  597TMC3    O1 8857   0.213   3.286  16.913 -0.2781 -0.3324  0.0937
  597TMC3    O2 8858   0.625   3.567  16.637 -0.6259 -0.0911  0.3802
  598TMC3    C1 8859   3.317   4.416  15.178 -0.3596  0.1896  0.3207
  598TMC3    C2 8860   3.303   4.288  15.130 -0.6273 -0.0197 -0.2968
  598TMC3    C3 8861   3.231   4.270  15.016 -0.5225  0.0100 -0.1695
  598TMC3    C4 8862   3.254   4.523  15.114 -0.4561  0.6805  0.2409
  598TMC3    C5 8863   3.172   4.497  15.008  0.0552  0.1647  0.4844
  598TMC3    C6 8864   3.165   4.374  14.949  0.4940 -0.0659  0.0434
  598TMC3     C 8865   3.415   4.436  15.286  0.3866 -0.2101  0.5288
  598TMC3     O 8866   3.494   4.342  15.300 -0.6310  0.2667  0.2697
  598TMC3     H 8867   3.360   4.210  15.179 -1.7234 -1.9766 -2.0979
  598TMC3    H1 8868   3.273   4.625  15.146  0.6604  0.6380 -0.2719
  598TMC3    H2 8869   3.113   4.347  14.858  0.1918 -1.1033  0.5282
  598TMC3    C7 8870   3.112   4.603  14.928  0.4348  0.1174  0.8375
  598TMC3    C8 8871   3.186   4.138  14.975  0.5045  0.5748 -0.1809
  598TMC3    O1 8872   3.024   4.566  14.850 -0.1445 -0.9603  0.4579
  598TMC3    O2 8873   3.095   4.128  14.896  0.5610  0.0633  0.2165
  599MPD2     C 8874   3.432   2.205  15.448  1.1488 -0.4776  0.6379
  599MPD2    C1 8875   3.348   2.091  15.456 -0.2090 -0.4645 -0.4140
  599MPD2    C2 8876   3.219   2.112  15.512  1.0858  0.5700  1.4798
  599MPD2    C3 8877   3.176   2.228  15.558  0.3276  0.3646  0.4329
  599MPD2    C4 8878   3.264   2.332  15.548 -0.4153  0.3242  0.4451
  599MPD2    C5 8879   3.391   2.325  15.494 -0.5780 -0.0405 -0.4033
  599MPD2     H 8880   3.143   2.034  15.514  1.8098 -0.1559  1.0737
  599MPD2    H1 8881   3.243   2.431  15.586 -1.1419  1.2083 -2.2522
  599MPD2    H2 8882   3.519   2.200  15.383  0.6210 -0.1518 -0.0941
  599MPD2    H3 8883   3.448   2.416  15.476 -3.5336  0.8549 -5.2683
  599MPD2     N 8884   3.047   2.250  15.615 -0.0738 -0.4691  0.6733
  599MPD2    H5 8885   3.034   2.346  15.647 -0.9228 -0.9097  1.6651
  599MPD2    N1 8886   3.405   1.964  15.419  0.0998 -0.4692 -0.4102
  599MPD2    H7 8887   3.496   1.979  15.376  0.6861 -2.2371  0.2127
  600TMC3    C1 8888   2.840   2.209  15.714  0.0216  0.2872 -0.2238
  600TMC3    C2 8889   2.726   2.142  15.723  0.3782  0.1611  0.7556
  600TMC3    C3 8890   2.638   2.162  15.822  0.3799 -0.0571 -0.0291
  600TMC3    C4 8891   2.875   2.292  15.819 -0.1259  0.4656  0.1961
  600TMC3    C5 8892   2.793   2.308  15.926 -0.0410  0.1025  0.5306
  600TMC3    C6 8893   2.665   2.250  15.923  0.4540  0.3354  0.5129
  600TMC3     C 8894   2.940   2.172  15.613 -0.5441 -0.0378  0.4882
  600TMC3     O 8895   2.925   2.059  15.562  0.1680  0.3786 -0.0867
  600TMC3     H 8896   2.713   2.058  15.656  3.3648  0.4865 -0.2266
  600TMC3    H1 8897   2.967   2.349  15.827 -1.0392  2.0460 -0.6036
  600TMC3    H2 8898   2.601   2.271  16.008 -0.3969 -0.2797  0.0196
  600TMC3    C7 8899   2.818   2.422  16.017  0.1615  0.2463  0.4355
  600TMC3    C8 8900   2.540   2.056  15.851 -0.2280 -0.5807  0.2916
  600TMC3    O1 8901   2.723   2.484  16.065 -0.1365  0.6667  0.8665
  600TMC3    O2 8902   2.562   1.947  15.801 -0.5803 -0.1945 -0.3289
  601MPD2     C 8903   0.857   0.372  17.378  0.5890 -0.1784  0.3422
  601MPD2    C1 8904   0.745   0.305  17.348  0.3403 -0.7641 -0.0055
  601MPD2    C2 8905   0.738   0.167  17.358  0.4600 -0.1494 -0.1466
  601MPD2    C3 8906   0.847   0.089  17.401 -0.7307 -0.2396 -0.3384
  601MPD2    C4 8907   0.959   0.151  17.424 -0.8965 -0.4179 -0.1717
  601MPD2    C5 8908   0.960   0.291  17.415 -0.3291 -0.2228 -0.4952
  601MPD2     H 8909   0.651   0.110  17.331 -1.3141  2.2233  0.5109
  601MPD2    H1 8910   1.042   0.088  17.453  1.7122  2.0017 -2.3422
  601MPD2    H2 8911   0.874   0.479  17.387  1.1213 -0.2946  0.7280
  601MPD2    H3 8912   1.055   0.340  17.430 -0.4739  0.1514 -0.8060
  601MPD2     N 8913   0.853   4.671  17.408  0.2141  0.5506  0.5843
  601MPD2    H5 8914   0.945   4.629  17.407  0.1265  0.3831 -0.8351
  601MPD2    N1 8915   0.629   0.378  17.311  1.0215 -0.3579  0.2512
  601MPD2    H7 8916   0.549   0.320  17.286 -1.3310  3.6305 -1.4885
  602TMC3    C1 8917   0.510   0.554  17.200 -0.4444 -0.4736  0.7623
  602TMC3    C2 8918   0.485   0.689  17.207 -0.0251  0.0862 -0.1132
  602TMC3    C3 8919   0.409   0.747  17.107  0.4984  0.5418  0.4065
  602TMC3    C4 8920   0.449   0.481  17.104 -0.3078 -0.1007  0.0567
  602TMC3    C5 8921   0.378   0.543  17.006 -0.0642 -0.2369  0.0275
  602TMC3    C6 8922   0.356   0.675  17.008  0.0620 -0.1938 -0.1773
  602TMC3     C 8923   0.627   0.512  17.280 -0.9055  0.3781  0.1090
  602TMC3     O 8924   0.713   0.596  17.310 -0.1222 -0.3350 -0.8068
  602TMC3     H 8925   0.520   0.753  17.286 -0.4405  2.0870 -1.5552
  602TMC3    H1 8926   0.474   0.376  17.090  1.1842  0.4904 -1.7579
  602TMC3    H2 8927   0.300   0.731  16.934 -0.2846  0.1436  0.3426
  602TMC3    C7 8928   0.247   0.488  16.995  0.2752 -0.2313 -0.2211
  602TMC3    C8 8929   0.328   0.853  17.157 -0.3099  0.3572  0.1462
  602TMC3    O1 8930   0.162   0.545  17.063  0.7965 -0.0063 -0.0029
  602TMC3    O2 8931   0.380   0.954  17.193  0.3801  0.4886  0.5277
  603TMC3    C1 8932   3.299   0.614  10.433 -0.2945  0.1761  0.7276
  603TMC3    C2 8933   3.306   0.615  10.567  0.1096  0.0505  0.5118
  603TMC3    C3 8934   3.346   0.737  10.627 -0.3431 -0.1633 -0.5531
  603TMC3    C4 8935   3.302   0.728  10.358 -0.6195  0.5853  0.1267
  603TMC3    C5 8936   3.337   0.846  10.415  0.4524  0.0448  0.3998
  603TMC3    C6 8937   3.378   0.849  10.551 -0.0305  0.2722 -0.8530
  603TMC3     C 8938   3.221   0.515  10.370  0.4572 -0.8226 -0.2177
  603TMC3     O 8939   3.207   0.525  10.247  0.1434 -0.2038 -0.0396
  603TMC3     H 8940   3.286   0.528  10.629  0.3706 -1.4265 -1.4642
  603TMC3    H1 8941   3.273   0.726  10.254  1.4283 -0.8598 -0.3920
  603TMC3    H2 8942   3.376   0.950  10.591 -1.3427  0.1852 -0.7153
  603TMC3    C7 8943   3.321   0.974  10.349 -0.6646 -0.8202 -0.5327
  603TMC3    C8 8944   3.378   0.732  10.769 -0.1209  0.1916 -0.2914
  603TMC3    O1 8945   3.398   1.058  10.393  0.3365 -0.2103 -0.3784
  603TMC3    O2 8946   3.363   0.621  10.824  0.7334 -0.2346  0.3402
  604MPD2     C 8947   4.292   4.041  15.884  0.5315  0.0487 -0.0842
  604MPD2    C1 8948   4.258   4.099  15.763  0.5382  0.3536  0.2007
  604MPD2    C2 8949   4.243   4.022  15.647 -0.3402 -0.9120  0.2557
  604MPD2    C3 8950   4.287   3.894  15.646 -0.4102  0.3610  0.9887
  604MPD2    C4 8951   4.339   3.833  15.764  0.0302 -0.2237  0.5283
  604MPD2    C5 8952   4.340   3.908  15.881  0.0216 -0.2209 -0.0008
  604MPD2     H 8953   4.215   4.059  15.549  0.6312 -1.0768 -0.0842
  604MPD2    H1 8954   4.363   3.728  15.776  1.7479  0.2009  0.7839
  604MPD2    H2 8955   4.290   4.089  15.981  0.8755 -2.5708  1.2113
  604MPD2    H3 8956   4.371   3.870  15.978  0.5511  1.7573  0.6061
  604MPD2     N 8957   4.290   3.825  15.516 -0.4325  0.0367 -0.1637
  604MPD2    H5 8958   4.262   3.873  15.431  0.6473  0.5118 -0.2494
  604MPD2    N1 8959   4.233   4.240  15.768 -0.3341 -0.2874 -0.5339
  604MPD2    H7 8960   4.250   4.286  15.857 -1.2645 -0.2212 -0.3934
  605TMC3    C1 8961   4.207   4.460  15.694 -0.3950  0.1477 -0.2302
  605TMC3    C2 8962   4.302   4.487  15.790 -0.1372  0.3732 -0.1572
  605TMC3    C3 8963   4.301   4.613  15.847 -0.0565  0.0210 -0.5410
  605TMC3    C4 8964   4.105   4.550  15.676 -0.2445 -0.0788  0.2627
  605TMC3    C5 8965   4.108   4.668  15.737 -0.5353 -0.3273  0.2105
  605TMC3    C6 8966   4.201   4.700  15.834  0.1265 -0.1061  0.6695
  605TMC3     C 8967   4.198   4.315  15.659 -0.3084  0.1415 -0.7440
  605TMC3     O 8968   4.120   4.275  15.570  0.4014  0.2457 -0.3466
  605TMC3     H 8969   4.393   4.428  15.789 -0.1446  0.3318  0.8865
  605TMC3    H1 8970   4.017   4.520  15.620 -0.5078  0.0735  0.5940
  605TMC3    H2 8971   4.211   0.081  15.858 -2.4419 -0.0550  1.5515
  605TMC3    C7 8972   4.009   0.047  15.703 -0.0409  0.1803  0.5295
  605TMC3    C8 8973   4.404   4.639  15.948 -0.5035  0.9071  0.0963
  605TMC3    O1 8974   3.967   0.048  15.589  0.0739  0.4216 -0.2250
  605TMC3    O2 8975   4.485   4.549  15.945  0.1299 -0.2476  0.0101
  606TMC3    C1 8976   1.023   2.895  17.092 -0.0465 -0.2856 -0.7841
  606TMC3    C2 8977   1.147   2.949  17.068  0.2616  0.3179  0.0385
  606TMC3    C3 8978   1.254   2.859  17.055 -0.1485  0.2370 -0.7194
  606TMC3    C4 8979   1.004   2.763  17.094 -0.3110 -0.0817  0.1776
  606TMC3    C5 8980   1.111   2.677  17.076  0.1400 -0.6369 -0.8820
  606TMC3    C6 8981   1.237   2.725  17.055  0.5502  0.3827 -0.0436
  606TMC3     C 8982   0.921   2.986  17.142 -0.7933  0.4620  0.8037
  606TMC3     O 8983   0.808   2.943  17.173  0.2981 -0.3314  0.2550
  606TMC3     H 8984   1.168   3.055  17.070  1.1116  0.1752 -1.8277
  606TMC3    H1 8985   0.909   2.730  17.133 -0.7761  1.6950  0.5448
  606TMC3    H2 8986   1.321   2.656  17.049  0.3915  0.3807 -1.9881
  606TMC3    C7 8987   1.100   2.543  17.113  0.2555  1.6093  0.5202
  606TMC3    C8 8988   1.380   2.917  17.093 -0.3339 -0.2971 -0.2532
  606TMC3    O1 8989   1.202   2.492  17.161  0.6169 -0.6502  0.1046
  606TMC3    O2 8990   1.405   3.035  17.060  0.9294 -0.1253 -0.6095
  607MPD2     C 8991   2.631   0.819  11.715 -0.0947 -0.0841  0.0222
  607MPD2    C1 8992   2.673   0.892  11.828  0.0784  0.2742  0.2705
  607MPD2    C2 8993   2.657   0.830  11.950 -0.2601  0.1940  0.7164
  607MPD2    C3 8994   2.615   0.703  11.971  0.3406  0.5824  0.1514
  607MPD2    C4 8995   2.574   0.631  11.860 -0.2676 -0.2491 -0.7468
  607MPD2    C5 8996   2.586   0.690  11.736 -0.6986 -0.5169 -0.5645
  607MPD2     H 8997   2.690   0.880  12.040  1.4582  0.3393  0.0016
  607MPD2    H1 8998   2.549   0.526  11.867 -0.0765 -0.2587 -0.2404
  607MPD2    H2 8999   2.640   0.857  11.614 -0.5174  0.1236  0.0618
  607MPD2    H3 9000   2.569   0.625  11.651  0.5142  0.5076 -1.5903
  607MPD2     N 9001   2.612   0.663  12.106 -0.2355  0.4589 -0.4814
  607MPD2    H5 9002   2.619   0.742  12.170  0.4834 -0.9203  1.1377
  607MPD2    N1 9003   2.717   1.025  11.826 -0.1004  1.0017  1.0090
  607MPD2    H7 9004   2.744   1.065  11.915 -0.5775  1.6967  0.8330
  608TMC3    C1 9005   2.839   1.210  11.752  0.3845 -0.6226 -0.2818
  608TMC3    C2 9006   2.838   1.271  11.877 -0.0815  0.3457 -0.8216
  608TMC3    C3 9007   2.944   1.347  11.916  0.7062 -0.7168 -0.0351
  608TMC3    C4 9008   2.938   1.255  11.662 -0.4088  0.1744 -0.0455
  608TMC3    C5 9009   3.017   1.364  11.699  0.0857 -0.3140 -0.3561
  608TMC3    C6 9010   3.037   1.401  11.830  0.5301 -0.7509  0.0444
  608TMC3     C 9011   2.764   1.090  11.713 -0.3730 -0.1668 -0.1723
  608TMC3     O 9012   2.779   1.048  11.602  0.1712  0.0206  0.2318
  608TMC3     H 9013   2.753   1.254  11.943  0.7319  1.0851  0.4043
  608TMC3    H1 9014   2.935   1.212  11.563  0.0381 -2.0718  0.9153
  608TMC3    H2 9015   3.114   1.461  11.878 -0.1330  0.3503 -0.2772
  608TMC3    C7 9016   3.100   1.426  11.588  0.1603  0.0351 -0.5020
  608TMC3    C8 9017   2.957   1.348  12.059  0.4964 -0.4131 -0.2224
  608TMC3    O1 9018   3.089   1.381  11.475  0.0415 -0.3416 -0.3728
  608TMC3    O2 9019   3.001   1.452  12.112 -0.0913  0.1622  0.1842
  609TMC3    C1 9020   1.379   0.014   8.879  0.0069  0.0034  0.3668
  609TMC3    C2 9021   1.404   0.150   8.881  0.2687 -0.3911 -0.0365
  609TMC3    C3 9022   1.531   0.192   8.865  0.3632  0.5115 -1.2783
  609TMC3    C4 9023   1.476   4.640   8.875  0.0890  0.0699 -0.6947
  609TMC3    C5 9024   1.602   4.692   8.862  0.5197  0.6934 -0.4003
  609TMC3    C6 9025   1.631   0.098   8.863 -0.2707 -0.8405  0.2936
  609TMC3     C 9026   1.244   4.698   8.900  0.5274  0.2315  0.1296
  609TMC3     O 9027   1.172   0.040   8.971 -0.3112  0.2552  0.0869
  609TMC3     H 9028   1.331   0.230   8.885 -0.6023 -1.1019 -1.7422
  609TMC3    H1 9029   1.452   4.535   8.869  3.1071 -0.6271 -0.6143
  609TMC3    H2 9030   1.734   0.131   8.857 -0.5072 -0.3128 -0.9407
  609TMC3    C7 9031   1.708   4.607   8.823 -0.3897 -0.1464  0.3005
  609TMC3    C8 9032   1.581   0.327   8.882 -0.1108  0.0827 -0.4761
  609TMC3    O1 9033   1.825   4.634   8.852  0.0402  0.1319  0.0864
  609TMC3    O2 9034   1.694   0.346   8.924  0.3446 -0.1284  0.0888
  610TMC3    C1 9035   3.281   0.727  12.383 -0.0349  0.3092  0.0577
  610TMC3    C2 9036   3.233   0.809  12.282  0.2631 -0.0801  0.2226
  610TMC3    C3 9037   3.305   0.822  12.169 -0.0437 -0.7897 -0.2564
  610TMC3    C4 9038   3.399   0.659  12.374 -0.1860  0.3150  0.6335
  610TMC3    C5 9039   3.458   0.666  12.248  0.0155 -0.8459  0.3668
  610TMC3    C6 9040   3.412   0.749  12.148  0.4495 -0.6512  0.2050
  610TMC3     C 9041   3.213   0.715  12.511 -0.5661  0.5037 -0.7846
  610TMC3     O 9042   3.136   0.803  12.543 -0.0614  0.0913 -0.2180
  610TMC3     H 9043   3.147   0.872  12.301 -0.1474 -1.0633  1.6668
  610TMC3    H1 9044   3.445   0.606  12.457  0.8693  1.0682  0.5351
  610TMC3    H2 9045   3.471   0.765  12.058 -0.4161 -0.8870 -0.4003
  610TMC3    C7 9046   3.602   0.626  12.226 -0.0093 -0.2476 -0.3404
  610TMC3    C8 9047   3.286   0.939  12.082  0.3366 -0.7469 -0.3466
  610TMC3    O1 9048   3.664   0.684  12.139  0.5004  0.3532  0.5483
  610TMC3    O2 9049   3.182   1.001  12.107 -0.0256  0.7158 -0.7462
  611MPD2     C 9050   2.546   0.490   9.851 -0.3211  0.1455  0.0115
  611MPD2    C1 9051   2.438   0.566   9.841  0.2314  0.7193 -0.1287
  611MPD2    C2 9052   2.459   0.699   9.832 -0.4101 -0.3072  0.2784
  611MPD2    C3 9053   2.589   0.751   9.824 -0.1904 -0.1513  0.1587
  611MPD2    C4 9054   2.695   0.666   9.838 -0.6680  0.1292 -0.0113
  611MPD2    C5 9055   2.673   0.531   9.853 -0.2428 -0.1649  0.1652
  611MPD2     H 9056   2.375   0.761   9.807 -0.4904  0.6260  2.8610
  611MPD2    H1 9057   2.799   0.696   9.830 -1.2563  1.7775 -1.4810
  611MPD2    H2 9058   2.517   0.385   9.860  2.5852 -0.7387 -1.0454
  611MPD2    H3 9059   2.761   0.469   9.866  1.1870  2.2968  2.2565
  611MPD2     N 9060   2.624   0.878   9.782 -0.4973 -0.6706 -0.4116
  611MPD2    H5 9061   2.719   0.905   9.758  0.7619 -3.6890  1.2292
  611MPD2    N1 9062   2.313   0.500   9.842  0.2413 -0.1895 -0.0865
  611MPD2    H7 9063   2.317   0.399   9.857 -0.2584  0.0384  1.5655
  612TMC3    C1 9064   2.606   1.103   9.743 -0.8151 -0.7878 -0.3583
  612TMC3    C2 9065   2.741   1.108   9.773  0.3546  0.2510  0.1027
  612TMC3    C3 9066   2.814   1.218   9.724 -0.1487  0.4167  0.3439
  612TMC3    C4 9067   2.550   1.196   9.665  0.3152 -0.4681  0.3911
  612TMC3    C5 9068   2.626   1.298   9.616 -1.1224  0.5066 -0.6414
  612TMC3    C6 9069   2.760   1.315   9.649 -0.2115  0.4039 -0.2966
  612TMC3     C 9070   2.531   0.982   9.775 -0.1715 -1.0856 -0.0740
  612TMC3     O 9071   2.408   0.980   9.764 -0.3473  0.2280  0.1848
  612TMC3     H 9072   2.791   1.039   9.839 -0.5223 -0.8083 -0.3528
  612TMC3    H1 9073   2.443   1.194   9.653  0.3004  0.6907  0.3437
  612TMC3    H2 9074   2.821   1.401   9.623 -0.0003  0.2035 -0.4657
  612TMC3    C7 9075   2.579   1.371   9.491 -0.2420 -0.0156  0.0238
  612TMC3    C8 9076   2.920   1.256   9.806  0.0557 -0.0773  0.3057
  612TMC3    O1 9077   2.489   1.306   9.442  0.1758 -0.4129 -0.0839
  612TMC3    O2 9078   2.938   1.375   9.827  0.2544 -0.1405 -0.2428
  613MPD2     C 9079   1.697   3.163  16.024 -0.2608 -0.0870  0.1673
  613MPD2    C1 9080   1.616   3.059  16.003 -0.2075  0.0762 -0.4814
  613MPD2    C2 9081   1.525   3.026  16.106  0.2009 -0.6877 -1.2452
  613MPD2    C3 9082   1.510   3.107  16.213 -0.0674  0.3056  0.0847
  613MPD2    C4 9083   1.592   3.223  16.234  0.5315  0.0304 -0.4114
  613MPD2    C5 9084   1.683   3.242  16.139  0.3546 -0.3906  0.0758
  613MPD2     H 9085   1.459   2.940  16.104 -1.0600  0.2320  1.3000
  613MPD2    H1 9086   1.577   3.297  16.311 -0.6120  1.4871 -2.0419
  613MPD2    H2 9087   1.772   3.192  15.951 -0.0060 -1.2381 -0.0206
  613MPD2    H3 9088   1.756   3.321  16.154  0.4866 -0.5277  0.1645
  613MPD2     N 9089   1.406   3.072  16.303 -0.3646  0.0227 -0.4483
  613MPD2    H5 9090   1.341   2.998  16.274 -0.0988  0.2967 -1.7527
  613MPD2    N1 9091   1.637   2.971  15.897 -0.3156 -0.0339 -0.5712
  613MPD2    H7 9092   1.692   3.014  15.824 -1.0067 -0.1360 -1.1449
  614TMC3    C1 9093   1.589   2.806  15.739 -0.4917 -0.2548  0.1305
  614TMC3    C2 9094   1.534   2.683  15.736 -0.0155  0.5603  0.8664
  614TMC3    C3 9095   1.452   2.647  15.634  0.4901 -0.7805 -0.0850
  614TMC3    C4 9096   1.549   2.901  15.646 -0.0849  0.1267  0.0640
  614TMC3    C5 9097   1.473   2.858  15.541 -0.3620  0.0902 -0.1011
  614TMC3    C6 9098   1.430   2.734  15.529 -1.3690 -0.1074  0.3914
  614TMC3     C 9099   1.580   2.847  15.876 -0.7400  0.2919  0.4959
  614TMC3     O 9100   1.500   2.782  15.945 -0.8321 -0.0207  0.3027
  614TMC3     H 9101   1.552   2.603  15.807  0.6846  0.0761  0.1360
  614TMC3    H1 9102   1.576   3.006  15.646  1.9585 -0.3829  1.6182
  614TMC3    H2 9103   1.362   2.693  15.455 -0.5627  0.7485 -0.8138
  614TMC3    C7 9104   1.407   2.964  15.463 -0.7300 -0.7542  0.5533
  614TMC3    C8 9105   1.332   2.582  15.682  0.2732 -0.0730  0.4073
  614TMC3    O1 9106   1.386   3.068  15.528  0.2370  0.4875  0.1354
  614TMC3    O2 9107   1.244   2.558  15.600 -0.1227  0.5967 -0.2001
  615MPD2     C 9108   0.700   4.674  14.869 -0.4250 -0.2678 -0.0258
  615MPD2    C1 9109   0.697   4.577  14.968 -0.1808 -0.0167  0.3325
  615MPD2    C2 9110   0.596   4.483  14.964  0.1254  0.5438  0.0637
  615MPD2    C3 9111   0.495   4.483  14.867  0.6217  0.0410  0.2579
  615MPD2    C4 9112   0.499   4.586  14.775 -0.3693  0.9555  0.0699
  615MPD2    C5 9113   0.600   4.677  14.776  0.0396  0.5911  0.1363
  615MPD2     H 9114   0.595   4.406  15.040  2.6214  1.1521  0.7129
  615MPD2    H1 9115   0.414   4.587  14.708  0.7058  2.6916 -1.2547
  615MPD2    H2 9116   0.772   0.031  14.869 -0.6357 -0.0779  0.4213
  615MPD2    H3 9117   0.593   0.045  14.720 -1.2223  1.4597  1.7207
  615MPD2     N 9118   0.383   4.392  14.867  0.3464 -0.3916  0.5852
  615MPD2    H5 9119   0.306   4.402  14.801  1.4763 -2.7125 -1.0649
  615MPD2    N1 9120   0.797   4.582  15.066 -0.1948  0.2025  0.2726
  615MPD2    H7 9121   0.855   4.665  15.073 -0.6094  0.4708  0.5102
  616TMC3    C1 9122   0.913   4.525  15.273 -0.2850 -0.0371  0.3019
  616TMC3    C2 9123   0.992   4.421  15.322 -0.3407  0.3914 -0.8986
  616TMC3    C3 9124   1.050   4.445  15.446 -0.0219 -0.0265  1.1704
  616TMC3    C4 9125   0.902   4.650  15.337 -0.3646  0.4920 -0.0124
  616TMC3    C5 9126   0.956   4.669  15.464 -0.0217 -0.1888 -0.5867
  616TMC3    C6 9127   1.032   4.560  15.517  0.3447  0.3076  0.6812
  616TMC3     C 9128   0.826   4.483  15.158  0.1403 -0.3184  0.2178
  616TMC3     O 9129   0.797   4.366  15.152 -0.2521  0.8060  0.4261
  616TMC3     H 9130   0.983   4.323  15.278 -3.2524  0.4323 -0.3693
  616TMC3    H1 9131   0.840   0.001  15.289  1.1604  0.1351 -2.5747
  616TMC3    H2 9132   1.072   4.566  15.618  2.7178  1.7779 -0.3485
  616TMC3    C7 9133   0.930   0.073  15.530  0.3176 -0.1794  0.3162
  616TMC3    C8 9134   1.083   4.322  15.509 -0.0546 -0.2235 -0.0603
  616TMC3    O1 9135   0.853   0.147  15.477 -0.0088  0.2976  0.6251
  616TMC3    O2 9136   1.020   4.218  15.484 -0.1292 -0.4383 -0.3973
  617MPD2     C 9137   4.069   2.842  13.847 -0.5582 -0.0084 -0.4466
  617MPD2    C1 9138   4.123   2.745  13.922 -0.2996  0.4553  0.3829
  617MPD2    C2 9139   4.044   2.652  13.984 -0.5805  0.1662  0.6049
  617MPD2    C3 9140   3.906   2.654  13.963 -0.5892  0.4021 -0.1472
  617MPD2    C4 9141   3.852   2.749  13.880 -0.3248  0.5472  0.4711
  617MPD2    C5 9142   3.932   2.847  13.830 -0.0563 -0.3038  0.3560
  617MPD2     H 9143   4.091   2.572  14.040  2.6715  0.4170 -1.7792
  617MPD2    H1 9144   3.749   2.748  13.847 -1.4552  0.0768  3.9705
  617MPD2    H2 9145   4.126   2.924  13.804  2.9498 -1.7959  0.7990
  617MPD2    H3 9146   3.894   2.922  13.762  1.2645  1.1135  1.1890
  617MPD2     N 9147   3.816   2.560  14.013  0.1566  0.1184 -0.7443
  617MPD2    H5 9148   3.723   2.558  13.971  0.4632  2.1078 -1.5318
  617MPD2    N1 9149   4.265   2.737  13.923 -0.7333 -0.0331 -0.0741
  617MPD2    H7 9150   4.321   2.809  13.878 -2.7584  2.2149  1.0382
  618TMC3    C1 9151   4.484   2.686  13.962  0.6076 -0.2039  0.8218
  618TMC3    C2 9152   4.566   2.577  13.968 -0.1791 -0.3185 -0.2335
  618TMC3    C3 9153   4.699   2.596  13.953 -0.3310  0.6112 -0.5195
  618TMC3    C4 9154   4.519   2.807  13.927 -0.1257  0.0200 -0.3136
  618TMC3    C5 9155   4.654   2.817  13.916  0.7392  0.3632  0.7253
  618TMC3    C6 9156   0.026   2.721  13.942 -0.0264  0.1251  0.0779
  618TMC3     C 9157   4.341   2.647  13.983  0.1272  0.5147 -0.1250
  618TMC3     O 9158   4.322   2.535  14.029 -0.1708 -0.7774 -0.4402
  618TMC3     H 9159   4.527   2.477  13.965 -0.7362 -0.1366  0.8919
  618TMC3    H1 9160   4.460   2.897  13.940 -0.4074 -0.1433 -0.4608
  618TMC3    H2 9161   0.132   2.742  13.932  0.0283 -0.2677 -0.1539
  618TMC3    C7 9162   4.702   2.941  13.862  0.0406 -0.4850  0.8803
  618TMC3    C8 9163   0.063   2.487  13.922 -0.3562  0.2868 -0.3634
  618TMC3    O1 9164   4.674   3.044  13.917  0.4004 -0.1877  0.1060
  618TMC3    O2 9165   0.176   2.499  13.962  0.3077  0.0484 -0.9851
  619MPD2     C 9166   0.195   3.832  13.728 -0.3031  0.0917 -0.3743
  619MPD2    C1 9167   0.143   3.873  13.610 -1.4915 -0.4590  0.7030
  619MPD2    C2 9168   0.011   3.854  13.585 -0.0326  0.5815  0.3208
  619MPD2    C3 9169   4.662   3.772  13.665  0.1577 -0.3416 -0.5833
  619MPD2    C4 9170   4.715   3.725  13.784 -0.2532 -0.2320 -0.2777
  619MPD2    C5 9171   0.120   3.756  13.816  0.0526 -0.4679 -0.7068
  619MPD2     H 9172   4.696   3.887  13.490 -0.2981  2.2903  1.0228
  619MPD2    H1 9173   4.650   3.670  13.851  1.0183 -2.8333 -1.1894
  619MPD2    H2 9174   0.295   3.856  13.762 -0.3294  1.4153 -1.2078
  619MPD2    H3 9175   0.158   3.722  13.912 -1.8727  3.4435  1.4357
  619MPD2     N 9176   4.524   3.749  13.640  0.2246 -0.4162 -0.8182
  619MPD2    H5 9177   4.476   3.687  13.704 -0.2173  1.5974  0.7935
  619MPD2    N1 9178   0.221   3.928  13.509  0.2528  0.1866 -0.3248
  619MPD2    H7 9179   0.161   3.944  13.428 -1.0776  1.5175  0.9022
  620TMC3    C1 9180   0.378   4.053  13.400 -0.1704 -0.3096  0.3138
  620TMC3    C2 9181   0.307   4.034  13.291  0.0521  0.1868 -0.0204
  620TMC3    C3 9182   0.308   4.135  13.194 -0.0769  0.0208 -0.2307
  620TMC3    C4 9183   0.442   4.170  13.422 -0.5014 -0.5530  0.2569
  620TMC3    C5 9184   0.446   4.274  13.331 -0.5660  0.3253 -0.4269
  620TMC3    C6 9185   0.383   4.256  13.210 -0.3442  0.1770 -0.5214
  620TMC3     C 9186   0.344   3.980  13.519 -0.1775 -0.1015 -0.6521
  620TMC3     O 9187   0.424   3.973  13.614  0.9418  0.3676  0.3687
  620TMC3     H 9188   0.255   3.940  13.275  0.8474 -0.4600  1.1431
  620TMC3    H1 9189   0.470   4.196  13.523 -1.8232 -1.1130  0.7755
  620TMC3    H2 9190   0.387   4.338  13.140 -1.0601  1.9414  1.4894
  620TMC3    C7 9191   0.417   4.407  13.391  0.1208 -0.2361 -0.3984
  620TMC3    C8 9192   0.178   4.168  13.144  0.1998  0.2220 -0.7046
  620TMC3    O1 9193   0.497   4.470  13.462 -0.1855 -0.2229 -0.6774
  620TMC3    O2 9194   0.148   4.286  13.138  0.7309 -0.0144 -0.3246
  621MPD2     C 9195   1.131   3.685   9.589 -0.0748 -0.2612 -0.0453
  621MPD2    C1 9196   1.183   3.706   9.711  0.3224 -0.4504  0.2290
  621MPD2    C2 9197   1.277   3.808   9.729 -0.7102 -0.0385  0.1436
  621MPD2    C3 9198   1.320   3.885   9.624  0.0928  0.1071  0.3151
  621MPD2    C4 9199   1.272   3.855   9.504 -0.0185 -0.1149  0.4215
  621MPD2    C5 9200   1.171   3.761   9.489  0.5151 -0.6651  0.9820
  621MPD2     H 9201   1.317   3.831   9.827  0.8900  1.3209 -0.8280
  621MPD2    H1 9202   1.314   3.899   9.414  0.9526 -0.7710  0.5655
  621MPD2    H2 9203   1.054   3.610   9.578  0.5489 -0.7021 -1.4293
  621MPD2    H3 9204   1.143   3.737   9.387  1.3837  0.3149  0.5125
  621MPD2     N 9205   1.418   3.989   9.641  0.5846 -0.3618 -0.4111
  621MPD2    H5 9206   1.442   4.008   9.738 -1.1327 -0.6487  0.0785
  621MPD2    N1 9207   1.136   3.640   9.829 -0.5816 -0.4576  0.3938
  621MPD2    H7 9208   1.180   3.658   9.918 -2.6563 -1.9190  1.7104
  622TMC3    C1 9209   1.027   3.472   9.967  0.2105 -0.5576  0.5747
  622TMC3    C2 9210   1.028   3.546  10.076  0.8179  0.4197 -0.3870
  622TMC3    C3 9211   1.001   3.479  10.190  0.7331 -0.2566 -0.2725
  622TMC3    C4 9212   1.021   3.338   9.963 -0.3658  0.3858  0.4901
  622TMC3    C5 9213   0.981   3.276  10.081  0.1300  0.8981 -0.2308
  622TMC3    C6 9214   0.975   3.342  10.195 -0.4952  0.3361 -0.0365
  622TMC3     C 9215   1.051   3.531   9.836  0.4330  0.6168  0.5697
  622TMC3     O 9216   0.981   3.481   9.749 -0.6499  0.3980  0.2692
  622TMC3     H 9217   1.037   3.654  10.073 -2.9062  0.7725  0.7750
  622TMC3    H1 9218   1.032   3.285   9.869 -1.5641 -0.1719  0.6596
  622TMC3    H2 9219   0.956   3.297  10.292 -0.5249 -1.0373 -0.6924
  622TMC3    C7 9220   0.938   3.141  10.086  0.0365 -1.0199  0.3571
  622TMC3    C8 9221   0.962   3.550  10.310 -0.1457  0.2718  0.1737
  622TMC3    O1 9222   0.913   3.090  10.197  0.0865 -0.2810  0.5973
  622TMC3    O2 9223   0.981   3.494  10.418 -0.0317 -0.9810  0.3415
  623MPD2     C 9224   4.543   4.121  15.510 -0.3545  0.2280 -0.2519
  623MPD2    C1 9225   4.537   4.256  15.515  0.1158  0.0490 -0.5647
  623MPD2    C2 9226   4.589   4.329  15.623 -0.3709 -0.1994 -0.0584
  623MPD2    C3 9227   4.620   4.259  15.737  0.7165 -0.2752  0.4819
  623MPD2    C4 9228   4.628   4.123  15.737 -0.0744 -0.0773 -0.2649
  623MPD2    C5 9229   4.584   4.052  15.628 -0.2206  0.4206 -0.0317
  623MPD2     H 9230   4.603   4.436  15.625 -0.5149 -0.1601 -0.9171
  623MPD2    H1 9231   4.653   4.062  15.824 -0.0579  1.9118  1.1097
  623MPD2    H2 9232   4.506   4.064  15.426 -1.4093 -0.7808  0.8781
  623MPD2    H3 9233   4.561   3.946  15.627 -0.3465  0.4780 -2.7613
  623MPD2     N 9234   4.684   4.336  15.837 -0.6112 -0.5775  0.3702
  623MPD2    H5 9235   4.679   4.437  15.826 -1.7304 -0.7070 -0.2898
  623MPD2    N1 9236   4.486   4.339  15.412  0.2264  0.0220 -0.0107
  623MPD2    H7 9237   4.483   4.439  15.426 -0.8402 -0.1104  0.7770
  624TMC3    C1 9238   0.280   4.390  16.187  0.6424  0.2580  0.0427
  624TMC3    C2 9239   0.294   4.525  16.158 -0.2172 -0.7395  0.0103
  624TMC3    C3 9240   0.232   4.572  16.046  0.2588  0.7919 -0.0881
  624TMC3    C4 9241   0.188   4.313  16.121  0.0173  0.2071  0.2238
  624TMC3    C5 9242   0.122   4.369  16.012 -0.6607  0.0132 -0.5589
  624TMC3    C6 9243   0.149   4.495  15.971 -0.1033 -0.1721 -0.2560
  624TMC3     C 9244   0.367   4.334  16.284 -0.5994 -0.0965  0.0469
  624TMC3     O 9245   0.439   4.400  16.356 -0.6435  0.6899 -0.3199
  624TMC3     H 9246   0.360   4.581  16.224  0.9417  0.7458 -2.3875
  624TMC3    H1 9247   0.160   4.214  16.155  0.4439 -0.0661 -0.2108
  624TMC3    H2 9248   0.119   4.533  15.874  2.6628  1.1102 -0.5964
  624TMC3    C7 9249   0.028   4.283  15.943 -0.7354 -0.0510 -0.6545
  624TMC3    C8 9250   0.189   4.712  16.031 -0.6538 -0.0452  0.2305
  624TMC3    O1 9251   0.017   4.168  15.987 -0.5632 -0.1694 -0.1797
  624TMC3    O2 9252   0.161   0.020  15.918  0.7528  0.1227  0.2687
  625MPD2     C 9253   0.111   0.710   0.143  0.9182  0.0399  0.1853
  625MPD2    C1 9254   0.196   0.804   0.204 -0.3897  0.6038 -0.9759
  625MPD2    C2 9255   0.311   0.760   0.273  0.6960 -0.6375 -0.1310
  625MPD2    C3 9256   0.343   0.630   0.282 -0.6741  0.4369 -0.1636
  625MPD2    C4 9257   0.260   0.538   0.217  0.2296  0.1370  0.9366
  625MPD2    C5 9258   0.146   0.578   0.154  0.2472 -0.0675  0.0516
  625MPD2     H 9259   0.386   0.826   0.315  0.3526 -0.1068 -0.3610
  625MPD2    H1 9260   0.289   0.434   0.224  1.6088  0.5822  1.8197
  625MPD2    H2 9261   0.024   0.738   0.085  0.6382  1.7944  1.4599
  625MPD2    H3 9262   0.084   0.508   0.099 -1.1582  0.3212  1.1499
  625MPD2     N 9263   0.461   0.589   0.344  0.9117  0.4153 -0.4209
  625MPD2    H5 9264   0.525   0.661   0.376  1.0588  0.0262  0.1645
  625MPD2    N1 9265   0.159   0.944   0.205  0.5134 -0.8057 -0.2486
  625MPD2    H7 9266   0.224   1.000   0.259 -1.2327  2.2663 -1.3773
  626TMC3    C1 9267   0.070   1.146   0.140 -0.1753 -0.1563 -0.5317
  626TMC3    C2 9268   0.013   1.227   0.045  0.3283  0.2575 -0.0278
  626TMC3    C3 9269   4.700   1.359   0.073 -0.0957  0.7692 -0.2029
  626TMC3    C4 9270   0.083   1.198   0.263 -0.6916 -0.1591 -0.1278
  626TMC3    C5 9271   0.042   1.331   0.291 -0.1451 -0.0540  0.3365
  626TMC3    C6 9272   4.710   1.409   0.198  0.1855  0.0118 -0.4005
  626TMC3     C 9273   0.066   1.004   0.124 -0.1401  0.0099  0.4021
  626TMC3     O 9274   4.712   0.968   0.041  0.6420 -0.2488  0.3604
  626TMC3     H 9275   0.013   1.193  17.642  0.2717  1.0401 -0.2826
  626TMC3    H1 9276   0.095   1.128   0.345 -0.9974  0.3902  0.3858
  626TMC3    H2 9277   4.695   1.512   0.230 -0.9509 -0.5839  1.0192
  626TMC3    C7 9278   0.057   1.377   0.432  0.4444 -1.0740 -0.1408
  626TMC3    C8 9279   4.645   1.436  17.660 -0.2679  0.8646 -0.0775
  626TMC3    O1 9280   0.129   1.308   0.503  0.4986 -0.1794 -0.0862
  626TMC3    O2 9281   4.683   1.398  17.550  0.1306 -0.5330 -0.4255
  627MPD2     C 9282   3.393   1.348  14.194 -0.2288  0.1368 -0.0538
  627MPD2    C1 9283   3.420   1.267  14.301  0.2558  0.8280  0.3867
  627MPD2    C2 9284   3.379   1.135  14.310 -0.0049  0.0547 -0.1249
  627MPD2    C3 9285   3.309   1.085  14.200  0.4528 -0.4203 -0.4312
  627MPD2    C4 9286   3.285   1.167  14.094 -0.1363 -0.7129  0.2324
  627MPD2    C5 9287   3.326   1.298  14.087  0.2633  0.1213  0.5733
  627MPD2     H 9288   3.407   1.081  14.400 -0.1624  1.0459  0.5186
  627MPD2    H1 9289   3.241   1.129  14.003  0.5585  1.7049 -1.0939
  627MPD2    H2 9290   3.421   1.452  14.182 -1.5227  0.5492  0.4453
  627MPD2    H3 9291   3.310   1.354  13.995  0.9272 -0.1110  0.3112
  627MPD2     N 9292   3.260   0.957  14.212  0.3013  0.5542 -1.0674
  627MPD2    H5 9293   3.273   0.913  14.303  0.3646  0.4181 -1.1423
  627MPD2    N1 9294   3.497   1.318  14.411  0.3219 -0.2296  0.5488
  627MPD2    H7 9295   3.541   1.253  14.476  2.3399 -0.7049 -1.3101
  628TMC3    C1 9296   3.620   1.478  14.549  0.1498 -0.6029  0.9453
  628TMC3    C2 9297   3.689   1.370  14.591  0.0561  0.3729  0.0078
  628TMC3    C3 9298   3.777   1.390  14.696  0.1190  0.1975  1.1481
  628TMC3    C4 9299   3.629   1.601  14.595 -0.6065  0.9293  0.5526
  628TMC3    C5 9300   3.707   1.613  14.714  0.0021 -0.0945 -0.4403
  628TMC3    C6 9301   3.793   1.515  14.753  0.3744  0.1319  0.3037
  628TMC3     C 9302   3.529   1.455  14.434 -0.7764  0.7047 -0.4757
  628TMC3     O 9303   3.489   1.554  14.378  0.0630 -0.0559  0.4752
  628TMC3     H 9304   3.684   1.275  14.538 -3.0694  1.2819 -1.2923
  628TMC3    H1 9305   3.563   1.678  14.556 -0.5216 -0.2456 -1.8833
  628TMC3    H2 9306   3.815   1.511  14.859 -1.3177  0.9732  0.6921
  628TMC3    C7 9307   3.740   1.740  14.775 -0.3975  0.8787 -0.0853
  628TMC3    C8 9308   3.859   1.273  14.736  0.5451  0.3578  1.0654
  628TMC3    O1 9309   3.792   1.747  14.885 -0.8876  0.1720  0.6120
  628TMC3    O2 9310   3.809   1.165  14.701  0.1367 -0.3171 -0.0577
  629MPD2     C 9311   1.402   4.090  15.833  0.0975 -0.7320 -0.3861
  629MPD2    C1 9312   1.467   4.201  15.786  0.2668 -0.6873  0.3354
  629MPD2    C2 9313   1.396   4.281  15.697  0.8328 -0.2213  0.4428
  629MPD2    C3 9314   1.270   4.249  15.653 -0.3242 -1.0731 -0.2469
  629MPD2    C4 9315   1.204   4.136  15.703  0.3012  0.1603 -0.0832
  629MPD2    C5 9316   1.276   4.058  15.791 -0.9450  0.7705  0.4085
  629MPD2     H 9317   1.434   4.372  15.653 -0.7288  0.7531  1.1256
  629MPD2    H1 9318   1.101   4.114  15.677 -0.0418  0.7244  0.7964
  629MPD2    H2 9319   1.453   4.015  15.893  0.6231 -0.0855 -0.0180
  629MPD2    H3 9320   1.244   3.957  15.816 -2.4629  1.4239  1.0475
  629MPD2     N 9321   1.202   4.339  15.568 -0.2327 -0.2001  0.3408
  629MPD2    H5 9322   1.252   4.425  15.552  0.5583 -0.6564  0.3336
  629MPD2    N1 9323   1.592   4.236  15.844  1.0116 -0.9670  0.6043
  629MPD2    H7 9324   1.619   4.196  15.933  0.5155  0.6615  1.4730
  630TMC3    C1 9325   1.785   4.348  15.886  0.6425  0.1162  0.3186
  630TMC3    C2 9326   1.907   4.387  15.832 -0.0431 -0.4317  0.3710
  630TMC3    C3 9327   1.997   4.436  15.930  0.5416  0.0744  0.5344
  630TMC3    C4 9328   1.764   4.336  16.024  0.5559  0.1575  0.4228
  630TMC3    C5 9329   1.861   4.387  16.109 -0.0683 -0.6051  0.0758
  630TMC3    C6 9330   1.984   4.434  16.072  0.0800 -0.0381 -0.7940
  630TMC3     C 9331   1.675   4.331  15.795 -0.7760  0.1807  0.5675
  630TMC3     O 9332   1.677   4.382  15.682  0.4622 -0.5143  0.0391
  630TMC3     H 9333   1.928   4.396  15.726  0.5430 -0.0463  0.5203
  630TMC3    H1 9334   1.666   4.313  16.064 -0.0664  3.0498  0.5939
  630TMC3    H2 9335   2.054   4.480  16.141 -0.7131 -2.4144  1.5638
  630TMC3    C7 9336   1.851   4.380  16.257  0.6238  0.0174 -0.2534
  630TMC3    C8 9337   2.106   4.516  15.882  0.5150  0.0460 -0.0403
  630TMC3    O1 9338   1.908   4.467  16.320  0.4432 -0.3463 -0.0782
  630TMC3    O2 9339   2.143   4.612  15.950 -0.5863  0.3327  0.7891
  631MPD2     C 9340   0.052   0.043  15.538 -0.1859  0.0696 -0.3176
  631MPD2    C1 9341   0.009   0.043  15.409  0.0839  0.3300  0.1241
  631MPD2    C2 9342   0.012   4.656  15.331 -0.3122  0.0593  0.6518
  631MPD2    C3 9343   0.052   4.536  15.392  0.2134  0.1211  1.1993
  631MPD2    C4 9344   0.080   4.531  15.528  0.3669  0.3586  0.4618
  631MPD2    C5 9345   0.085   4.649  15.601  0.1053 -0.7936 -0.3090
  631MPD2     H 9346   4.710   4.653  15.226  0.2628 -2.2088  0.5517
  631MPD2    H1 9347   0.106   4.443  15.584  0.0203 -0.5251 -0.7623
  631MPD2    H2 9348   0.022   0.128  15.599 -0.2030 -1.8707  2.3858
  631MPD2    H3 9349   0.125   4.660  15.701  3.4781  1.6625 -1.9343
  631MPD2     N 9350   0.048   4.426  15.298 -0.3552  0.4189 -0.1727
  631MPD2    H5 9351   0.014   4.441  15.203  0.1781 -0.3151 -0.4778
  631MPD2    N1 9352   4.662   0.160  15.361  0.6966 -0.3991 -0.3239
  631MPD2    H7 9353   4.666   0.244  15.417 -1.0317 -1.0732  0.8299
  632TMC3    C1 9354   4.547   0.302  15.232  0.4573 -0.3711 -0.3991
  632TMC3    C2 9355   4.531   0.388  15.336 -0.5488 -0.7869 -0.3823
  632TMC3    C3 9356   4.456   0.501  15.316 -0.3705 -0.6608  0.4112
  632TMC3    C4 9357   4.509   0.336  15.109  0.1606 -0.8919  0.1337
  632TMC3    C5 9358   4.442   0.454  15.082 -0.6575  0.0240 -0.7573
  632TMC3    C6 9359   4.415   0.538  15.190  0.4056 -0.0797 -0.9396
  632TMC3     C 9360   4.595   0.174  15.242 -0.5269  0.1102 -1.1263
  632TMC3     O 9361   4.565   0.094  15.155  0.0631 -0.4223 -0.8863
  632TMC3     H 9362   4.551   0.364  15.440 -0.9952  0.6160  0.0374
  632TMC3    H1 9363   4.528   0.289  15.014  1.0560  0.7506 -0.5038
  632TMC3    H2 9364   4.380   0.639  15.172 -0.5247 -0.0457  1.2072
  632TMC3    C7 9365   4.456   0.517  14.951  0.0059  0.3121  0.3727
  632TMC3    C8 9366   4.468   0.611  15.415 -0.3962 -0.3795 -0.0521
  632TMC3    O1 9367   4.362   0.562  14.883 -0.1434  0.2648  0.2685
  632TMC3    O2 9368   4.556   0.601  15.499 -0.7858  0.1952  0.1605
  633MPD2     C 9369   4.668   2.752  16.959  0.7787  0.5912  0.8361
  633MPD2    C1 9370   0.007   2.714  16.843  1.2328  0.7529 -0.2007
  633MPD2    C2 9371   0.070   2.590  16.840 -0.0693 -0.0830  0.5603
  633MPD2    C3 9372   0.081   2.515  16.958  0.1521  0.0575 -0.3569
  633MPD2    C4 9373   0.017   2.553  17.075 -0.1732 -0.3089 -0.2135
  633MPD2    C5 9374   4.674   2.670  17.071  0.4148 -0.5336 -0.3086
  633MPD2     H 9375   0.118   2.553  16.750 -2.3763  0.4560 -0.8816
  633MPD2    H1 9376   0.029   2.502  17.170  0.6574 -0.4365 -0.3933
  633MPD2    H2 9377   4.622   2.849  16.973  0.8204  0.7454 -0.0540
  633MPD2    H3 9378   4.611   2.694  17.156  2.1895  0.9395  0.5781
  633MPD2     N 9379   0.159   2.395  16.946  0.0517 -0.0296 -0.2661
  633MPD2    H5 9380   0.203   2.375  16.857 -1.8857  1.1201 -1.4997
  633MPD2    N1 9381   0.008   2.784  16.723 -0.5453 -0.0062  0.0291
  633MPD2    H7 9382   0.023   2.728  16.640 -0.4012 -1.3864  0.9762
  634TMC3    C1 9383   0.023   2.964  16.582  0.5355 -0.5002  0.4221
  634TMC3    C2 9384   0.101   2.891  16.494  0.5334 -0.5533  0.2925
  634TMC3    C3 9385   0.109   2.938  16.364 -0.8096  0.2722 -0.4732
  634TMC3    C4 9386   4.699   3.088  16.554 -1.5607 -0.6092 -0.4240
  634TMC3    C5 9387   4.714   3.127  16.421  0.2015  0.3596 -1.2136
  634TMC3    C6 9388   0.050   3.054  16.322  0.9857  0.3514 -0.5048
  634TMC3     C 9389   4.720   2.912  16.716 -0.2987  0.4666 -0.1282
  634TMC3     O 9390   4.704   2.992  16.810  0.4493  0.5972  0.2471
  634TMC3     H 9391   0.137   2.791  16.512  2.0848  0.1911  1.2679
  634TMC3    H1 9392   4.635   3.132  16.628  0.2368  2.4015 -0.6482
  634TMC3    H2 9393   0.059   3.092  16.221  0.1536 -0.4322 -0.8655
  634TMC3    C7 9394   4.661   3.257  16.383 -0.0256  0.9916  0.8413
  634TMC3    C8 9395   0.132   2.831  16.260  0.3448 -0.1887 -0.7050
  634TMC3    O1 9396   4.682   3.275  16.264 -0.2308  0.4873  0.1727
  634TMC3    O2 9397   0.119   2.716  16.294  0.0858 -0.1608 -0.3632
  635TMC3    C1 9398   1.455   3.796   0.215  0.3388 -0.4506 -0.0245
  635TMC3    C2 9399   1.417   3.672   0.169 -0.2949  0.1574 -0.2579
  635TMC3    C3 9400   1.502   3.571   0.205 -0.0837 -0.1694 -0.3680
  635TMC3    C4 9401   1.555   3.812   0.311  0.9215  0.1183 -0.3991
  635TMC3    C5 9402   1.618   3.698   0.350 -0.0475  0.8295  0.4651
  635TMC3    C6 9403   1.594   3.572   0.302  0.2136 -0.7001  0.2036
  635TMC3     C 9404   1.398   3.912   0.150 -0.1962 -0.9183 -0.5176
  635TMC3     O 9405   1.284   3.891   0.104 -0.3219 -0.0799 -0.6112
  635TMC3     H 9406   1.334   3.652   0.103  0.9740 -1.8234 -1.2535
  635TMC3    H1 9407   1.576   3.908   0.356 -1.2307  0.3716  0.0196
  635TMC3    H2 9408   1.668   3.497   0.330 -1.0689 -1.4245  1.6870
  635TMC3    C7 9409   1.730   3.711   0.439  0.5904  0.1851 -0.0659
  635TMC3    C8 9410   1.496   3.443   0.138 -0.1783  0.3670  0.2261
  635TMC3    O1 9411   1.743   3.621   0.524  0.5260  0.2693  0.1159
  635TMC3    O2 9412   1.555   3.348   0.187  0.0718  0.0144 -0.0028
  636MPD2     C 9413   0.642   3.577  16.191  0.5210 -0.1403  0.1211
  636MPD2    C1 9414   0.772   3.624  16.192  1.0384 -0.3090 -0.4203
  636MPD2    C2 9415   0.870   3.535  16.230 -0.7513 -0.0582  0.4150
  636MPD2    C3 9416   0.840   3.398  16.252 -1.3579 -0.0465 -0.5768
  636MPD2    C4 9417   0.713   3.355  16.250  0.2237 -0.5937 -0.1771
  636MPD2    C5 9418   0.612   3.449  16.225 -0.3992 -0.5557 -0.2849
  636MPD2     H 9419   0.970   3.572  16.250 -0.7751  0.3075 -0.1176
  636MPD2    H1 9420   0.668   3.260  16.276  0.3826 -0.1546  1.7026
  636MPD2    H2 9421   0.564   3.651  16.175  0.4008 -0.4258 -0.5937
  636MPD2    H3 9422   0.510   3.411  16.224  0.2401 -2.3336  1.1674
  636MPD2     N 9423   0.942   3.310  16.290  0.0115 -0.0736 -0.7478
  636MPD2    H5 9424   1.040   3.334  16.277 -0.1095  0.4827 -0.6349
  636MPD2    N1 9425   0.806   3.759  16.165 -0.0408 -0.4611 -0.3774
  636MPD2    H7 9426   0.905   3.778  16.175 -0.2755 -0.4079  1.7646
  637TMC3    C1 9427   1.047   3.105  16.359  0.6294 -0.4779  0.3604
  637TMC3    C2 9428   1.154   3.171  16.418  0.2655 -0.0658 -0.4685
  637TMC3    C3 9429   1.251   3.090  16.461  0.4044 -0.0779 -0.1402
  637TMC3    C4 9430   1.029   2.968  16.362  0.5271  0.0141  0.3294
  637TMC3    C5 9431   1.144   2.898  16.386 -0.2026 -1.3933  0.8107
  637TMC3    C6 9432   1.255   2.957  16.434  0.3369  0.7202  0.2242
  637TMC3     C 9433   0.920   3.182  16.342  0.2781 -1.1829 -0.5265
  637TMC3     O 9434   0.814   3.121  16.370  0.2924 -0.1485 -0.2668
  637TMC3     H 9435   1.170   3.279  16.419 -1.0694  0.1381 -1.0711
  637TMC3    H1 9436   0.947   2.930  16.303  0.7992  1.5723 -1.0571
  637TMC3    H2 9437   1.335   2.898  16.478 -0.4522 -1.1923 -0.8925
  637TMC3    C7 9438   1.179   2.822  16.265  0.2508 -0.1662  0.0421
  637TMC3    C8 9439   1.381   3.140  16.423 -0.3994  0.1578  0.3897
  637TMC3    O1 9440   1.301   2.816  16.240  0.2787 -0.3997 -0.0728
  637TMC3    O2 9441   1.425   3.248  16.467 -0.1903  0.1197  0.3816
  638MPD2     C 9442   1.277   1.677  14.692  0.3592 -0.9244 -0.9490
  638MPD2    C1 9443   1.158   1.627  14.651  0.6843 -0.0461  0.0401
  638MPD2    C2 9444   1.089   1.555  14.748  0.2044  0.1027 -0.3309
  638MPD2    C3 9445   1.131   1.554  14.886  0.6693  0.7400  0.5816
  638MPD2    C4 9446   1.239   1.627  14.921 -0.1847  0.0998 -0.8280
  638MPD2    C5 9447   1.314   1.683  14.824  0.0439 -0.3169  0.6583
  638MPD2     H 9448   1.009   1.487  14.721  0.7089 -0.2219 -0.9795
  638MPD2    H1 9449   1.262   1.646  15.025 -0.5481 -0.2808 -0.6790
  638MPD2    H2 9450   1.337   1.731  14.620  0.9949  1.4227  1.3557
  638MPD2    H3 9451   1.406   1.737  14.841 -0.3726  0.9609 -1.1324
  638MPD2     N 9452   1.065   1.470  14.976  0.5616  0.7034 -0.2167
  638MPD2    H5 9453   1.010   1.395  14.935  2.2244 -0.6364  0.0253
  638MPD2    N1 9454   1.126   1.630  14.512  0.4332  0.3620 -0.0356
  638MPD2    H7 9455   1.183   1.694  14.459  1.6400 -0.3537  0.3962
  639TMC3    C1 9456   0.981   1.374  15.174  0.8936  0.9868  1.5103
  639TMC3    C2 9457   0.888   1.313  15.099 -0.1357  0.4223  0.1246
  639TMC3    C3 9458   0.896   1.179  15.102 -0.1263 -0.5094  0.2562
  639TMC3    C4 9459   1.045   1.309  15.274 -0.1777 -0.1634 -0.1441
  639TMC3    C5 9460   1.044   1.176  15.282  0.1802  0.4532  0.6246
  639TMC3    C6 9461   0.972   1.111  15.183 -0.1676 -0.8016 -0.5513
  639TMC3     C 9462   1.065   1.476  15.112  0.0750 -0.3741 -0.5572
  639TMC3     O 9463   1.129   1.550  15.184 -0.1928 -0.6319  0.3314
  639TMC3     H 9464   0.834   1.366  15.021  0.3208  0.7744  0.0502
  639TMC3    H1 9465   1.129   1.363  15.316  0.9916 -1.4426 -0.8637
  639TMC3    H2 9466   0.982   1.004  15.167 -0.8405 -1.3369  2.6727
  639TMC3    C7 9467   1.166   1.120  15.339 -0.6147 -0.7624  0.8550
  639TMC3    C8 9468   0.808   1.102  15.021 -0.1616 -0.1428  0.3186
  639TMC3    O1 9469   1.213   1.155  15.448 -0.0548  0.2882 -0.3211
  639TMC3    O2 9470   0.861   1.022  14.947 -0.5225 -0.0557  0.1703
  640MPD2     C 9471   1.593   0.355   9.213  0.4784  0.1834 -0.3733
  640MPD2    C1 9472   1.673   0.463   9.252 -0.0703 -0.8427 -0.1812
  640MPD2    C2 9473   1.601   0.568   9.306  0.0253  0.5672  0.1908
  640MPD2    C3 9474   1.463   0.565   9.332  0.4342  0.4872 -0.4329
  640MPD2    C4 9475   1.394   0.454   9.283  0.3309 -0.1455 -0.1927
  640MPD2    C5 9476   1.456   0.344   9.233 -0.0296  0.0367  0.0557
  640MPD2     H 9477   1.658   0.653   9.345 -0.3059  2.3165 -3.1292
  640MPD2    H1 9478   1.287   0.449   9.303  0.1679 -0.4760 -1.1231
  640MPD2    H2 9479   1.639   0.267   9.169  0.4174 -0.0337 -0.0018
  640MPD2    H3 9480   1.404   0.254   9.202  0.8264 -0.9695  1.5235
  640MPD2     N 9481   1.387   0.672   9.387 -0.0879  0.0386  0.0184
  640MPD2    H5 9482   1.286   0.667   9.393 -0.1200  0.0235 -0.6014
  640MPD2    N1 9483   1.808   0.462   9.221 -0.4496 -0.1239  0.0712
  640MPD2    H7 9484   1.854   0.379   9.184  0.7091  0.4412  0.2564
  641TMC3    C1 9485   2.025   0.536   9.204  0.3439  0.0748  0.3638
  641TMC3    C2 9486   2.080   0.415   9.228 -1.3115 -0.8857  0.1949
  641TMC3    C3 9487   2.209   0.411   9.196  0.2042  0.3330  0.3570
  641TMC3    C4 9488   2.079   0.642   9.132 -0.3565 -0.4488 -0.2939
  641TMC3    C5 9489   2.203   0.625   9.088  0.6042 -0.9506 -0.4015
  641TMC3    C6 9490   2.267   0.509   9.121  0.0122 -0.1988  0.1619
  641TMC3     C 9491   1.890   0.573   9.230 -0.0184 -0.0154 -0.0334
  641TMC3     O 9492   1.861   0.692   9.248 -0.5391 -0.6812  0.1791
  641TMC3     H 9493   2.041   0.331   9.284  1.4404 -2.6109 -0.4875
  641TMC3    H1 9494   2.028   0.737   9.118  0.4548 -0.1008 -0.8563
  641TMC3    H2 9495   2.368   0.497   9.084  0.0870 -0.2087  0.3690
  641TMC3    C7 9496   2.289   0.735   9.059  0.1672  0.1910 -0.1095
  641TMC3    C8 9497   2.270   0.279   9.174 -0.3390  0.4181 -0.6374
  641TMC3    O1 9498   2.410   0.713   9.056 -0.0399 -0.1649  0.3419
  641TMC3    O2 9499   2.193   0.189   9.134 -0.3410  0.2932 -0.0007
  642TMC3    C1 9500   2.717   1.826  12.141 -0.6659  0.4507 -0.1771
  642TMC3    C2 9501   2.813   1.849  12.237 -0.2101 -0.2787  0.2369
  642TMC3    C3 9502   2.834   1.746  12.318  0.0490 -0.0667  0.1624
  642TMC3    C4 9503   2.649   1.709  12.122  0.7491 -0.0821 -0.3116
  642TMC3    C5 9504   2.680   1.606  12.209 -0.3513  0.4266 -0.9587
  642TMC3    C6 9505   2.769   1.625  12.312 -0.2492 -0.0484  0.1562
  642TMC3     C 9506   2.659   1.950  12.099  0.2508 -0.7202  0.2247
  642TMC3     O 9507   2.722   2.018  12.020  0.1630 -0.2218  0.0011
  642TMC3     H 9508   2.864   1.944  12.223 -0.5900 -0.0474  0.4501
  642TMC3    H1 9509   2.566   1.695  12.055  0.8903 -0.6203 -0.3794
  642TMC3    H2 9510   2.794   1.558  12.393  3.4306 -0.4448 -1.3126
  642TMC3    C7 9511   2.622   1.475  12.188  0.3727  0.1724  0.2676
  642TMC3    C8 9512   2.946   1.759  12.416 -0.0007 -0.6838  0.0984
  642TMC3    O1 9513   2.571   1.458  12.081 -0.5463 -0.1527 -0.2367
  642TMC3    O2 9514   2.997   1.655  12.458  0.3425 -0.3546 -0.0060
  643TMC3    C1 9515   1.859   1.220  17.625 -0.3115  0.3023  0.3150
  643TMC3    C2 9516   1.765   1.288  17.551 -0.3713  1.1953  0.0371
  643TMC3    C3 9517   1.726   1.234  17.434 -0.1938  0.0483  0.3192
  643TMC3    C4 9518   1.913   1.106  17.577 -0.0488 -0.8512 -0.3249
  643TMC3    C5 9519   1.867   1.052  17.457  0.0734 -0.6967  0.8244
  643TMC3    C6 9520   1.768   1.118  17.382 -0.6331  0.5367 -0.3152
  643TMC3     C 9521   1.906   1.286   0.041 -0.4264  0.6591  0.1927
  643TMC3     O 9522   1.881   1.402   0.052  0.0449 -0.4083  0.5758
  643TMC3     H 9523   1.713   1.371  17.597  0.0042  2.4163 -1.7148
  643TMC3    H1 9524   2.003   1.053  17.607  0.5773  0.3321 -0.0974
  643TMC3    H2 9525   1.741   1.089  17.281  0.7638 -0.1692 -0.4845
  643TMC3    C7 9526   1.983   1.034  17.370 -0.1211  0.0696 -0.1587
  643TMC3    C8 9527   1.648   1.318  17.350 -0.5030  0.5656 -0.1753
  643TMC3    O1 9528   2.072   1.119  17.384  0.3513 -0.2246 -0.0404
  643TMC3    O2 9529   1.543   1.273  17.296 -0.4198  0.6118 -0.7169
  644MPD2     C 9530   2.214   1.441   9.271  0.3495  0.3947 -0.6209
  644MPD2    C1 9531   2.167   1.313   9.261 -0.3021 -0.8559  0.1005
  644MPD2    C2 9532   2.048   1.299   9.194 -0.1951 -0.1418  0.8213
  644MPD2    C3 9533   1.983   1.414   9.144 -0.2566 -0.8125 -0.6277
  644MPD2    C4 9534   2.041   1.541   9.157  0.5837  0.1371  0.5568
  644MPD2    C5 9535   2.158   1.556   9.224  1.1581 -0.1557 -0.4097
  644MPD2     H 9536   2.010   1.198   9.184  0.2658 -0.3757  1.4649
  644MPD2    H1 9537   1.991   1.631   9.124  1.4288 -0.2865 -1.8536
  644MPD2    H2 9538   2.307   1.451   9.327 -0.5689  1.1563  0.7491
  644MPD2    H3 9539   2.204   1.654   9.227 -1.1272  0.8483  1.2988
  644MPD2     N 9540   1.853   1.389   9.096  0.1237 -0.1794 -0.3784
  644MPD2    H5 9541   1.815   1.296   9.096 -1.1212  0.3310 -0.7418
  644MPD2    N1 9542   2.249   1.206   9.311  0.0795  0.8204 -0.0199
  644MPD2    H7 9543   2.342   1.230   9.343 -0.8854  0.9882  2.6283
  645TMC3    C1 9544   1.625   1.451   9.029 -0.3011  0.0604  0.5902
  645TMC3    C2 9545   1.521   1.533   9.055  0.1525  0.6170 -0.9985
  645TMC3    C3 9546   1.400   1.501   9.003  1.0210  0.2103 -0.1410
  645TMC3    C4 9547   1.614   1.346   8.944  0.0640 -0.8773  0.6075
  645TMC3    C5 9548   1.487   1.310   8.901 -0.2410  0.6425 -0.1226
  645TMC3    C6 9549   1.380   1.394   8.925 -0.5816  0.8629  0.7124
  645TMC3     C 9550   1.758   1.490   9.071  1.0836  0.3021 -0.6432
  645TMC3     O 9551   1.769   1.612   9.085  0.1692 -0.0753  0.6720
  645TMC3     H 9552   1.539   1.617   9.121  0.6876  0.4351 -0.9148
  645TMC3    H1 9553   1.700   1.289   8.911  0.2981 -1.4544  2.2270
  645TMC3    H2 9554   1.287   1.383   8.870  0.7653 -2.4745 -0.9141
  645TMC3    C7 9555   1.452   1.190   8.817 -0.0458 -0.2386  0.0408
  645TMC3    C8 9556   1.287   1.556   9.072  0.0535  0.5020  0.1272
  645TMC3    O1 9557   1.331   1.175   8.807 -0.1108  0.4943  0.6873
  645TMC3    O2 9558   1.303   1.667   9.116 -0.5213  0.3377  0.1272
  646MPD2     C 9559   0.951   0.226  14.306 -0.1168  0.1965  0.0194
  646MPD2    C1 9560   0.920   0.250  14.432  0.2670 -0.5461  0.2008
  646MPD2    C2 9561   0.795   0.307  14.456 -0.5867  0.3727 -0.3991
  646MPD2    C3 9562   0.722   0.362  14.356 -0.0807 -0.1289  0.0570
  646MPD2    C4 9563   0.768   0.349  14.228  0.1044  0.1450 -0.4467
  646MPD2    C5 9564   0.884   0.280  14.206  0.7063  1.4254  0.0763
  646MPD2     H 9565   0.754   0.315  14.556 -0.8557 -2.4258 -0.2773
  646MPD2    H1 9566   0.717   0.380  14.137 -2.2874  2.0568  1.5253
  646MPD2    H2 9567   1.048   0.183  14.286  0.6509  1.5780  0.7940
  646MPD2    H3 9568   0.922   0.269  14.105  0.9732  0.4156  0.2851
  646MPD2     N 9569   0.607   0.437  14.363 -0.3261  0.2172 -0.3488
  646MPD2    H5 9570   0.559   0.446  14.274  1.7408  0.3961 -1.4429
  646MPD2    N1 9571   1.005   0.201  14.535  0.0359 -0.1750  0.5538
  646MPD2    H7 9572   1.092   0.153  14.514 -0.2243  1.3679 -3.9746
  647TMC3    C1 9573   1.087   0.188  14.767 -0.0594 -0.0052  0.3843
  647TMC3    C2 9574   1.066   0.215  14.898 -0.3631 -0.3509 -0.0828
  647TMC3    C3 9575   1.164   0.182  14.985  1.1163  0.1755 -0.2761
  647TMC3    C4 9576   1.209   0.145  14.728 -0.3908 -0.8634 -0.1035
  647TMC3    C5 9577   1.315   0.130  14.811 -0.3753  0.1064 -0.4081
  647TMC3    C6 9578   1.290   0.158  14.945 -0.2190 -0.4426  0.2698
  647TMC3     C 9579   0.983   0.228  14.669 -0.5511 -0.2917 -0.1765
  647TMC3     O 9580   0.903   0.304  14.718  0.3554 -0.2066  0.3713
  647TMC3     H 9581   0.963   0.229  14.931 -0.2054  1.6125 -0.4383
  647TMC3    H1 9582   1.214   0.096  14.631  3.8420  1.2288 -0.9265
  647TMC3    H2 9583   1.371   0.141  15.015 -1.1407 -0.4023  1.3524
  647TMC3    C7 9584   1.392   0.014  14.793  0.2404 -0.7272  0.1495
  647TMC3    C8 9585   1.106   0.071  15.061 -0.8257  0.3407  0.3245
  647TMC3    O1 9586   1.500   0.019  14.845 -0.0395  0.1468 -0.0338
  647TMC3    O2 9587   0.985   0.045  15.055  0.3759 -0.7409  0.7002
  648TMC3    C1 9588   0.551   2.948  15.760 -0.2890 -0.4692  0.7832
  648TMC3    C2 9589   0.615   2.846  15.699 -0.4974  0.0457 -0.6331
  648TMC3    C3 9590   0.585   2.815  15.573 -0.0906  0.2487 -0.8741
  648TMC3    C4 9591   0.443   3.013  15.700  0.1932  0.5341 -0.8548
  648TMC3    C5 9592   0.414   2.974  15.570  0.1899 -0.1686 -0.7878
  648TMC3    C6 9593   0.483   2.879  15.508  0.0813  0.1371  0.3381
  648TMC3     C 9594   0.575   2.967  15.903  0.0259  0.3444  0.3050
  648TMC3     O 9595   0.559   3.083  15.946 -0.1442  0.0089 -0.1915
  648TMC3     H 9596   0.691   2.783  15.744 -0.3751 -0.4281 -1.4953
  648TMC3    H1 9597   0.382   3.084  15.754  0.7360 -0.7075  1.3802
  648TMC3    H2 9598   0.443   2.834  15.418  0.9077 -1.0343  0.5625
  648TMC3    C7 9599   0.290   3.008  15.503  0.4662  0.2379 -1.0330
  648TMC3    C8 9600   0.614   2.682  15.529  0.0162 -0.4041 -0.0429
  648TMC3    O1 9601   0.252   2.937  15.406 -0.6744  0.0344 -0.0272
  648TMC3    O2 9602   0.526   2.627  15.468  0.0248  0.6773  0.4208
  649TMC3    C1 9603   3.631   3.872  12.240  0.2734 -0.3080 -0.2568
  649TMC3    C2 9604   3.740   3.824  12.176  0.1607 -0.1345 -0.1469
  649TMC3    C3 9605   3.827   3.751  12.249  0.1763  0.2477 -0.2890
  649TMC3    C4 9606   3.616   3.864  12.374  0.7640 -0.1194  0.0927
  649TMC3    C5 9607   3.710   3.804  12.447 -0.6368  0.2739  0.4404
  649TMC3    C6 9608   3.813   3.740  12.385  0.0387  0.3693  0.1639
  649TMC3     C 9609   3.527   3.950  12.172 -0.8301 -0.9149  0.0971
  649TMC3     O 9610   3.447   4.016  12.241  0.0048 -0.1316 -0.4701
  649TMC3     H 9611   3.747   3.845  12.070 -0.9906 -1.0283 -0.3992
  649TMC3    H1 9612   3.530   3.907  12.424  1.0418  1.8888 -1.1694
  649TMC3    H2 9613   3.893   3.691  12.438  0.6532 -0.0230 -1.1323
  649TMC3    C7 9614   3.670   3.761  12.581 -0.4427  0.0076  1.0446
  649TMC3    C8 9615   3.948   3.691  12.198 -0.2437 -0.0391  0.4682
  649TMC3    O1 9616   3.560   3.804  12.617  0.2393 -0.7382 -0.2110
  649TMC3    O2 9617   4.043   3.662  12.270 -0.1531  0.6032  0.0739
  650TMC3    C1 9618   1.653   0.790  12.553  0.2307 -0.3943 -0.3488
  650TMC3    C2 9619   1.657   0.927  12.551  0.1058 -0.3228  0.3642
  650TMC3    C3 9620   1.597   0.993  12.446  0.4383  0.5831  0.0283
  650TMC3    C4 9621   1.593   0.722  12.453 -0.1764  0.2302  0.3900
  650TMC3    C5 9622   1.539   0.791  12.344 -0.6962 -1.4156  0.2572
  650TMC3    C6 9623   1.534   0.928  12.342  0.1612 -0.0544 -0.7066
  650TMC3     C 9624   1.742   0.725  12.649  0.7946 -0.1061 -0.4525
  650TMC3     O 9625   1.808   0.793  12.724  0.3237  0.5699 -0.6152
  650TMC3     H 9626   1.694   0.978  12.639 -0.3593  0.3773  0.1440
  650TMC3    H1 9627   1.600   0.614  12.454 -1.2200  0.1459 -0.6644
  650TMC3    H2 9628   1.499   0.996  12.265  0.7756 -2.5420 -3.1840
  650TMC3    C7 9629   1.448   0.715  12.260 -0.0638  0.0034 -0.3583
  650TMC3    C8 9630   1.611   1.132  12.415 -0.1287 -0.6228  0.3912
  650TMC3    O1 9631   1.431   0.600  12.296  0.3068 -0.1404 -0.4797
  650TMC3    O2 9632   1.674   1.163  12.315  0.2144 -0.3641  0.0807
  651MPD2     C 9633   0.954   2.539  10.701  0.2210 -0.1280  0.5844
  651MPD2    C1 9634   0.922   2.647  10.625  0.0777  0.1497 -0.6291
  651MPD2    C2 9635   1.015   2.703  10.547  0.3849  0.0502 -0.2062
  651MPD2    C3 9636   1.145   2.657  10.546  0.3570 -0.5859 -0.0867
  651MPD2    C4 9637   1.172   2.531  10.601 -0.0644  0.4044 -0.1546
  651MPD2    C5 9638   1.076   2.469  10.677 -0.8064 -0.1960  0.1112
  651MPD2     H 9639   0.984   2.787  10.486  1.9428 -0.5483 -1.8167
  651MPD2    H1 9640   1.267   2.483  10.580 -0.2975 -1.5857  3.4221
  651MPD2    H2 9641   0.891   2.488  10.773  2.6748 -0.1302  2.7462
  651MPD2    H3 9642   1.102   2.380  10.731  0.9932  1.1695  1.4892
  651MPD2     N 9643   1.241   2.741  10.488  0.0372 -0.6816  0.0772
  651MPD2    H5 9644   1.202   2.826  10.449  1.8060 -0.4125 -1.1436
  651MPD2    N1 9645   0.792   2.705  10.628 -0.0150  0.5470  0.2300
  651MPD2    H7 9646   0.769   2.782  10.565  2.9027  0.7815 -0.5429
  652TMC3    C1 9647   1.670   2.909  10.378  0.1315 -0.8887  0.7917
  652TMC3    C2 9648   1.584   2.798  10.382  0.2976 -0.0454  0.0837
  652TMC3    C3 9649   1.449   2.823  10.400 -0.7867 -0.0341 -0.8648
  652TMC3    C4 9650   1.627   3.038  10.401  0.3395 -0.0106  0.2286
  652TMC3    C5 9651   1.496   3.063  10.440  0.0435 -0.1737  0.5895
  652TMC3    C6 9652   1.410   2.951  10.438 -0.9180  0.1551 -0.2387
  652TMC3     C 9653   1.807   2.875  10.394  0.3406 -0.5425  0.6220
  652TMC3     O 9654   1.833   2.770  10.455  0.0503  0.5756  0.1094
  652TMC3     H 9655   1.626   2.699  10.380 -0.2822 -0.2759 -0.8251
  652TMC3    H1 9656   1.696   3.122  10.410  1.4414 -0.9087  0.0849
  652TMC3    H2 9657   1.311   2.976  10.474 -1.2360 -2.4043  0.6620
  652TMC3    C7 9658   1.479   3.154  10.556 -0.3808  0.2610  0.6184
  652TMC3    C8 9659   1.378   2.718  10.472 -0.2651  0.2610  0.1957
  652TMC3    O1 9660   1.417   3.108  10.649 -1.3048 -0.4458  0.4695
  652TMC3    O2 9661   1.445   2.622  10.511 -0.0205  0.1224  0.4241
  653MPD2     C 9662   4.424   3.013  17.479 -0.0976 -0.5149  0.0695
  653MPD2    C1 9663   4.397   3.119  17.393 -0.0505 -0.1126  0.8555
  653MPD2    C2 9664   4.353   3.082  17.261  0.1705  0.4803 -0.1396
  653MPD2    C3 9665   4.348   2.954  17.216  0.6202 -0.2746  0.1341
  653MPD2    C4 9666   4.394   2.854  17.300 -0.2428  0.2350  0.1421
  653MPD2    C5 9667   4.424   2.883  17.432  0.3921 -0.2238 -0.0634
  653MPD2     H 9668   4.309   3.157  17.197  0.6164  0.3259 -0.6279
  653MPD2    H1 9669   4.405   2.750  17.274 -1.8072  0.1800 -0.2556
  653MPD2    H2 9670   4.462   3.015  17.580  2.2217 -3.2741 -0.7624
  653MPD2    H3 9671   4.461   2.800  17.491  0.1407 -1.0301 -1.0243
  653MPD2     N 9672   4.296   2.941  17.080  0.2408  0.0692  0.1306
  653MPD2    H5 9673   4.273   3.018  17.018 -1.6262  0.0537  0.7782
  653MPD2    N1 9674   4.410   3.253  17.420  0.2646  1.0455 -0.3885
  653MPD2    H7 9675   4.391   3.321  17.347  0.0765  1.0761 -0.3123
  654TMC3    C1 9676   4.243   2.832  16.885 -0.2947 -0.6253 -0.4611
  654TMC3    C2 9677   4.162   2.936  16.849 -0.5380  0.2532  0.1055
  654TMC3    C3 9678   4.091   2.929  16.730  0.1199  0.5792  1.0730
  654TMC3    C4 9679   4.261   2.722  16.805  0.0539 -0.7580 -0.1714
  654TMC3    C5 9680   4.173   2.713  16.693  0.7613  0.2743  1.2252
  654TMC3    C6 9681   4.097   2.818  16.652  0.5298  0.0621 -0.3126
  654TMC3     C 9682   4.266   2.817  17.023 -0.2724  0.1953 -0.3017
  654TMC3     O 9683   4.296   2.705  17.065  0.3392 -0.2324 -0.5418
  654TMC3     H 9684   4.137   3.019  16.914 -0.3757  0.1866  0.2537
  654TMC3    H1 9685   4.327   2.640  16.834 -2.2529 -2.1595  1.1246
  654TMC3    H2 9686   4.062   2.827  16.549 -0.7192  2.0935  0.2884
  654TMC3    C7 9687   4.188   2.600  16.609  0.2098 -0.1697  0.2462
  654TMC3    C8 9688   4.001   3.037  16.687  0.3563 -0.1079 -0.3407
  654TMC3    O1 9689   4.139   2.616  16.498 -0.7863  0.0397  0.1993
  654TMC3    O2 9690   3.990   3.136  16.761  0.5643  0.0341 -0.3413
  655MPD2     C 9691   0.994   2.873  15.452  0.6990 -0.0689  0.9475
  655MPD2    C1 9692   0.890   2.923  15.378  0.5190  0.0575  0.1834
  655MPD2    C2 9693   0.838   2.849  15.272 -0.2708 -0.0882 -0.4129
  655MPD2    C3 9694   0.898   2.738  15.226  0.7194 -0.3302  0.5690
  655MPD2    C4 9695   1.012   2.697  15.291 -0.2660 -0.0840  0.4275
  655MPD2    C5 9696   1.062   2.765  15.401 -0.3283 -0.0069 -0.2523
  655MPD2     H 9697   0.756   2.897  15.220 -0.3249  0.3749  0.0947
  655MPD2    H1 9698   1.080   2.619  15.258 -0.0864  0.7613 -1.1760
  655MPD2    H2 9699   1.043   2.923  15.535 -1.1933  0.7798  1.5647
  655MPD2    H3 9700   1.154   2.731  15.447  1.3355  3.1090 -1.3491
  655MPD2     N 9701   0.856   2.669  15.116  1.0077  0.0168 -0.1114
  655MPD2    H5 9702   0.900   2.578  15.103  2.7243  0.7955  0.1627
  655MPD2    N1 9703   0.812   3.044  15.407 -0.1867 -0.1551  0.5888
  655MPD2    H7 9704   0.732   3.069  15.350  0.7249  0.3509 -0.4756
  656TMC3    C1 9705   0.754   3.250  15.511  0.1177  0.9301 -0.4676
  656TMC3    C2 9706   0.714   3.295  15.638  0.3778  0.1424  1.3060
  656TMC3    C3 9707   0.634   3.411  15.636  0.1437  0.6818  0.9265
  656TMC3    C4 9708   0.735   3.314  15.390 -0.1951 -0.0534 -0.2715
  656TMC3    C5 9709   0.664   3.431  15.388  0.1809  0.3791  0.5475
  656TMC3    C6 9710   0.618   3.472  15.510  0.2432 -0.6495 -0.6301
  656TMC3     C 9711   0.834   3.130  15.514  0.4885  0.3136  0.2948
  656TMC3     O 9712   0.901   3.114  15.616 -0.0392  0.2313  0.0596
  656TMC3     H 9713   0.705   3.229  15.723  3.0892 -2.5400 -0.5150
  656TMC3    H1 9714   0.764   3.267  15.297  1.6830  1.0434 -0.2241
  656TMC3    H2 9715   0.560   3.564  15.517 -4.0085 -3.3911  0.2411
  656TMC3    C7 9716   0.590   3.459  15.266 -0.0321  0.3806  0.4277
  656TMC3    C8 9717   0.509   3.387  15.693  0.5248  0.3217 -0.3912
  656TMC3    O1 9718   0.642   3.429  15.158 -0.0860  0.2826  0.5010
  656TMC3    O2 9719   0.437   3.299  15.656 -0.2526 -0.3484  0.2006
  657TMC3    C1 9720   4.648   1.945  15.019 -0.2122 -0.5639 -0.6335
  657TMC3    C2 9721   0.032   1.946  15.101  0.0939 -0.1573 -0.3389
  657TMC3    C3 9722   0.023   2.027  15.211 -0.0584 -0.0537 -0.1165
  657TMC3    C4 9723   4.531   2.009  15.042  0.0841 -0.3770  0.5063
  657TMC3    C5 9724   4.529   2.090  15.153 -0.4391 -0.6284 -0.0033
  657TMC3    C6 9725   4.631   2.097  15.238  0.0087 -0.6310  0.2801
  657TMC3     C 9726   4.672   1.892  14.881  0.1545 -0.5420 -0.5662
  657TMC3     O 9727   4.578   1.842  14.826 -0.3359  0.2860 -0.3856
  657TMC3     H 9728   0.111   1.875  15.080  0.8891  0.7375 -0.3944
  657TMC3    H1 9729   4.458   2.013  14.963 -0.8040 -1.6727  1.2579
  657TMC3    H2 9730   4.626   2.143  15.336 -0.0218  1.3412 -0.6647
  657TMC3    C7 9731   4.465   2.214  15.128  0.0360 -0.1162 -0.0309
  657TMC3    C8 9732   0.132   2.025  15.307 -0.6192 -0.6172 -0.0447
  657TMC3    O1 9733   4.381   2.218  15.040  0.2391 -0.0705 -0.1059
  657TMC3    O2 9734   0.102   2.046  15.422 -0.1439  0.2530 -0.2243
  658MPD2     C 9735   1.280   2.303  14.772 -0.8550 -0.4390  0.2916
  658MPD2    C1 9736   1.173   2.356  14.706  0.2854 -0.7013 -0.2625
  658MPD2    C2 9737   1.188   2.379  14.571 -0.5879  0.1369  0.3678
  658MPD2    C3 9738   1.297   2.340  14.499 -0.2619 -0.1371  0.0613
  658MPD2    C4 9739   1.400   2.279  14.568  0.0013 -0.1553  0.4010
  658MPD2    C5 9740   1.391   2.258  14.701  1.1300  0.2048  0.0312
  658MPD2     H 9741   1.103   2.425  14.521 -1.5874  0.0993  2.0488
  658MPD2    H1 9742   1.495   2.261  14.518 -0.5826  0.8029 -1.0338
  658MPD2    H2 9743   1.280   2.288  14.879 -0.0975  1.2354  0.5244
  658MPD2    H3 9744   1.477   2.220  14.755  0.0663 -1.4665  0.5312
  658MPD2     N 9745   1.283   2.352  14.364 -0.5558 -0.3015 -0.0831
  658MPD2    H5 9746   1.194   2.390  14.334  0.2492  0.7768 -1.1327
  658MPD2    N1 9747   1.056   2.380  14.778 -0.5974 -0.2136  0.5864
  658MPD2    H7 9748   1.059   2.375  14.879  0.7588  0.8539  0.5951
  659TMC3    C1 9749   0.814   2.431  14.785 -0.4136  0.5420  0.5971
  659TMC3    C2 9750   0.840   2.522  14.884 -0.2934  0.1851  0.5252
  659TMC3    C3 9751   0.734   2.586  14.941  0.1611 -0.6282  0.9976
  659TMC3    C4 9752   0.685   2.418  14.737 -0.2378  0.9633  0.0263
  659TMC3    C5 9753   0.583   2.480  14.794 -0.4045  0.8594  0.0385
  659TMC3    C6 9754   0.607   2.566  14.897  0.1195 -0.1277  0.0182
  659TMC3     C 9755   0.934   2.397  14.711  0.2299  0.3960 -0.1301
  659TMC3     O 9756   0.904   2.352  14.599  0.1677  0.0277  0.3083
  659TMC3     H 9757   0.942   2.543  14.913 -0.0344  2.5931 -2.0778
  659TMC3    H1 9758   0.680   2.365  14.642  1.1186 -1.3094  1.2111
  659TMC3    H2 9759   0.526   2.622  14.944  1.5552  1.6083  0.4167
  659TMC3    C7 9760   0.448   2.435  14.769 -0.1902  0.1062  0.2457
  659TMC3    C8 9761   0.748   2.697  15.035  0.6889 -0.4173 -0.2468
  659TMC3    O1 9762   0.358   2.514  14.800  0.6939 -0.7736 -0.3890
  659TMC3    O2 9763   0.666   2.788  15.049  0.4345  0.2224 -1.0328
  660MPD2     C 9764   3.839   1.192  12.483  0.2830 -0.2460 -0.1659
  660MPD2    C1 9765   3.741   1.291  12.512 -0.1344 -0.3063  0.2094
  660MPD2    C2 9766   3.686   1.288  12.640 -0.2551  0.3902  0.8781
  660MPD2    C3 9767   3.730   1.195  12.736 -0.1574  0.1468  0.5228
  660MPD2    C4 9768   3.826   1.104  12.696 -0.1222  0.4397  0.4570
  660MPD2    C5 9769   3.866   1.094  12.568  0.5446 -0.7647  0.3953
  660MPD2     H 9770   3.601   1.352  12.662  0.8544  1.9727  0.5094
  660MPD2    H1 9771   3.858   1.026  12.764  1.5009  0.3929 -0.3847
  660MPD2    H2 9772   3.902   1.182  12.395  1.7172  1.7443  0.6376
  660MPD2    H3 9773   3.936   1.017  12.537 -0.0516 -1.3864  0.5916
  660MPD2     N 9774   3.673   1.180  12.859  0.8268  0.5408  0.3628
  660MPD2    H5 9775   3.702   1.096  12.909 -1.6063  0.8232  2.2750
  660MPD2    N1 9776   3.712   1.386  12.411  0.2839 -0.1567 -0.0901
  660MPD2    H7 9777   3.764   1.379  12.325  0.8096 -1.2882  0.3225
  661TMC3    C1 9778   3.655   1.606  12.349  0.1316 -0.2162 -0.1184
  661TMC3    C2 9779   3.781   1.625  12.287  0.3688  0.5440  0.0421
  661TMC3    C3 9780   3.784   1.740  12.210 -0.2917 -0.1467 -0.3771
  661TMC3    C4 9781   3.554   1.702  12.341 -0.2426  0.1076  0.2811
  661TMC3    C5 9782   3.573   1.810  12.271  0.7403  0.3760 -0.4969
  661TMC3    C6 9783   3.689   1.835  12.200  0.9865  0.6177  0.3966
  661TMC3     C 9784   3.632   1.499  12.441  0.1316  0.5220  1.0556
  661TMC3     O 9785   3.553   1.524  12.530 -0.3115  0.1782 -0.3410
  661TMC3     H 9786   3.875   1.574  12.305 -0.5969 -0.8367  1.1849
  661TMC3    H1 9787   3.459   1.683  12.389 -0.7547 -0.2038 -0.8754
  661TMC3    H2 9788   3.671   1.906  12.120 -0.9809 -1.1165 -0.6864
  661TMC3    C7 9789   3.476   1.907  12.244  0.4280 -0.2108 -0.1555
  661TMC3    C8 9790   3.898   1.748  12.121  0.0417 -0.0464 -0.5736
  661TMC3    O1 9791   3.516   2.023  12.253  0.8986  0.2741  0.2429
  661TMC3    O2 9792   3.981   1.656  12.110  0.5968  0.1385  0.1580
  662MPD2     C 9793   4.069   1.857  17.387 -0.4578  0.1474  0.5398
  662MPD2    C1 9794   4.040   1.765  17.483 -0.2647  0.0824  1.0008
  662MPD2    C2 9795   3.967   1.800  17.598 -0.5381 -0.4400 -0.1845
  662MPD2    C3 9796   3.917   1.931  17.615  0.2943  0.5651  0.0808
  662MPD2    C4 9797   3.942   2.019  17.514  0.4340 -0.5067  0.5491
  662MPD2    C5 9798   4.018   1.983  17.405  0.3248  0.2349  0.0767
  662MPD2     H 9799   3.940   1.724  17.671 -0.8147  0.6763  0.8860
  662MPD2    H1 9800   3.892   2.114  17.503  0.2678 -1.0970 -3.8962
  662MPD2    H2 9801   4.128   1.830  17.300 -0.4382 -1.4416  1.0485
  662MPD2    H3 9802   4.030   2.055  17.324  0.4610 -0.0926 -0.1963
  662MPD2     N 9803   3.835   1.968   0.013 -0.2899  0.3911  0.5900
  662MPD2    H5 9804   3.786   2.054  17.694 -2.2739 -1.4539 -2.7107
  662MPD2    N1 9805   4.093   1.632  17.472  0.6222 -0.0741 -0.6992
  662MPD2    H7 9806   4.076   1.571  17.551  1.1807 -0.2911 -0.7488
  663TMC3    C1 9807   4.158   1.431  17.396  0.4401  0.5140  0.4920
  663TMC3    C2 9808   4.247   1.407  17.498 -0.2536  0.4806 -0.1893
  663TMC3    C3 9809   4.327   1.301  17.491  0.6377  0.7243 -0.8023
  663TMC3    C4 9810   4.136   1.339  17.298 -0.2964  0.2696  0.6666
  663TMC3    C5 9811   4.218   1.229  17.296  0.1539  0.0035 -0.1509
  663TMC3    C6 9812   4.313   1.211  17.389  0.4049 -0.4785  0.2198
  663TMC3     C 9813   4.117   1.563  17.356 -0.3658 -0.1080  0.2801
  663TMC3     O 9814   4.094   1.581  17.238  0.7197 -0.2637 -0.7592
  663TMC3     H 9815   4.285   1.480  17.568 -0.1131 -0.1031  0.3400
  663TMC3    H1 9816   4.056   1.357  17.228  1.1382  0.1494 -0.9896
  663TMC3    H2 9817   4.355   1.111  17.395 -1.7633 -1.4401 -0.4682
  663TMC3    C7 9818   4.169   1.106  17.226 -0.2632  0.1588  0.0100
  663TMC3    C8 9819   4.347   1.234  17.620 -0.4781  0.1643  0.7950
  663TMC3    O1 9820   4.252   1.019  17.213  0.0898  0.3382  0.3628
  663TMC3    O2 9821   4.424   1.142  17.618 -0.3874 -0.3652 -0.2288
  664MPD2     C 9822   1.877   4.341  17.507  0.5923 -0.0839  0.1429
  664MPD2    C1 9823   1.914   4.467  17.479 -0.0086  0.3208 -0.1292
  664MPD2    C2 9824   1.967   4.546  17.578 -0.0719  0.7123  0.5544
  664MPD2    C3 9825   1.988   4.501   0.006 -1.1748  0.2685  0.3552
  664MPD2    C4 9826   1.945   4.372   0.032  0.5064 -0.2619 -0.2428
  664MPD2    C5 9827   1.894   4.294  17.634 -0.1672 -0.5293  0.9314
  664MPD2     H 9828   1.999   4.645  17.550 -0.8130  0.2274 -1.9465
  664MPD2    H1 9829   1.963   4.326   0.128 -0.9474  0.5845  0.4227
  664MPD2    H2 9830   1.813   4.280  17.445 -1.3590  0.5862  1.4931
  664MPD2    H3 9831   1.856   4.195  17.658  1.2353 -0.7093  2.4530
  664MPD2     N 9832   2.049   4.588   0.107 -0.2613 -0.3233 -0.3960
  664MPD2    H5 9833   2.074   4.683   0.080 -0.9282  0.3819  1.4310
  664MPD2    N1 9834   1.915   4.512  17.348 -0.4776  0.3221 -0.9845
  664MPD2    H7 9835   1.952   4.605  17.332  0.0233  0.2544 -0.1923
  665TMC3    C1 9836   2.108   4.675   0.308 -0.1377 -0.2384 -0.2127
  665TMC3    C2 9837   2.159   4.647   0.433 -0.6516  0.3914 -0.4249
  665TMC3    C3 9838   2.204   0.024   0.513  0.3050 -0.3250 -0.2016
  665TMC3    C4 9839   2.106   0.082   0.264  0.7709 -0.0405 -0.1779
  665TMC3    C5 9840   2.148   0.180   0.350  0.1105  0.0562 -0.4079
  665TMC3    C6 9841   2.199   0.155   0.474 -0.2703  0.7356  0.5938
  665TMC3     C 9842   2.054   4.564   0.242 -0.5736 -0.1431  0.1572
  665TMC3     O 9843   2.037   4.461   0.306 -0.0355  0.4441 -0.4939
  665TMC3     H 9844   2.163   4.543   0.461  0.9218  0.7635  0.7169
  665TMC3    H1 9845   2.061   0.111   0.170  0.4081  2.5690  0.8044
  665TMC3    H2 9846   2.223   0.236   0.542 -0.3360 -0.1348  1.6543
  665TMC3    C7 9847   2.105   0.314   0.325  0.3303  0.4845  0.1990
  665TMC3    C8 9848   2.232   0.002   0.652 -0.9421  0.7819  0.2144
  665TMC3    O1 9849   2.089   0.352   0.208 -0.0475 -0.7176  0.6636
  665TMC3    O2 9850   2.208   0.096   0.725  0.4191  0.2530 -0.4742
  666TMC3    C1 9851   1.540   4.184   9.612 -0.1793 -0.0910 -0.0234
  666TMC3    C2 9852   1.620   4.150   9.716  0.6665  0.0076 -0.4741
  666TMC3    C3 9853   1.690   4.257   9.777 -0.1319 -0.8221 -0.5824
  666TMC3    C4 9854   1.527   4.307   9.560  0.4173 -0.2405 -0.1015
  666TMC3    C5 9855   1.597   4.408   9.618 -0.8411 -0.5998 -0.5173
  666TMC3    C6 9856   1.689   4.379   9.724  0.3077  0.3896  0.0882
  666TMC3     C 9857   1.455   4.078   9.549  0.7029 -0.3956  0.0122
  666TMC3     O 9858   1.399   4.102   9.437  0.0879 -0.4531 -0.3892
  666TMC3     H 9859   1.625   4.058   9.773 -3.3151  0.5761  0.7722
  666TMC3    H1 9860   1.457   4.328   9.480  1.0852 -2.9385 -1.3998
  666TMC3    H2 9861   1.738   4.459   9.779  1.8095 -0.0817 -0.5710
  666TMC3    C7 9862   1.553   4.541   9.588  0.1404  0.8612 -0.9022
  666TMC3    C8 9863   1.749   4.230   9.906 -0.1706  0.4097 -0.3379
  666TMC3    O1 9864   1.437   4.562   9.551 -0.6568  0.1987  0.1981
  666TMC3    O2 9865   1.710   4.136   9.974 -0.3285 -0.6991  0.5681
  667MPD2     C 9866   2.120   4.114  14.703  0.1633  0.3881 -0.0990
  667MPD2    C1 9867   2.228   4.062  14.778  0.1258  1.0813 -0.6125
  667MPD2    C2 9868   2.212   3.935  14.838 -0.1865  0.0060 -0.3803
  667MPD2    C3 9869   2.094   3.862  14.825  0.0299  0.9285  0.4958
  667MPD2    C4 9870   1.989   3.926  14.758 -0.5333 -0.1527  0.3834
  667MPD2    C5 9871   1.999   4.050  14.697  0.0126 -0.2609  0.2055
  667MPD2     H 9872   2.288   3.890  14.900  1.5063  0.6356 -2.0063
  667MPD2    H1 9873   1.889   3.884  14.757  0.1528 -1.8322  2.7512
  667MPD2    H2 9874   2.133   4.207  14.649  0.9437 -0.4175 -1.3053
  667MPD2    H3 9875   1.918   4.094  14.639 -0.9298 -0.9019  1.0360
  667MPD2     N 9876   2.062   3.725  14.859  0.3927 -0.0140  0.1940
  667MPD2    H5 9877   1.964   3.701  14.848  0.8932 -1.7481 -0.4871
  667MPD2    N1 9878   2.350   4.136  14.792  0.1959  0.0174 -0.8998
  667MPD2    H7 9879   2.355   4.225  14.743 -0.7259 -0.5566 -2.0406
  668TMC3    C1 9880   2.566   4.198  14.865 -0.5131  1.1400  0.0094
  668TMC3    C2 9881   2.580   4.281  14.756 -0.8447 -0.3711  0.0912
  668TMC3    C3 9882   2.676   4.381  14.768  0.7371 -0.9146 -0.4700
  668TMC3    C4 9883   2.655   4.185  14.969 -1.0738  0.1185 -0.4037
  668TMC3    C5 9884   2.749   4.283  14.976  0.1636 -0.2212  0.5339
  668TMC3    C6 9885   2.762   4.383  14.879  0.3294  0.0646 -0.1060
  668TMC3     C 9886   2.462   4.102  14.865  0.4361  0.7389  0.4889
  668TMC3     O 9887   2.482   4.008  14.945  0.4118 -0.4086 -0.5114
  668TMC3     H 9888   2.507   4.286  14.676  1.7535  1.0074 -2.2118
  668TMC3    H1 9889   2.647   4.109  15.046  0.5420  1.3527  0.9793
  668TMC3    H2 9890   2.830   4.467  14.893 -0.1295  0.4499 -0.1905
  668TMC3    C7 9891   2.842   4.296  15.093 -0.4883  0.1836 -0.3360
  668TMC3    C8 9892   2.707   4.452  14.646 -0.2768 -0.2887 -0.1321
  668TMC3    O1 9893   2.902   4.406  15.102  0.4974  0.1518 -0.4452
  668TMC3    O2 9894   2.648   4.413  14.550  0.1011  0.0655  0.2635
  669TMC3    C1 9895   0.435   4.394  14.249 -0.2371  0.6840 -0.0190
  669TMC3    C2 9896   0.329   4.383  14.160 -0.0564  0.1634 -0.0737
  669TMC3    C3 9897   0.327   4.477  14.061 -0.4102  0.8188  0.1027
  669TMC3    C4 9898   0.536   4.486  14.233  0.0184  0.3438 -0.5508
  669TMC3    C5 9899   0.530   4.566  14.124  0.8495  0.6853 -0.1506
  669TMC3    C6 9900   0.425   4.569  14.040  0.2106  0.6938  0.1247
  669TMC3     C 9901   0.443   4.282  14.342 -0.3382 -1.0647  0.5324
  669TMC3     O 9902   0.347   4.208  14.354  0.1974  0.1176  0.2575
  669TMC3     H 9903   0.252   4.309  14.178  1.8122 -1.7590  0.0137
  669TMC3    H1 9904   0.626   4.483  14.293  0.2528 -1.4822 -1.0137
  669TMC3    H2 9905   0.417   4.657  13.977  0.3911 -0.0575 -0.9483
  669TMC3    C7 9906   0.659   4.630  14.083 -0.0194 -0.8247  0.0927
  669TMC3    C8 9907   0.198   4.490  13.990 -0.1232  0.3285  0.5398
  669TMC3    O1 9908   0.745   4.641  14.169  0.0262 -0.1124  0.0606
  669TMC3    O2 9909   0.116   4.399  14.000 -0.4426 -0.6172  0.2376
  670MPD2     C 9910   3.936   2.128  13.699 -0.5901  0.2253 -0.8375
  670MPD2    C1 9911   4.032   2.218  13.744 -0.1941  0.3819  0.3240
  670MPD2    C2 9912   4.050   2.229  13.883 -1.0178  1.0281 -0.1617
  670MPD2    C3 9913   3.969   2.151  13.969 -0.1371  0.5296 -0.4816
  670MPD2    C4 9914   3.879   2.057  13.919  0.0297  0.2542 -1.1112
  670MPD2    C5 9915   3.861   2.048  13.781 -0.6269  0.6572  0.0182
  670MPD2     H 9916   4.129   2.285  13.932  0.6477 -1.3823 -0.0605
  670MPD2    H1 9917   3.833   1.978  13.977 -0.5235  2.1518  1.0539
  670MPD2    H2 9918   3.907   2.121  13.594  1.5344  1.0764 -1.4780
  670MPD2    H3 9919   3.782   1.989  13.737  1.0174 -1.5304 -0.0341
  670MPD2     N 9920   4.000   2.145  14.106 -0.0740  0.1706 -0.5702
  670MPD2    H5 9921   4.083   2.195  14.138 -0.4468  0.4646 -0.0643
  670MPD2    N1 9922   4.127   2.283  13.657 -0.0551 -0.3020  0.1338
  670MPD2    H7 9923   4.207   2.323  13.705 -0.4292  1.9948 -1.1672
  671TMC3    C1 9924   3.985   2.062  14.331  0.2993 -0.0739 -0.2509
  671TMC3    C2 9925   4.118   2.047  14.308  0.3633 -0.0076  0.5432
  671TMC3    C3 9926   4.177   1.930  14.340  0.2847  0.3037 -0.1181
  671TMC3    C4 9927   3.915   1.959  14.388 -0.1869 -0.2395  0.1256
  671TMC3    C5 9928   3.976   1.842  14.419  0.0039 -0.7337 -0.0465
  671TMC3    C6 9929   4.112   1.827  14.401 -0.5838  0.7074 -0.1143
  671TMC3     C 9930   3.920   2.099  14.205 -0.1761 -0.3086  0.4406
  671TMC3     O 9931   3.805   2.055  14.193  0.1400 -0.1603  0.1997
  671TMC3     H 9932   4.176   2.138  14.299  0.5823 -0.3772 -1.7442
  671TMC3    H1 9933   3.807   1.957  14.380 -0.3484  2.2263  1.9652
  671TMC3    H2 9934   4.158   1.729  14.398 -0.0162  1.0289 -1.7273
  671TMC3    C7 9935   3.891   1.722  14.392 -0.5175 -0.4975 -0.4598
  671TMC3    C8 9936   4.295   1.894  14.270  0.3480 -0.5492  0.2211
  671TMC3    O1 9937   3.781   1.742  14.344 -0.1779  0.7157 -0.5319
  671TMC3    O2 9938   4.327   1.778  14.260  0.2570 -0.6084  0.3417
  672MPD2     C 9939   4.060   2.581   1.070  0.7642 -0.0847  0.3117
  672MPD2    C1 9940   4.190   2.598   1.022  0.0922 -0.1170  0.4700
  672MPD2    C2 9941   4.274   2.688   1.088  0.1289 -0.7762 -0.0369
  672MPD2    C3 9942   4.232   2.754   1.205 -0.0529  0.0729  0.1691
  672MPD2    C4 9943   4.103   2.737   1.250  0.1333 -0.1029 -0.5327
  672MPD2    C5 9944   4.027   2.640   1.189  0.2538  0.1979 -0.6271
  672MPD2     H 9945   4.374   2.705   1.050 -0.0431  1.5528  0.5271
  672MPD2    H1 9946   4.068   2.802   1.329  0.5412  0.6869 -1.0027
  672MPD2    H2 9947   3.995   2.501   1.036 -2.2395  1.6278  2.0081
  672MPD2    H3 9948   3.925   2.629   1.222  0.8729 -0.4298  1.0769
  672MPD2     N 9949   4.314   2.860   1.257  0.6948 -0.3223 -0.1441
  672MPD2    H5 9950   4.265   2.938   1.298  1.9741 -0.4880  1.6824
  672MPD2    N1 9951   4.230   2.534   0.905  0.7159 -0.2549 -0.2207
  672MPD2    H7 9952   4.329   2.544   0.882  1.0629 -1.7152  0.6422
  673TMC3    C1 9953   4.223   2.414   0.712  0.1811 -0.0307  0.4178
  673TMC3    C2 9954   4.312   2.311   0.743  0.0667  0.3119 -0.0743
  673TMC3    C3 9955   4.392   2.273   0.640  0.7403  0.0307  0.4320
  673TMC3    C4 9956   4.220   2.484   0.596 -0.4929 -0.1882 -0.1112
  673TMC3    C5 9957   4.301   2.433   0.499  0.2843  0.9353  0.1834
  673TMC3    C6 9958   4.395   2.335   0.519  0.1101  0.0389  0.1278
  673TMC3     C 9959   4.143   2.468   0.818 -0.0358  0.1683  0.4827
  673TMC3     O 9960   4.024   2.487   0.804 -0.1792 -0.7617  0.0870
  673TMC3     H 9961   4.312   2.268   0.843  1.8384  0.0996 -0.1559
  673TMC3    H1 9962   4.154   2.569   0.579 -2.2140 -1.1700  1.7249
  673TMC3    H2 9963   4.450   2.291   0.436  0.9562 -1.5154  1.5117
  673TMC3    C7 9964   4.303   2.482   0.367 -0.1411 -0.1822 -0.3312
  673TMC3    C8 9965   4.482   2.164   0.657 -0.0872 -0.0765  0.0061
  673TMC3    O1 9966   4.358   2.417   0.281 -0.7641  0.4335  0.4711
  673TMC3    O2 9967   4.513   2.096   0.559 -1.0917  0.5215 -0.3753
  674MPD2     C 9968   4.022   2.745  17.314 -0.3681 -0.3734 -0.9225
  674MPD2    C1 9969   3.983   2.675  17.426  0.8093  0.2348  0.0773
  674MPD2    C2 9970   3.881   2.728  17.506 -0.7227  0.1677 -0.2708
  674MPD2    C3 9971   3.824   2.852  17.476  0.5727  0.1416  0.5466
  674MPD2    C4 9972   3.872   2.927  17.372 -0.2892  0.0726  1.1250
  674MPD2    C5 9973   3.972   2.874  17.298 -0.2053  0.2312 -0.0766
  674MPD2     H 9974   3.837   2.680  17.593  1.3462  1.0255  1.2401
  674MPD2    H1 9975   3.828   3.020  17.337 -2.0086 -1.2129 -0.0956
  674MPD2    H2 9976   4.095   2.712  17.241  1.4898 -1.5008  1.4618
  674MPD2    H3 9977   4.001   2.930  17.209 -2.2384 -0.1129 -0.9592
  674MPD2     N 9978   3.720   2.882  17.560  0.3415  0.8521 -1.0159
  674MPD2    H5 9979   3.700   2.809  17.628 -0.0236  1.9783  0.0806
  674MPD2    N1 9980   4.040   2.556  17.466 -0.1597  0.1214  0.9610
  674MPD2    H7 9981   3.997   2.515  17.548 -1.0426  0.8127  0.8484
  675TMC3    C1 9982   4.169   2.361  17.472 -0.5771  0.6094 -0.5279
  675TMC3    C2 9983   4.070   2.330  17.565  0.2954 -0.2776 -0.4394
  675TMC3    C3 9984   4.111   2.280  17.685 -0.0694  0.0703 -0.9147
  675TMC3    C4 9985   4.302   2.346  17.487  0.4383 -1.2031  0.0010
  675TMC3    C5 9986   4.340   2.279  17.599  0.3582 -0.3711 -0.2894
  675TMC3    C6 9987   4.246   2.247   0.004  0.0744 -0.4472 -0.0012
  675TMC3     C 9988   4.141   2.487  17.400  0.4014  0.4347 -0.7772
  675TMC3     O 9989   4.217   2.528  17.318  0.5598 -0.3991 -0.3419
  675TMC3     H 9990   3.964   2.342  17.547 -0.3181 -1.7410  2.2488
  675TMC3    H1 9991   4.378   2.376  17.416 -0.6795  1.7267  0.0090
  675TMC3    H2 9992   4.279   2.217   0.102  0.9450  0.2649 -0.0815
  675TMC3    C7 9993   4.475   2.239  17.614 -0.7280 -0.6048 -0.0813
  675TMC3    C8 9994   4.032   2.334   0.092 -0.3747 -0.3106  0.0740
  675TMC3    O1 9995   4.554   2.253  17.521  0.6308  0.0546  0.8209
  675TMC3    O2 9996   3.945   2.411   0.057 -0.1904 -0.2135 -0.3983
  676MPD2     C 9997   1.902   0.787  11.403 -0.5499  0.5113 -0.0691
  676MPD2    C1 9998   1.778   0.724  11.375  0.0010 -0.1951  1.2119
  676MPD2    C2 9999   1.760   0.660  11.262  0.2639 -0.3054  0.3371
  676MPD2    C310000   1.857   0.656  11.168  0.6493 -0.2275  0.8549
  676MPD2    C410001   1.975   0.722  11.187 -0.1583  0.3249 -0.6352
  676MPD2    C510002   1.996   0.781  11.309 -0.2392 -0.4209 -0.6560
  676MPD2     H10003   1.665   0.609  11.254  0.4289 -0.2338 -2.0108
  676MPD2    H110004   2.050   0.732  11.110  1.9737 -0.0885  1.4154
  676MPD2    H210005   1.934   0.841  11.491 -0.0144 -0.5292  0.3721
  676MPD2    H310006   2.082   0.845  11.326  0.6433 -1.3473 -1.6842
  676MPD2     N10007   1.840   0.588  11.046 -0.5677  0.4759  0.0014
  676MPD2    H510008   1.916   0.607  10.982  0.6704 -1.8815  0.7337
  676MPD2    N110009   1.672   0.714  11.470  0.9191  0.1296 -0.2121
  676MPD2    H710010   1.587   0.665  11.444  1.2274 -0.6530  0.2254
  677TMC3    C110011   1.603   0.724  11.695 -0.4495 -0.4845 -0.5570
  677TMC3    C210012   1.584   0.589  11.700 -0.0616 -0.3548 -0.9358
  677TMC3    C310013   1.604   0.537  11.828  0.4392  0.2490  0.5137
  677TMC3    C410014   1.626   0.799  11.805  0.1259 -0.0188  0.1320
  677TMC3    C510015   1.655   0.737  11.926 -0.0365 -0.1048 -0.0156
  677TMC3    C610016   1.639   0.604  11.941 -0.1522 -0.0735 -0.3800
  677TMC3     C10017   1.686   0.782  11.591 -0.2918 -0.5022 -0.2120
  677TMC3     O10018   1.757   0.877  11.627  0.2277  0.2482 -0.1231
  677TMC3     H10019   1.603   0.521  11.618  0.0947 -0.1873 -1.0386
  677TMC3    H110020   1.625   0.907  11.798 -0.3834 -0.1047 -1.1234
  677TMC3    H210021   1.658   0.548  12.032 -2.6361  1.2058  0.9363
  677TMC3    C710022   1.765   0.797  12.000 -0.5983  0.1199  0.2502
  677TMC3    C810023   1.573   0.391  11.832 -0.0373  0.5505 -0.3314
  677TMC3    O110024   1.784   0.761  12.112 -0.4858 -0.5774 -0.3296
  677TMC3    O210025   1.483   0.350  11.760  0.8820  0.5729  0.5978
  678MPD2     C10026   3.067   0.966   1.479  0.1286 -0.9218 -0.1698
  678MPD2    C110027   3.099   0.882   1.376 -0.4717 -0.2003  0.0794
  678MPD2    C210028   2.990   0.818   1.317 -0.1167 -0.2118  0.3727
  678MPD2    C310029   2.860   0.846   1.349 -0.2478  0.3188 -0.1029
  678MPD2    C410030   2.828   0.929   1.457 -0.1225  0.4013  0.5502
  678MPD2    C510031   2.937   0.988   1.514  1.2412  0.5377 -0.5629
  678MPD2     H10032   3.007   0.764   1.224 -1.4154 -2.6310  1.5512
  678MPD2    H110033   2.728   0.950   1.492 -0.9015 -1.6454 -0.4350
  678MPD2    H210034   3.138   1.022   1.539  1.6081 -0.4788 -2.3186
  678MPD2    H310035   2.918   1.051   1.599 -0.6432 -0.8230  0.0217
  678MPD2     N10036   2.760   0.777   1.277  0.2843  0.3370  0.6748
  678MPD2    H510037   2.786   0.709   1.206  0.9875 -0.3311  1.5558
  678MPD2    N110038   3.230   0.855   1.332 -0.3445  0.2843  0.0685
  678MPD2    H710039   3.234   0.796   1.249 -0.7365 -0.2265  0.4094
  679TMC3    C110040   3.592   0.753   1.171  0.3372  0.0408 -0.7185
  679TMC3    C210041   3.461   0.768   1.221 -0.8367 -0.3309  0.1338
  679TMC3    C310042   3.452   0.884   1.293  0.9865 -0.0690 -0.2508
  679TMC3    C410043   3.704   0.824   1.199  0.4321  0.6486 -0.4776
  679TMC3    C510044   3.681   0.944   1.259 -0.0393 -0.4370 -0.2272
  679TMC3    C610045   3.558   0.967   1.308  0.4719  0.3957  0.4308
  679TMC3     C10046   3.619   0.615   1.125  0.7602  0.0878 -0.1369
  679TMC3     O10047   3.736   0.582   1.103  0.7454 -0.5775 -0.2794
  679TMC3     H10048   3.382   0.697   1.201 -0.3841 -0.5714 -0.7833
  679TMC3    H110049   3.801   0.798   1.158 -0.1724 -1.6134 -0.4731
  679TMC3    H210050   3.548   1.069   1.343  0.0224  0.2476  0.7349
  679TMC3    C710051   3.768   1.050   1.228  0.0139  1.3066 -0.1834
  679TMC3    C810052   3.339   0.924   1.368  0.6712  0.0830 -1.0589
  679TMC3    O110053   3.703   1.145   1.183  0.1683  0.2158 -0.3278
  679TMC3    O210054   3.350   0.998   1.461  0.5871 -0.0581 -0.1013
  680MPD2     C10055   2.971   4.086  13.040 -0.1088  0.3888  0.2805
  680MPD2    C110056   3.055   4.029  13.130 -0.2584 -0.2766 -0.1851
  680MPD2    C210057   3.117   4.105  13.227  0.0813  0.2938  0.2688
  680MPD2    C310058   3.083   4.242  13.245  0.3671 -0.5248  0.2295
  680MPD2    C410059   2.988   4.293  13.161 -0.7604  0.1930 -0.8894
  680MPD2    C510060   2.938   4.217  13.060  0.4355 -0.3917  0.8518
  680MPD2     H10061   3.179   4.048  13.296  2.4762  0.7698 -1.5117
  680MPD2    H110062   2.954   4.393  13.185 -1.1261  0.1641 -1.2867
  680MPD2    H210063   2.936   4.032  12.953  1.1943  0.1046 -0.0521
  680MPD2    H310064   2.875   4.259  12.982  1.5760 -1.7792 -0.8342
  680MPD2     N10065   3.132   4.332  13.346 -0.2679  0.1614  0.2322
  680MPD2    H510066   3.098   4.428  13.340 -0.4277  0.2010  1.7036
  680MPD2    N110067   3.090   3.895  13.119 -0.1268 -0.6760  0.0441
  680MPD2    H710068   3.163   3.856  13.178 -0.2049 -0.5848  0.2010
  681TMC3    C110069   3.078   3.672  13.054 -0.4961  0.1044 -0.3219
  681TMC3    C210070   3.010   3.612  13.160 -0.1321  0.3173 -0.3151
  681TMC3    C310071   3.075   3.567  13.275  0.0602 -0.2906 -0.2411
  681TMC3    C410072   3.215   3.657  13.053 -0.5281 -0.4531 -0.5073
  681TMC3    C510073   3.279   3.585  13.152 -0.2385 -0.0485  0.3123
  681TMC3    C610074   3.208   3.532  13.259  0.2157  0.3253  0.0877
  681TMC3     C10075   3.023   3.802  13.038 -0.0978 -0.2000  0.6521
  681TMC3     O10076   2.909   3.802  12.994  0.2381  0.0575  0.6597
  681TMC3     H10077   2.908   3.646  13.166 -0.2063  0.1923 -0.9011
  681TMC3    H110078   3.273   3.711  12.979  0.7767 -0.2408  0.6878
  681TMC3    H210079   3.260   3.472  13.333  1.7599  1.4593 -0.0835
  681TMC3    C710080   3.428   3.560  13.139 -0.6168  0.7932  0.0684
  681TMC3    C810081   3.056   3.656  13.386  0.0284  0.6069 -0.2345
  681TMC3    O110082   3.480   3.477  13.213 -0.4430  0.0271 -0.3433
  681TMC3    O210083   3.159   3.682  13.453  0.2151 -0.4400 -0.2702
  682MPD2     C10084   1.246   0.807  10.289  0.4879  0.1235  0.0730
  682MPD2    C110085   1.151   0.718  10.240 -0.1080 -0.0762  0.2672
  682MPD2    C210086   1.040   0.672  10.312 -0.8461  0.3930  0.2536
  682MPD2    C310087   1.038   0.706  10.447  0.6613  0.1409  0.0782
  682MPD2    C410088   1.137   0.798  10.492 -0.1976 -0.6639 -0.6344
  682MPD2    C510089   1.233   0.862  10.413 -0.0224 -0.1648  0.2896
  682MPD2     H10090   0.961   0.610  10.271 -1.9103  0.5782  2.0024
  682MPD2    H110091   1.127   0.837  10.593  1.1308 -1.8596 -0.0349
  682MPD2    H210092   1.325   0.838  10.223  1.0743 -0.8610  0.3075
  682MPD2    H310093   1.300   0.942  10.442  1.2093 -1.4622  0.9936
  682MPD2     N10094   0.954   0.659  10.546  0.1709  0.3643 -0.4277
  682MPD2    H510095   0.984   0.684  10.640 -1.9785 -0.7345  0.5449
  682MPD2    N110096   1.160   0.649  10.117 -0.8200  0.8890 -0.8283
  682MPD2    H710097   1.085   0.585  10.091 -0.4576 -0.0783  0.5112
  683TMC3    C110098   0.736   0.538  10.866 -0.5659  0.2010  0.3128
  683TMC3    C210099   0.681   0.412  10.878  0.1522 -0.1944 -0.4129
  683TMC3    C310100   0.666   0.349  10.750 -0.0584 -0.5143  0.2630
  683TMC3    C410101   0.797   0.594  10.759  0.2248 -0.6559  0.3596
  683TMC3    C510102   0.797   0.516  10.648 -0.9093  0.2477 -0.2192
  683TMC3    C610103   0.725   0.401  10.635 -0.6431  0.0544 -0.3719
  683TMC3     C10104   0.727   0.626  10.990  0.1538  0.1059  0.1752
  683TMC3     O10105   0.803   0.724  10.986 -0.0637 -0.3355  0.0821
  683TMC3     H10106   0.635   0.381  10.971  0.2597 -0.1481 -0.3441
  683TMC3    H110107   0.828   0.697  10.766  0.8856 -0.8575  0.3493
  683TMC3    H210108   0.723   0.351  10.539 -0.6684  1.8625 -1.2902
  683TMC3    C710109   0.854   0.564  10.522 -0.5969 -0.2573 -0.2413
  683TMC3    C810110   0.609   0.212  10.738 -0.5698 -0.4738  0.2085
  683TMC3    O110111   0.809   0.520  10.418  0.2213 -0.8170  0.0900
  683TMC3    O210112   0.634   0.151  10.636  0.5004 -0.1111  0.0199
  684MPD2     C10113   4.453   0.152  15.663  0.2052 -0.4613  0.0443
  684MPD2    C110114   4.347   0.178  15.574 -0.0832 -0.7680  0.2179
  684MPD2    C210115   4.270   0.294  15.593  0.2787  0.6954  0.5350
  684MPD2    C310116   4.284   0.367  15.713 -0.2144  0.7267  0.9480
  684MPD2    C410117   4.378   0.334  15.805  0.2705  0.1407  0.5130
  684MPD2    C510118   4.460   0.226  15.776  0.3695  0.2244 -0.3563
  684MPD2     H10119   4.202   0.334  15.518 -1.4891 -1.9922  0.6907
  684MPD2    H110120   4.378   0.365  15.909 -2.7766 -2.3429  1.2368
  684MPD2    H210121   4.520   0.068  15.654  2.2088  1.0340  1.1407
  684MPD2    H310122   4.537   0.198  15.847  0.2084  0.5482 -0.0525
  684MPD2     N10123   4.203   0.486  15.747  0.0528 -0.0837  0.0961
  684MPD2    H510124   4.223   0.537  15.833  0.2150  0.3324 -0.1880
  684MPD2    N110125   4.316   0.096  15.465  0.4326 -0.5071  0.1439
  684MPD2    H710126   4.248   0.131  15.399  1.1336  2.0977  0.8031
  685TMC3    C110127   4.310   4.630  15.325 -0.7824  0.7681  0.3201
  685TMC3    C210128   4.175   4.610  15.336  0.0808 -0.1525  0.3561
  685TMC3    C310129   4.129   4.487  15.285 -0.7361  0.6704 -0.0348
  685TMC3    C410130   4.392   4.530  15.276 -0.7485 -0.0142 -0.3639
  685TMC3    C510131   4.345   4.409  15.246 -0.6577  0.0095 -0.2503
  685TMC3    C610132   4.207   4.386  15.242  0.0052  0.5473  0.8556
  685TMC3     C10133   4.373   4.695  15.439 -0.0287  0.8390  0.0935
  685TMC3     O10134   4.455   4.627  15.492  0.1523 -0.2799 -0.8529
  685TMC3     H10135   4.110   4.688  15.373 -0.1673  0.4939 -1.4750
  685TMC3    H110136   4.500   4.539  15.278 -0.6688 -1.0137 -0.2324
  685TMC3    H210137   4.161   4.294  15.208  1.9536 -0.8720  2.0681
  685TMC3    C710138   4.416   4.299  15.302  0.5525  0.3193  0.1681
  685TMC3    C810139   3.993   4.482  15.233  0.2740  0.0065 -0.6016
  685TMC3    O110140   4.361   4.191  15.276 -0.6413 -0.0969  0.0842
  685TMC3    O210141   3.966   4.376  15.182 -0.1131  0.5836  0.1326
  686MPD2     C10142   0.254   0.087  14.902  0.4095 -0.0600  0.2919
  686MPD2    C110143   0.236   0.007  15.012  0.0682 -0.7046  0.4341
  686MPD2    C210144   0.144   4.628  15.001 -0.7207 -0.3887  0.0877
  686MPD2    C310145   0.089   4.605  14.877 -0.0471 -0.3017 -0.3043
  686MPD2    C410146   0.102   4.690  14.767  0.2881 -0.3502  0.0844
  686MPD2    C510147   0.192   0.069  14.783 -0.0225 -0.4872  0.0893
  686MPD2     H10148   0.135   4.559  15.084 -4.5815  1.6984  1.3964
  686MPD2    H110149   0.034   4.684  14.682 -2.2890 -1.4361  2.2244
  686MPD2    H210150   0.323   0.170  14.908  0.6442 -0.2973  0.8399
  686MPD2    H310151   0.207   0.130  14.695 -1.8649 -0.9149 -0.5293
  686MPD2     N10152   0.020   4.485  14.854  0.7826  0.4751 -0.5849
  686MPD2    H510153   0.000   4.461  14.757  0.3426 -0.7385 -0.1914
  686MPD2    N110154   0.314   0.037  15.120  0.6471  0.1073 -0.2051
  686MPD2    H710155   0.341   0.134  15.132 -0.4216  0.8908 -4.3037
  687TMC3    C110156   0.012   4.282  14.978  0.4638  0.2648  0.7559
  687TMC3    C210157   0.002   4.245  15.110 -0.0099  0.4614  0.0560
  687TMC3    C310158   0.109   4.234  15.192  0.2208  0.9169  0.7098
  687TMC3    C410159   0.139   4.274  14.920 -0.3457  0.2859  0.0292
  687TMC3    C510160   0.247   4.253  15.002  0.1700  0.0922  0.6528
  687TMC3    C610161   0.229   4.244  15.137 -0.1484 -0.5298 -0.0803
  687TMC3     C10162   4.678   4.409  14.950  0.2241  0.1138 -0.7651
  687TMC3     O10163   4.621   4.451  15.050 -0.0152  0.2642 -0.2728
  687TMC3     H10164   4.626   4.238  15.149  0.1214 -0.1947  0.2710
  687TMC3    H110165   0.152   4.298  14.815 -2.3143 -0.6709 -0.4322
  687TMC3    H210166   0.307   4.255  15.211  0.9440 -2.3914 -0.9832
  687TMC3    C710167   0.382   4.288  14.961 -0.2875  0.4191  0.2641
  687TMC3    C810168   0.100   4.298  15.323  0.3467 -0.6175  0.3779
  687TMC3    O110169   0.465   4.229  15.027 -0.0317  0.4341 -0.2244
  687TMC3    O210170   0.169   4.262  15.421  0.6940  0.0768 -0.4781
  688MPD2     C10171   4.672   3.739  17.003 -0.0982 -0.1885 -0.0054
  688MPD2    C110172   4.722   3.623  17.060 -0.6052  0.7553  0.7666
  688MPD2    C210173   0.068   3.530  16.984  0.8117  0.4831 -0.2450
  688MPD2    C310174   0.105   3.560  16.847 -0.0308  0.4420 -0.1734
  688MPD2    C410175   0.057   3.677  16.796 -0.3421  0.2618 -0.1002
  688MPD2    C510176   4.699   3.762  16.871 -0.1912  0.0971  0.3405
  688MPD2     H10177   0.095   3.442  17.041 -2.2614 -0.6663 -0.5617
  688MPD2    H110178   0.097   3.714  16.703  0.0689 -1.2584 -0.5339
  688MPD2    H210179   4.614   3.813  17.058 -0.9728 -0.9038  0.0506
  688MPD2    H310180   4.660   3.852  16.825  1.5364  0.5907 -0.1391
  688MPD2     N10181   0.195   3.480  16.771 -0.3530  0.1608  0.0364
  688MPD2    H510182   0.207   3.512  16.676  0.5207  2.1868  0.8403
  688MPD2    N110183   4.702   3.593  17.194  0.0371  0.0622  0.7528
  688MPD2    H710184   0.000   3.497  17.216  0.2527 -0.5066 -1.9690
  689TMC3    C110185   4.624   3.608  17.414  0.9609  0.1333  0.7830
  689TMC3    C210186   4.634   3.681  17.524  0.3267  0.1883 -0.3079
  689TMC3    C310187   4.584   3.629  17.645 -0.2256  0.1874  0.3766
  689TMC3    C410188   4.551   3.488  17.407 -0.5148  0.0046 -0.5214
  689TMC3    C510189   4.511   3.439  17.527  0.5487  0.4922 -0.5187
  689TMC3    C610190   4.536   3.499  17.650 -0.1639 -1.4283  0.1109
  689TMC3     C10191   4.654   3.674  17.289  0.0537  0.2186 -0.3875
  689TMC3     O10192   4.618   3.786  17.282  0.0603 -0.8809 -0.3417
  689TMC3     H10193   4.666   3.785  17.524 -1.3923  0.7217  1.0609
  689TMC3    H110194   4.527   3.438  17.313  3.3299 -2.5736 -0.1299
  689TMC3    H210195   4.506   3.455   0.045 -0.8911  1.6615  1.3015
  689TMC3    C710196   4.471   3.299  17.535 -1.1052  0.2313  0.9616
  689TMC3    C810197   4.539   3.720   0.053 -0.1384  0.0868  0.2122
  689TMC3    O110198   4.500   3.237  17.640  0.2355 -0.0238  0.2529
  689TMC3    O210199   4.472   3.673   0.142  0.9940  0.1566 -0.0700
  690MPD2     C10200   2.348   0.776  15.778 -0.3700 -0.5166  0.3274
  690MPD2    C110201   2.363   0.726  15.652 -0.8310  0.1571 -0.1752
  690MPD2    C210202   2.463   0.775  15.577 -0.4382  0.4108 -0.5459
  690MPD2    C310203   2.553   0.866  15.623 -0.3244 -0.9459  0.4343
  690MPD2    C410204   2.556   0.899  15.753 -0.0201 -0.9742 -0.5572
  690MPD2    C510205   2.443   0.863  15.825 -0.1816  0.3572  0.3018
  690MPD2     H10206   2.467   0.756  15.470  2.8942  1.1028 -0.5372
  690MPD2    H110207   2.640   0.960  15.784 -1.7584 -0.4673  3.2410
  690MPD2    H210208   2.264   0.748  15.840 -1.2403 -1.8050 -1.4683
  690MPD2    H310209   2.446   0.885  15.931 -1.5018 -0.0171  0.4138
  690MPD2     N10210   2.644   0.918  15.528  0.4949  0.3992  0.4854
  690MPD2    H510211   2.626   0.885  15.434  3.7187 -2.2413  0.7776
  690MPD2    N110212   2.262   0.640  15.594 -0.7801 -0.0037 -0.2937
  690MPD2    H710213   2.278   0.602  15.500 -1.3074 -0.8145 -0.0606
  691TMC3    C110214   2.041   0.554  15.548 -0.9569  0.3300  0.0976
  691TMC3    C210215   1.906   0.576  15.553  0.3300 -0.2194 -0.8142
  691TMC3    C310216   1.824   0.472  15.513  0.4611  0.4877  0.2727
  691TMC3    C410217   2.089   0.432  15.503 -0.0450  0.2472  0.3767
  691TMC3    C510218   2.006   0.329  15.466  0.5370 -0.3080 -0.1329
  691TMC3    C610219   1.869   0.348  15.465  0.4506 -0.1079 -0.5152
  691TMC3     C10220   2.129   0.621  15.645  0.4031 -0.2288  0.5552
  691TMC3     O10221   2.076   0.669  15.744 -0.3988  0.0200 -0.1741
  691TMC3     H10222   1.876   0.671  15.594  0.7096  0.1609 -1.4213
  691TMC3    H110223   2.195   0.414  15.491 -0.1333  0.7131 -1.1254
  691TMC3    H210224   1.798   0.269  15.440  0.9576 -1.4788  2.3677
  691TMC3    C710225   2.058   0.201  15.419  0.3845  0.9544  0.1499
  691TMC3    C810226   1.688   0.490  15.493  0.2935  0.7389 -0.1212
  691TMC3    O110227   2.170   0.205  15.372  0.4281 -0.0206  0.0563
  691TMC3    O210228   1.622   0.398  15.461  0.3785 -0.5383 -0.3684
  692TMC3    C110229   3.454   1.741  15.431 -0.2674 -0.3546  0.6381
  692TMC3    C210230   3.576   1.772  15.487 -0.1245  0.1902  0.7032
  692TMC3    C310231   3.679   1.685  15.467 -0.2858 -0.8585  0.5285
  692TMC3    C410232   3.427   1.622  15.377 -0.0115 -0.1661 -0.1432
  692TMC3    C510233   3.526   1.527  15.381  0.2333  0.1290  0.2045
  692TMC3    C610234   3.649   1.559  15.428  0.0502  1.0958 -0.0609
  692TMC3     C10235   3.349   1.842  15.429  0.1074  0.4156 -0.0833
  692TMC3     O10236   3.229   1.813  15.433 -0.8765 -0.2146  0.1648
  692TMC3     H10237   3.600   1.873  15.516  2.9579 -0.5491  0.8132
  692TMC3    H110238   3.335   1.591  15.329  0.0659 -0.1643 -0.2916
  692TMC3    H210239   3.726   1.484  15.417 -1.6008 -0.9749  2.4155
  692TMC3    C710240   3.500   1.389  15.344  0.4178 -0.6916  0.3440
  692TMC3    C810241   3.791   1.671  15.568 -0.2676 -0.1860  0.1294
  692TMC3    O110242   3.410   1.369  15.263 -0.2952  0.0155  0.3515
  692TMC3    O210243   3.892   1.608  15.534 -0.5590 -0.1634  0.2267
  693MPD2     C10244   2.946   4.511  11.360  0.3312  0.7925  0.0307
  693MPD2    C110245   2.933   4.474  11.227 -0.3049  0.8385 -0.4298
  693MPD2    C210246   3.028   4.379  11.182 -0.4036  0.4794 -0.2019
  693MPD2    C310247   3.130   4.323  11.266  0.0447 -0.0699  0.6382
  693MPD2    C410248   3.128   4.364  11.397  0.0998  0.3548 -0.3483
  693MPD2    C510249   3.039   4.458  11.441  0.2434  0.1661  0.3488
  693MPD2     H10250   3.033   4.350  11.078 -1.4283 -1.6723  0.3304
  693MPD2    H110251   3.199   4.330  11.471  0.5967 -0.7849 -1.3470
  693MPD2    H210252   2.899   4.604  11.390  2.3808  1.7869  0.1546
  693MPD2    H310253   3.029   4.504  11.539 -0.0765 -0.8272  0.7853
  693MPD2     N10254   3.248   4.259  11.224  0.0233  0.1179 -0.5622
  693MPD2    H510255   3.313   4.235  11.299  1.8122  0.2897 -2.0595
  693MPD2    N110256   2.835   4.532  11.147  0.0736  0.6050 -0.2111
  693MPD2    H710257   2.779   4.608  11.184  1.0193  1.9704 -1.5836
  694TMC3    C110258   2.672   4.557  10.984 -0.0578  0.0305 -0.2186
  694TMC3    C210259   2.647   4.567  10.851 -0.0838  0.4117 -0.0598
  694TMC3    C310260   2.517   4.572  10.810 -0.0849  0.0329 -0.1147
  694TMC3    C410261   2.566   4.551  11.072  0.3467 -0.1849 -0.2437
  694TMC3    C510262   2.439   4.570  11.033  0.1929 -0.2247  0.2554
  694TMC3    C610263   2.412   4.575  10.901  0.5459 -0.5857 -0.3264
  694TMC3     C10264   2.805   4.504  11.019 -0.3452  0.0879 -0.3321
  694TMC3     O10265   2.882   4.452  10.941 -0.2400  0.3099  0.0165
  694TMC3     H10266   2.728   4.566  10.780 -0.0563 -0.3374 -0.0114
  694TMC3    H110267   2.592   4.527  11.174 -1.2474 -0.0506  0.2003
  694TMC3    H210268   2.309   4.573  10.868  0.5202 -2.0541 -0.1672
  694TMC3    C710269   2.333   4.526  11.114  0.8824  0.3767  0.8518
  694TMC3    C810270   2.480   4.505  10.684 -0.3696 -0.2372 -0.1439
  694TMC3    O110271   2.226   4.583  11.107 -0.0653  0.2629 -0.7408
  694TMC3    O210272   2.384   4.430  10.695 -0.2643  0.6529 -0.3807
  695MPD2     C10273   4.216   1.301  13.360  0.1570 -0.4717  0.5573
  695MPD2    C110274   4.227   1.372  13.483  0.1614 -0.4914 -0.1308
  695MPD2    C210275   4.108   1.402  13.551  0.3672 -0.8742 -0.6132
  695MPD2    C310276   3.980   1.384  13.495 -0.0848  0.7009  0.3429
  695MPD2    C410277   3.975   1.334  13.366 -0.6176 -0.6575 -0.0296
  695MPD2    C510278   4.092   1.299  13.301  0.3864 -0.2459 -0.9145
  695MPD2     H10279   4.114   1.443  13.651 -3.8392  0.4262 -0.8754
  695MPD2    H110280   3.883   1.327  13.310 -1.0206 -1.3014  0.6985
  695MPD2    H210281   4.303   1.265  13.308 -1.1824  0.7808 -2.5000
  695MPD2    H310282   4.089   1.263  13.199  0.4096 -1.9490 -0.3131
  695MPD2     N10283   3.867   1.411  13.575  0.1397  0.5380 -0.0604
  695MPD2    H510284   3.880   1.451  13.667  2.7083  1.2008 -0.7271
  695MPD2    N110285   4.347   1.403  13.547  0.3716  0.9500 -0.0818
  695MPD2    H710286   4.339   1.452  13.635  0.9426 -0.6271  0.8300
  696TMC3    C110287   3.648   1.441  13.636  0.3478  0.0416 -0.2441
  696TMC3    C210288   3.679   1.393  13.764  0.7952  0.1103  0.0848
  696TMC3    C310289   3.603   1.451  13.873  0.7273  0.0178 -0.2818
  696TMC3    C410290   3.548   1.534  13.621  0.0667 -0.9935 -0.2925
  696TMC3    C510291   3.479   1.580  13.731  0.1720 -0.1639 -0.2576
  696TMC3    C610292   3.496   1.534  13.848 -0.6062  0.0811 -0.3149
  696TMC3     C10293   3.740   1.416  13.526  0.5898  0.2012  0.4259
  696TMC3     O10294   3.688   1.404  13.413 -0.2445 -0.5464 -0.1063
  696TMC3     H10295   3.767   1.333  13.784  0.2267 -1.3944 -1.8956
  696TMC3    H110296   3.515   1.577  13.528 -1.9543  0.2953  1.0265
  696TMC3    H210297   3.436   1.582  13.924 -2.6044  0.3798 -2.0906
  696TMC3    C710298   3.449   1.724  13.733  0.4236  0.1897 -0.2932
  696TMC3    C810299   3.668   1.465  14.007 -0.5290 -0.2191  0.4856
  696TMC3    O110300   3.393   1.770  13.831  0.1250 -0.3017  0.2070
  696TMC3    O210301   3.620   1.550  14.080 -0.0043 -0.5713 -0.3715
  697MPD2     C10302   3.418   3.040  15.302  0.0214  0.7166 -0.4881
  697MPD2    C110303   3.367   3.016  15.173  0.0055  0.3609  0.1174
  697MPD2    C210304   3.383   3.119  15.076  0.4093  0.7559  0.7404
  697MPD2    C310305   3.443   3.236  15.115 -0.0372 -0.5920  0.1691
  697MPD2    C410306   3.477   3.263  15.244 -0.3406  0.0720 -0.7709
  697MPD2    C510307   3.458   3.167  15.339 -0.0790 -0.2531  0.1744
  697MPD2     H10308   3.356   3.092  14.975 -0.7364  0.3185  1.1580
  697MPD2    H110309   3.508   3.359  15.282 -1.4320  0.7704 -1.6719
  697MPD2    H210310   3.400   2.965  15.378  1.3702  1.5794  0.6865
  697MPD2    H310311   3.482   3.190  15.442  1.4224  0.0266 -0.2272
  697MPD2     N10312   3.475   3.333  15.018  0.2863  0.0305 -0.4342
  697MPD2    H510313   3.448   3.322  14.920  1.7481  0.8706 -0.9308
  697MPD2    N110314   3.310   2.894  15.135 -0.2006  0.3828  0.1438
  697MPD2    H710315   3.274   2.890  15.040  1.1545  2.7640 -0.4558
  698TMC3    C110316   3.562   3.539  14.926  0.8758  0.1484  0.4882
  698TMC3    C210317   3.629   3.656  14.961 -0.3441  0.4933  0.2715
  698TMC3    C310318   3.650   3.752  14.866 -0.0432  0.1058 -0.0039
  698TMC3    C410319   3.521   3.512  14.804  0.2306  0.1959 -0.4468
  698TMC3    C510320   3.550   3.604  14.712  0.5461  0.4566  0.4262
  698TMC3    C610321   3.615   3.725  14.735 -0.5396  0.4479  0.3547
  698TMC3     C10322   3.558   3.441  15.031  0.0655  0.2716  0.2657
  698TMC3     O10323   3.633   3.455  15.128 -0.1535  0.0573  0.6953
  698TMC3     H10324   3.655   3.679  15.064 -0.7895  1.9419  0.0676
  698TMC3    H110325   3.475   3.419  14.771 -2.7725  1.0905  1.1372
  698TMC3    H210326   3.616   3.808  14.665 -2.1250  0.0307 -0.1759
  698TMC3    C710327   3.486   3.583  14.584 -0.2874  0.0982 -0.3657
  698TMC3    C810328   3.737   3.855  14.908 -0.1907  0.9547 -0.2533
  698TMC3    O110329   3.400   3.497  14.582 -0.4207  0.0400  0.1515
  698TMC3    O210330   3.747   3.863  15.027 -0.2171 -0.4770  0.0517
  699TMC3    C110331   3.545   1.250  13.051  0.2389  0.1993 -0.2092
  699TMC3    C210332   3.565   1.129  13.117 -0.1015  0.3228  0.4863
  699TMC3    C310333   3.516   1.118  13.249 -0.1129  0.1614  0.0093
  699TMC3    C410334   3.483   1.360  13.103 -0.3325 -1.0460  0.2588
  699TMC3    C510335   3.424   1.342  13.230  0.8046 -0.4283  0.2568
  699TMC3    C610336   3.447   1.224  13.304  0.9237 -0.1803 -0.3966
  699TMC3     C10337   3.596   1.274  12.914 -0.2521 -0.3478  0.3613
  699TMC3     O10338   3.613   1.393  12.883 -0.4683  0.2875 -0.6729
  699TMC3     H10339   3.624   1.049  13.074  1.9588  2.3864 -0.4712
  699TMC3    H110340   3.449   1.434  13.031  2.7263 -0.1098 -0.2435
  699TMC3    H210341   3.404   1.214  13.403  1.0427 -3.8236 -0.7045
  699TMC3    C710342   3.359   1.455  13.289  0.3349 -0.3463  0.6977
  699TMC3    C810343   3.481   0.983  13.301 -0.2380 -0.0249  0.1975
  699TMC3    O110344   3.303   1.431  13.397  0.0876  0.1958  0.1155
  699TMC3    O210345   3.434   0.985  13.416 -0.6068 -0.2722  0.2545
  700TMC3    C110346   2.578   4.079  17.269  0.1628  0.3076  0.0533
  700TMC3    C210347   2.636   3.960  17.312 -0.2095 -0.9714 -0.2836
  700TMC3    C310348   2.733   3.976  17.400  0.0540 -0.4601 -0.3505
  700TMC3    C410349   2.599   4.205  17.330 -1.6627 -0.3058 -0.3714
  700TMC3    C510350   2.694   4.207  17.432  0.0321 -0.4295  0.6935
  700TMC3    C610351   2.759   4.091  17.472 -0.5461  0.1024  0.6519
  700TMC3     C10352   2.517   4.078  17.133 -0.5224 -0.7588 -0.6635
  700TMC3     O10353   2.451   3.973  17.107  0.6685  0.2991  0.4093
  700TMC3     H10354   2.626   3.866  17.260  0.4469 -1.4712  0.4984
  700TMC3    H110355   2.546   4.294  17.297 -1.5161 -0.1032 -0.0576
  700TMC3    H210356   2.842   4.097  17.541  1.2384 -0.7611 -1.4389
  700TMC3    C710357   2.715   4.333  17.509 -0.6562 -0.6412  0.1209
  700TMC3    C810358   2.839   3.886  17.398 -0.0882  0.5521  0.7385
  700TMC3    O110359   2.765   4.325  17.619 -0.0780 -0.7904  0.0236
  700TMC3    O210360   2.945   3.926  17.354  0.5115 -0.3023  0.2411
  701TMC3    C110361   2.416   2.520  15.188  0.6857 -0.3678  0.6983
  701TMC3    C210362   2.445   2.427  15.095 -0.3273  0.0085  0.0718
  701TMC3    C310363   2.568   2.415  15.043  0.0961 -0.2352 -0.2976
  701TMC3    C410364   2.517   2.606  15.226  0.1017  0.1966 -0.0530
  701TMC3    C510365   2.641   2.595  15.164 -0.2798  0.1837  0.1920
  701TMC3    C610366   2.669   2.501  15.068  0.2360  0.3753  0.5343
  701TMC3     C10367   2.283   2.583  15.189  0.0507  0.5396  0.3071
  701TMC3     O10368   2.256   2.653  15.284 -0.4370 -0.1366  0.1319
  701TMC3     H10369   2.362   2.360  15.073 -1.2769  1.0744  0.3760
  701TMC3    H110370   2.499   2.697  15.282  0.3705  0.7532 -0.8838
  701TMC3    H210371   2.757   2.504  15.005 -1.4787  0.4521 -1.8458
  701TMC3    C710372   2.742   2.699  15.177  0.2211  0.6298  0.2488
  701TMC3    C810373   2.601   2.311  14.942  0.5127  0.2851  0.3153
  701TMC3    O110374   2.815   2.718  15.081  0.1590 -0.0660 -0.1562
  701TMC3    O210375   2.710   2.328  14.883  0.4255 -0.2125  0.2661
  702MPD2     C10376   2.195   0.252  10.478  1.0490  0.1157 -0.4073
  702MPD2    C110377   2.075   0.281  10.418  0.1070  0.6668  0.3716
  702MPD2    C210378   2.059   0.235  10.287  0.3682 -0.4415 -0.0670
  702MPD2    C310379   2.161   0.182  10.214 -1.3683 -0.5913  0.0070
  702MPD2    C410380   2.285   0.176  10.274 -0.8590  0.4664 -0.7931
  702MPD2    C510381   2.301   0.207  10.399 -0.1644  0.8573  0.6556
  702MPD2     H10382   1.958   0.246  10.248 -0.3063 -0.0620  1.7924
  702MPD2    H110383   2.366   0.127  10.222  0.4568  3.3012 -1.4190
  702MPD2    H210384   2.221   0.270  10.582  0.4730 -0.1814 -0.2150
  702MPD2    H310385   2.385   0.174  10.459 -0.3336 -0.4906  0.1331
  702MPD2     N10386   2.143   0.145  10.079  0.5044  0.1464 -0.1637
  702MPD2    H510387   2.228   0.134  10.025 -0.2110 -0.6260 -1.1545
  702MPD2    N110388   1.967   0.317  10.496  0.3602  0.0379 -0.7292
  702MPD2    H710389   1.877   0.332  10.450  1.2403  1.5937 -1.9537
  703TMC3    C110390   2.023   0.233   9.886  0.1923  1.0357 -0.1443
  703TMC3    C210391   1.902   0.273   9.843  0.0017  0.0960 -0.0168
  703TMC3    C310392   1.863   0.403   9.849 -0.3748 -0.3647 -0.1629
  703TMC3    C410393   2.115   0.332   9.883 -0.2770 -0.0332 -0.1085
  703TMC3    C510394   2.086   0.463   9.858  0.0330  0.1172  0.2121
  703TMC3    C610395   1.956   0.500   9.858  0.2408 -0.5095 -1.1742
  703TMC3     C10396   2.021   0.150  10.010  0.3069  0.6031 -0.0119
  703TMC3     O10397   1.919   0.118  10.072  0.3255  0.1871  0.0081
  703TMC3     H10398   1.830   0.195   9.820  0.1117 -0.8058  2.6061
  703TMC3    H110399   2.215   0.296   9.906  0.3480  0.4180 -2.1624
  703TMC3    H210400   1.932   0.605   9.853 -1.7894 -0.7852  2.4834
  703TMC3    C710401   2.192   0.564   9.852  0.7448 -0.4938  0.1382
  703TMC3    C810402   1.740   0.422   9.935 -0.0920 -0.0942 -0.3903
  703TMC3    O110403   2.174   0.686   9.859 -0.3363 -0.1566  0.2344
  703TMC3    O210404   1.742   0.511  10.020 -0.2376  0.8875 -0.1720
  704TMC3    C110405   4.085   2.930  12.737 -0.5355  0.5485  0.1346
  704TMC3    C210406   4.206   2.984  12.769  0.7442 -0.0537  0.8285
  704TMC3    C310407   4.300   2.903  12.835 -0.0815 -0.2766  0.5987
  704TMC3    C410408   4.048   2.811  12.767  0.3388  0.3814 -0.5870
  704TMC3    C510409   4.134   2.729  12.838  0.6861 -0.1786  0.2861
  704TMC3    C610410   4.259   2.775  12.867  0.1938  0.2960 -0.6515
  704TMC3     C10411   4.032   2.983  12.619  0.3784  0.7528  0.7215
  704TMC3     O10412   3.916   2.950  12.593  0.6336  0.0513 -0.0721
  704TMC3     H10413   4.230   3.090  12.762 -1.3579  0.2261 -2.2899
  704TMC3    H110414   3.956   2.768  12.728  0.3061 -1.2004  1.2379
  704TMC3    H210415   4.328   2.711  12.921  0.0374  0.9651  0.3603
  704TMC3    C710416   4.116   2.587  12.816  0.1700 -0.1430 -0.4220
  704TMC3    C810417   4.416   2.902  12.747 -0.8707  0.9422 -0.4036
  704TMC3    O110418   4.212   2.526  12.774 -0.4168  1.0790 -0.3526
  704TMC3    O210419   4.395   2.973  12.647 -0.2156  0.5216 -0.1143
  705MPD2     C10420   4.327   1.393  16.733 -0.3965 -0.3930 -0.5661
  705MPD2    C110421   4.279   1.507  16.677 -0.3993  0.2036  0.0973
  705MPD2    C210422   4.196   1.591  16.749  0.8025 -0.1899 -0.0098
  705MPD2    C310423   4.173   1.571  16.882  0.6080 -0.2232  0.0816
  705MPD2    C410424   4.230   1.456  16.937  0.5504  0.1930  0.3552
  705MPD2    C510425   4.291   1.364  16.863  0.2771 -0.0780 -0.7136
  705MPD2     H10426   4.159   1.679  16.696 -0.7253 -1.5870 -1.2592
  705MPD2    H110427   4.229   1.444  17.045  1.4485 -0.2488  0.3195
  705MPD2    H210428   4.388   1.319  16.681  0.9641  0.9556 -0.9009
  705MPD2    H310429   4.336   1.283  16.918 -0.0377 -1.0466 -1.8919
  705MPD2     N10430   4.088   1.650  16.970 -0.1404 -0.3541  0.0020
  705MPD2    H510431   4.089   1.617  17.065  0.9755 -0.4618 -0.0480
  705MPD2    N110432   4.307   1.542  16.544 -0.2769 -0.0230 -0.1060
  705MPD2    H710433   4.275   1.633  16.512  1.1676  0.4683 -0.1518
  706TMC3    C110434   4.555   1.519  16.143 -0.0716 -0.4459 -0.0476
  706TMC3    C210435   4.538   1.651  16.113  0.3615  0.0712  0.1642
  706TMC3    C310436   4.438   1.714  16.191  0.4734  0.3595  0.3959
  706TMC3    C410437   4.496   1.454  16.250  0.5385  0.4063 -0.2370
  706TMC3    C510438   4.410   1.525  16.329 -0.7557 -0.1661  0.4047
  706TMC3    C610439   4.378   1.650  16.294  0.3840 -0.2058  0.6688
  706TMC3     C10440   4.673   1.452  16.096  0.1792 -0.0475  0.0139
  706TMC3     O10441   0.011   1.383  16.181 -0.5044 -0.1676  0.6701
  706TMC3     H10442   4.573   1.695  16.020 -0.7638  0.2171 -0.1915
  706TMC3    H110443   4.530   1.353  16.272  1.0279  0.5541 -0.3154
  706TMC3    H210444   4.322   1.709  16.365 -0.5847 -2.7519  2.0388
  706TMC3    C710445   4.366   1.462  16.448  0.4502  0.0969 -0.4270
  706TMC3    C810446   4.381   1.835  16.120  0.2434 -0.0404 -0.1363
  706TMC3    O110447   4.420   1.354  16.472 -0.0144 -0.3119  0.3579
  706TMC3    O210448   4.457   1.898  16.048  0.0047  0.0822 -0.2703
  707TMC3    C110449   1.342   0.612   2.019  0.1666  0.3322 -0.3423
  707TMC3    C210450   1.415   0.500   1.989  0.7672 -0.0027 -0.7021
  707TMC3    C310451   1.390   0.387   2.062  0.8101 -0.9701  0.1159
  707TMC3    C410452   1.239   0.619   2.107 -0.0257  0.0683 -0.3501
  707TMC3    C510453   1.209   0.500   2.165  1.0351 -0.8709  0.6336
  707TMC3    C610454   1.287   0.382   2.150 -0.2147  0.1320  0.5408
  707TMC3     C10455   1.372   0.725   1.939  0.3172 -0.1710 -0.0390
  707TMC3     O10456   1.438   0.693   1.843 -0.5028 -0.2559 -0.3015
  707TMC3     H10457   1.488   0.495   1.910  0.1147 -1.4659 -1.2098
  707TMC3    H110458   1.174   0.705   2.115 -1.9806 -1.3264 -1.3522
  707TMC3    H210459   1.269   0.293   2.210  0.1751  1.0107  1.9547
  707TMC3    C710460   1.083   0.481   2.225 -0.0666 -0.9263 -0.1288
  707TMC3    C810461   1.446   0.253   2.012 -0.3263  0.2905 -0.2086
  707TMC3    O110462   1.075   0.411   2.324  0.5161  0.6549 -0.0069
  707TMC3    O210463   1.397   0.156   2.071  0.0905 -0.1265 -0.5485
  708MPD2     C10464   2.121   3.849  13.724 -0.3211 -0.6054 -0.1379
  708MPD2    C110465   2.049   3.928  13.815 -0.3900  0.0053  0.8470
  708MPD2    C210466   1.999   3.859  13.927  0.2657 -0.5645 -0.0858
  708MPD2    C310467   2.017   3.725  13.944 -0.7515  0.3826 -0.4485
  708MPD2    C410468   2.083   3.654  13.846 -0.1352  0.0662 -0.3462
  708MPD2    C510469   2.132   3.713  13.734 -0.0275 -0.7066 -0.3902
  708MPD2     H10470   1.943   3.918  13.998 -1.8348 -0.3598 -1.8965
  708MPD2    H110471   2.095   3.547  13.860  0.9659  0.2474  0.1400
  708MPD2    H210472   2.158   3.892  13.632  2.2703  1.1899  1.7216
  708MPD2    H310473   2.180   3.653  13.657 -0.4356 -0.2112 -1.0393
  708MPD2     N10474   1.966   3.677  14.066  0.2248  0.4937  0.3771
  708MPD2    H510475   1.913   3.746  14.120  1.9696  0.4530  2.1308
  708MPD2    N110476   2.042   4.069  13.794 -0.5484  0.7040 -0.3431
  708MPD2    H710477   2.074   4.102  13.703 -1.2540  1.4796 -0.3130
  709TMC3    C110478   1.990   4.296  13.850  0.7552  0.0679 -0.5386
  709TMC3    C210479   1.920   4.332  13.743 -0.0718 -0.2218 -0.2757
  709TMC3    C310480   1.856   4.449  13.757  0.5894  0.2516 -0.6390
  709TMC3    C410481   2.021   4.376  13.959 -0.0237 -0.4353 -0.4452
  709TMC3    C510482   1.940   4.482  13.977 -0.2868  0.4350 -0.0516
  709TMC3    C610483   1.862   4.525  13.868  0.3498 -0.4909 -0.3798
  709TMC3     C10484   1.987   4.156  13.884 -0.0570  0.1278 -1.0995
  709TMC3     O10485   1.965   4.139  14.006  0.4784 -0.2487 -0.2049
  709TMC3     H10486   1.903   4.267  13.658 -2.3678 -0.3466  0.2784
  709TMC3    H110487   2.068   4.333  14.046  0.9375  0.9613 -0.2727
  709TMC3    H210488   1.792   4.607  13.879  1.0856  0.2178 -0.9032
  709TMC3    C710489   1.858   4.480  14.091  0.3492  0.2123  0.5888
  709TMC3    C810490   1.763   4.490  13.656  0.5106  0.1866 -0.4322
  709TMC3    O110491   1.804   4.578  14.134 -0.0895  0.4179 -0.4380
  709TMC3    O210492   1.665   4.552  13.692  0.9247 -0.3980  0.1687
  710TMC3    C110493   3.822   1.640   0.666 -0.5882  0.1715 -0.2713
  710TMC3    C210494   3.886   1.612   0.554  0.4645  0.2125  0.2778
  710TMC3    C310495   3.978   1.514   0.564  0.3086  0.6630  0.7694
  710TMC3    C410496   3.851   1.583   0.785 -0.5300 -0.3360 -0.4286
  710TMC3    C510497   3.957   1.498   0.797  0.2064 -0.0761  0.9291
  710TMC3    C610498   4.010   1.447   0.684 -0.0479  0.3267 -0.1411
  710TMC3     C10499   3.702   1.722   0.653  0.4027  0.7515  0.0988
  710TMC3     O10500   3.662   1.754   0.537 -0.2853 -0.0909  0.4361
  710TMC3     H10501   3.858   1.658   0.460  0.6084 -0.1092  0.0761
  710TMC3    H110502   3.800   1.616   0.875  0.5846  1.0399 -0.3087
  710TMC3    H210503   4.064   1.353   0.682  1.8126  1.3591  1.9871
  710TMC3    C710504   3.949   1.403   0.910 -0.7523 -0.1590 -0.2714
  710TMC3    C810505   4.053   1.477   0.444 -0.3019 -0.3578  0.4619
  710TMC3    O110506   3.847   1.414   0.981 -0.0533 -0.2155 -0.0887
  710TMC3    O210507   4.008   1.515   0.334  0.3497  0.2965 -0.1729
  711TMC3    C110508   3.312   2.009  14.742  0.0779 -0.4343 -0.1124
  711TMC3    C210509   3.309   2.128  14.814  0.8085 -0.6086  0.8253
  711TMC3    C310510   3.358   2.122  14.942 -0.6871  0.4816  0.4647
  711TMC3    C410511   3.364   1.892  14.798 -0.0413  0.1455 -0.6830
  711TMC3    C510512   3.407   1.894  14.929  0.0444  0.2480  0.4770
  711TMC3    C610513   3.401   2.009  15.007 -0.3643  0.0850 -0.2780
  711TMC3     C10514   3.218   1.980  14.639 -0.9147 -0.0213 -0.2913
  711TMC3     O10515   3.227   1.873  14.586 -0.7385 -0.0174  0.1786
  711TMC3     H10516   3.267   2.220  14.776 -0.8396 -1.8185 -0.3498
  711TMC3    H110517   3.376   1.804  14.736 -0.4846  0.0389 -0.6243
  711TMC3    H210518   3.417   2.009  15.114  1.2030  0.0646 -0.5178
  711TMC3    C710519   3.438   1.758  14.983 -0.0327 -0.1002 -0.6885
  711TMC3    C810520   3.380   2.247  14.997  0.0763  0.3628  0.7201
  711TMC3    O110521   3.501   1.764  15.086 -0.3575 -0.2576  0.0138
  711TMC3    O210522   3.320   2.342  14.948  0.1879  0.0179  0.1877
  712MPD2     C10523   4.337   2.919  13.595 -0.4402 -0.1063 -0.4474
  712MPD2    C110524   4.212   2.960  13.559 -0.4570 -0.0599 -0.0308
  712MPD2    C210525   4.187   3.090  13.575 -0.4786 -0.1957 -0.1045
  712MPD2    C310526   4.282   3.182  13.612  0.1875  0.1935 -0.0616
  712MPD2    C410527   4.404   3.136  13.650  0.1270  0.2773  0.4960
  712MPD2    C510528   4.438   3.002  13.642 -0.1622  0.0971 -0.3842
  712MPD2     H10529   4.088   3.132  13.559 -0.2750  0.7954  1.1834
  712MPD2    H110530   4.486   3.204  13.669  0.7559 -1.1395  2.8069
  712MPD2    H210531   4.357   2.812  13.601  1.3685  0.1453 -2.1771
  712MPD2    H310532   4.537   2.967  13.671  0.1700 -0.1845 -1.8295
  712MPD2     N10533   4.266   3.330  13.616  0.3756 -0.5890  0.2521
  712MPD2    H510534   4.347   3.384  13.645 -0.1315 -0.4366  1.3972
  712MPD2    N110535   4.104   2.878  13.514 -0.3992 -0.2129 -0.3133
  712MPD2    H710536   4.015   2.926  13.502 -0.4649  0.1322  1.5595
  713TMC3    C110537   4.171   3.543  13.563 -0.2941  0.9221 -0.1466
  713TMC3    C210538   4.301   3.601  13.581  0.1256 -0.1247 -0.3039
  713TMC3    C310539   4.323   3.728  13.537  0.3071 -0.0006 -0.0899
  713TMC3    C410540   4.063   3.622  13.516 -0.4387 -0.9672 -0.5372
  713TMC3    C510541   4.104   3.743  13.459 -0.2048 -0.1262 -0.0607
  713TMC3    C610542   4.228   3.797  13.466  0.2073 -0.3651  0.7499
  713TMC3     C10543   4.147   3.401  13.585  0.3920 -0.3733 -0.6003
  713TMC3     O10544   4.037   3.353  13.563 -0.4737 -0.2094  0.2776
  713TMC3     H10545   4.383   3.543  13.621 -1.3602 -0.1569  2.6840
  713TMC3    H110546   3.968   3.571  13.503 -1.1537  0.4833 -0.9753
  713TMC3    H210547   4.254   3.880  13.401 -0.0267 -0.1701  0.9061
  713TMC3    C710548   4.003   3.833  13.411  0.1175  0.6130  0.2608
  713TMC3    C810549   4.455   3.776  13.523 -0.0571  0.1378  0.6124
  713TMC3    O110550   3.901   3.782  13.368 -0.0407 -0.1712 -0.6636
  713TMC3    O210551   4.487   3.854  13.435  0.0699 -0.1318  0.3515
  714MPD2     C10552   2.436   2.432   1.288 -0.3751  0.2573  0.0083
  714MPD2    C110553   2.346   2.355   1.223  0.2863  0.4368  0.0592
  714MPD2    C210554   2.276   2.401   1.111 -0.0544  0.6039  0.1520
  714MPD2    C310555   2.301   2.528   1.063  0.3780 -0.0233 -0.5950
  714MPD2    C410556   2.391   2.609   1.136  0.0375  0.6438  0.4792
  714MPD2    C510557   2.453   2.564   1.254  0.4118  0.4398  0.2492
  714MPD2     H10558   2.223   2.327   1.051  1.0561 -0.9135  1.0590
  714MPD2    H110559   2.425   2.707   1.105  1.2516  0.7738  2.2478
  714MPD2    H210560   2.491   2.407   1.378  2.3193  1.2412 -1.3536
  714MPD2    H310561   2.518   2.638   1.299  0.6099 -0.3005  1.1821
  714MPD2     N10562   2.227   2.579   0.952 -0.8648  0.2344 -0.4037
  714MPD2    H510563   2.145   2.525   0.925 -1.0946 -0.7909  2.3186
  714MPD2    N110564   2.330   2.223   1.277  0.5401 -0.1741  0.1079
  714MPD2    H710565   2.392   2.201   1.354  0.4829 -1.2669 -0.1612
  715TMC3    C110566   2.250   2.012   1.320  0.9220  0.0945 -0.1304
  715TMC3    C210567   2.227   1.900   1.252 -0.8476 -0.4565  0.5189
  715TMC3    C310568   2.260   1.786   1.315  0.4395 -0.1925 -0.5143
  715TMC3    C410569   2.296   2.025   1.441  0.4433 -0.4082  0.3655
  715TMC3    C510570   2.331   1.906   1.500  0.4619 -0.3210  0.3105
  715TMC3    C610571   2.317   1.782   1.439  0.0462  0.1521  0.1283
  715TMC3     C10572   2.239   2.126   1.235 -0.5399  0.2941  0.7887
  715TMC3     O10573   2.150   2.141   1.156  0.4482  0.4426 -0.4929
  715TMC3     H10574   2.186   1.901   1.151 -0.1685 -0.3877  0.2451
  715TMC3    H110575   2.300   2.116   1.500 -2.2198 -0.7270  1.0472
  715TMC3    H210576   2.351   1.690   1.486  1.0083  0.7057  0.5245
  715TMC3    C710577   2.370   1.915   1.644  0.4394  0.6456  0.3597
  715TMC3    C810578   2.250   1.669   1.232 -0.1690 -0.0735  0.0414
  715TMC3    O110579   2.410   2.023   1.683 -0.1821 -0.0831 -0.9330
  715TMC3    O210580   2.214   1.675   1.115 -0.0190 -0.8962  0.1875
  716MPD2     C10581   2.619   0.189   9.211 -0.1431 -0.0949  0.3203
  716MPD2    C110582   2.489   0.161   9.190 -0.1277 -0.4753 -0.9011
  716MPD2    C210583   2.444   0.033   9.161 -0.2649  0.1194  0.4549
  716MPD2    C310584   2.535   4.650   9.145  0.2889  0.3208 -0.4827
  716MPD2    C410585   2.666   4.673   9.175 -0.0045 -0.2711 -0.2038
  716MPD2    C510586   2.702   0.078   9.205  0.6556  0.6719  0.2279
  716MPD2     H10587   2.341   0.012   9.136  0.2870 -0.6458 -1.1645
  716MPD2    H110588   2.739   4.593   9.162 -1.0146 -0.8306 -2.3786
  716MPD2    H210589   2.665   0.277   9.254 -0.4821  1.7157 -3.0534
  716MPD2    H310590   2.805   0.110   9.209  0.6397  0.5008  2.2132
  716MPD2     N10591   2.476   4.528   9.101 -0.1031  0.2196 -0.3429
  716MPD2    H510592   2.375   4.530   9.091 -0.0867  0.2687 -0.4984
  716MPD2    N110593   2.401   0.273   9.206  0.1233  0.4813  0.1108
  716MPD2    H710594   2.449   0.360   9.228  0.0159  0.8797 -1.1983
  717TMC3    C110595   2.454   4.310   9.018 -0.1359  0.1635  0.3210
  717TMC3    C210596   2.350   4.360   8.940  0.2897  0.7128 -0.1822
  717TMC3    C310597   2.265   4.273   8.873  0.0218  0.0684 -0.2204
  717TMC3    C410598   2.481   4.173   9.022  0.4116 -0.0852  0.0452
  717TMC3    C510599   2.388   4.091   8.953  0.1436  0.4608 -0.3419
  717TMC3    C610600   2.280   4.141   8.879 -0.0478  0.6665  0.1063
  717TMC3     C10601   2.543   4.408   9.074  0.1775 -0.2584 -0.1692
  717TMC3     O10602   2.653   4.375   9.109 -0.2607 -0.1470  0.0746
  717TMC3     H10603   2.341   4.468   8.931 -1.2663  0.6108  0.1675
  717TMC3    H110604   2.557   4.129   9.086 -0.8601 -0.4163  1.3456
  717TMC3    H210605   2.204   4.076   8.837 -0.3207  1.6436 -0.9181
  717TMC3    C710606   2.390   3.947   8.973  0.4176 -0.5972 -0.1556
  717TMC3    C810607   2.152   4.332   8.801 -0.2306  0.3270 -0.6036
  717TMC3    O110608   2.310   3.879   8.909 -0.4868 -0.0236 -0.5676
  717TMC3    O210609   2.137   4.450   8.833  0.0767 -0.4341 -0.1999
  718MPD2     C10610   1.101   3.755  12.903 -0.4202 -0.2938 -0.1425
  718MPD2    C110611   0.991   3.740  12.822 -0.4263  0.3818  0.1366
  718MPD2    C210612   0.878   3.686  12.873  0.5184 -0.8881  0.3242
  718MPD2    C310613   0.873   3.648  13.005 -0.7305  0.3715  0.6070
  718MPD2    C410614   0.984   3.658  13.081  0.0074  0.6766 -0.0432
  718MPD2    C510615   1.103   3.708  13.031 -0.5209  0.2787 -0.2513
  718MPD2     H10616   0.790   3.664  12.813 -0.2341 -0.2025  1.1708
  718MPD2    H110617   0.982   3.648  13.189  1.4129 -2.1287 -0.2798
  718MPD2    H210618   1.196   3.789  12.865  0.6466 -2.3577  0.6346
  718MPD2    H310619   1.189   3.717  13.096 -0.7126  2.3375 -0.2949
  718MPD2     N10620   0.749   3.590  13.045  0.2473  0.2021 -0.1491
  718MPD2    H510621   0.674   3.592  12.977  1.3144 -0.3346 -1.3546
  718MPD2    N110622   0.998   3.777  12.689  0.7303  0.4132 -0.1288
  718MPD2    H710623   1.086   3.800  12.643  1.0640  0.6807  0.6518
  719TMC3    C110624   0.926   3.749  12.467 -0.2256  0.0033  0.3416
  719TMC3    C210625   0.834   3.668  12.399  0.4019 -0.2048 -0.2232
  719TMC3    C310626   0.879   3.556  12.341  0.0937 -0.0348  0.4744
  719TMC3    C410627   1.061   3.743  12.436 -0.8009 -0.1937 -0.0555
  719TMC3    C510628   1.097   3.635  12.361  0.0827  0.3555 -0.4001
  719TMC3    C610629   1.013   3.537  12.324 -0.4078 -0.2365 -0.0939
  719TMC3     C10630   0.886   3.774  12.606  0.7313  0.6408  0.1519
  719TMC3     O10631   0.766   3.794  12.630 -0.0562 -0.1964  0.0533
  719TMC3     H10632   0.726   3.681  12.408  0.6966 -0.3854  3.4652
  719TMC3    H110633   1.139   3.809  12.471 -3.8623  1.3593  3.9236
  719TMC3    H210634   1.049   3.448  12.274  1.8230 -0.7661  2.4816
  719TMC3    C710635   1.234   3.623  12.309  0.5868  0.5469  0.1119
  719TMC3    C810636   0.805   3.440  12.390 -0.7517 -0.0575  0.1907
  719TMC3    O110637   1.259   3.525  12.245  0.5276 -0.4794 -0.0678
  719TMC3    O210638   0.867   3.352  12.450  0.4790  0.1500 -0.1577
  720MPD2     C10639   3.991   0.669  13.617  0.1424  0.2534  0.3894
  720MPD2    C110640   4.123   0.654  13.572 -0.0613  0.2568 -0.2467
  720MPD2    C210641   4.225   0.650  13.666 -0.7264 -0.8553  0.0809
  720MPD2    C310642   4.201   0.631  13.797 -0.6170 -0.1814 -0.3047
  720MPD2    C410643   4.072   0.642  13.843  0.5730  0.7938 -0.2421
  720MPD2    C510644   3.963   0.651  13.752  0.0006 -0.2007  0.2796
  720MPD2     H10645   4.329   0.654  13.633 -1.4528 -0.2725 -2.1809
  720MPD2    H110646   4.046   0.623  13.946  0.7063  0.9912 -0.1726
  720MPD2    H210647   3.905   0.686  13.554  0.6540 -0.7477 -0.5838
  720MPD2    H310648   3.860   0.652  13.787 -0.0577 -0.6330  0.1241
  720MPD2     N10649   4.315   0.609  13.883  0.0654 -0.0979  0.2146
  720MPD2    H510650   4.402   0.589  13.836 -0.3976 -0.8220 -0.3357
  720MPD2    N110651   4.152   0.655  13.433  0.5907  0.0269 -0.2554
  720MPD2    H710652   4.080   0.700  13.377 -1.6109 -2.5839  0.4893
  721TMC3    C110653   4.452   0.562  14.066  0.4253  0.3418 -1.2051
  721TMC3    C210654   4.483   0.597  14.196 -0.0041  0.5393  0.1139
  721TMC3    C310655   4.614   0.586  14.239  0.4417  0.1829  0.1854
  721TMC3    C410656   4.553   0.528  13.975 -0.4752 -0.2990 -0.3177
  721TMC3    C510657   4.675   0.508  14.035  0.2118  0.4011  0.7488
  721TMC3    C610658   4.710   0.532  14.164  0.2068  0.0091  0.0143
  721TMC3     C10659   4.319   0.600  14.020  0.1751 -0.4876  0.7274
  721TMC3     O10660   4.227   0.606  14.103  0.2035  0.0991 -0.0628
  721TMC3     H10661   4.412   0.649  14.260 -0.3189 -0.8166  0.8755
  721TMC3    H110662   4.533   0.522  13.868 -0.6535  0.4592 -0.3313
  721TMC3    H210663   0.088   0.530  14.198 -0.4479 -3.4568  1.7721
  721TMC3    C710664   0.052   0.435  13.960 -0.9169 -0.9255 -0.5323
  721TMC3    C810665   4.657   0.667  14.345  0.4172 -0.2220 -0.3966
  721TMC3    O110666   0.047   0.433  13.836  0.2684 -0.3143 -0.5872
  721TMC3    O210667   0.027   0.738  14.321  0.2686  0.0127 -0.1189
  722MPD2     C10668   3.270   3.803  12.655  0.1083  0.5159 -0.2175
  722MPD2    C110669   3.187   3.899  12.708 -0.5021  0.5580  0.1884
  722MPD2    C210670   3.066   3.923  12.640  0.4201  0.1980  0.3983
  722MPD2    C310671   3.048   3.850  12.529 -0.4480  0.1160  0.0028
  722MPD2    C410672   3.137   3.777  12.463 -0.3483 -0.6526 -0.3458
  722MPD2    C510673   3.255   3.760  12.525  0.1650 -0.3684  0.0717
  722MPD2     H10674   2.993   3.986  12.689 -1.0118  0.5780 -2.2643
  722MPD2    H110675   3.125   3.743  12.360  1.3096 -0.5728 -0.5634
  722MPD2    H210676   3.359   3.771  12.708  0.6325  2.9808  0.4041
  722MPD2    H310677   3.333   3.697  12.483  2.1588  2.0691  0.1599
  722MPD2     N10678   2.915   3.867  12.479 -0.5500  0.0858 -0.5466
  722MPD2    H510679   2.861   3.938  12.529  0.8648  2.4474 -2.3713
  722MPD2    N110680   3.225   3.983  12.813 -0.7423  0.0233 -0.1861
  722MPD2    H710681   3.164   4.062  12.834 -0.4883  0.0849  0.3186
  723TMC3    C110682   2.722   3.828  12.361  0.0442  0.2705  0.1307
  723TMC3    C210683   2.640   3.733  12.302  0.7304  0.2464 -0.8917
  723TMC3    C310684   2.521   3.774  12.247  0.1363 -0.3010 -0.2910
  723TMC3    C410685   2.683   3.960  12.368 -0.9504  0.3656  0.7429
  723TMC3    C510686   2.560   3.988  12.323 -0.6377 -0.3871  0.6907
  723TMC3    C610687   2.483   3.903  12.259 -0.2854  0.8623 -0.0502
  723TMC3     C10688   2.859   3.791  12.382 -0.0749 -0.1970 -0.0171
  723TMC3     O10689   2.901   3.683  12.339 -0.5270 -0.3432  0.6494
  723TMC3     H10690   2.674   3.630  12.301 -1.2760 -0.4116 -2.3939
  723TMC3    H110691   2.750   4.034  12.409 -0.8090  0.8303 -0.3327
  723TMC3    H210692   2.395   3.941  12.209 -0.8343 -1.1614 -0.6331
  723TMC3    C710693   2.504   4.117  12.357  0.0650 -0.3181  0.4364
  723TMC3    C810694   2.423   3.670  12.236  0.2838 -0.2160 -0.0329
  723TMC3    O110695   2.408   4.149  12.289  0.2153 -0.0567  0.1785
  723TMC3    O210696   2.347   3.691  12.144 -0.0623 -0.7467 -0.0567
  724TMC3    C110697   3.656   2.491   9.093  0.2812  0.3390 -0.5840
  724TMC3    C210698   3.615   2.594   9.010 -0.5079 -0.6675 -0.2030
  724TMC3    C310699   3.702   2.696   8.990  0.0557  0.0128 -0.2213
  724TMC3    C410700   3.775   2.496   9.160  0.3916  0.2969 -0.4121
  724TMC3    C510701   3.858   2.601   9.143  0.0725  0.4417 -0.1026
  724TMC3    C610702   3.825   2.704   9.052  0.2497  0.3295  0.5227
  724TMC3     C10703   3.542   2.436   9.167 -0.3418 -0.1884 -0.3187
  724TMC3     O10704   3.579   2.349   9.245 -0.4468 -0.2891 -0.7176
  724TMC3     H10705   3.532   2.579   8.942 -1.0909  0.1502  0.3272
  724TMC3    H110706   3.793   2.426   9.241 -3.0845  1.5794  1.4558
  724TMC3    H210707   3.894   2.783   9.025  1.9531 -2.5111 -3.5389
  724TMC3    C710708   3.960   2.600   9.242 -0.2940 -0.6588  0.4848
  724TMC3    C810709   3.645   2.791   8.894  0.2407  0.1487  0.3709
  724TMC3    O110710   4.003   2.488   9.278  0.4699 -0.4511  0.3280
  724TMC3    O210711   3.568   2.749   8.808  0.2245 -0.0029  0.0777
  725TMC3    C110712   0.224   0.730  12.135 -0.3052 -0.0506 -0.6018
  725TMC3    C210713   0.114   0.801  12.087 -0.7354  1.0694 -0.5198
  725TMC3    C310714   0.012   0.726  12.031 -0.0543 -0.4670  0.0701
  725TMC3    C410715   0.238   0.594  12.132  0.2427 -0.6751  0.6847
  725TMC3    C510716   0.127   0.520  12.086  0.0314  0.3583  0.2649
  725TMC3    C610717   0.016   0.585  12.045 -0.5681  0.0380 -0.3897
  725TMC3     C10718   0.312   0.815  12.208 -0.3949 -0.5178 -0.1023
  725TMC3     O10719   0.266   0.928  12.236 -0.4356 -1.1017 -0.3557
  725TMC3     H10720   0.110   0.909  12.089 -0.5342  1.0449  2.0197
  725TMC3    H110721   0.318   0.543  12.184  0.5989  0.1909  0.9721
  725TMC3    H210722   4.655   0.532  12.005 -1.8778  1.5814  0.3878
  725TMC3    C710723   0.127   0.376  12.109 -0.1140 -0.0030 -0.0426
  725TMC3    C810724   4.619   0.790  11.984  0.2022  0.4609 -0.4168
  725TMC3    O110725   0.026   0.325  12.151  0.6601 -0.1369  0.0554
  725TMC3    O210726   4.513   0.731  11.969  0.1120  0.6134 -0.6411
  726MPD2     C10727   3.325   2.060  10.437  0.4344  0.5125 -0.2909
  726MPD2    C110728   3.292   2.191  10.473  0.5666  0.0128 -0.1258
  726MPD2    C210729   3.189   2.209  10.561 -0.2946  0.2749 -0.0679
  726MPD2    C310730   3.119   2.096  10.607  0.3883 -0.0690 -0.0719
  726MPD2    C410731   3.157   1.974  10.559  0.3704  0.1206  0.0842
  726MPD2    C510732   3.265   1.947  10.487 -0.0975 -0.0431 -0.1906
  726MPD2     H10733   3.148   2.306  10.585 -0.2270  0.8168 -2.1390
  726MPD2    H110734   3.102   1.885  10.585  0.4988  0.2481  0.7910
  726MPD2    H210735   3.401   2.036  10.363  1.4429 -1.9820  1.5374
  726MPD2    H310736   3.291   1.849  10.447 -0.5002  0.9368 -2.8538
  726MPD2     N10737   3.009   2.107  10.690  0.0701  0.2217 -0.4126
  726MPD2    H510738   2.945   2.028  10.690  0.1695  0.1429 -1.7588
  726MPD2    N110739   3.356   2.306  10.412  0.0161  0.4720  0.0508
  726MPD2    H710740   3.329   2.397  10.448  0.2539  0.8969 -0.8552
  727TMC3    C110741   3.452   2.425  10.233  1.2972  0.2021 -0.8157
  727TMC3    C210742   3.491   2.521  10.323  1.0136  0.4583 -0.0879
  727TMC3    C310743   3.494   2.653  10.276  0.6826 -0.4189 -0.1138
  727TMC3    C410744   3.418   2.448  10.101  0.4622  0.1740 -0.4067
  727TMC3    C510745   3.402   2.582  10.063 -0.5789  0.7656 -0.5444
  727TMC3    C610746   3.447   2.678  10.150  0.0700  0.1671 -0.2315
  727TMC3     C10747   3.406   2.300  10.283  0.0179  0.7341  1.1238
  727TMC3     O10748   3.403   2.203  10.201 -0.2387 -0.4580  0.4695
  727TMC3     H10749   3.512   2.493  10.426  0.6582  0.2770 -0.0655
  727TMC3    H110750   3.385   2.365  10.041 -1.5291 -0.4072  1.4713
  727TMC3    H210751   3.465   2.774  10.104 -1.1244  0.5585  0.1343
  727TMC3    C710752   3.290   2.600   9.972  0.0853 -0.5024 -0.9231
  727TMC3    C810753   3.568   2.745  10.356 -0.2646  0.2694 -0.1143
  727TMC3    O110754   3.217   2.501   9.968 -0.5336 -0.3381  0.0761
  727TMC3    O210755   3.625   2.702  10.455  0.2633  0.0443 -0.5061
  728TMC3    C110756   2.750   1.110  15.418  0.3892  0.7102  0.0075
  728TMC3    C210757   2.726   1.243  15.445 -0.1653  0.2173  0.2288
  728TMC3    C310758   2.708   1.327  15.333 -0.6231 -0.3761 -0.1082
  728TMC3    C410759   2.743   1.061  15.291 -0.7522 -0.5627  0.1623
  728TMC3    C510760   2.734   1.145  15.186 -0.3354  0.8207  0.0779
  728TMC3    C610761   2.712   1.279  15.201  0.4571  0.0811  0.0358
  728TMC3     C10762   2.735   1.025  15.535 -0.1401 -0.2321  0.9997
  728TMC3     O10763   2.781   1.070  15.638 -0.0829 -0.0270  0.0454
  728TMC3     H10764   2.716   1.281  15.546  2.3098  0.7707  0.2616
  728TMC3    H110765   2.755   0.956  15.267  2.4150 -0.0278 -0.6868
  728TMC3    H210766   2.672   1.337  15.119  0.0467  1.9225  1.5203
  728TMC3    C710767   2.668   1.087  15.077 -0.1041  0.3376 -0.3865
  728TMC3    C810768   2.665   1.469  15.359 -0.8592 -0.0560  0.3661
  728TMC3    O110769   2.597   0.989  15.096  0.4113 -0.0416  0.1708
  728TMC3    O210770   2.613   1.485  15.470 -0.5900  0.0861  0.1486
  729MPD2     C10771   4.666   1.998  16.294 -0.3021  0.4930  0.2720
  729MPD2    C110772   0.080   2.010  16.297  0.2540 -0.2479 -0.7988
  729MPD2    C210773   0.142   2.009  16.420 -0.1167 -0.1625  0.7355
  729MPD2    C310774   0.068   1.993  16.534  0.2561 -0.3516 -0.3424
  729MPD2    C410775   4.654   1.989  16.533 -0.1821  0.0169 -0.0070
  729MPD2    C510776   4.598   1.994  16.411  0.0907 -0.5509  0.4299
  729MPD2     H10777   0.250   2.013  16.413 -0.0186 -1.0098  1.7918
  729MPD2    H110778   4.598   1.978  16.625 -2.5923  1.8591 -1.2362
  729MPD2    H210779   4.618   1.992  16.197  0.2255 -0.5595  0.0713
  729MPD2    H310780   4.491   1.985  16.404  0.1887 -1.1666 -0.2243
  729MPD2     N10781   0.134   1.998  16.663  0.7199 -0.3085 -0.0315
  729MPD2    H510782   0.074   2.019  16.742  3.5218  0.9601  1.7520
  729MPD2    N110783   0.150   2.019  16.172  0.1512 -0.2502 -0.5875
  729MPD2    H710784   0.090   2.038  16.093 -0.0292  0.7453 -0.2116
  730TMC3    C110785   0.296   2.031  16.829  0.7130  0.2268 -0.1006
  730TMC3    C210786   0.400   1.976  16.899 -0.5406  0.3946 -0.3597
  730TMC3    C310787   0.444   2.038  17.015  0.8055  0.2520 -0.7235
  730TMC3    C410788   0.228   2.140  16.878  0.2515  0.3720 -0.1262
  730TMC3    C510789   0.276   2.196  16.992 -0.3087  0.1391  0.4522
  730TMC3    C610790   0.382   2.151  17.059 -0.2444  0.0090  0.2763
  730TMC3     C10791   0.271   1.988  16.690  0.0924 -0.0452 -0.0332
  730TMC3     O10792   0.372   1.960  16.623  0.5594 -0.5708  0.3045
  730TMC3     H10793   0.453   1.893  16.853 -0.8730 -0.2179  0.3428
  730TMC3    H110794   0.146   2.183  16.821  0.9479  1.1585 -0.5350
  730TMC3    H210795   0.405   2.204  17.151  0.2883 -1.0861  0.7709
  730TMC3    C710796   0.207   2.316  17.047  0.3820  0.2275  0.4932
  730TMC3    C810797   0.587   2.027  17.031  0.5259 -0.1299  0.5295
  730TMC3    O110798   0.207   2.342  17.164  0.1415  0.0157  0.2547
  730TMC3    O210799   0.640   1.925  16.983  0.1642 -0.0837  0.1497
  731MPD2     C10800   3.718   4.226  11.808  0.3563  1.0077 -0.0715
  731MPD2    C110801   3.841   4.185  11.813  0.1551 -0.3954  0.1015
  731MPD2    C210802   3.906   4.153  11.934 -0.9683 -0.1519  0.4264
  731MPD2    C310803   3.830   4.169  12.053  0.5325  0.9573 -0.3061
  731MPD2    C410804   3.699   4.217  12.049  0.7965  0.0171 -0.2411
  731MPD2    C510805   3.649   4.243  11.919  0.6915 -0.2871 -0.4142
  731MPD2     H10806   4.006   4.113  11.943 -0.0327  2.0377 -0.0814
  731MPD2    H110807   3.630   4.223  12.132 -1.2861 -1.8410 -1.8719
  731MPD2    H210808   3.680   4.276  11.719 -0.3128 -0.2602 -0.4930
  731MPD2    H310809   3.550   4.286  11.914  0.6400 -0.3907 -0.2928
  731MPD2     N10810   3.896   4.135  12.170 -0.1416 -0.3193  0.1017
  731MPD2    H510811   3.989   4.096  12.162 -0.0682  0.0037 -0.6165
  731MPD2    N110812   3.912   4.185  11.689  0.1677  0.8120  0.0487
  731MPD2    H710813   3.859   4.229  11.615 -2.9783 -1.3340  1.0275
  732TMC3    C110814   4.107   4.256  11.583 -0.2836  0.0050  0.4537
  732TMC3    C210815   4.012   4.294  11.487  0.0951 -0.1027 -0.0930
  732TMC3    C310816   3.996   4.427  11.453 -0.2018  0.5789 -0.4836
  732TMC3    C410817   4.198   4.343  11.631 -0.9158 -0.5897 -0.2205
  732TMC3    C510818   4.176   4.478  11.595 -0.5696  0.1323  0.1812
  732TMC3    C610819   4.074   4.524  11.513 -0.2749 -0.7334 -0.0645
  732TMC3     C10820   4.049   4.168  11.680  0.1773 -0.2696 -0.1245
  732TMC3     O10821   4.135   4.135  11.764 -0.1479 -0.2069 -0.0279
  732TMC3     H10822   3.946   4.220  11.442  1.8394 -1.6414 -0.1520
  732TMC3    H110823   4.278   4.316  11.699 -1.0769 -0.9189 -0.1603
  732TMC3    H210824   4.068   4.627  11.478  0.8983 -1.1336 -1.4097
  732TMC3    C710825   4.264   4.586  11.647 -0.0306 -0.0640  0.7457
  732TMC3    C810826   3.854   4.447  11.446  0.3106  0.8122  0.5984
  732TMC3    O110827   4.276   4.682  11.572  0.3646  0.0888  0.2073
  732TMC3    O210828   3.795   4.380  11.363 -0.2554 -0.5549 -0.0339
  733TMC3    C110829   0.431   3.309  13.248 -0.3720  0.0884  0.2340
  733TMC3    C210830   0.525   3.414  13.263 -0.0020 -0.5941 -0.7041
  733TMC3    C310831   0.601   3.451  13.156  1.0612 -0.2856 -0.2820
  733TMC3    C410832   0.412   3.246  13.128  0.2625 -0.5449  0.5689
  733TMC3    C510833   0.489   3.288  13.022  0.2010 -0.5444  0.2238
  733TMC3    C610834   0.584   3.383  13.039 -0.0062 -1.2405 -0.1256
  733TMC3     C10835   0.299   3.320  13.313  0.7596  0.0834  0.3457
  733TMC3     O10836   0.262   3.429  13.347  0.3006  0.2935 -0.1808
  733TMC3     H10837   0.541   3.459  13.361  0.1157  1.5174 -1.7136
  733TMC3    H110838   0.338   3.167  13.119 -0.4995  0.3213 -0.8039
  733TMC3    H210839   0.633   3.416  12.948 -0.1319 -0.6717  0.0144
  733TMC3    C710840   0.417   3.285  12.889 -0.2727  0.3871 -0.0934
  733TMC3    C810841   0.720   3.539  13.170  0.3028 -0.6455 -0.0249
  733TMC3    O110842   0.297   3.297  12.886  0.3832 -0.0779 -0.3913
  733TMC3    O210843   0.782   3.527  13.276  0.6365 -0.5735  0.8468
  734MPD2     C10844   2.914   1.129  12.514  0.5780  0.3949  0.1440
  734MPD2    C110845   2.901   1.030  12.420 -0.8870  0.2794  0.6312
  734MPD2    C210846   2.917   1.059  12.288  0.2891  0.3395 -1.3709
  734MPD2    C310847   2.930   1.190  12.251 -0.4666 -0.2747 -0.2833
  734MPD2    C410848   2.943   1.290  12.343  0.5584  0.3363 -0.3576
  734MPD2    C510849   2.929   1.259  12.472 -0.0247  0.4484  0.0956
  734MPD2     H10850   2.926   0.982  12.213  0.3423  0.1130 -1.1335
  734MPD2    H110851   2.944   1.396  12.321 -0.8916  0.5829  0.7657
  734MPD2    H210852   2.910   1.104  12.620 -0.7269  0.9761  0.2387
  734MPD2    H310853   2.942   1.337  12.547 -2.8858 -0.7651  1.8787
  734MPD2     N10854   2.931   1.227  12.113 -0.2933  0.8358  0.2608
  734MPD2    H510855   2.918   1.159  12.039  1.0000  0.1714  0.6362
  734MPD2    N110856   2.860   0.903  12.461 -0.1194 -0.0461 -0.4589
  734MPD2    H710857   2.866   0.884  12.561  1.7676 -2.4389 -1.0371
  735TMC3    C110858   2.752   0.693  12.440 -0.2747  0.2363 -0.0248
  735TMC3    C210859   2.648   0.666  12.350  0.9519 -0.4589  0.1942
  735TMC3    C310860   2.653   0.544  12.298  0.3501 -0.1324  0.4521
  735TMC3    C410861   2.853   0.608  12.480 -0.2526  0.0676 -0.0478
  735TMC3    C510862   2.861   0.492  12.408  0.6646  1.3947  0.5405
  735TMC3    C610863   2.760   0.463  12.321  0.2793  0.5663 -0.0351
  735TMC3     C10864   2.806   0.812  12.380  0.5571 -0.2844  0.8311
  735TMC3     O10865   2.781   0.820  12.262 -0.7975  0.1754  0.0987
  735TMC3     H10866   2.566   0.736  12.337  0.4224 -1.2025 -0.4947
  735TMC3    H110867   2.938   0.649  12.534  0.5072 -0.8684 -0.5197
  735TMC3    H210868   2.776   0.373  12.262  0.3773  1.1555 -0.9001
  735TMC3    C710869   2.984   0.429  12.406  0.4040  0.2807  0.9414
  735TMC3    C810870   2.613   0.535  12.162  0.1785  0.6441 -0.1537
  735TMC3    O110871   3.002   0.334  12.481 -0.2666  0.0791  1.1228
  735TMC3    O210872   2.626   0.429  12.106 -0.0805  0.2289 -0.0737
  736MPD2     C10873   3.254   0.324  12.329 -0.2181 -0.5383 -0.3791
  736MPD2    C110874   3.180   0.413  12.254  0.3641 -0.1878  0.3093
  736MPD2    C210875   3.222   0.444  12.130  0.4377  0.0428  0.3387
  736MPD2    C310876   3.335   0.385  12.065 -0.2491 -0.7103 -0.2382
  736MPD2    C410877   3.398   0.291  12.138 -0.0727  0.1367  1.0430
  736MPD2    C510878   3.365   0.261  12.267  0.0371 -0.0872 -0.1117
  736MPD2     H10879   3.162   0.508  12.066 -0.8138 -0.5001  0.9883
  736MPD2    H110880   3.479   0.236  12.090 -1.6856  0.0980 -1.5852
  736MPD2    H210881   3.227   0.296  12.430  3.1248  0.7354  0.8861
  736MPD2    H310882   3.431   0.196  12.324  1.6850  2.0865  0.4550
  736MPD2     N10883   3.372   0.418  11.931  0.4223 -0.1483 -0.0384
  736MPD2    H510884   3.450   0.366  11.891 -0.3357  0.0325 -1.7778
  736MPD2    N110885   3.055   0.469  12.293 -0.1865  0.4025  0.0989
  736MPD2    H710886   3.008   0.540  12.238  2.0951 -0.4019 -2.9420
  737TMC3    C110887   3.378   0.520  11.720 -0.4465 -0.1512  0.0742
  737TMC3    C210888   3.368   0.633  11.646  0.1463  0.6685  0.1818
  737TMC3    C310889   3.414   0.633  11.519  0.2624  0.1083  0.0935
  737TMC3    C410890   3.416   0.398  11.667  0.5565  0.0589  0.4878
  737TMC3    C510891   3.473   0.403  11.545 -0.0752  0.4648 -0.2509
  737TMC3    C610892   3.471   0.516  11.472 -0.3244 -0.0524  0.5354
  737TMC3     C10893   3.325   0.522  11.854  0.0615 -0.7872 -0.3056
  737TMC3     O10894   3.262   0.624  11.874 -0.3440 -0.0451 -0.6372
  737TMC3     H10895   3.337   0.727  11.691 -1.1057  0.2395  0.2035
  737TMC3    H110896   3.418   0.309  11.729  0.1188 -2.4779 -3.1332
  737TMC3    H210897   3.517   0.518  11.374 -1.7293  2.0201 -0.0950
  737TMC3    C710898   3.552   0.288  11.500 -0.1108  0.9240  0.5133
  737TMC3    C810899   3.420   0.756  11.435 -0.5334 -0.3038  0.7401
  737TMC3    O110900   3.525   0.184  11.556 -0.1508  0.2136  0.2141
  737TMC3    O210901   3.429   0.865  11.488  0.1497 -0.2213 -0.3862
  738MPD2     C10902   3.994   4.022  14.943 -0.3949  0.0860  0.5387
  738MPD2    C110903   3.928   3.996  14.825 -0.0446  1.2127  0.0866
  738MPD2    C210904   3.980   4.035  14.706  0.4074  0.0248  0.7144
  738MPD2    C310905   4.098   4.114  14.706  0.0773 -0.2976 -0.7256
  738MPD2    C410906   4.157   4.150  14.817  0.2943  0.2305  0.5830
  738MPD2    C510907   4.110   4.102  14.936  0.3238  0.5801  0.1610
  738MPD2     H10908   3.920   4.015  14.617  0.1548 -0.1132  0.9176
  738MPD2    H110909   4.239   4.221  14.815 -0.4700  1.1294  1.3378
  738MPD2    H210910   3.961   3.986  15.040 -1.4492 -0.2090  0.0648
  738MPD2    H310911   4.167   4.120  15.027  0.9222 -0.0907 -0.0884
  738MPD2     N10912   4.140   4.187  14.598  0.0707  0.7057 -0.0428
  738MPD2    H510913   4.219   4.249  14.617 -0.1659  0.2222  2.5279
  738MPD2    N110914   3.814   3.909  14.808 -0.2130  0.7416  0.4561
  738MPD2    H710915   3.789   3.891  14.712 -1.5675 -1.1555  1.1663
  739TMC3    C110916   4.145   4.256  14.374  0.4957  0.0747 -0.5557
  739TMC3    C210917   4.059   4.278  14.271  0.1974  0.5553 -0.6224
  739TMC3    C310918   4.081   4.384  14.187 -1.1217 -0.3928 -0.4301
  739TMC3    C410919   4.249   4.339  14.401 -0.3675  0.0052  0.0796
  739TMC3    C510920   4.255   4.455  14.324  0.4226 -0.4375 -0.3899
  739TMC3    C610921   4.173   4.476  14.221  0.5346  0.2887 -0.0672
  739TMC3     C10922   4.092   4.164  14.471 -0.6131  0.0036  0.1623
  739TMC3     O10923   3.988   4.104  14.433  0.1636  0.3271 -0.3403
  739TMC3     H10924   3.981   4.207  14.246  0.0934  0.7392 -0.8250
  739TMC3    H110925   4.328   4.323  14.473 -0.4880  1.8342  0.6313
  739TMC3    H210926   4.165   4.577  14.182  0.1837  0.3334  0.1194
  739TMC3    C710927   4.340   4.559  14.379  0.0724  0.0360 -0.7699
  739TMC3    C810928   3.996   4.401  14.069  0.1515 -0.0407 -0.4182
  739TMC3    O110929   4.440   4.516  14.435  0.2503 -0.0335  0.4551
  739TMC3    O210930   3.882   4.348  14.082 -0.0974 -0.3601 -0.4918
  740TMC3    C110931   4.202   0.970  14.082 -0.3824  0.5031  0.4170
  740TMC3    C210932   4.254   0.967  14.212 -0.2043 -0.6624 -0.8370
  740TMC3    C310933   4.387   0.972  14.208 -0.4418  0.2658 -0.3212
  740TMC3    C410934   4.276   0.982  13.966  0.1089 -0.0825 -0.4306
  740TMC3    C510935   4.416   0.996  13.974  0.5773 -0.2493  0.2195
  740TMC3    C610936   4.466   0.984  14.101  0.1329  0.8915  0.5709
  740TMC3     C10937   4.062   0.941  14.055  0.7138  0.2453  0.2127
  740TMC3     O10938   4.025   0.951  13.940  0.5384  0.2002 -0.1837
  740TMC3     H10939   4.203   0.953  14.307  2.2768  4.5531  1.2656
  740TMC3    H110940   4.239   0.976  13.865 -0.8254  1.3301 -0.1628
  740TMC3    H210941   4.572   0.998  14.119  0.6757 -0.5866 -1.4089
  740TMC3    C710942   4.503   0.943  13.878  0.1442  0.0458 -1.4245
  740TMC3    C810943   4.448   0.964  14.336  0.3513 -0.4227 -0.1599
  740TMC3    O110944   4.574   0.855  13.920  0.4666  0.1616 -0.0285
  740TMC3    O210945   4.409   0.882  14.418 -0.1437  0.1451  0.3996
  741TMC3    C110946   3.720   0.001  14.107 -0.1861 -0.5947 -0.0152
  741TMC3    C210947   3.625   4.630  14.106 -0.4276  0.1842 -0.7194
  741TMC3    C310948   3.595   4.562  14.217  0.2571  0.0195 -0.3147
  741TMC3    C410949   3.804   0.018  14.218  0.0141 -0.0444  0.4319
  741TMC3    C510950   3.769   4.671  14.328 -0.2338 -0.0567  0.0403
  741TMC3    C610951   3.669   4.577  14.334 -0.4089 -0.1923 -0.1552
  741TMC3     C10952   3.737   0.091  13.991  0.3214 -0.3722 -0.1180
  741TMC3     O10953   3.639   0.102  13.918  0.0825  0.8883  0.1244
  741TMC3     H10954   3.580   4.621  14.008  1.6713  2.8394 -1.9371
  741TMC3    H110955   3.859   0.111  14.233 -1.0783  0.9080 -1.4541
  741TMC3    H210956   3.640   4.531  14.428  2.2310  0.6120  1.0341
  741TMC3    C710957   3.879   4.676  14.426  0.3349  0.0186  0.2038
  741TMC3    C810958   3.460   4.517  14.221  0.5591  0.1673 -0.1922
  741TMC3    O110959   3.982   0.003  14.385  0.0660 -0.0949  0.3345
  741TMC3    O210960   3.405   4.491  14.115  0.1896  0.0205  0.5150
  742TMC3    C110961   4.187   3.305  15.194 -0.1189  0.0383  0.1138
  742TMC3    C210962   4.107   3.312  15.078 -0.1416 -0.4756 -0.1241
  742TMC3    C310963   4.169   3.301  14.957  0.6352 -0.2878  0.4137
  742TMC3    C410964   4.317   3.272  15.179 -0.4000 -0.1218  0.1406
  742TMC3    C510965   4.365   3.244  15.059  0.5519 -0.0195 -0.9656
  742TMC3    C610966   4.294   3.251  14.948  0.1347  0.6982  0.2010
  742TMC3     C10967   4.145   3.383  15.305 -0.3523  0.3664  0.0443
  742TMC3     O10968   4.231   3.419  15.385 -0.2689  0.6036 -0.3891
  742TMC3     H10969   4.009   3.359  15.076 -0.2898 -0.7710  0.1781
  742TMC3    H110970   4.381   3.286  15.266  1.1138  0.9067 -1.1293
  742TMC3    H210971   4.347   3.237  14.855 -0.5787  0.1498 -0.1253
  742TMC3    C710972   4.463   3.145  15.047  0.3290 -0.2011 -0.0598
  742TMC3    C810973   4.086   3.271  14.840  0.9804 -0.3542  0.3497
  742TMC3    O110974   4.420   3.037  15.017 -0.2936 -0.2104  0.6049
  742TMC3    O210975   3.971   3.224  14.857 -0.4796  0.0199  0.3656
  743MPD2     C10976   2.519   0.302   1.857 -0.3479 -0.2615  0.2371
  743MPD2    C110977   2.547   0.244   1.736 -0.2848  0.2957  0.7292
  743MPD2    C210978   2.676   0.221   1.691  0.1154  0.2104  0.2522
  743MPD2    C310979   2.781   0.241   1.774 -0.0541  0.0786 -0.2773
  743MPD2    C410980   2.756   0.289   1.902 -0.8631  0.6156  0.1233
  743MPD2    C510981   2.622   0.324   1.943 -0.9282  0.6156 -0.1578
  743MPD2     H10982   2.689   0.190   1.588 -0.3375  1.1171 -0.0836
  743MPD2    H110983   2.838   0.307   1.971 -0.8235 -0.0755  0.2580
  743MPD2    H210984   2.417   0.330   1.883 -0.3539  0.0655 -0.1364
  743MPD2    H310985   2.615   0.384   2.032 -0.6285  0.1129  0.2054
  743MPD2     N10986   2.909   0.220   1.724 -0.3260  0.8751  0.1112
  743MPD2    H510987   2.923   0.209   1.624 -0.3270 -0.3241  0.2426
  743MPD2    N110988   2.437   0.218   1.652 -0.3193 -0.1905 -0.5900
  743MPD2    H710989   2.344   0.253   1.678 -0.4505  1.3057 -3.0886
  744TMC3    C110990   2.300   0.128   1.496  0.5026  0.1812 -0.1191
  744TMC3    C210991   2.194   0.165   1.575  0.4048 -0.1843 -0.3427
  744TMC3    C310992   2.072   0.159   1.522  0.6772 -0.8546 -0.4724
  744TMC3    C410993   2.281   0.077   1.371 -0.3682 -0.5332  0.7592
  744TMC3    C510994   2.156   0.072   1.327  0.5491 -0.2300 -0.7766
  744TMC3    C610995   2.043   0.118   1.392  0.6290  0.1608  0.1560
  744TMC3     C10996   2.433   0.144   1.541 -1.0032 -0.4400 -0.7598
  744TMC3     O10997   2.521   0.072   1.496 -0.1136  0.4349  0.0482
  744TMC3     H10998   2.203   0.195   1.678 -1.7056  2.2604 -0.8853
  744TMC3    H110999   2.369   0.039   1.322 -1.4259 -1.8228 -0.1438
  744TMC3    H211000   1.943   0.119   1.351 -0.2560  0.5965  2.3400
  744TMC3    C711001   2.143   0.032   1.190 -0.4399  0.2234 -0.1199
  744TMC3    C811002   1.968   0.206   1.610 -0.6542  0.0279  0.5010
  744TMC3    O111003   2.071   0.097   1.111 -0.6257  0.3145 -0.1263
  744TMC3    O211004   1.870   0.259   1.553  0.6646 -0.0954  0.4832
  745TMC3    C111005   3.996   2.681  13.446 -0.0515  0.2206  0.2738
  745TMC3    C211006   3.883   2.707  13.517  0.1875  0.1116 -0.9614
  745TMC3    C311007   3.765   2.710  13.438  0.2422  0.1876 -0.1643
  745TMC3    C411008   4.002   2.647  13.316 -0.0455 -0.5122  0.3359
  745TMC3    C511009   3.886   2.660  13.235  0.3505  0.3563 -0.2925
  745TMC3    C611010   3.763   2.691  13.299 -0.7641  0.0514  0.0286
  745TMC3     C11011   4.120   2.744  13.494 -0.4134 -0.1450  0.1886
  745TMC3     O11012   4.221   2.693  13.466  0.0285  0.5670 -0.1038
  745TMC3     H11013   3.886   2.746  13.618 -0.0548  1.4804 -1.4788
  745TMC3    H111014   4.099   2.630  13.270 -0.8707 -0.0812 -1.5512
  745TMC3    H211015   3.670   2.707  13.246 -1.2608  0.3114  0.9849
  745TMC3    C711016   3.910   2.730  13.111 -0.2420 -0.8469  0.3912
  745TMC3    C811017   3.647   2.769  13.500  0.3151  0.2079 -0.2754
  745TMC3    O111018   3.848   2.698  13.008  0.0439  0.0160 -0.3934
  745TMC3    O211019   3.622   2.740  13.614  0.2604 -0.1520  0.0060
  746TMC3    C111020   1.724   0.476  10.864 -0.3846 -0.1341 -1.0337
  746TMC3    C211021   1.839   0.484  10.790  0.5428  0.1717 -0.2958
  746TMC3    C311022   1.843   0.416  10.671 -0.4644 -0.4455  0.3325
  746TMC3    C411023   1.610   0.416  10.820 -0.1798 -0.3875 -0.0285
  746TMC3    C511024   1.613   0.353  10.698  0.4152 -0.2552  0.9536
  746TMC3    C611025   1.729   0.349  10.627  0.4586 -0.2418 -0.5759
  746TMC3     C11026   1.728   0.524  10.998  0.2225  0.0404 -0.1454
  746TMC3     O11027   1.626   0.510  11.067  0.2973 -0.7709 -0.3885
  746TMC3     H11028   1.926   0.539  10.824  0.3725  0.9451 -1.1175
  746TMC3    H111029   1.518   0.425  10.877  0.1725  2.7303  0.0046
  746TMC3    H211030   1.732   0.284  10.541 -4.0177 -0.3959 -0.6152
  746TMC3    C711031   1.512   0.257  10.659 -0.0767  0.2067  0.1294
  746TMC3    C811032   1.974   0.381  10.617  0.4789  0.1224 -0.6502
  746TMC3    O111033   1.511   0.211  10.546 -0.2910  0.0014 -0.1303
  746TMC3    O211034   2.076   0.406  10.676 -0.4789  0.4343  0.3039
  747TMC3    C111035   3.976   0.337  10.570  0.2552  0.1559  0.3539
  747TMC3    C211036   3.935   0.232  10.651 -0.2402 -0.2464 -0.3696
  747TMC3    C311037   3.968   0.238  10.781 -0.9120  0.0655  0.4115
  747TMC3    C411038   4.059   0.435  10.617  0.4377  0.0189  0.6485
  747TMC3    C511039   4.101   0.421  10.749  0.5917  0.1821  0.4431
  747TMC3    C611040   4.049   0.333  10.833  0.6367  0.7789  0.1045
  747TMC3     C11041   3.955   0.340  10.432  0.4120  0.1007  0.0339
  747TMC3     O11042   3.943   0.448  10.374  0.2510  0.3025  0.1553
  747TMC3     H11043   3.869   0.151  10.623  1.9554 -2.2511  0.2545
  747TMC3    H111044   4.093   0.507  10.544 -2.2742  1.3532  0.7050
  747TMC3    H211045   4.103   0.323  10.927 -0.5948 -2.2475  0.4854
  747TMC3    C711046   4.200   0.514  10.800 -0.4873 -0.1369  0.2156
  747TMC3    C811047   3.899   0.154  10.875  0.0062  1.0103 -0.1062
  747TMC3    O111048   4.189   0.550  10.918 -0.1878  0.2328 -0.3526
  747TMC3    O211049   3.850   0.052  10.830  0.2868  0.0278  0.0921
  748MPD2     C11050   0.526   1.505   1.194 -0.0415 -0.1918  0.6838
  748MPD2    C111051   0.609   1.398   1.187  0.4347  0.6044  0.5305
  748MPD2    C211052   0.742   1.422   1.194 -0.9521 -0.3188 -0.7875
  748MPD2    C311053   0.796   1.547   1.189 -0.4177  0.7806 -0.1358
  748MPD2    C411054   0.709   1.654   1.199  0.1720  0.1727 -0.1504
  748MPD2    C511055   0.580   1.630   1.195 -0.5951 -0.0240  0.5199
  748MPD2     H11056   0.820   1.346   1.195 -1.2528 -0.6197 -0.3206
  748MPD2    H111057   0.740   1.757   1.207  1.3254 -0.1547 -0.3755
  748MPD2    H211058   0.418   1.502   1.187  0.1922  2.4042 -4.2185
  748MPD2    H311059   0.515   1.716   1.197  1.4023  1.5115 -0.9059
  748MPD2     N11060   0.935   1.562   1.171  0.0196  0.5696 -0.3773
  748MPD2    H511061   0.987   1.475   1.168  1.3381  1.3325  0.3757
  748MPD2    N111062   0.550   1.270   1.171 -0.4816  0.8568 -0.1826
  748MPD2    H711063   0.449   1.261   1.159 -0.2831 -1.2453 -0.2619
  749TMC3    C111064   1.138   1.649   1.109 -0.8060  0.2388  0.2002
  749TMC3    C211065   1.198   1.558   1.198  0.2981  0.0337  0.1025
  749TMC3    C311066   1.334   1.543   1.170  0.3354  0.0019  0.3835
  749TMC3    C411067   1.206   1.727   1.016 -0.0827 -0.4356  0.7273
  749TMC3    C511068   1.339   1.725   1.007  0.3214 -0.4245  0.6458
  749TMC3    C611069   1.401   1.632   1.090  0.1443 -0.0360 -0.0434
  749TMC3     C11070   1.000   1.678   1.141  0.4108 -0.2474  0.2684
  749TMC3     O11071   0.951   1.787   1.105  0.4126  0.4951  0.4109
  749TMC3     H11072   1.152   1.495   1.272 -2.4959  3.1636  1.0505
  749TMC3    H111073   1.135   1.783   0.956  1.9735  0.3169 -0.9899
  749TMC3    H211074   1.507   1.623   1.067  0.9156  3.2383  2.1918
  749TMC3    C711075   1.413   1.790   0.894 -0.3513  0.4767 -0.0888
  749TMC3    C811076   1.409   1.493   1.277 -0.0075 -0.1196  0.0038
  749TMC3    O111077   1.523   1.835   0.918  0.0752 -1.0273  0.2450
  749TMC3    O211078   1.360   1.520   1.386 -0.3364 -0.1919  0.2264
  750MPD2     C11079   2.283   1.870  11.131 -0.8676 -0.2302  0.9177
  750MPD2    C111080   2.185   1.789  11.188  0.4631 -0.1009 -0.4116
  750MPD2    C211081   2.128   1.687  11.107 -0.9342 -0.2758  0.7355
  750MPD2    C311082   2.158   1.675  10.974 -0.1930 -0.1208 -0.0778
  750MPD2    C411083   2.245   1.767  10.919  0.1857 -0.3632 -0.8086
  750MPD2    C511084   2.310   1.861  10.997  0.3672 -0.1094  0.0928
  750MPD2     H11085   2.063   1.612  11.153  0.5801 -0.0035  3.2975
  750MPD2    H111086   2.273   1.766  10.814  2.6929 -1.1437 -0.1233
  750MPD2    H211087   2.327   1.948  11.193  0.6633  0.0644 -0.5574
  750MPD2    H311088   2.378   1.936  10.958 -0.3497  0.7429  0.5010
  750MPD2     N11089   2.103   1.577  10.891 -0.0326 -0.3703  0.5893
  750MPD2    H511090   2.150   1.573  10.801  0.7915  0.1871  0.9897
  750MPD2    N111091   2.144   1.821  11.316 -0.0184  0.0500 -0.2142
  750MPD2    H711092   2.189   1.904  11.353 -2.6966  1.2853  0.2723
  751TMC3    C111093   1.982   1.380  10.834  0.2485 -0.3994  0.8197
  751TMC3    C211094   1.881   1.297  10.859  0.0684 -0.0079 -0.6920
  751TMC3    C311095   1.863   1.185  10.777 -0.4358 -0.1404 -0.8660
  751TMC3    C411096   2.087   1.339  10.746 -0.5362  0.1591  0.1452
  751TMC3    C511097   2.071   1.221  10.677  0.5438  0.7479  0.6407
  751TMC3    C611098   1.957   1.145  10.689  0.3175 -0.0355  0.2510
  751TMC3     C11099   2.003   1.492  10.921  0.2498  0.0953 -0.1560
  751TMC3     O11100   1.916   1.518  11.002  0.5728 -0.7395 -0.6010
  751TMC3     H11101   1.817   1.312  10.946  1.0757 -0.0664  0.0539
  751TMC3    H111102   2.177   1.399  10.743 -1.0758  0.9949  0.5520
  751TMC3    H211103   1.942   1.054  10.633  0.9656  1.1835 -1.8736
  751TMC3    C711104   2.178   1.185  10.587 -0.4495  0.3432  0.0903
  751TMC3    C811105   1.736   1.114  10.780 -0.5138 -0.0534 -0.0935
  751TMC3    O111106   2.264   1.270  10.568  0.1095 -0.4461 -0.5128
  751TMC3    O211107   1.724   1.009  10.713 -0.1797 -0.0878  0.2291
  752TMC3    C111108   0.805   1.576  16.613  0.0868  0.0090 -0.3931
  752TMC3    C211109   0.868   1.465  16.678 -0.0894  0.4458  0.2016
  752TMC3    C311110   0.807   1.400  16.782 -0.0424  0.3412  0.3118
  752TMC3    C411111   0.677   1.602  16.632  0.1745 -0.3644  0.0167
  752TMC3    C511112   0.622   1.547  16.747 -0.7332 -0.3852 -0.7848
  752TMC3    C611113   0.682   1.443  16.812 -0.2000  0.1969  0.4053
  752TMC3     C11114   0.866   1.636  16.494  0.4747 -0.2659 -0.1260
  752TMC3     O11115   0.982   1.590  16.481 -0.5467 -0.2251  0.2521
  752TMC3     H11116   0.966   1.427  16.649  1.0784  2.4650  1.4517
  752TMC3    H111117   0.620   1.679  16.582  1.1504  0.1163 -0.3409
  752TMC3    H211118   0.612   1.394  16.879 -2.0277  0.6333 -1.1995
  752TMC3    C711119   0.497   1.602  16.803  0.1619 -0.3140  0.9208
  752TMC3    C811120   0.871   1.289  16.841 -0.7233 -0.0219  0.1813
  752TMC3    O111121   0.433   1.677  16.730  0.3513 -0.3582 -0.1925
  752TMC3    O211122   0.965   1.230  16.788  0.1952 -0.2495  0.7175
  753TMC3    C111123   2.692   2.797  13.058 -0.0290  0.6231  0.4790
  753TMC3    C211124   2.754   2.818  13.178 -0.0542 -0.2660  0.1773
  753TMC3    C311125   2.872   2.753  13.205 -0.6554  0.5436 -0.9501
  753TMC3    C411126   2.744   2.714  12.966  0.1163  0.5001  0.3675
  753TMC3    C511127   2.864   2.648  12.992  0.3113  0.1133 -0.2048
  753TMC3    C611128   2.929   2.663  13.114 -0.0186 -0.1936 -0.2649
  753TMC3     C11129   2.590   2.880  13.004 -0.6526 -0.2868 -0.5969
  753TMC3     O11130   2.511   2.820  12.933  0.0956 -0.3854 -0.3613
  753TMC3     H11131   2.693   2.857  13.259 -2.2168  0.1157 -1.6488
  753TMC3    H111132   2.700   2.712  12.867  2.2428 -1.0652 -0.5248
  753TMC3    H211133   3.017   2.606  13.140  0.6395  0.1867 -1.6742
  753TMC3    C711134   2.903   2.550  12.889  0.5323 -0.2916  0.2739
  753TMC3    C811135   2.915   2.741  13.344 -0.3615 -0.5328  0.0699
  753TMC3    O111136   2.859   2.552  12.777 -0.1858 -0.3551 -0.5241
  753TMC3    O211137   3.010   2.667  13.361  0.2951 -0.5565  0.1952
  754MPD2     C11138   1.199   1.380  12.916  0.2940 -0.3598  0.6568
  754MPD2    C111139   1.158   1.281  12.831  0.2375  0.0718  0.0650
  754MPD2    C211140   1.087   1.317  12.721  1.1347  0.3259 -0.4756
  754MPD2    C311141   1.055   1.451  12.693 -0.5902 -0.4805 -0.0906
  754MPD2    C411142   1.114   1.550  12.771  0.7677  0.1380 -0.1299
  754MPD2    C511143   1.178   1.515  12.887 -0.2155  0.0479  0.0796
  754MPD2     H11144   1.049   1.236  12.660  2.1859 -0.2560 -0.3470
  754MPD2    H111145   1.106   1.656  12.747 -0.3948 -0.0719 -0.6975
  754MPD2    H211146   1.255   1.358  13.005  2.2868 -0.9584 -0.7439
  754MPD2    H311147   1.227   1.584  12.955  2.9084 -2.3110  0.2520
  754MPD2     N11148   0.977   1.496  12.587  0.1965  0.3008 -0.7076
  754MPD2    H511149   0.970   1.597  12.579  2.4603  0.2770 -2.7528
  754MPD2    N111150   1.181   1.150  12.879  0.6062  0.4967 -0.2105
  754MPD2    H711151   1.226   1.126  12.967  0.7058 -0.9051 -0.6351
  755MPD2     C11152   0.483   2.154  12.749  0.1113 -0.2064 -0.2287
  755MPD2    C111153   0.419   2.037  12.785 -0.0665 -0.0599  0.0355
  755MPD2    C211154   0.445   1.922  12.707 -0.0130 -0.0589  0.4200
  755MPD2    C311155   0.545   1.922  12.610  0.1722 -0.3552 -0.4836
  755MPD2    C411156   0.599   2.046  12.571 -0.4854  0.2448 -0.5628
  755MPD2    C511157   0.563   2.155  12.643  0.0874 -0.4078 -0.0359
  755MPD2     H11158   0.397   1.828  12.734  1.1697 -0.9005 -0.4055
  755MPD2    H111159   0.669   2.071  12.492 -1.3489 -2.2705 -2.0972
  755MPD2    H211160   0.474   2.246  12.806 -0.3823  0.9581 -2.1939
  755MPD2    H311161   0.619   2.243  12.615 -0.7516  0.2645  0.4041
  755MPD2     N11162   0.585   1.811  12.538  0.8093  0.0911  0.0479
  755MPD2    H511163   0.667   1.814  12.479  0.5812  0.8642 -0.2166
  755MPD2    N111164   0.304   2.030  12.876 -0.0815  0.1297  0.0420
  755MPD2    H711165   0.254   1.942  12.880  0.6028 -0.1786  1.6143
  756MPD2     C11166   1.706   2.731   9.346  0.0368  0.4253 -0.4132
  756MPD2    C111167   1.648   2.621   9.409  0.3119 -0.4244 -0.3468
  756MPD2    C211168   1.548   2.550   9.349  0.5411 -0.3625  0.2546
  756MPD2    C311169   1.506   2.581   9.221 -0.2877  0.1206  0.0182
  756MPD2    C411170   1.559   2.692   9.159  0.2829  0.3248 -0.3632
  756MPD2    C511171   1.656   2.763   9.223 -0.0904 -0.2056 -0.3701
  756MPD2     H11172   1.495   2.472   9.403  2.5482 -1.0220  1.2664
  756MPD2    H111173   1.504   2.734   9.075  1.0858  2.3456  0.1205
  756MPD2    H211174   1.780   2.792   9.396 -1.9767  1.6038  1.1531
  756MPD2    H311175   1.698   2.849   9.171  1.3151 -0.6086  0.1104
  756MPD2     N11176   1.393   2.511   9.181 -0.5590 -0.5783  0.2838
  756MPD2    H511177   1.373   2.419   9.220  1.4663 -1.0782  0.1247
  756MPD2    N111178   1.664   2.601   9.543 -0.3766 -0.2376  0.1384
  756MPD2    H711179   1.605   2.532   9.588  0.2286 -0.8190  0.0447
  757MPD2     C11180   1.050   1.828   9.528  0.3973 -0.4786  0.4513
  757MPD2    C111181   1.173   1.876   9.483  0.5804  0.3709  0.6712
  757MPD2    C211182   1.180   1.988   9.402  0.1970  0.5724  0.0333
  757MPD2    C311183   1.067   2.055   9.371  0.2737 -0.0679  0.2356
  757MPD2    C411184   0.949   2.021   9.436 -0.1256 -0.4919  0.0041
  757MPD2    C511185   0.939   1.905   9.508 -0.3268 -0.6664 -0.0174
  757MPD2     H11186   1.270   2.015   9.347 -0.4946  1.2941 -0.7360
  757MPD2    H111187   0.853   2.067   9.413 -0.0057 -0.9018 -1.3263
  757MPD2    H211188   1.041   1.731   9.576  3.7984 -1.0739 -0.1163
  757MPD2    H311189   0.840   1.885   9.547  0.7718 -0.0787  3.1263
  757MPD2     N11190   1.077   2.151   9.267  0.2579  0.1386  0.2923
  757MPD2    H511191   1.172   2.177   9.243  0.1666 -2.0382 -2.4338
  757MPD2    N111192   1.286   1.792   9.486 -0.0386 -0.0782  0.4077
  757MPD2    H711193   1.261   1.700   9.521  1.8683 -0.6268  0.3325
  758MPD2     C11194   1.619   1.520  15.688  0.7040  0.9219 -0.2165
  758MPD2    C111195   1.642   1.451  15.797  0.1855  0.5208 -0.0938
  758MPD2    C211196   1.613   1.504  15.920  0.1488  0.6072 -0.3046
  758MPD2    C311197   1.564   1.633  15.923  0.1081 -0.8943  0.4874
  758MPD2    C411198   1.524   1.699  15.804 -0.6779 -0.1063 -0.1068
  758MPD2    C511199   1.554   1.642  15.688  0.5168  0.7124 -0.5777
  758MPD2     H11200   1.631   1.456  16.015  1.0162  0.1088 -0.7199
  758MPD2    H111201   1.483   1.798  15.814 -1.1424 -0.3364  0.2613
  758MPD2    H211202   1.612   1.475  15.590 -2.9138 -0.2116  0.5558
  758MPD2    H311203   1.532   1.696  15.597  1.9437 -0.2622 -1.5063
  758MPD2     N11204   1.533   1.684  16.050 -0.2821 -0.5079  0.2252
  758MPD2    H511205   1.577   1.644  16.132 -0.1929 -1.9296 -0.5249
  758MPD2    N111206   1.699   1.321  15.786 -0.3371 -0.4873  0.3018
  758MPD2    H711207   1.746   1.304  15.698 -0.2954  0.4736  0.1347
  759MPD2     C11208   0.608   0.075   9.855 -0.4642  0.7932  0.2323
  759MPD2    C111209   0.530   4.690   9.839 -0.0270  0.3760  0.4809
  759MPD2    C211210   0.479   4.666   9.716 -0.0638  0.5834 -0.8019
  759MPD2    C311211   0.510   0.022   9.607 -0.3752 -0.1254  0.0514
  759MPD2    C411212   0.585   0.131   9.626 -0.1398  0.2578  0.0982
  759MPD2    C511213   0.628   0.167   9.755  0.7085 -0.1003 -0.6552
  759MPD2     H11214   0.435   4.567   9.705  1.6565 -0.7359  4.0097
  759MPD2    H111215   0.611   0.203   9.549  1.5027 -0.1809  0.2395
  759MPD2    H211216   0.649   0.104   9.951 -1.2010 -0.7888  1.0218
  759MPD2    H311217   0.680   0.260   9.777  1.2414 -0.9440  1.6778
  759MPD2     N11218   0.471   4.702   9.483 -0.2126  0.0922 -0.1159
  759MPD2    H511219   0.407   4.622   9.478 -1.0426  0.5939  2.0142
  759MPD2    N111220   0.506   4.585   9.934 -0.2664 -0.2947 -0.1734
  759MPD2    H711221   0.456   4.504   9.899  2.0571 -0.5944 -2.7823
  760MPD2     C11222   4.311   2.275  11.566  0.3529 -0.2041 -0.1268
  760MPD2    C111223   4.446   2.275  11.573  0.6277 -0.0238  0.2848
  760MPD2    C211224   4.517   2.153  11.578  0.3028  0.7241 -0.0096
  760MPD2    C311225   4.450   2.035  11.568 -0.1617  0.2095  0.2556
  760MPD2    C411226   4.317   2.036  11.565  0.7084 -0.2041 -0.2945
  760MPD2    C511227   4.244   2.157  11.560  0.0653 -0.6746  0.1275
  760MPD2     H11228   4.626   2.151  11.584  0.4007  0.6681 -1.9933
  760MPD2    H111229   4.258   1.946  11.554  0.0250 -0.0009  1.8531
  760MPD2    H211230   4.253   2.367  11.570 -0.7282 -0.7995 -2.4894
  760MPD2    H311231   4.136   2.159  11.550  0.1047 -0.1939 -0.2375
  760MPD2     N11232   4.513   1.912  11.565 -0.1927 -0.1500 -0.6036
  760MPD2    H511233   4.468   1.830  11.524  0.1222 -1.3131  1.3650
  760MPD2    N111234   4.526   2.399  11.578  0.0924 -0.1341 -0.1841
  760MPD2    H711235   4.624   2.384  11.595  0.0078  2.2239  2.3045
  761MPD2     C11236   1.248   1.025  10.898  0.3018 -0.7580 -0.2530
  761MPD2    C111237   1.346   0.935  10.865 -0.0150  0.1657  0.1724
  761MPD2    C211238   1.477   0.983  10.851 -0.0138 -0.1687  0.0487
  761MPD2    C311239   1.508   1.119  10.864  1.0362 -0.2873  0.0122
  761MPD2    C411240   1.402   1.197  10.908  1.0116  0.2987  0.2295
  761MPD2    C511241   1.275   1.152  10.924  0.3180  0.1227  0.2071
  761MPD2     H11242   1.558   0.915  10.828 -0.3891 -1.2606  1.9687
  761MPD2    H111243   1.410   1.300  10.940  0.2917  0.2939  0.4397
  761MPD2    H211244   1.143   1.003  10.916  0.2411  0.4930  0.8585
  761MPD2    H311245   1.193   1.215  10.958  0.7775  1.0543 -0.3920
  761MPD2     N11246   1.628   1.176  10.842  0.7135 -0.2681  0.5634
  761MPD2    H511247   1.642   1.268  10.882  0.3119 -0.3461  0.8821
  761MPD2    N111248   1.313   0.798  10.828  0.1804 -0.0182  0.5781
  761MPD2    H711249   1.218   0.768  10.845 -0.1423  0.6450 -0.0899
  762MPD2     C11250   1.292   0.219  10.102  0.6035  0.0914  0.0985
  762MPD2    C111251   1.366   0.323  10.155 -0.6343 -0.0506  0.2802
  762MPD2    C211252   1.494   0.353  10.098 -0.0628  0.6068  0.4167
  762MPD2    C311253   1.540   0.281   9.989 -0.2735  0.0586  0.7325
  762MPD2    C411254   1.462   0.171   9.945 -0.3149  0.0741  1.1181
  762MPD2    C511255   1.345   0.144  10.002 -0.7069 -0.9273 -0.3537
  762MPD2     H11256   1.550   0.437  10.137  1.1818  1.1043 -2.4852
  762MPD2    H111257   1.499   0.121   9.856 -2.5454  1.5669 -0.6606
  762MPD2    H211258   1.200   0.183  10.147  0.0061  1.6419  0.1284
  762MPD2    H311259   1.287   0.065   9.956 -1.2718 -0.8323  0.2063
  762MPD2     N11260   1.650   0.322   9.909 -0.1930  0.3355 -0.0016
  762MPD2    H511261   1.665   0.253   9.836  1.8643  0.3217  0.4303
  762MPD2    N111262   1.317   0.386  10.276 -0.3655  0.4661  0.2147
  762MPD2    H711263   1.227   0.359  10.314 -2.2393 -0.4024 -4.9509
  763MPD2     C11264   2.914   1.829  15.838 -0.1582  0.6867 -0.5103
  763MPD2    C111265   3.032   1.764  15.835 -0.4296  0.6178 -0.4336
  763MPD2    C211266   3.130   1.790  15.925  0.1444 -0.5128  0.1836
  763MPD2    C311267   3.110   1.880  16.028  0.2575 -0.3156  0.0945
  763MPD2    C411268   2.986   1.943  16.037 -0.1020 -0.1806  0.2958
  763MPD2    C511269   2.889   1.921  15.936 -0.0330 -0.3987  0.1709
  763MPD2     H11270   3.222   1.732  15.913 -0.8120 -1.9109 -0.4197
  763MPD2    H111271   2.967   2.018  16.113 -0.1906  3.0757 -2.9499
  763MPD2    H211272   2.825   1.808  15.779  0.1778  2.1158 -1.5456
  763MPD2    H311273   2.788   1.958  15.948  0.3745  0.9151 -0.4766
  763MPD2     N11274   3.202   1.900  16.131 -0.4057  0.6826 -0.0116
  763MPD2    H511275   3.177   1.950  16.215 -1.4730  1.5489 -0.8337
  763MPD2    N111276   3.036   1.670  15.732  0.4418  0.4920  0.2369
  763MPD2    H711277   2.951   1.671  15.676  1.0347  1.5590 -0.6368
  764MPD2     C11278   1.226   3.886  17.344 -0.7576 -0.1571 -1.0535
  764MPD2    C111279   1.243   3.776  17.261 -0.0023 -0.4741 -0.1947
  764MPD2    C211280   1.366   3.709  17.272  0.3212 -0.5767  0.0160
  764MPD2    C311281   1.470   3.739  17.359  0.8642 -0.0698 -0.1922
  764MPD2    C411282   1.453   3.849  17.431  0.3397 -0.2879 -0.2235
  764MPD2    C511283   1.336   3.924  17.421 -0.1587 -0.1351 -0.0952
  764MPD2     H11284   1.381   3.619  17.214 -1.7718 -1.5517  0.9873
  764MPD2    H111285   1.534   3.894  17.487 -0.0216 -0.5294  0.4876
  764MPD2    H211286   1.141   3.949  17.320  0.2820  2.6324  2.7020
  764MPD2    H311287   1.327   4.019  17.471  1.4212 -0.4102  0.7164
  764MPD2     N11288   1.577   3.651  17.378 -0.5196 -0.4103  0.0838
  764MPD2    H511289   1.580   3.566  17.324 -0.6296  0.0175 -0.5914
  764MPD2    N111290   1.148   3.723  17.175 -0.3739 -0.2004 -0.4163
  764MPD2    H711291   1.168   3.644  17.115  0.1232  0.4155 -1.0611
  765MPD2     C11292   1.253   0.750  15.454 -0.1136 -0.9474  0.6675
  765MPD2    C111293   1.339   0.806  15.543 -0.1887  0.2145  0.9114
  765MPD2    C211294   1.463   0.763  15.573 -0.2122 -0.1652 -0.4398
  765MPD2    C311295   1.514   0.653  15.503 -0.8260 -0.3576 -0.3891
  765MPD2    C411296   1.434   0.595  15.403 -1.0386  0.2532 -0.8263
  765MPD2    C511297   1.300   0.641  15.381 -0.3347  0.0190  0.3564
  765MPD2     H11298   1.525   0.816  15.644  2.6567 -0.6749 -2.5847
  765MPD2    H111299   1.470   0.508  15.349 -0.5095  0.0364 -0.1219
  765MPD2    H211300   1.150   0.780  15.443  0.3247  0.4254  0.2710
  765MPD2    H311301   1.245   0.591  15.303 -0.0227  0.0571  0.1106
  765MPD2     N11302   1.645   0.615  15.532 -0.9128  0.7727 -0.0032
  765MPD2    H511303   1.702   0.683  15.581  0.7380  0.1897 -1.1272
  765MPD2    N111304   1.282   0.909  15.622 -0.2325  0.2015 -0.8388
  765MPD2    H711305   1.190   0.933  15.588 -1.2631  1.5519  2.8609
  766MPD2     C11306   0.603   1.069  15.459 -0.1748 -0.0881 -0.3127
  766MPD2    C111307   0.733   1.036  15.463  0.0038 -0.1423  0.4041
  766MPD2    C211308   0.786   0.945  15.375 -0.3361 -0.3899  0.4211
  766MPD2    C311309   0.713   0.870  15.286 -0.1420  0.2589  0.4834
  766MPD2    C411310   0.580   0.898  15.290 -0.5052  0.4553  0.0074
  766MPD2    C511311   0.526   1.005  15.369  0.4192  0.4703 -0.3417
  766MPD2     H11312   0.893   0.929  15.367 -0.0901  2.0837 -1.1110
  766MPD2    H111313   0.519   0.847  15.216  1.9824 -1.9562 -0.4279
  766MPD2    H211314   0.558   1.142  15.526  0.6570  1.5181 -1.4999
  766MPD2    H311315   0.420   1.025  15.359  0.1452 -1.1773 -0.7363
  766MPD2     N11316   0.765   0.773  15.191 -0.2097 -0.0296 -0.2054
  766MPD2    H511317   0.696   0.735  15.127  0.7136 -1.7644 -0.1755
  766MPD2    N111318   0.813   1.093  15.567 -0.1012  0.4264 -0.7318
  766MPD2    H711319   0.770   1.167  15.621 -0.6630  0.0605 -0.6668
  767MPD2     C11320   0.448   1.169  14.991 -0.3366  0.7319 -0.3661
  767MPD2    C111321   0.572   1.110  14.957 -0.4359 -0.8880 -0.0451
  767MPD2    C211322   0.576   1.024  14.849  0.5001  0.8313 -0.2108
  767MPD2    C311323   0.466   1.001  14.767 -0.6456  0.4013  0.2049
  767MPD2    C411324   0.348   1.071  14.796  0.4664  0.0071 -0.2465
  767MPD2    C511325   0.344   1.157  14.904 -0.4780 -0.4948  0.1106
  767MPD2     H11326   0.664   0.970  14.815  0.3886  1.2726 -1.2181
  767MPD2    H111327   0.257   1.055  14.739  0.4240  0.0882 -0.2004
  767MPD2    H211328   0.443   1.235  15.077 -0.1753 -0.6553  0.7049
  767MPD2    H311329   0.252   1.207  14.930  0.3349  0.4644  1.1424
  767MPD2     N11330   0.476   0.906  14.661 -0.3192  0.4897  0.1535
  767MPD2    H511331   0.550   0.837  14.663 -1.6756 -0.9466  0.8576
  767MPD2    N111332   0.683   1.141  15.037 -0.3906 -0.5078 -0.6301
  767MPD2    H711333   0.668   1.194  15.122 -0.0182 -0.3645 -0.6548
  768MPD2     C11334   1.287   3.792  10.314  0.3792  0.7402  0.6797
  768MPD2    C111335   1.300   3.896  10.400  0.5000 -0.1924  0.5563
  768MPD2    C211336   1.358   3.870  10.521  0.5490  0.3228 -0.1226
  768MPD2    C311337   1.409   3.742  10.554 -0.5098 -0.3804 -0.8491
  768MPD2    C411338   1.389   3.639  10.461 -0.3207  0.4188  0.5094
  768MPD2    C511339   1.333   3.668  10.338 -0.0633 -0.2032 -0.3667
  768MPD2     H11340   1.364   3.951  10.592 -0.1079  0.0296  0.2645
  768MPD2    H111341   1.416   3.538  10.491 -1.8290  0.7682  3.0904
  768MPD2    H211342   1.229   3.793  10.222  0.6205  1.3425  0.5318
  768MPD2    H311343   1.308   3.585  10.272 -1.2229 -1.1513  1.2943
  768MPD2     N11344   1.460   3.716  10.685 -0.1881  0.2381 -0.3615
  768MPD2    H511345   1.482   3.620  10.713  1.1320  0.2577 -1.3421
  768MPD2    N111346   1.248   4.028  10.381  0.0343 -0.0160 -0.0805
  768MPD2    H711347   1.274   4.101  10.447 -2.9542  0.8236  0.1777
  769MPD2     C11348   2.497   1.925  14.621  0.1421  0.1982  0.3101
  769MPD2    C111349   2.386   1.950  14.698 -0.3824  0.0882 -0.4669
  769MPD2    C211350   2.387   2.043  14.802 -0.3942  1.0229 -0.1613
  769MPD2    C311351   2.508   2.117  14.817  0.0635  0.4877 -0.5877
  769MPD2    C411352   2.617   2.092  14.731  0.9278 -0.5203 -0.0551
  769MPD2    C511353   2.610   1.990  14.639 -0.7574 -0.2868 -0.7889
  769MPD2     H11354   2.293   2.073  14.846 -0.6728 -3.0363  2.0914
  769MPD2    H111355   2.710   2.148  14.740  0.5664  0.2374 -1.0866
  769MPD2    H211356   2.492   1.848  14.544  0.2876  2.1345 -1.6475
  769MPD2    H311357   2.695   1.959  14.579 -1.0946 -2.6721 -0.0289
  769MPD2     N11358   2.509   2.215  14.921  0.3407 -0.1776  0.3638
  769MPD2    H511359   2.423   2.227  14.973  0.6954  0.0935  0.8930
  769MPD2    N111360   2.275   1.872  14.670 -0.4263 -0.8203  0.0133
  769MPD2    H711361   2.282   1.796  14.603  1.5639  1.5687 -2.4826
  770MPD2     C11362   1.520   1.151  14.931  0.6113 -0.7021  0.2928
  770MPD2    C111363   1.622   1.105  14.856  0.3525 -0.1448  0.4034
  770MPD2    C211364   1.697   1.202  14.797  0.3650 -0.3577  0.0465
  770MPD2    C311365   1.680   1.339  14.826  0.5147 -0.1695  0.2557
  770MPD2    C411366   1.577   1.377  14.907  0.2048 -0.3293 -0.0599
  770MPD2    C511367   1.500   1.281  14.965 -0.1600 -0.0161 -0.0902
  770MPD2     H11368   1.796   1.192  14.753 -0.1548  0.2609 -1.2515
  770MPD2    H111369   1.558   1.478  14.940  0.4125  0.5280 -2.5599
  770MPD2    H211370   1.461   1.083  14.992  0.1009 -0.9746 -0.5018
  770MPD2    H311371   1.421   1.304  15.035  1.8870 -1.1580  2.5557
  770MPD2     N11372   1.771   1.428  14.770  0.5832 -0.9475 -0.2909
  770MPD2    H511373   1.842   1.388  14.710  0.3975 -1.4177 -0.1991
  770MPD2    N111374   1.644   0.972  14.832 -0.2114 -0.0634  0.6438
  770MPD2    H711375   1.589   0.912  14.893 -1.6916  0.8818  0.2300
  771MPD2     C11376   2.985   4.544  13.657  0.1574 -0.1669 -0.1372
  771MPD2    C111377   2.914   4.651  13.613 -0.1846 -0.1679 -0.6458
  771MPD2    C211378   2.815   4.625  13.518 -0.0691 -0.4841 -0.6390
  771MPD2    C311379   2.783   4.498  13.469 -0.5251  0.3446  0.2663
  771MPD2    C411380   2.857   4.392  13.523  0.1438  0.5200  0.3924
  771MPD2    C511381   2.956   4.419  13.616  0.2706  0.5378  0.1169
  771MPD2     H11382   2.756   4.709  13.485  1.1692  0.7798  0.3924
  771MPD2    H111383   2.827   4.289  13.502  2.0694  0.1582 -0.5473
  771MPD2    H211384   3.069   4.561  13.723  0.1442  1.3296 -0.4948
  771MPD2    H311385   2.999   4.332  13.666 -0.5774 -1.8096 -3.2694
  771MPD2     N11386   2.676   4.496  13.369 -0.1118 -0.0905  0.3003
  771MPD2    H511387   2.642   4.588  13.344  0.1125 -0.5359 -1.6000
  771MPD2    N111388   2.946   0.048  13.664 -0.3411 -0.2309 -0.6886
  771MPD2    H711389   3.023   0.062  13.728 -1.5707 -0.2637  0.8243
  772MPD2     C11390   2.588   0.759  13.867  0.7634  0.1651 -0.2193
  772MPD2    C111391   2.564   0.663  13.771 -0.1446 -0.3601 -0.1975
  772MPD2    C211392   2.435   0.625  13.745 -0.4334  0.1468  0.1884
  772MPD2    C311393   2.327   0.686  13.814  0.0716 -0.4397  0.2924
  772MPD2    C411394   2.364   0.789  13.908  0.2432 -0.4117 -0.2890
  772MPD2    C511395   2.491   0.819  13.933 -0.1191  0.1994  0.0031
  772MPD2     H11396   2.415   0.557  13.662 -1.1097 -0.6754  1.0291
  772MPD2    H111397   2.294   0.830  13.980  1.3894  0.2343  0.4532
  772MPD2    H211398   2.683   0.803  13.895  1.6857 -0.6112 -2.1300
  772MPD2    H311399   2.511   0.880  14.020  0.4011 -0.9321  0.6671
  772MPD2     N11400   2.184   0.653  13.797  0.3754  0.2051 -0.8715
  772MPD2    H511401   2.127   0.706  13.862  0.8084 -0.3465 -0.0568
  772MPD2    N111402   2.665   0.596  13.707 -0.2495 -0.3621 -0.3100
  772MPD2    H711403   2.629   0.514  13.658 -0.7034 -0.0049 -0.5678
  773MPD2     C11404   2.337   2.118  17.602  0.2985 -0.0803 -0.2531
  773MPD2    C111405   2.229   2.038  17.575 -0.6090  0.2242 -0.6496
  773MPD2    C211406   2.222   1.911  17.633 -0.1920  0.3373 -0.8578
  773MPD2    C311407   2.313   1.870   0.025 -0.4257  0.5103 -0.0821
  773MPD2    C411408   2.417   1.955   0.063 -0.1508 -0.4091 -0.0882
  773MPD2    C511409   2.429   2.072  17.699  0.0354 -0.6171 -0.5502
  773MPD2     H11410   2.149   1.840  17.597  0.1510 -1.0321  1.1622
  773MPD2    H111411   2.481   1.925   0.146 -1.0715  3.2193  1.8862
  773MPD2    H211412   2.351   2.219  17.565  0.4602 -0.2880 -0.7672
  773MPD2    H311413   2.507   2.142   0.025 -0.7312  0.0683 -0.0700
  773MPD2     N11414   2.298   1.734   0.080  0.1242 -0.1843 -0.3703
  773MPD2    H511415   2.217   1.682   0.049 -0.5203  0.6896 -0.1490
  773MPD2    N111416   2.123   2.068  17.484  0.1953 -0.1362  0.1938
  773MPD2    H711417   2.037   2.014  17.490 -0.4499  1.1255  2.1433
  774MPD2     C11418   0.553   0.403  12.989 -0.0305 -0.0997  0.1397
  774MPD2    C111419   0.665   0.448  13.055 -0.8511  0.1873 -0.5598
  774MPD2    C211420   0.743   0.547  13.005  0.5178  0.7864 -0.1010
  774MPD2    C311421   0.713   0.600  12.880 -0.0030  0.6505 -0.2705
  774MPD2    C411422   0.588   0.572  12.823 -0.5967  0.4092 -0.4835
  774MPD2    C511423   0.508   0.474  12.882 -0.7549 -0.2620  1.1331
  774MPD2     H11424   0.836   0.573  13.053 -0.3396  0.7015  1.6246
  774MPD2    H111425   0.547   0.608  12.730  2.3228 -1.2882 -2.4392
  774MPD2    H211426   0.484   0.330  13.031 -0.1585 -0.2725 -0.3732
  774MPD2    H311427   0.407   0.457  12.849 -0.8836  0.4156  1.1784
  774MPD2     N11428   0.799   0.703  12.825  0.1617  0.5510 -0.2577
  774MPD2    H511429   0.873   0.738  12.885  0.1872  0.5076 -0.2632
  774MPD2    N111430   0.709   0.412  13.187 -0.1215  0.2520  0.2289
  774MPD2    H711431   0.776   0.477  13.228 -1.2199  2.3397 -1.2365
  775MPD2     C11432   2.543   2.189  15.399  0.4493 -0.3947 -0.2366
  775MPD2    C111433   2.585   2.305  15.448 -0.1759 -0.6321  0.4150
  775MPD2    C211434   2.710   2.352  15.408 -0.6720 -0.7055 -0.1950
  775MPD2    C311435   2.791   2.285  15.321  0.6444 -0.0426  0.3442
  775MPD2    C411436   2.754   2.164  15.281  0.7842  0.4315  0.4602
  775MPD2    C511437   2.634   2.119  15.320  0.1747  0.0411 -0.0293
  775MPD2     H11438   2.739   2.451  15.443  2.8393 -1.4369 -1.0344
  775MPD2    H111439   2.814   2.093  15.226  1.3651  2.2560 -1.2399
  775MPD2    H211440   2.455   2.134  15.430 -0.8805  0.6741 -2.0985
  775MPD2    H311441   2.610   2.020  15.281  1.0268  0.3715 -1.3900
  775MPD2     N11442   2.913   2.339  15.269  0.1207  0.0456  0.2611
  775MPD2    H511443   2.947   2.297  15.183  1.1078  1.3941 -0.0070
  775MPD2    N111444   2.491   2.377  15.527  0.0053  0.3949  0.8466
  775MPD2    H711445   2.406   2.330  15.557 -0.9121  0.6003 -1.4454
  776MPD2     C11446   2.450   2.280  11.690  0.1592 -0.1302  0.1661
  776MPD2    C111447   2.325   2.277  11.633  0.7427  0.2450 -0.3715
  776MPD2    C211448   2.287   2.392  11.568 -0.0393  0.2222 -0.4636
  776MPD2    C311449   2.367   2.506  11.557  0.3392  0.0576  0.1990
  776MPD2    C411450   2.490   2.505  11.622  0.0460  0.4349 -0.0392
  776MPD2    C511451   2.529   2.392  11.683 -0.0792 -0.0125 -1.2013
  776MPD2     H11452   2.188   2.401  11.523 -0.2984 -0.2185  0.0258
  776MPD2    H111453   2.560   2.585  11.601  2.3365 -1.0887  1.7424
  776MPD2    H211454   2.494   2.195  11.741  0.1179  0.6316  1.4733
  776MPD2    H311455   2.625   2.395  11.734 -1.0248  0.0336  0.5687
  776MPD2     N11456   2.339   2.615  11.469 -0.1645  0.1011 -0.5898
  776MPD2    H511457   2.408   2.690  11.463  0.6095 -0.5293  0.4159
  776MPD2    N111458   2.244   2.164  11.644  1.1931  0.9353  0.6996
  776MPD2    H711459   2.278   2.079  11.688  0.6323  0.2780 -0.1175
  777MPD2     C11460   1.883   0.724   0.536  0.5369  0.0260 -0.4927
  777MPD2    C111461   1.904   0.623   0.633 -0.2734 -0.6587  0.1749
  777MPD2    C211462   1.949   0.494   0.592  0.3000 -0.2761  0.5689
  777MPD2    C311463   1.985   0.479   0.463 -0.3834 -0.9670  0.8912
  777MPD2    C411464   1.977   0.579   0.370  0.4116  0.0197 -0.1935
  777MPD2    C511465   1.924   0.705   0.405 -0.3390  0.4585 -0.5061
  777MPD2     H11466   1.947   0.410   0.660 -1.2158 -0.7984 -0.1323
  777MPD2    H111467   2.021   0.562   0.273 -1.4186 -0.7991 -0.8816
  777MPD2    H211468   1.851   0.823   0.568  0.2286 -0.1531 -0.2432
  777MPD2    H311469   1.917   0.777   0.325  1.1792  0.9081 -0.2330
  777MPD2     N11470   2.041   0.356   0.436 -0.8113 -0.2950 -0.2753
  777MPD2    H511471   2.040   0.296   0.518 -1.0513 -0.3824 -0.3409
  777MPD2    N111472   1.873   0.652   0.766 -0.1698  0.1167 -0.0485
  777MPD2    H711473   1.829   0.741   0.788 -0.8713 -0.5188  1.1776
  778MPD2     C11474   2.762   4.633  14.420  0.1002 -0.4660 -0.4600
  778MPD2    C111475   2.849   4.613  14.524 -0.0440  0.4504 -0.6501
  778MPD2    C211476   2.978   4.664  14.516 -0.6478  0.6303  0.9004
  778MPD2    C311477   3.016   0.020  14.411  0.4134  0.5102 -0.6892
  778MPD2    C411478   2.921   0.056  14.317 -0.5350 -0.0955  0.3069
  778MPD2    C511479   2.797   4.715  14.315 -0.9437  0.1758  0.2944
  778MPD2     H11480   3.059   4.640  14.584 -0.4679  0.4692  0.6306
  778MPD2    H111481   2.936   0.128  14.238 -1.0072  0.6015  0.8543
  778MPD2    H211482   2.660   4.597  14.420 -1.3126  3.4691  2.1691
  778MPD2    H311483   2.720   0.003  14.239 -0.7599  0.2410  0.1198
  778MPD2     N11484   3.149   0.076  14.406  0.1314  0.8092 -0.0538
  778MPD2    H511485   3.207   0.054  14.486  2.6593  2.8137 -1.3354
  778MPD2    N111486   2.819   4.527  14.638 -0.3265 -0.6623 -0.5603
  778MPD2    H711487   2.878   4.526  14.721 -0.3735  2.0986 -0.4618
  779MPD2     C11488   2.553   3.705  13.875 -0.6586  0.1984  1.0652
  779MPD2    C111489   2.675   3.725  13.940 -0.1767 -0.3360 -0.2459
  779MPD2    C211490   2.702   3.859  13.959  0.2418  0.7006  0.5712
  779MPD2    C311491   2.609   3.959  13.930 -0.4299 -0.7813  0.4415
  779MPD2    C411492   2.494   3.933  13.859 -0.3428  0.1536  0.7005
  779MPD2    C511493   2.466   3.806  13.837  0.1105 -0.1513  0.1728
  779MPD2     H11494   2.792   3.883  14.015  0.9353  0.4608 -0.4373
  779MPD2    H111495   2.420   4.005  13.825 -0.1611 -1.0753 -2.3298
  779MPD2    H211496   2.526   3.601  13.864  0.8509  0.1464 -2.2490
  779MPD2    H311497   2.373   3.782  13.788  0.1012  0.1469  0.0434
  779MPD2     N11498   2.643   4.094  13.962 -0.0780  0.0350 -0.5060
  779MPD2    H511499   2.742   4.119  13.959  0.3539 -1.7902 -1.3915
  779MPD2    N111500   2.765   3.623  13.986 -0.4136 -0.8500  0.1349
  779MPD2    H711501   2.859   3.648  14.016 -1.1782  1.1024  0.8593
  780MPD2     C11502   2.699   4.450   0.796 -0.3662 -0.0776 -0.3485
  780MPD2    C111503   2.777   4.337   0.763  0.6118 -0.5611  0.0733
  780MPD2    C211504   2.866   4.348   0.658 -0.1678 -0.1230  0.3640
  780MPD2    C311505   2.879   4.467   0.586 -0.2133  0.3177  0.1707
  780MPD2    C411506   2.806   4.575   0.626 -0.3754  0.3231 -0.0286
  780MPD2    C511507   2.718   4.572   0.732  0.4013 -0.1479 -0.8366
  780MPD2     H11508   2.934   4.266   0.634 -0.1135  0.9051 -2.9366
  780MPD2    H111509   2.814   4.672   0.578 -1.3779 -0.7074 -2.2935
  780MPD2    H211510   2.617   4.447   0.867 -0.2151  0.6671 -0.1349
  780MPD2    H311511   2.665   4.662   0.760  1.8519  0.0559  1.2459
  780MPD2     N11512   2.954   4.463   0.466  0.6504 -0.2033  1.1182
  780MPD2    H511513   3.001   4.374   0.448 -0.5142 -0.7914  0.9857
  780MPD2    N111514   2.744   4.219   0.828  0.2692  0.1163 -0.0679
  780MPD2    H711515   2.679   4.214   0.905  0.2715 -2.3388 -0.2010
  781MPD2     C11516   4.158   0.540  11.683  0.0982  0.3856  0.0231
  781MPD2    C111517   4.278   0.581  11.740  0.1991 -0.4852 -0.4229
  781MPD2    C211518   4.353   0.674  11.662 -0.0291  0.7663 -0.3381
  781MPD2    C311519   4.327   0.704  11.529  0.7531  0.6482 -0.2302
  781MPD2    C411520   4.213   0.653  11.477  0.0283 -0.7215  0.2986
  781MPD2    C511521   4.127   0.579  11.556 -0.5176 -0.0733  0.6749
  781MPD2     H11522   4.446   0.711  11.705 -1.3022  3.2425  0.3322
  781MPD2    H111523   4.181   0.673  11.375  0.0009  1.5171  0.7342
  781MPD2    H211524   4.082   0.477  11.729  1.3302 -0.2383  1.2026
  781MPD2    H311525   4.031   0.542  11.520 -1.6326  1.9604  1.5950
  781MPD2     N11526   4.408   0.782  11.449  0.3693 -0.4940 -0.2156
  781MPD2    H511527   4.380   0.795  11.352  0.2898 -0.1387 -0.1484
  781MPD2    N111528   4.319   0.551  11.869  0.1901  0.2604  0.6137
  781MPD2    H711529   4.395   0.607  11.906  0.4328  3.3783 -4.5195
  782MPD2     C11530   2.397   1.770  10.324 -0.2969 -0.3358 -0.0740
  782MPD2    C111531   2.538   1.776  10.338  0.0394 -0.4549  0.0914
  782MPD2    C211532   2.600   1.845  10.437 -0.2664  0.0533 -0.1562
  782MPD2    C311533   2.519   1.924  10.518  0.2822 -0.5353  0.2698
  782MPD2    C411534   2.377   1.926  10.496 -0.1389 -0.5612  0.1314
  782MPD2    C511535   2.316   1.844  10.401  0.1090 -1.1261 -0.2521
  782MPD2     H11536   2.708   1.852  10.447 -0.1715 -0.4016 -0.8601
  782MPD2    H111537   2.311   1.983  10.560  0.6065 -0.6850  1.0037
  782MPD2    H211538   2.359   1.699  10.252 -1.6689 -0.8625  1.1770
  782MPD2    H311539   2.208   1.839  10.386  0.0213 -0.1320  0.0265
  782MPD2     N11540   2.589   1.994  10.618  0.2541 -0.1720  0.2707
  782MPD2    H511541   2.688   1.971  10.626  0.4811  1.3639  1.9990
  782MPD2    N111542   2.621   1.679  10.281  0.0341 -0.8659  0.0272
  782MPD2    H711543   2.712   1.669  10.324 -0.9990  1.1813  2.6732
  783MPD2     C11544   2.195   0.900  10.346 -0.7003  0.7444 -0.1101
  783MPD2    C111545   2.233   1.018  10.413 -0.1324  0.4311 -0.2362
  783MPD2    C211546   2.333   1.090  10.359 -0.1850 -0.2936  0.4765
  783MPD2    C311547   2.413   1.044  10.257 -0.9226 -0.3657 -0.1606
  783MPD2    C411548   2.380   0.924  10.193  0.7330  0.0784  0.7519
  783MPD2    C511549   2.264   0.853  10.240 -0.1572  0.4533  0.0790
  783MPD2     H11550   2.360   1.189  10.396  2.7433 -1.1925  0.7397
  783MPD2    H111551   2.442   0.872  10.121  0.9092 -0.3821  1.2340
  783MPD2    H211552   2.108   0.847  10.382 -0.6619  0.4994 -0.3794
  783MPD2    H311553   2.234   0.764  10.185 -3.3470  1.4263  0.2279
  783MPD2     N11554   2.515   1.131  10.230  0.4510 -0.1608 -0.1794
  783MPD2    H511555   2.525   1.211  10.291  1.4839 -0.6414  0.2741
  783MPD2    N111556   2.166   1.057  10.527 -0.6951 -0.1389 -0.0611
  783MPD2    H711557   2.095   0.989  10.551 -0.3160 -0.1001  1.1571
  784MPD2     C11558   0.145   1.922   0.913 -0.2551 -0.1910 -0.4311
  784MPD2    C111559   0.092   2.031   0.985 -0.2742 -0.5117 -0.0213
  784MPD2    C211560   4.712   2.113   0.939  0.4220 -0.2465  0.2748
  784MPD2    C311561   4.643   2.082   0.825 -0.2242  0.2295  0.8116
  784MPD2    C411562   4.688   1.977   0.753  0.2605  0.0870  0.7486
  784MPD2    C511563   0.073   1.898   0.793 -0.3653  0.1456  0.1654
  784MPD2     H11564   4.687   2.205   0.990 -1.2289  0.9953 -2.7795
  784MPD2    H111565   4.644   1.943   0.660  0.7389  0.2576  0.4589
  784MPD2    H211566   0.235   1.863   0.920  1.9795  3.1515 -1.0954
  784MPD2    H311567   0.094   1.812   0.729 -0.8149  0.7575 -0.7921
  784MPD2     N11568   4.544   2.165   0.782  0.3193  0.4709  0.4272
  784MPD2    H511569   4.508   2.238   0.843  1.3195  2.5779 -1.4823
  784MPD2    N111570   0.155   2.065   1.105  0.7748  0.8620  0.0594
  784MPD2    H711571   0.117   2.143   1.158  0.2554  0.9420 -0.4231
  785MPD2     C11572   0.004   0.649  10.425 -0.4228 -0.5230  0.0595
  785MPD2    C111573   4.713   0.785  10.389  0.2821  0.4757 -0.1680
  785MPD2    C211574   4.618   0.815  10.288  0.4326  0.3496 -0.7540
  785MPD2    C311575   4.542   0.723  10.227 -0.1341  0.4040  0.0913
  785MPD2    C411576   4.552   0.592  10.269  0.0209 -0.2818  0.0183
  785MPD2    C511577   4.640   0.558  10.368  0.8903  0.2566 -0.2818
  785MPD2     H11578   4.600   0.918  10.261 -1.8597 -0.2821 -1.6110
  785MPD2    H111579   4.492   0.518  10.216  0.5481 -0.6419 -0.0757
  785MPD2    H211580   0.085   0.612  10.486 -1.3897 -0.9994  1.0615
  785MPD2    H311581   4.657   0.457  10.403 -0.0539 -0.9806 -3.3395
  785MPD2     N11582   4.457   0.771  10.122 -0.2854  0.4452 -0.5284
  785MPD2    H511583   4.441   0.871  10.123  2.0107  0.8086 -0.1169
  785MPD2    N111584   0.062   0.899  10.443 -0.4417 -0.2460 -0.0821
  785MPD2    H711585   0.043   0.983  10.389  4.1610  0.2716 -0.8807
  786MPD2     C11586   3.999   3.255  14.341  0.5268 -1.1368  0.6884
  786MPD2    C111587   3.920   3.195  14.445  0.4475  0.1485 -0.2687
  786MPD2    C211588   3.966   3.196  14.578 -0.2077  0.1247 -0.3172
  786MPD2    C311589   4.089   3.260  14.597  0.3198  0.0027  0.3440
  786MPD2    C411590   4.162   3.320  14.496 -0.1034  0.1738 -0.1655
  786MPD2    C511591   4.117   3.307  14.370  0.5844 -0.4792  0.4354
  786MPD2     H11592   3.914   3.145  14.658 -0.1967  0.7509  0.0946
  786MPD2    H111593   4.257   3.369  14.512  0.5929 -0.6526 -1.7588
  786MPD2    H211594   3.970   3.262  14.237 -1.4368  2.7992  1.4958
  786MPD2    H311595   4.168   3.364  14.292 -2.1222 -0.7873 -1.5815
  786MPD2     N11596   4.147   3.288  14.727  0.2454  0.1484  0.3232
  786MPD2    H511597   4.229   3.348  14.733  1.1373 -1.1681  1.0579
  786MPD2    N111598   3.819   3.101  14.415  0.4461 -0.5699  0.0965
  786MPD2    H711599   3.779   3.059  14.498  0.2066 -0.1578  0.1877
  787MPD2     C11600   3.768   2.749  14.867  0.5164  0.0584  0.1384
  787MPD2    C111601   3.742   2.671  14.752  0.6900  0.3430 -0.3769
  787MPD2    C211602   3.806   2.553  14.733  0.4858 -0.0661 -0.6357
  787MPD2    C311603   3.885   2.504  14.836  1.0087  0.0826 -0.4171
  787MPD2    C411604   3.882   2.563  14.960  1.0122  0.2041 -0.0834
  787MPD2    C511605   3.841   2.691  14.971  0.1779  0.0391 -0.0425
  787MPD2     H11606   3.792   2.495  14.643  0.3901  0.5655 -1.0297
  787MPD2    H111607   3.945   2.525  15.040  0.5551 -0.5645 -0.0998
  787MPD2    H211608   3.729   2.850  14.869 -0.7408 -0.3904 -1.6981
  787MPD2    H311609   3.860   2.734  15.068  0.8440 -3.1100  1.2108
  787MPD2     N11610   3.962   2.392  14.811  0.7039  0.1695  0.5547
  787MPD2    H511611   3.961   2.359  14.715  1.0478 -1.0825  0.9812
  787MPD2    N111612   3.676   2.736  14.648  0.4393  0.0473 -0.6744
  787MPD2    H711613   3.673   2.838  14.648 -2.2195 -0.0573  1.0535
  788MPD2     C11614   1.200   0.799   0.593  0.5238  0.4371 -0.2465
  788MPD2    C111615   1.071   0.811   0.560  0.0627 -0.0471  0.3002
  788MPD2    C211616   1.014   0.935   0.530  0.4119 -0.3786 -0.6747
  788MPD2    C311617   1.093   1.048   0.538  0.6369 -0.7873  0.0416
  788MPD2    C411618   1.225   1.043   0.588 -1.0512  0.4883 -0.3868
  788MPD2    C511619   1.275   0.915   0.617 -0.3770 -0.6416  0.3234
  788MPD2     H11620   0.915   0.948   0.488 -0.3251 -0.2247  1.0850
  788MPD2    H111621   1.286   1.132   0.596 -1.3241  0.6097  0.3603
  788MPD2    H211622   1.257   0.707   0.601  0.7026  0.6316  0.7227
  788MPD2    H311623   1.382   0.908   0.632  0.2213  1.0771 -3.2257
  788MPD2     N11624   1.054   1.176   0.494  0.0476 -0.2988  0.5048
  788MPD2    H511625   1.124   1.249   0.490  2.0336 -2.1228  2.1595
  788MPD2    N111626   1.002   0.685   0.536  1.0441  0.5651 -0.2019
  788MPD2    H711627   1.056   0.599   0.532  2.2481  1.3183 -0.1224
  789MPD2     C11628   1.204   0.745  16.714 -0.1405 -1.2905  0.4619
  789MPD2    C111629   1.223   0.824  16.607  0.6689  0.9541 -0.2745
  789MPD2    C211630   1.124   0.893  16.548  0.0517 -0.2004 -0.5612
  789MPD2    C311631   0.997   0.895  16.607 -0.7644 -0.4492  0.5226
  789MPD2    C411632   0.981   0.818  16.722  0.8268 -0.8871 -0.3641
  789MPD2    C511633   1.084   0.747  16.775  0.0241 -0.3328 -0.4278
  789MPD2     H11634   1.143   0.944  16.454  0.1972  0.3337 -0.2448
  789MPD2    H111635   0.892   0.821  16.784  1.0493 -1.6024 -0.0134
  789MPD2    H211636   1.271   0.668  16.751  0.0155 -1.2780  0.2118
  789MPD2    H311637   1.063   0.684  16.861  0.3530 -1.4697 -1.1946
  789MPD2     N11638   0.887   0.978  16.557 -0.6103 -0.3304  0.1920
  789MPD2    H511639   0.794   0.962  16.593 -0.3286 -2.9314 -0.2131
  789MPD2    N111640   1.348   0.824  16.537  0.6936 -0.1166  0.2497
  789MPD2    H711641   1.358   0.871  16.448 -2.1776  0.1852  0.0851
  790MPD2     C11642   1.695   3.197  12.936  0.1910  0.3102  0.1677
  790MPD2    C111643   1.788   3.096  12.941  0.0822  0.6932  0.8534
  790MPD2    C211644   1.762   2.980  12.870 -0.6639 -0.4253  0.0732
  790MPD2    C311645   1.648   2.955  12.796  0.3036  0.1745 -0.1901
  790MPD2    C411646   1.553   3.055  12.800  0.2963 -0.0740 -0.0395
  790MPD2    C511647   1.573   3.172  12.870 -0.1489 -0.1242 -0.4817
  790MPD2     H11648   1.836   2.900  12.866 -2.0972 -1.7230 -0.3243
  790MPD2    H111649   1.455   3.047  12.755 -0.7115 -0.8904  2.2801
  790MPD2    H211650   1.713   3.295  12.977 -0.0959  0.5162 -0.1949
  790MPD2    H311651   1.492   3.244  12.861  0.3820  0.6977  1.3695
  790MPD2     N11652   1.621   2.829  12.739  0.3358 -0.0790  0.3590
  790MPD2    H511653   1.692   2.757  12.752 -0.6536 -0.8330  1.5512
  790MPD2    N111654   1.906   3.124  13.016  1.1180  0.6945 -0.5602
  790MPD2    H711655   1.915   3.215  13.061 -0.6249  0.5936  0.0065
  791MPD2     C11656   1.014   2.720  12.253 -0.5910 -0.9879  0.0880
  791MPD2    C111657   1.072   2.601  12.280 -0.7888  0.1586 -0.0457
  791MPD2    C211658   0.996   2.487  12.256  0.3035 -1.0321  0.0958
  791MPD2    C311659   0.880   2.496  12.181  0.0995 -0.7149  0.3947
  791MPD2    C411660   0.827   2.621  12.139 -0.8938 -0.0671  0.2567
  791MPD2    C511661   0.893   2.730  12.183 -0.3327  0.5861 -0.5484
  791MPD2     H11662   1.023   2.388  12.293 -2.0648 -0.8259  2.4470
  791MPD2    H111663   0.743   2.640  12.073 -1.9161  0.0788  1.5896
  791MPD2    H211664   1.057   2.816  12.279 -0.1524 -1.2248  0.2293
  791MPD2    H311665   0.849   2.828  12.167  0.3407  1.3790  2.4594
  791MPD2     N11666   0.799   2.384  12.162 -0.1966 -0.2750 -0.1649
  791MPD2    H511667   0.840   2.302  12.206 -0.4611  2.0090  4.3291
  791MPD2    N111668   1.194   2.604  12.354  0.4126  0.2407  0.5317
  791MPD2    H711669   1.235   2.695  12.373  0.8463  0.1881 -0.1429
  792MPD2     C11670   2.313   2.294  11.215  0.3702  0.2273  0.0822
  792MPD2    C111671   2.271   2.349  11.099 -0.5161 -0.7513 -0.1186
  792MPD2    C211672   2.161   2.302  11.034  0.3946  0.2602 -0.2418
  792MPD2    C311673   2.080   2.206  11.091  0.4881 -0.7484  0.1965
  792MPD2    C411674   2.120   2.156  11.216 -0.0120  0.1630  0.5448
  792MPD2    C511675   2.234   2.196  11.274  0.2214  0.2412 -0.2257
  792MPD2     H11676   2.137   2.343  10.936 -1.7685 -1.0683 -0.2741
  792MPD2    H111677   2.050   2.091  11.266  2.0043 -0.5943  2.3779
  792MPD2    H211678   2.404   2.330  11.262  0.4092  0.6679 -0.3360
  792MPD2    H311679   2.268   2.154  11.368  1.3011 -0.3342 -0.8708
  792MPD2     N11680   1.961   2.148  11.028  0.1024  0.5902  0.2339
  792MPD2    H511681   1.923   2.071  11.081 -0.7616  0.6594 -0.2929
  792MPD2    N111682   2.353   2.446  11.040  0.6225  0.1330 -0.4150
  792MPD2    H711683   2.437   2.464  11.093  0.9680 -1.6566 -0.3614
  793MPD2     C11684   1.363   2.403  10.229  0.6225 -0.1364  0.2634
  793MPD2    C111685   1.499   2.394  10.248 -0.3687  0.6875 -0.6701
  793MPD2    C211686   1.554   2.330  10.358  0.1303  0.0650 -0.1141
  793MPD2    C311687   1.479   2.272  10.456  0.3227 -0.3490  0.7870
  793MPD2    C411688   1.341   2.279  10.438  0.2072  0.2204 -0.4760
  793MPD2    C511689   1.286   2.341  10.324 -0.2175  0.0429  0.2673
  793MPD2     H11690   1.662   2.321  10.357  0.1021 -0.3648  0.5924
  793MPD2    H111691   1.260   2.244  10.502  0.1370  0.4937 -0.4168
  793MPD2    H211692   1.318   2.436  10.137  0.0539 -1.0449  0.2234
  793MPD2    H311693   1.179   2.349  10.315 -0.3332 -1.7116 -0.0238
  793MPD2     N11694   1.537   2.233  10.572  0.0623 -0.1832  0.3164
  793MPD2    H511695   1.638   2.235  10.575  0.0526  1.2659 -0.6306
  793MPD2    N111696   1.595   2.444  10.153 -0.7742 -0.5611  0.3878
  793MPD2    H711697   1.687   2.406  10.173 -0.2765 -0.6794 -2.1566
  794MPD2     C11698   1.838   2.709  16.942 -0.1658  0.0193 -0.3586
  794MPD2    C111699   1.751   2.606  16.957  0.1776 -0.2373 -0.3042
  794MPD2    C211700   1.625   2.613  16.905 -0.0823 -0.1817 -0.4880
  794MPD2    C311701   1.590   2.727  16.822 -0.1840  0.1208  0.2286
  794MPD2    C411702   1.672   2.835  16.812 -0.8985  0.0941  0.5622
  794MPD2    C511703   1.798   2.822  16.870 -0.4643 -0.2606  0.3626
  794MPD2     H11704   1.544   2.543  16.920  1.3528 -1.4848  1.0946
  794MPD2    H111705   1.646   2.926  16.760  0.8407 -0.1405 -0.7235
  794MPD2    H211706   1.937   2.719  16.985 -0.2552 -0.0789 -0.1282
  794MPD2    H311707   1.876   2.893  16.848 -1.5911  2.0239  3.7054
  794MPD2     N11708   1.464   2.741  16.753 -0.2320 -0.0068 -0.0472
  794MPD2    H511709   1.449   2.837  16.723  1.0732 -0.0755 -0.9238
  794MPD2    N111710   1.782   2.486  17.025  0.1658 -0.2136  0.3230
  794MPD2    H711711   1.699   2.432  17.048  0.1566 -0.0062  0.7901
  795MPD2     C11712   3.753   4.283  13.434  0.0004 -0.8440 -0.4826
  795MPD2    C111713   3.732   4.178  13.350  0.1663  0.3699 -0.0304
  795MPD2    C211714   3.818   4.068  13.360 -0.5963  0.3100  0.0060
  795MPD2    C311715   3.930   4.072  13.444 -0.5232  0.5476 -0.4112
  795MPD2    C411716   3.959   4.188  13.511  0.0453 -0.5580  0.7698
  795MPD2    C511717   3.859   4.278  13.514  0.6790  0.3053 -0.1652
  795MPD2     H11718   3.811   3.988  13.288 -3.6948  0.0142  0.6489
  795MPD2    H111719   4.032   4.199  13.591 -1.8411 -0.9139  2.5472
  795MPD2    H211720   3.697   4.376  13.429  0.1894 -0.8228 -2.0401
  795MPD2    H311721   3.884   4.373  13.561 -2.1789  0.7687  0.3887
  795MPD2     N11722   4.024   3.967  13.450 -0.6579  0.1269 -0.1419
  795MPD2    H511723   4.100   3.976  13.516 -0.6047 -0.1666 -0.1605
  795MPD2    N111724   3.620   4.169  13.256  0.0900 -0.1927 -0.4171
  795MPD2    H711725   3.613   4.076  13.218 -1.2550 -0.4241  0.4184
  796MPD2     C11726   3.630   0.893  15.337 -0.5413 -0.6319 -1.0506
  796MPD2    C111727   3.688   0.954  15.452 -0.5029  0.3561 -0.3780
  796MPD2    C211728   3.667   1.086  15.481 -0.7279  0.8274  0.1137
  796MPD2    C311729   3.582   1.158  15.399 -0.3974 -0.0356  0.3074
  796MPD2    C411730   3.513   1.092  15.297  0.3528  0.2906 -0.2042
  796MPD2    C511731   3.542   0.962  15.266 -0.6046  0.4595  0.5740
  796MPD2     H11732   3.728   1.140  15.552  2.4258 -0.7646 -1.4044
  796MPD2    H111733   3.452   1.151  15.231  0.6407 -0.6420 -1.3008
  796MPD2    H211734   3.649   0.791  15.304 -0.0194 -0.5138 -1.1236
  796MPD2    H311735   3.488   0.933  15.176  0.2630 -1.0454  0.5460
  796MPD2     N11736   3.569   1.301  15.421 -0.0865 -0.4632  0.4436
  796MPD2    H511737   3.619   1.337  15.501  0.2164  0.3353 -0.1037
  796MPD2    N111738   3.762   0.870  15.540 -0.3593  0.4736 -0.1316
  796MPD2    H711739   3.798   0.785  15.499 -1.1553 -0.5177  1.2296
  797MPD2     C11740   0.110   0.247  16.746 -0.6273 -1.4598  0.2441
  797MPD2    C111741   0.103   0.346  16.844  0.1978 -0.4045  0.5918
  797MPD2    C211742   4.712   0.416  16.859 -0.9280  0.2342  0.3784
  797MPD2    C311743   4.595   0.378  16.794 -0.4152 -0.0785  0.1171
  797MPD2    C411744   4.607   0.290  16.686  0.3170  0.5298 -0.3219
  797MPD2    C511745   0.000   0.216  16.673  0.2343  0.1528  0.0493
  797MPD2     H11746   4.694   0.500  16.925  1.0779  0.2614  0.8910
  797MPD2    H111747   4.521   0.254  16.630  1.2585 -2.4573  0.1091
  797MPD2    H211748   0.199   0.192  16.718 -0.5015 -0.1233 -2.0365
  797MPD2    H311749   0.018   0.141  16.596  0.6373  1.0198 -0.6975
  797MPD2     N11750   4.478   0.452  16.829 -0.5379  0.2710  0.1650
  797MPD2    H511751   4.484   0.510  16.912 -3.2040  1.3567 -0.3917
  797MPD2    N111752   0.233   0.385  16.905 -0.3850 -0.1946 -0.2008
  797MPD2    H711753   0.318   0.345  16.865  0.0766  0.8811 -0.2915
  798MPD2     C11754   4.586   1.014  17.232 -0.0509 -0.9268 -0.1009
  798MPD2    C111755   4.577   0.888  17.173 -0.3720  0.4655 -0.1509
  798MPD2    C211756   4.691   0.824  17.153  0.3427  0.2779  0.4127
  798MPD2    C311757   0.085   0.879  17.193 -0.4034 -0.0375  0.4749
  798MPD2    C411758   0.094   1.005  17.251 -0.8660  0.0964  0.7705
  798MPD2    C511759   4.706   1.066  17.276  0.1001  0.5036 -0.5319
  798MPD2     H11760   4.700   0.730  17.101  0.4533  0.8957 -0.6913
  798MPD2    H111761   0.192   1.042  17.280 -0.1271  1.2501 -3.1147
  798MPD2    H211762   4.499   1.078  17.232  0.3982 -0.3135  2.3066
  798MPD2    H311763   4.716   1.169  17.311  4.5429 -0.2445  0.3169
  798MPD2     N11764   0.199   0.809  17.149  0.4699  0.3198  0.2712
  798MPD2    H511765   0.181   0.714  17.116 -0.6018  0.2880  0.9409
  798MPD2    N111766   4.450   0.841  17.125  0.0028  0.3982 -0.0026
  798MPD2    H711767   4.365   0.894  17.141 -1.0890 -0.5967 -2.4826
  799MPD2     C11768   3.706   2.037  14.837  0.0784 -0.5069 -0.3698
  799MPD2    C111769   3.671   1.972  14.720  0.4390 -0.7063 -0.1760
  799MPD2    C211770   3.630   2.056  14.620  0.9095  0.0623  0.4373
  799MPD2    C311771   3.618   2.191  14.637 -0.1551  0.3807  0.5068
  799MPD2    C411772   3.644   2.251  14.756 -0.0757  0.5045  0.3777
  799MPD2    C511773   3.690   2.170  14.852 -0.0181 -0.3191  0.7898
  799MPD2     H11774   3.629   2.013  14.520  2.1295  0.0871  0.4244
  799MPD2    H111775   3.630   2.355  14.780  1.8127  1.1226 -1.1388
  799MPD2    H211776   3.745   1.984  14.923 -1.2136  1.2690  1.3012
  799MPD2    H311777   3.726   2.210  14.947 -0.1799  2.1326 -0.1708
  799MPD2     N11778   3.585   2.269  14.523  0.4654  0.2694  0.1226
  799MPD2    H511779   3.605   2.368  14.521 -0.7770  0.5328  0.9129
  799MPD2    N111780   3.695   1.839  14.690 -0.1200 -0.6594 -0.5217
  799MPD2    H711781   3.661   1.793  14.606 -0.6532 -1.1709 -0.0320
  800MPD2     C11782   3.500   3.250  13.534 -0.3013 -0.2056 -0.2608
  800MPD2    C111783   3.567   3.179  13.626  0.0124 -0.0125 -0.3954
  800MPD2    C211784   3.570   3.043  13.603  0.4435 -0.0109 -0.6677
  800MPD2    C311785   3.528   2.989  13.486 -0.5373  0.8133 -0.5048
  800MPD2    C411786   3.461   3.063  13.399  0.2208  0.1455 -0.0221
  800MPD2    C511787   3.433   3.192  13.429  0.1270 -0.0336  0.2891
  800MPD2     H11788   3.632   2.976  13.661 -0.1720 -0.7720 -0.8852
  800MPD2    H111789   3.425   3.032  13.302 -1.7998 -0.9634  1.0655
  800MPD2    H211790   3.495   3.359  13.539  0.3607 -0.0348 -3.1140
  800MPD2    H311791   3.391   3.248  13.347  0.5269 -1.6201 -0.9993
  800MPD2     N11792   3.591   2.875  13.430 -0.6879  0.7122 -0.1771
  800MPD2    H511793   3.595   2.870  13.328  1.2630  0.0844 -0.0799
  800MPD2    N111794   3.650   3.252  13.719  0.0186  0.7398 -0.1368
  800MPD2    H711795   3.662   3.352  13.706  0.4796  0.8580  1.2138
  801MPD2     C11796   3.947   3.912  13.792  0.3255  0.8496  0.2563
  801MPD2    C111797   3.836   3.833  13.823  0.0770 -0.4143  0.0690
  801MPD2    C211798   3.712   3.893  13.849  0.3024  0.0759 -0.7747
  801MPD2    C311799   3.705   4.030  13.849 -0.5417  0.1153 -0.5473
  801MPD2    C411800   3.818   4.104  13.846 -0.0606  0.5301 -0.1767
  801MPD2    C511801   3.934   4.041  13.819 -0.5891  0.3551  0.5857
  801MPD2     H11802   3.628   3.828  13.867 -2.1212  3.0806 -1.1576
  801MPD2    H111803   3.818   4.213  13.853 -1.4223  0.6885 -2.3631
  801MPD2    H211804   4.046   3.871  13.773  0.4206  1.5679 -0.8386
  801MPD2    H311805   4.022   4.104  13.821 -1.1235  1.1209  0.0327
  801MPD2     N11806   3.580   4.102  13.843  0.1861  0.4282  0.2495
  801MPD2    H511807   3.594   4.202  13.831  0.2574  0.4529  0.5319
  801MPD2    N111808   3.842   3.693  13.845  0.2541 -0.6245  0.0215
  801MPD2    H711809   3.755   3.649  13.872 -0.8311  0.6996 -1.3263
  802MPD2     C11810   3.535   3.937  16.755  0.2008 -0.2865  0.2872
  802MPD2    C111811   3.500   4.034  16.847 -0.0626 -0.0394 -0.4951
  802MPD2    C211812   3.549   4.029  16.979 -0.4952  0.4964  0.3787
  802MPD2    C311813   3.619   3.913  17.023 -0.5750  0.3542  0.1515
  802MPD2    C411814   3.651   3.815  16.932 -0.2977  0.3404 -0.2829
  802MPD2    C511815   3.606   3.823  16.804  0.4802  0.1297 -0.0349
  802MPD2     H11816   3.509   4.098  17.052 -2.5375  0.8545 -1.0756
  802MPD2    H111817   3.705   3.727  16.964 -0.2370  0.3357 -0.4007
  802MPD2    H211818   3.486   3.931  16.658 -0.9412 -1.5509  0.9415
  802MPD2    H311819   3.626   3.742  16.734 -1.3446 -2.6429  2.6853
  802MPD2     N11820   3.665   3.921  17.158 -0.3472 -0.0939 -0.0492
  802MPD2    H511821   3.627   3.999  17.209  1.3311  1.0843 -0.6231
  802MPD2    N111822   3.425   4.149  16.818  0.3569  0.2161 -0.4762
  802MPD2    H711823   3.406   4.218  16.890 -0.3656 -0.9835  0.4851
  803MPD2     C11824   4.300   2.677  11.814 -0.1959 -0.2984 -0.6453
  803MPD2    C111825   4.386   2.634  11.905  0.5954  0.2803  0.0823
  803MPD2    C211826   4.353   2.521  11.977 -0.3853  1.0151 -0.4296
  803MPD2    C311827   4.229   2.458  11.967 -0.4031 -0.2487 -0.4327
  803MPD2    C411828   4.147   2.508  11.874 -0.2138  0.0111  0.8759
  803MPD2    C511829   4.174   2.620  11.801  0.2780  0.0650 -0.0932
  803MPD2     H11830   4.422   2.481  12.050 -0.8393 -1.6813 -1.4921
  803MPD2    H111831   4.049   2.462  11.861  0.2895  0.5468 -4.5269
  803MPD2    H211832   4.327   2.755  11.744  1.0448 -2.6513 -2.8221
  803MPD2    H311833   4.099   2.646  11.727 -0.4483 -1.6088  0.0414
  803MPD2     N11834   4.199   2.345  12.034 -0.1046  0.2381 -0.5398
  803MPD2    H511835   4.102   2.317  12.030  0.1229 -0.7127  0.5097
  803MPD2    N111836   4.515   2.692  11.929  0.4134  0.3586  1.1100
  803MPD2    H711837   4.575   2.648  11.998  0.3078 -0.7676  0.4832
  804MPD2     C11838   4.211   3.970  16.563  0.0187  0.2846  0.1327
  804MPD2    C111839   4.290   3.964  16.665  0.8678 -0.3560 -0.0993
  804MPD2    C211840   4.358   4.069  16.710 -0.1334  0.3207 -0.7390
  804MPD2    C311841   4.347   4.187  16.637 -0.5157 -0.7794 -1.0848
  804MPD2    C411842   4.274   4.188  16.520 -0.5780 -0.3258 -0.0776
  804MPD2    C511843   4.207   4.079  16.482  0.0184  0.1779  0.0064
  804MPD2     H11844   4.411   4.060  16.804 -1.6924 -0.0924  0.0868
  804MPD2    H111845   4.278   4.277  16.457  1.1401 -0.4569 -0.1553
  804MPD2    H211846   4.136   3.896  16.538 -0.4585  1.0454 -0.7167
  804MPD2    H311847   4.158   4.085  16.385 -1.0710 -0.3700  0.5227
  804MPD2     N11848   4.424   4.301  16.668  0.8333  0.2135  0.1204
  804MPD2    H511849   4.403   4.381  16.610 -1.0389 -0.3298  0.0607
  804MPD2    N111850   4.288   3.848  16.752 -0.0014  0.3950 -0.2122
  804MPD2    H711851   4.325   3.856  16.847  0.1838  2.6261 -0.4762
  805MPD2     C11852   3.506   2.494  15.114 -0.0953 -0.2464 -0.6920
  805MPD2    C111853   3.549   2.366  15.142  0.2785  0.5356  0.6528
  805MPD2    C211854   3.649   2.354  15.234  0.0349 -0.2547 -0.0445
  805MPD2    C311855   3.721   2.459  15.279  0.1058 -0.4871 -0.7146
  805MPD2    C411856   3.686   2.588  15.235 -0.1676 -0.6876  0.8586
  805MPD2    C511857   3.577   2.602  15.154 -0.3631 -0.1821 -0.2752
  805MPD2     H11858   3.672   2.250  15.257  0.2621 -0.2763 -0.3637
  805MPD2    H111859   3.733   2.679  15.270 -1.2904  0.9945 -2.0266
  805MPD2    H211860   3.426   2.512  15.044  0.0741  0.3917 -0.7244
  805MPD2    H311861   3.551   2.699  15.115 -0.6162 -1.0894 -2.3528
  805MPD2     N11862   3.831   2.440  15.365 -0.3754 -0.0978  0.3121
  805MPD2    H511863   3.835   2.349  15.410  2.4248 -0.2274 -0.2084
  805MPD2    N111864   3.489   2.245  15.085  0.0765  0.4104  0.3149
  805MPD2    H711865   3.537   2.158  15.107  0.2238  0.3011 -0.4353
  806MPD2     C11866   3.897   2.327   0.570 -0.3687 -0.0105 -0.6262
  806MPD2    C111867   3.995   2.233   0.559  0.3019 -0.0800  0.1689
  806MPD2    C211868   4.062   2.220   0.438 -0.7299  0.6986 -0.3803
  806MPD2    C311869   4.024   2.297   0.333  0.7475 -0.6204  0.4440
  806MPD2    C411870   3.929   2.394   0.347  0.1583  0.0632 -0.0489
  806MPD2    C511871   3.865   2.414   0.470 -0.8740 -0.8162  0.0467
  806MPD2     H11872   4.140   2.146   0.421 -0.3041  1.2472 -0.8365
  806MPD2    H111873   3.910   2.470   0.272 -1.1046  1.5607  1.7923
  806MPD2    H211874   3.843   2.341   0.663 -0.6141 -2.8384 -0.3388
  806MPD2    H311875   3.787   2.488   0.484 -0.6776 -0.4088 -0.9958
  806MPD2     N11876   4.078   2.275   0.202  0.6120  0.0627 -0.1406
  806MPD2    H511877   4.145   2.199   0.192 -1.4553 -1.7289 -0.4932
  806MPD2    N111878   4.035   2.148   0.671 -0.1060  0.1564 -0.4945
  806MPD2    H711879   3.995   2.178   0.760  0.9081  0.8462 -0.2696
  807MPD2     C11880   3.712   1.712   1.217  0.2095 -0.2446 -0.3347
  807MPD2    C111881   3.839   1.655   1.213 -0.6715  0.0872  0.6169
  807MPD2    C211882   3.863   1.539   1.276  0.1106  0.8285 -0.4935
  807MPD2    C311883   3.772   1.477   1.355  0.4617  0.0160 -0.5514
  807MPD2    C411884   3.647   1.539   1.362  0.3296  0.4811 -0.4747
  807MPD2    C511885   3.612   1.649   1.296 -1.2516  0.2114  0.5315
  807MPD2     H11886   3.964   1.499   1.279 -0.0543  0.6720  2.8860
  807MPD2    H111887   3.564   1.486   1.407 -0.9427  0.6933 -2.6044
  807MPD2    H211888   3.690   1.808   1.173 -0.4288 -0.5723 -0.7407
  807MPD2    H311889   3.510   1.684   1.308 -0.9852  0.4492  2.0629
  807MPD2     N11890   3.813   1.362   1.427  0.8432 -0.4761  0.0148
  807MPD2    H511891   3.912   1.339   1.436  0.7104 -1.1740 -0.3218
  807MPD2    N111892   3.944   1.716   1.134  0.9038  0.2961 -0.0359
  807MPD2    H711893   4.035   1.674   1.148  1.2411  1.0630  0.0552
  808MPD2     C11894   3.980   4.072   9.196 -0.1519 -0.4206  0.1605
  808MPD2    C111895   4.025   3.943   9.179 -0.2821  1.2512  0.1387
  808MPD2    C211896   4.118   3.892   9.269  0.7259  0.3864  0.2571
  808MPD2    C311897   4.159   3.974   9.375  0.0777  0.4861 -0.3610
  808MPD2    C411898   4.117   4.100   9.390 -0.7624 -0.1227 -0.9928
  808MPD2    C511899   4.026   4.146   9.299  0.3172 -0.0961  0.0314
  808MPD2     H11900   4.146   3.788   9.262 -2.3689 -0.4516  0.4971
  808MPD2    H111901   4.157   4.163   9.468 -1.3672 -1.9666  0.8237
  808MPD2    H211902   3.903   4.118   9.134  0.8837  1.0339 -0.0459
  808MPD2    H311903   3.996   4.248   9.323  1.0343  0.1025  0.0739
  808MPD2     N11904   4.244   3.927   9.479 -0.6153 -0.4703  0.7652
  808MPD2    H511905   4.255   3.988   9.559 -0.3187 -0.4167  0.6819
  808MPD2    N111906   3.977   3.857   9.079 -0.4221  0.1907  0.5796
  808MPD2    H711907   4.017   3.765   9.068 -0.0917  0.0830  2.6695
  809MPD2     C11908   0.040   2.992   9.625 -0.6418 -0.6453  0.1672
  809MPD2    C111909   0.119   3.088   9.566 -0.2160 -0.8835 -0.2775
  809MPD2    C211910   0.082   3.224   9.580  0.3786 -0.3424 -0.3499
  809MPD2    C311911   4.685   3.268   9.640 -0.3153 -0.3971 -0.8769
  809MPD2    C411912   4.607   3.162   9.684  0.1628  0.0138  0.0565
  809MPD2    C511913   4.650   3.035   9.678  0.2940  0.0404  0.4264
  809MPD2     H11914   0.155   3.300   9.555  0.0776  0.5056  1.3498
  809MPD2    H111915   4.506   3.178   9.721  0.8462  1.0334  1.4781
  809MPD2    H211916   0.065   2.887   9.614  0.1061 -0.4981  0.4833
  809MPD2    H311917   4.582   2.955   9.705 -1.2654  1.0616 -0.4906
  809MPD2     N11918   4.659   3.408   9.653 -0.1910 -0.3143 -0.3907
  809MPD2    H511919   0.003   3.473   9.614  0.5095 -1.2214 -0.6816
  809MPD2    N111920   0.240   3.062   9.503  0.0500 -0.3083 -0.5017
  809MPD2    H711921   0.298   3.137   9.468  0.6585  0.3287  1.8351
  810MPD2     C11922   4.319   2.713   9.931  0.0357 -0.1566  0.2750
  810MPD2    C111923   4.269   2.652  10.044 -0.4579  0.5035  0.4862
  810MPD2    C211924   4.284   2.715  10.169  0.3793  0.2979 -0.3946
  810MPD2    C311925   4.350   2.832  10.177 -0.3879  0.3226  0.2584
  810MPD2    C411926   4.415   2.891  10.073  0.7426 -0.5862 -0.4805
  810MPD2    C511927   4.394   2.831   9.949  1.0576  1.3018 -0.4495
  810MPD2     H11928   4.239   2.672  10.258  1.4831 -0.4522 -0.1916
  810MPD2    H111929   4.479   2.976  10.092 -1.3652  1.0102 -0.5273
  810MPD2    H211930   4.345   2.658   9.841  1.0104  0.3692  0.2351
  810MPD2    H311931   4.454   2.871   9.868  2.3896 -0.4587 -0.3432
  810MPD2     N11932   4.351   2.913  10.294  0.5482  0.3637  0.3808
  810MPD2    H511933   4.413   2.993  10.300  0.2801  0.4846  1.5211
  810MPD2    N111934   4.194   2.541  10.035 -0.3517  0.3918  0.3629
  810MPD2    H711935   4.169   2.498   9.946  3.0834 -1.4949  0.2879
  811MPD2     C11936   3.443   2.363   9.702 -0.0005 -0.0934  0.1849
  811MPD2    C111937   3.534   2.436   9.776 -0.2827 -0.1692  0.0850
  811MPD2    C211938   3.515   2.576   9.761 -0.8925  0.1290  0.1835
  811MPD2    C311939   3.429   2.638   9.676  0.7305  0.2522 -0.8638
  811MPD2    C411940   3.341   2.556   9.607  0.3102 -0.0137  0.2062
  811MPD2    C511941   3.353   2.418   9.615  0.0568 -0.2127  0.1492
  811MPD2     H11942   3.595   2.635   9.804 -1.5060  0.3258  1.0474
  811MPD2    H111943   3.259   2.603   9.555  0.1856  0.8033  1.1559
  811MPD2    H211944   3.460   2.256   9.701 -3.7932 -0.6756  0.0575
  811MPD2    H311945   3.286   2.353   9.560 -0.7524 -0.6221  1.6194
  811MPD2     N11946   3.431   2.780   9.663  0.1408  0.7881  0.0388
  811MPD2    H511947   3.492   2.838   9.720  0.0676 -2.0542  2.9740
  811MPD2    N111948   3.646   2.372   9.843 -0.0488  0.1280 -0.0509
  811MPD2    H711949   3.639   2.273   9.820  0.3523  0.2230 -0.5761
  812MPD2     C11950   2.759   2.522  12.015 -0.6872 -0.3065 -0.5301
  812MPD2    C111951   2.688   2.583  12.116 -0.7599  0.6583 -0.1482
  812MPD2    C211952   2.669   2.525  12.234  0.0536  0.2128 -0.2331
  812MPD2    C311953   2.720   2.400  12.256  0.4585  0.4679  0.0872
  812MPD2    C411954   2.806   2.342  12.161  0.5273  0.5304 -0.4327
  812MPD2    C511955   2.815   2.400  12.039 -0.8346 -0.3829  0.2447
  812MPD2     H11956   2.628   2.578  12.319 -1.5146 -1.6132  0.1610
  812MPD2    H111957   2.858   2.249  12.180 -0.2226 -0.3616 -2.7871
  812MPD2    H211958   2.768   2.557  11.913 -0.5256  1.5005  0.0953
  812MPD2    H311959   2.871   2.352  11.959  0.5747  1.6073  0.0360
  812MPD2     N11960   2.700   2.343  12.382 -0.0342 -0.4084  0.0476
  812MPD2    H511961   2.632   2.390  12.441  2.4546  0.8332  1.9422
  812MPD2    N111962   2.647   2.708  12.084  0.7656  0.2364 -0.2457
  812MPD2    H711963   2.669   2.742  11.991  0.6053  1.1470  0.0491
  813MPD2     C11964   1.277   4.571  12.644 -0.3871 -0.1174 -0.0860
  813MPD2    C111965   1.333   4.476  12.731  0.3345  0.5706  0.3464
  813MPD2    C211966   1.267   4.442  12.852  0.4612 -0.6733  0.1652
  813MPD2    C311967   1.144   4.500  12.879 -0.4558 -0.3475  0.1668
  813MPD2    C411968   1.091   4.587  12.793 -0.1482  0.5562  0.6472
  813MPD2    C511969   1.162   4.623  12.682 -0.1843  0.3494 -0.4550
  813MPD2     H11970   1.311   4.373  12.924 -0.5793 -0.8120  0.6604
  813MPD2    H111971   0.994   4.631  12.810 -0.2754  1.6452 -2.8698
  813MPD2    H211972   1.330   4.600  12.554  0.1017 -3.3362 -0.8171
  813MPD2    H311973   1.125   4.697  12.611 -1.0063 -1.2803 -1.7319
  813MPD2     N11974   1.083   4.474  13.000 -0.0595  0.0871 -0.4693
  813MPD2    H511975   1.133   4.427  13.075 -0.2848  1.2092  0.3891
  813MPD2    N111976   1.466   4.434  12.714 -0.0012 -0.3215  0.0556
  813MPD2    H711977   1.506   4.375  12.787  0.3315  1.3041  1.1876
  814MPD2     C11978   2.466   1.011  12.338  0.3585 -0.2033 -0.0168
  814MPD2    C111979   2.466   1.070  12.217 -0.7673  0.2147 -0.1789
  814MPD2    C211980   2.528   1.192  12.199 -0.3119 -0.4765 -0.1688
  814MPD2    C311981   2.584   1.259  12.300 -0.1764 -0.2390 -0.0185
  814MPD2    C411982   2.595   1.199  12.420 -0.1721 -0.0244 -0.2629
  814MPD2    C511983   2.540   1.072  12.437 -0.2815  0.5046  0.1263
  814MPD2     H11984   2.533   1.244  12.104 -0.0992 -1.1262 -0.5176
  814MPD2    H111985   2.647   1.249  12.501 -0.8697 -0.0511  0.1975
  814MPD2    H211986   2.416   0.919  12.367  1.6391 -1.5542 -2.0807
  814MPD2    H311987   2.566   1.026  12.531  1.4100 -0.9068 -1.0433
  814MPD2     N11988   2.636   1.386  12.294 -0.0725  0.4016  0.7438
  814MPD2    H511989   2.670   1.422  12.382 -0.4061  2.7681 -0.0790
  814MPD2    N111990   2.411   1.009  12.105  0.5359  0.2923 -0.7140
  814MPD2    H711991   2.420   1.050  12.013 -1.3717  0.3827 -0.8572
  815MPD2     C11992   2.286   4.276  11.689 -0.3910  0.0453  0.0095
  815MPD2    C111993   2.380   4.174  11.675 -0.3396 -0.4978 -0.7771
  815MPD2    C211994   2.338   4.050  11.719 -0.0894  0.6221  0.4535
  815MPD2    C311995   2.217   4.022  11.782  0.1278 -0.8126 -0.3264
  815MPD2    C411996   2.127   4.130  11.804  0.0781  0.4656 -0.0047
  815MPD2    C511997   2.162   4.253  11.749 -0.3594 -0.4762 -0.0962
  815MPD2     H11998   2.407   3.966  11.717  0.6743  1.2756 -0.6495
  815MPD2    H111999   2.029   4.122  11.849  0.0511 -0.4371 -0.2353
  815MPD2    H212000   2.313   4.375  11.655  0.1019  0.9061  2.9236
  815MPD2    H312001   2.089   4.332  11.756  0.6706  0.3342  1.4834
  815MPD2     N12002   2.187   3.888  11.807 -0.3157 -0.7159  0.4205
  815MPD2    H512003   2.239   3.821  11.751  2.0691  0.5545  1.0908
  815MPD2    N112004   2.496   4.205  11.614 -0.3715  0.9093  0.1658
  815MPD2    H712005   2.505   4.298  11.573 -0.3833  1.6073  1.7424
  816MPD2     C12006   2.780   3.536  17.292  0.2833  0.0826  0.1359
  816MPD2    C112007   2.858   3.651  17.309 -0.1893  0.3724  0.6290
  816MPD2    C212008   2.976   3.658  17.239 -0.1333  0.0892  0.3032
  816MPD2    C312009   3.020   3.556  17.152  0.8124  0.3181  0.4145
  816MPD2    C412010   2.943   3.439  17.146  0.0888  0.6541 -0.0517
  816MPD2    C512011   2.818   3.426  17.214 -0.2299 -0.2475  0.1163
  816MPD2     H12012   3.037   3.748  17.242  1.6964 -1.1722  0.8301
  816MPD2    H112013   2.963   3.369  17.066  0.3345  1.3016 -0.5561
  816MPD2    H212014   2.680   3.531  17.334  0.0140  0.0811 -0.5118
  816MPD2    H312015   2.754   3.339  17.209  0.9420 -0.9235 -3.7109
  816MPD2     N12016   3.129   3.582  17.063  0.0280  0.0907 -0.3939
  816MPD2    H512017   3.166   3.676  17.051  1.5734 -0.0396  3.2871
  816MPD2    N112018   2.793   3.759  17.374 -0.1383 -0.8885 -0.3110
  816MPD2    H712019   2.703   3.737  17.415 -0.3457 -0.1848 -0.3878
  817MPD2     C12020   2.294   0.141   9.590 -0.1689  0.7321  0.5010
  817MPD2    C112021   2.423   0.183   9.578 -0.0397  0.3334  0.4789
  817MPD2    C212022   2.443   0.319   9.551  0.7408 -0.5907 -0.3571
  817MPD2    C312023   2.337   0.402   9.523  0.3510 -0.3655 -1.1949
  817MPD2    C412024   2.216   0.349   9.525 -0.0212 -0.6425 -0.7223
  817MPD2    C512025   2.188   0.215   9.564 -0.3360 -0.4584  0.5141
  817MPD2     H12026   2.543   0.361   9.548  0.1274  0.8175 -1.3269
  817MPD2    H112027   2.127   0.404   9.498  0.4706 -0.1522 -1.3416
  817MPD2    H212028   2.270   0.039   9.617  0.4604  1.0797  2.3954
  817MPD2    H312029   2.089   0.176   9.581 -1.3339  1.2079 -1.4325
  817MPD2     N12030   2.358   0.541   9.497 -0.1468  0.5891  0.1300
  817MPD2    H512031   2.458   0.561   9.490 -0.2788  1.1832 -0.0788
  817MPD2    N112032   2.542   0.094   9.590 -0.8112 -0.0848 -0.5585
  817MPD2    H712033   2.628   0.134   9.556 -1.6684  2.2932  0.0997
  818MPD2     C12034   1.665   0.308   9.542  0.0256  0.4377  0.3077
  818MPD2    C112035   1.543   0.251   9.573 -0.5947 -0.0298 -0.2001
  818MPD2    C212036   1.537   0.113   9.582 -0.8656  0.0158  0.7911
  818MPD2    C312037   1.650   0.037   9.582  0.1040  0.2557 -0.2101
  818MPD2    C412038   1.776   0.099   9.568  0.1121  0.3845  0.3014
  818MPD2    C512039   1.784   0.235   9.543 -0.0953 -0.2341  0.1021
  818MPD2     H12040   1.436   0.076   9.598 -1.7536  0.8300 -2.8099
  818MPD2    H112041   1.859   0.032   9.553  1.2849  2.0036 -0.3833
  818MPD2    H212042   1.672   0.413   9.515 -2.5205  0.4234 -0.3990
  818MPD2    H312043   1.879   0.283   9.519  0.0852 -0.0845  1.0965
  818MPD2     N12044   1.660   4.619   9.589 -0.4400 -0.0251 -0.4428
  818MPD2    H512045   1.750   4.576   9.609  0.7305  2.4865 -0.3004
  818MPD2    N112046   1.422   0.321   9.606  0.1171  0.2699 -0.4940
  818MPD2    H712047   1.341   0.270   9.639  1.8439 -1.9517  0.2719
  819MPD2     C12048   4.161   1.734  15.599 -0.2952 -0.1289  0.0103
  819MPD2    C112049   4.220   1.625  15.538 -0.3210 -0.5525 -0.4626
  819MPD2    C212050   4.358   1.612  15.550 -0.6115 -0.0145 -0.2800
  819MPD2    C312051   4.430   1.695  15.636  0.5667  0.6011  0.9026
  819MPD2    C412052   4.365   1.794  15.699 -0.1118 -0.6310  0.4538
  819MPD2    C512053   4.227   1.811  15.686  0.1857 -0.3143 -0.5766
  819MPD2     H12054   4.413   1.536  15.495 -1.9334 -0.6702 -0.6784
  819MPD2    H112055   4.409   1.855  15.777  3.3789 -0.7402 -1.3879
  819MPD2    H212056   4.056   1.755  15.580 -0.3525 -1.4945 -1.1817
  819MPD2    H312057   4.174   1.888  15.741  0.6532 -0.2990 -0.1483
  819MPD2     N12058   4.573   1.677  15.643 -0.3970 -0.3412  0.3476
  819MPD2    H512059   4.617   1.615  15.576  2.4898  1.3329  0.6514
  819MPD2    N112060   4.135   1.526  15.479  0.1638  0.2171 -0.1797
  819MPD2    H712061   4.036   1.549  15.477  0.2524  0.4417 -1.6586
  820MPD2     C12062   3.371   1.420  14.846  0.1967  0.0812  0.4610
  820MPD2    C112063   3.431   1.519  14.917 -0.1261  0.2656  0.0495
  820MPD2    C212064   3.547   1.487  14.987  0.5380  0.7125  0.0177
  820MPD2    C312065   3.600   1.361  14.996  0.6058  0.7673 -0.1853
  820MPD2    C412066   3.530   1.257  14.933 -0.1472 -0.4014  0.0072
  820MPD2    C512067   3.418   1.293  14.863 -0.2758 -0.3961 -0.2970
  820MPD2     H12068   3.597   1.569  15.037 -1.6219  1.2602  1.2912
  820MPD2    H112069   3.558   1.152  14.934 -0.8689 -0.5956  0.3278
  820MPD2    H212070   3.289   1.442  14.778  1.6040  0.0157 -1.2513
  820MPD2    H312071   3.363   1.211  14.817 -3.1137  1.6020 -0.5083
  820MPD2     N12072   3.715   1.321  15.076  0.9208  0.4916 -0.3742
  820MPD2    H512073   3.739   1.223  15.083 -0.2996  0.3013  0.9748
  820MPD2    N112074   3.383   1.650  14.901  0.1505 -0.7430  0.1532
  820MPD2    H712075   3.300   1.658  14.843 -1.6219 -2.4548  2.4140
  821MPD2     C12076   3.874   2.970  12.951  0.0057  0.1322 -0.1002
  821MPD2    C112077   3.973   2.957  13.050 -0.2307 -0.2351 -0.1381
  821MPD2    C212078   4.061   3.067  13.067  1.5397  0.8317 -0.5062
  821MPD2    C312079   4.036   3.182  12.998 -0.4766 -0.5895  1.0354
  821MPD2    C412080   3.931   3.195  12.906 -0.2322  0.2149 -0.2306
  821MPD2    C512081   3.849   3.083  12.879  0.2899 -0.0544 -0.2981
  821MPD2     H12082   4.145   3.056  13.134  0.9655 -2.3458 -0.3072
  821MPD2    H112083   3.916   3.291  12.858 -0.7583 -0.7787 -2.0647
  821MPD2    H212084   3.804   2.891  12.926 -0.5063  0.4406  0.3609
  821MPD2    H312085   3.775   3.079  12.801 -0.5575 -2.7261  0.6356
  821MPD2     N12086   4.112   3.298  13.005 -0.2113  0.3423  0.2686
  821MPD2    H512087   4.089   3.380  12.949 -0.2534 -0.3016 -0.6529
  821MPD2    N112088   3.993   2.842  13.123 -0.1719 -0.3158  0.1534
  821MPD2    H712089   4.063   2.839  13.196  0.0758 -0.8094 -0.0999
  822MPD2     C12090   0.029   3.149  15.415 -0.4809 -0.5913  0.0810
  822MPD2    C112091   0.128   3.200  15.498 -0.0340  0.0753  0.0480
  822MPD2    C212092   0.105   3.323  15.555  0.4565 -0.3273 -0.2639
  822MPD2    C312093   4.715   3.403  15.527 -0.6202 -0.5428 -0.4339
  822MPD2    C412094   4.613   3.339  15.459  0.4183  0.5369  0.0504
  822MPD2    C512095   4.632   3.221  15.403  1.0905  0.6128  0.4029
  822MPD2     H12096   0.168   3.370  15.629 -1.0120  0.6094  0.3839
  822MPD2    H112097   4.513   3.379  15.449 -0.1848 -1.4217 -1.7429
  822MPD2    H212098   0.037   3.053  15.366 -1.4102 -0.8481  0.4362
  822MPD2    H312099   4.553   3.186  15.337  1.3370  1.5564 -0.3878
  822MPD2     N12100   4.680   3.529  15.588  0.4263 -0.5492  0.0054
  822MPD2    H512101   4.586   3.567  15.582 -0.1747 -1.6184  2.7702
  822MPD2    N112102   0.254   3.138  15.530  0.2848 -0.0212  0.0050
  822MPD2    H712103   0.332   3.182  15.579  0.1202 -0.3056  0.5254
  823MPD2     C12104   4.558   3.752  16.410  0.4199  0.1411 -0.2851
  823MPD2    C112105   4.568   3.675  16.303  0.1547  0.5337 -0.1902
  823MPD2    C212106   4.592   3.538  16.319 -0.4253 -0.6283 -0.2458
  823MPD2    C312107   4.594   3.480  16.444  0.2417  0.2269 -0.3305
  823MPD2    C412108   4.573   3.560  16.550  0.0996 -0.4956  0.5903
  823MPD2    C512109   4.564   3.697  16.538 -1.0602 -0.0899 -0.2899
  823MPD2     H12110   4.611   3.472  16.235 -0.8174 -1.6937  0.5077
  823MPD2    H112111   4.573   3.521  16.651  1.0444 -1.3383  0.2611
  823MPD2    H212112   4.560   3.861  16.405  1.7354  0.1375  0.1106
  823MPD2    H312113   4.561   3.759  16.626  1.6355 -0.6593  0.2266
  823MPD2     N12114   4.628   3.347  16.479  0.0506  0.2511  0.5119
  823MPD2    H512115   4.615   3.316  16.575  0.6007  0.9866  0.8277
  823MPD2    N112116   4.572   3.743  16.184 -0.3914  0.1743  0.3572
  823MPD2    H712117   4.572   3.844  16.181  1.6625  0.2174  2.8813
  824MPD2     C12118   0.697   2.410  15.477 -0.3192  0.0915 -0.5516
  824MPD2    C112119   0.784   2.503  15.527 -0.1715 -0.2834 -0.3723
  824MPD2    C212120   0.921   2.468  15.554  0.7847  0.1329 -0.4248
  824MPD2    C312121   0.972   2.347  15.519  0.1912 -0.0315 -0.3015
  824MPD2    C412122   0.882   2.254  15.472  0.5489  0.2453  0.3589
  824MPD2    C512123   0.751   2.288  15.456  0.2710  0.1680 -0.0313
  824MPD2     H12124   0.984   2.547  15.593 -0.0581  0.8960 -0.6011
  824MPD2    H112125   0.926   2.164  15.433 -0.6119 -0.2426  0.1656
  824MPD2    H212126   0.590   2.418  15.458 -0.9117 -2.2317  1.8033
  824MPD2    H312127   0.682   2.213  15.420 -0.8847  0.5275  1.4464
  824MPD2     N12128   1.112   2.328  15.531  0.1056 -0.5596 -0.1386
  824MPD2    H512129   1.168   2.412  15.541 -0.1606 -0.3916 -0.0659
  824MPD2    N112130   0.736   2.631  15.564  0.3653  0.4165  0.1752
  824MPD2    H712131   0.801   2.688  15.617  1.7180  1.5887 -2.7688
  825MPD2     C12132   1.727   2.331  14.907 -0.1852 -0.0293 -0.3369
  825MPD2    C112133   1.613   2.390  14.968 -0.3593  0.1664 -0.1124
  825MPD2    C212134   1.539   2.483  14.901 -0.3065  0.1260 -0.4405
  825MPD2    C312135   1.572   2.512  14.770 -0.5463  0.4705 -0.0231
  825MPD2    C412136   1.677   2.445  14.704  0.6003  0.6402  0.1512
  825MPD2    C512137   1.753   2.353  14.774 -0.6186 -0.0658  0.0889
  825MPD2     H12138   1.450   2.532  14.938 -0.7840 -1.2018  0.1517
  825MPD2    H112139   1.694   2.476  14.601  0.4045 -0.6762 -0.2783
  825MPD2    H212140   1.789   2.259  14.959  1.2536 -1.2858 -3.8173
  825MPD2    H312141   1.829   2.290  14.731 -2.0932 -1.9711  0.2536
  825MPD2     N12142   1.494   2.603  14.689  0.9325  0.5122 -0.4785
  825MPD2    H512143   1.521   2.619  14.593  2.2427  1.9302  0.1162
  825MPD2    N112144   1.580   2.346  15.096 -0.0465  0.0766  0.6949
  825MPD2    H712145   1.648   2.287  15.144 -1.8044 -2.3878  0.1457
  826MPD2     C12146   1.048   2.417  13.229  0.1687  0.3379 -0.5135
  826MPD2    C112147   0.927   2.391  13.171 -0.7834  0.0522  0.0149
  826MPD2    C212148   0.815   2.442  13.247  0.1812 -0.4685 -0.6157
  826MPD2    C312149   0.831   2.492  13.373 -0.4125 -0.6410 -0.2914
  826MPD2    C412150   0.951   2.512  13.427  0.4218 -0.1780  0.1843
  826MPD2    C512151   1.060   2.483  13.351 -0.3847  0.4807 -0.2481
  826MPD2     H12152   0.713   2.430  13.213 -0.7249 -1.0386  2.3026
  826MPD2    H112153   0.966   2.538  13.531 -0.3278  2.7131 -0.4227
  826MPD2    H212154   1.137   2.382  13.179  0.4975 -1.1427  1.1122
  826MPD2    H312155   1.156   2.505  13.395 -0.5697  0.9814 -0.0952
  826MPD2     N12156   0.721   2.542  13.450 -0.2014 -0.3659 -0.5805
  826MPD2    H512157   0.744   2.578  13.542 -2.7664  0.7993 -0.3860
  826MPD2    N112158   0.921   2.322  13.050 -0.0504 -0.2379 -0.1710
  826MPD2    H712159   1.009   2.299  13.006 -0.2013 -1.4419  0.1456
  827MPD2     C12160   2.045   4.189   9.689  0.5925 -0.0581  0.6126
  827MPD2    C112161   2.017   4.065   9.739  0.2220  0.3063 -0.5944
  827MPD2    C212162   1.937   3.981   9.671 -0.0780 -0.2164 -0.4198
  827MPD2    C312163   1.874   4.020   9.560 -0.4470  0.5142  0.0095
  827MPD2    C412164   1.892   4.148   9.517  0.3009  0.3560 -0.2885
  827MPD2    C512165   1.981   4.231   9.573 -0.2297 -0.3910 -0.2400
  827MPD2     H12166   1.930   3.877   9.701  2.3086  0.2516  1.7870
  827MPD2    H112167   1.834   4.193   9.437 -1.6075  1.4200  1.6807
  827MPD2    H212168   2.126   4.253   9.724  1.2431 -1.0228  0.8793
  827MPD2    H312169   1.997   4.321   9.517  0.2163 -0.8588 -0.8614
  827MPD2     N12170   1.795   3.928   9.488 -0.6447  0.1402  0.4464
  827MPD2    H512171   1.780   3.834   9.524 -0.2910  1.1240  3.1691
  827MPD2    N112172   2.099   4.024   9.847  0.3522  0.7192 -0.1307
  827MPD2    H712173   2.166   4.095   9.875  1.8624 -1.1321  0.9488
  828MPD2     C12174   4.607   3.109  12.953 -0.5873 -0.9070 -0.4408
  828MPD2    C112175   4.657   3.144  12.831 -0.2609  0.3592  0.0671
  828MPD2    C212176   0.060   3.084  12.800 -0.6402 -0.3827 -0.4361
  828MPD2    C312177   0.125   3.007  12.891 -0.3198  0.2222 -0.4150
  828MPD2    C412178   0.066   2.982  13.011 -0.2096 -0.4284 -0.2823
  828MPD2    C512179   4.662   3.018  13.037  0.3880  0.1304 -0.0494
  828MPD2     H12180   0.099   3.109  12.702  0.1918 -0.6387 -0.1690
  828MPD2    H112181   0.118   2.937  13.094 -0.6640 -0.6340 -0.1105
  828MPD2    H212182   4.506   3.131  12.984 -1.1467 -0.7554 -2.3698
  828MPD2    H312183   4.624   2.982  13.132 -0.3896 -1.5237 -0.9945
  828MPD2     N12184   0.258   2.965  12.867 -0.2720 -0.2581 -0.1307
  828MPD2    H512185   0.293   2.898  12.935  1.3061  0.2266 -0.4697
  828MPD2    N112186   4.587   3.224  12.737  0.9902  0.0025  0.4153
  828MPD2    H712187   4.638   3.242  12.651  2.2045  0.6003  1.2497
  829MPD2     C12188   0.153   3.601  11.989  0.3952 -0.1886  0.5050
  829MPD2    C112189   0.017   3.622  11.970  0.4290  0.0865 -0.0429
  829MPD2    C212190   4.656   3.594  12.080  1.1052  0.6072  0.0462
  829MPD2    C312191   4.702   3.527  12.196 -0.0662  0.5345  0.1819
  829MPD2    C412192   0.118   3.517  12.210 -0.5602 -0.0897 -0.3420
  829MPD2    C512193   0.197   3.557  12.104 -0.3113  0.2161 -0.2023
  829MPD2     H12194   4.548   3.597  12.070  1.2183 -0.7743 -1.5373
  829MPD2    H112195   0.156   3.479  12.304 -1.9794 -0.7002 -0.0111
  829MPD2    H212196   0.232   3.622  11.918  0.9791 -1.0955  0.8921
  829MPD2    H312197   0.303   3.540  12.113 -0.8072 -1.1185  3.0986
  829MPD2     N12198   4.616   3.487  12.300 -0.7704  0.6182 -0.0828
  829MPD2    H512199   4.653   3.471  12.393 -1.9888 -0.2474  0.2512
  829MPD2    N112200   4.689   3.668  11.849 -0.8597 -0.0590 -0.6885
  829MPD2    H712201   0.027   3.679  11.770 -1.5621  2.1077 -0.9290
  830MPD2     C12202   0.072   1.575  15.079 -0.0634 -0.4420 -0.3929
  830MPD2    C112203   0.187   1.582  15.148 -0.6279  0.6575 -0.6859
  830MPD2    C212204   0.309   1.559  15.088  0.0427 -0.1243  0.1861
  830MPD2    C312205   0.312   1.537  14.951  0.5006 -0.1803 -0.5288
  830MPD2    C412206   0.191   1.528  14.878  0.3428  0.9948  0.0729
  830MPD2    C512207   0.070   1.553  14.942 -0.0461  0.4229 -0.7620
  830MPD2     H12208   0.402   1.563  15.144 -0.1913  0.6821  0.5153
  830MPD2    H112209   0.183   1.498  14.774  1.2863 -0.4366  0.4307
  830MPD2    H212210   4.702   1.599  15.126 -0.1735 -2.0724  0.1850
  830MPD2    H312211   4.701   1.539  14.888 -0.7287 -0.1672  0.5601
  830MPD2     N12212   0.429   1.515  14.870  0.2934 -0.1225 -0.0575
  830MPD2    H512213   0.409   1.508  14.770 -0.6626 -1.0473  0.1907
  830MPD2    N112214   0.173   1.635  15.281  0.0663  0.0145 -0.1086
  830MPD2    H712215   0.083   1.672  15.306  0.0200  0.6928 -1.2972
  831MPD2     C12216   0.387   3.613  15.969  0.7142 -0.5320  0.7938
  831MPD2    C112217   0.384   3.498  15.892  0.0110  0.4488 -0.3163
  831MPD2    C212218   0.267   3.422  15.895 -0.1472  0.1325  0.1741
  831MPD2    C312219   0.161   3.449  15.977 -0.0112 -0.0301  1.1343
  831MPD2    C412220   0.175   3.561  16.052  0.2818 -0.4001 -0.0224
  831MPD2    C512221   0.283   3.643  16.054  0.4990  0.0799  0.3263
  831MPD2     H12222   0.257   3.346  15.818 -0.9509 -0.1329  0.5463
  831MPD2    H112223   0.100   3.591  16.124 -0.0780  0.0267 -0.5764
  831MPD2    H212224   0.479   3.671  15.968 -1.0217  2.1440 -1.2789
  831MPD2    H312225   0.295   3.728  16.119  2.5913 -1.5358  2.0464
  831MPD2     N12226   0.039   3.371  15.976 -0.0919 -0.1660  0.3401
  831MPD2    H512227   4.681   3.398  16.029  0.1468 -0.6854  0.9828
  831MPD2    N112228   0.499   3.476  15.804  0.3646  0.1820 -0.4175
  831MPD2    H712229   0.581   3.534  15.812  0.7419 -0.4217  0.0555
  832MPD2     C12230   2.937   0.434  17.263 -0.3529 -0.1170  0.6329
  832MPD2    C112231   2.977   0.474  17.136 -0.9672 -0.0644 -0.2179
  832MPD2    C212232   2.935   0.396  17.035 -0.6581 -0.3052 -0.1674
  832MPD2    C312233   2.869   0.275  17.050  0.0411  0.2085  0.4491
  832MPD2    C412234   2.859   0.219  17.175 -0.4175  0.0570 -0.1791
  832MPD2    C512235   2.882   0.305  17.278  0.7010  0.3408 -0.4006
  832MPD2     H12236   2.966   0.424  16.935  0.9258 -1.9559 -0.1345
  832MPD2    H112237   2.813   0.123  17.194  0.9649 -0.8776 -1.5252
  832MPD2    H212238   2.956   0.490  17.354 -0.2699 -0.7766  1.0249
  832MPD2    H312239   2.860   0.277  17.381 -3.4664  2.5561 -0.6556
  832MPD2     N12240   2.824   0.196  16.943 -0.0527  0.1543  0.2981
  832MPD2    H512241   2.804   0.098  16.959 -0.5213 -0.2042 -2.5010
  832MPD2    N112242   3.049   0.596  17.122  0.4375 -0.0728 -0.5343
  832MPD2    H712243   3.049   0.655  17.204 -0.7780 -1.5457  0.5432
  833MPD2     C12244   0.419   1.297  12.094 -0.4184 -0.5905 -0.0033
  833MPD2    C112245   0.503   1.406  12.067 -0.1433  1.3195  0.3078
  833MPD2    C212246   0.627   1.370  12.008  0.8405  0.4633  0.1618
  833MPD2    C312247   0.658   1.238  11.971 -0.2987 -0.6136 -0.5161
  833MPD2    C412248   0.561   1.145  11.999 -0.3984 -0.1263 -0.7443
  833MPD2    C512249   0.448   1.171  12.061 -0.0736 -0.3556  0.5706
  833MPD2     H12250   0.697   1.448  11.982  0.7399  0.5266  0.0813
  833MPD2    H112251   0.577   1.038  11.985  1.8422  0.4903 -2.9500
  833MPD2    H212252   0.324   1.310  12.145  0.3309  0.8335  1.0251
  833MPD2    H312253   0.379   1.091  12.086 -0.4211  0.1219  1.1547
  833MPD2     N12254   0.770   1.197  11.896 -0.2182  0.1124 -0.5141
  833MPD2    H512255   0.782   1.099  11.873  1.4612 -0.2512  2.0146
  833MPD2    N112256   0.463   1.538  12.094  0.5436 -0.2543 -0.2272
  833MPD2    H712257   0.370   1.548  12.134  0.7701  0.8603  0.0332
  834MPD2     C12258   0.477   0.670  11.261 -0.3495 -0.6787  0.3489
  834MPD2    C112259   0.599   0.688  11.197  0.2666  0.2803 -0.8010
  834MPD2    C212260   0.690   0.781  11.245 -0.4301  0.0454  0.5185
  834MPD2    C312261   0.654   0.859  11.356 -0.2688  0.2356 -0.1691
  834MPD2    C412262   0.523   0.845  11.414  0.7598 -0.0947 -0.2737
  834MPD2    C512263   0.438   0.753  11.363 -0.0309 -0.2952  0.0419
  834MPD2     H12264   0.786   0.796  11.199 -0.1430  1.9514  1.7325
  834MPD2    H112265   0.485   0.928  11.473 -1.0145  0.8412 -2.7257
  834MPD2    H212266   0.394   0.612  11.223 -0.3732  0.3367 -1.1486
  834MPD2    H312267   0.337   0.752  11.402 -0.6482 -0.0183 -1.5561
  834MPD2     N12268   0.755   0.940  11.415 -0.3979  0.1814  0.1529
  834MPD2    H512269   0.835   0.950  11.354  0.9239  0.8760  1.9964
  834MPD2    N112270   0.620   0.615  11.077 -0.3261  0.0277 -0.0227
  834MPD2    H712271   0.549   0.545  11.057  1.0394 -1.1294 -0.8051
  835MPD2     C12272   0.726   4.263  10.928  0.3634 -0.5152 -0.2448
  835MPD2    C112273   0.716   4.123  10.924 -0.6920  0.1867 -0.9030
  835MPD2    C212274   0.739   4.044  11.035  0.2207 -0.3007  0.0636
  835MPD2    C312275   0.768   4.100  11.158  0.6870 -0.4451 -0.7036
  835MPD2    C412276   0.777   4.237  11.163  0.1368  0.1684  0.0708
  835MPD2    C512277   0.760   4.313  11.048 -0.1304  0.5079 -0.0447
  835MPD2     H12278   0.731   3.936  11.032 -0.1302 -0.2910  0.9160
  835MPD2    H112279   0.779   4.282  11.261  1.5573 -1.1066  0.6210
  835MPD2    H212280   0.701   4.328  10.845 -0.6789  0.1174  0.5663
  835MPD2    H312281   0.753   4.419  11.068 -0.1559  0.3099  0.9726
  835MPD2     N12282   0.774   4.015  11.273  0.1332 -0.1617  0.6892
  835MPD2    H512283   0.771   4.056  11.366  0.8595 -1.6456  1.3698
  835MPD2    N112284   0.660   4.070  10.810  0.4774  0.0632 -0.3491
  835MPD2    H712285   0.632   4.144  10.746 -0.4825  2.1575  2.4866
  836MPD2     C12286   0.189   4.123  11.472 -0.6247 -0.4141 -0.6896
  836MPD2    C112287   0.246   4.043  11.571  0.0408  0.4416 -0.2910
  836MPD2    C212288   0.180   4.022  11.693 -0.1834  0.3599 -0.0257
  836MPD2    C312289   0.054   4.081  11.704  0.3497  0.4404  0.3262
  836MPD2    C412290   4.716   4.151  11.597 -0.1084  0.5411  0.5095
  836MPD2    C512291   0.061   4.168  11.482  0.5987  0.0552 -0.5978
  836MPD2     H12292   0.236   3.974  11.773 -0.3571  1.1759  0.5864
  836MPD2    H112293   4.619   4.198  11.611  0.1136  1.5194 -1.1878
  836MPD2    H212294   0.247   4.125  11.381  0.6580 -0.3740  0.1298
  836MPD2    H312295   0.020   4.228  11.402 -0.1857  0.3376  0.0204
  836MPD2     N12296   4.693   4.066  11.819 -0.2921  0.0497  0.5177
  836MPD2    H512297   4.602   4.110  11.812 -0.6217 -0.4221  1.8595
  836MPD2    N112298   0.368   3.984  11.543  0.0514 -0.2248 -0.3516
  836MPD2    H712299   0.413   4.022  11.460  2.5577  2.7701  2.3879
  837MPD2     C12300   3.314   3.464  10.042 -0.0913  0.3880  0.3157
  837MPD2    C112301   3.279   3.465   9.908  0.0699 -0.1727 -0.0021
  837MPD2    C212302   3.232   3.580   9.854 -0.7804  0.1236 -0.3277
  837MPD2    C312303   3.210   3.689   9.930  1.1896 -0.1865 -0.0038
  837MPD2    C412304   3.238   3.685  10.066 -0.1042  0.2073 -0.1094
  837MPD2    C512305   3.293   3.571  10.122  0.4444 -0.7622  0.1442
  837MPD2     H12306   3.216   3.584   9.747 -0.9303 -1.5554 -0.3762
  837MPD2    H112307   3.224   3.773  10.127 -0.8527  2.0022 -2.8667
  837MPD2    H212308   3.360   3.377  10.088  0.2015 -0.1577 -1.0042
  837MPD2    H312309   3.322   3.575  10.226  0.0640 -1.8577  0.2840
  837MPD2     N12310   3.154   3.793   9.860  0.1027 -0.4729  0.3633
  837MPD2    H512311   3.146   3.785   9.759  2.9308  1.2439  0.0076
  837MPD2    N112312   3.298   3.353   9.827 -0.2731 -0.2243 -0.0196
  837MPD2    H712313   3.285   3.374   9.728 -0.7633  0.6609  0.2328
  838MPD2     C12314   1.855   1.049  11.102  0.4803  0.4929 -0.6363
  838MPD2    C112315   1.819   1.154  11.186 -0.8143 -0.2561 -0.8326
  838MPD2    C212316   1.692   1.168  11.237  1.0364  0.0194  0.4693
  838MPD2    C312317   1.594   1.073  11.207 -0.0044 -0.0430 -0.5038
  838MPD2    C412318   1.629   0.969  11.123 -0.4050 -0.1606  0.2432
  838MPD2    C512319   1.758   0.959  11.070 -0.4440  0.0921 -0.4669
  838MPD2     H12320   1.666   1.247  11.306  1.8664  0.1661  0.6075
  838MPD2    H112321   1.558   0.889  11.109 -0.6713  0.2378 -0.6906
  838MPD2    H212322   1.955   1.033  11.064 -1.1237  1.3687 -5.1840
  838MPD2    H312323   1.780   0.882  10.997 -3.0758 -1.0708 -0.0494
  838MPD2     N12324   1.467   1.092  11.271 -0.6030  0.3280 -0.3278
  838MPD2    H512325   1.461   1.179  11.324  1.1166 -0.2583  0.8193
  838MPD2    N112326   1.908   1.240  11.246 -0.2352 -0.5529  0.0238
  838MPD2    H712327   1.874   1.292  11.326  2.5346  4.3432 -1.9663
  839MPD2     C12328   1.976   1.003  12.065 -0.8437 -0.3382 -0.3185
  839MPD2    C112329   1.917   0.982  11.944  0.1120  0.0704 -0.2478
  839MPD2    C212330   1.948   1.055  11.834  0.6651  0.1212 -0.0907
  839MPD2    C312331   2.044   1.154  11.832 -0.3604 -0.1672  0.0223
  839MPD2    C412332   2.099   1.182  11.954  0.0089 -0.1605  0.1352
  839MPD2    C512333   2.062   1.111  12.071  0.2948  0.1097 -0.1653
  839MPD2     H12334   1.893   1.023  11.746  0.7679 -4.7927  1.6178
  839MPD2    H112335   2.179   1.255  11.965 -2.1124  1.7613  2.6644
  839MPD2    H212336   1.947   0.954  12.157  1.9911  1.0401  1.3059
  839MPD2    H312337   2.113   1.140  12.162 -0.2364 -1.0146  0.4951
  839MPD2     N12338   2.067   1.225  11.713 -0.9109  0.4235 -0.2916
  839MPD2    H512339   2.021   1.186  11.631 -1.9107 -0.7321  0.8221
  839MPD2    N112340   1.818   0.894  11.918  0.2825  0.0437 -0.1488
  839MPD2    H712341   1.786   0.895  11.822 -0.0902  2.0648 -0.0040
  840MPD2     C12342   2.485   4.470  10.168  0.0806 -0.8086 -0.0355
  840MPD2    C112343   2.431   4.375  10.256 -0.0436  0.1036 -0.0079
  840MPD2    C212344   2.427   4.410  10.391 -0.2494 -0.1039 -0.1142
  840MPD2    C312345   2.490   4.531  10.432 -0.1049 -0.0462 -1.3525
  840MPD2    C412346   2.547   4.623  10.338 -0.1147 -0.2446  0.6881
  840MPD2    C512347   2.546   4.586  10.207  0.7886 -0.0274  0.4075
  840MPD2     H12348   2.401   4.343  10.472  1.3266 -1.2938 -0.5926
  840MPD2    H112349   2.589   4.718  10.367 -2.0963  0.4827  1.2423
  840MPD2    H212350   2.477   4.454  10.061  0.8514  1.6375 -0.4509
  840MPD2    H312351   2.582   4.658  10.134  1.7142  0.5124  1.3921
  840MPD2     N12352   2.523   4.566  10.570 -0.1517  0.6338  0.1494
  840MPD2    H512353   2.589   4.643  10.582  0.6242 -0.0497  0.2491
  840MPD2    N112354   2.379   4.252  10.209  0.1713  0.8141 -0.3251
  840MPD2    H712355   2.381   4.235  10.109  1.4926  1.3847 -0.3945
  841MPD2     C12356   1.622   2.936  14.488 -0.6254  0.7595 -0.3499
  841MPD2    C112357   1.737   2.874  14.537  0.6211  0.0560  0.3881
  841MPD2    C212358   1.817   2.937  14.631  0.4456 -0.2920 -0.1864
  841MPD2    C312359   1.787   3.069  14.663 -0.3470 -0.2512 -0.1639
  841MPD2    C412360   1.665   3.126  14.625 -0.0950 -0.7574  0.4498
  841MPD2    C512361   1.586   3.049  14.543  0.2746 -0.2607 -0.1676
  841MPD2     H12362   1.905   2.886  14.668  1.9712  1.7671 -0.9633
  841MPD2    H112363   1.622   3.218  14.664  0.3443  0.2718 -1.5119
  841MPD2    H212364   1.556   2.887  14.417 -1.0178 -1.3485  1.4779
  841MPD2    H312365   1.490   3.092  14.515 -0.0448 -1.0804 -0.3214
  841MPD2     N12366   1.880   3.142  14.737  0.1294 -0.2050  0.1098
  841MPD2    H512367   1.965   3.101  14.773 -1.0756 -1.9936  0.9061
  841MPD2    N112368   1.780   2.743  14.491 -0.3278 -0.6957  0.5763
  841MPD2    H712369   1.876   2.714  14.504  0.3441  1.7487  1.1153
  842MPD2     C12370   1.598   4.176  16.443  0.6120  0.6529 -0.0224
  842MPD2    C112371   1.703   4.271  16.427 -0.3316 -0.8145  0.4343
  842MPD2    C212372   1.737   4.344  16.537  0.3081 -0.1799 -0.2203
  842MPD2    C312373   1.671   4.325  16.661  0.3671  0.4943  0.1357
  842MPD2    C412374   1.567   4.230  16.668  0.3562 -0.6183  0.3592
  842MPD2    C512375   1.535   4.158  16.555  0.2819  0.3092  0.0482
  842MPD2     H12376   1.822   4.411  16.525  0.1489  0.1145  0.3047
  842MPD2    H112377   1.526   4.198  16.763 -3.5237  2.3977 -0.2949
  842MPD2    H212378   1.561   4.125  16.355  1.2449  2.2752 -1.2307
  842MPD2    H312379   1.464   4.076  16.559 -1.0957  1.5079 -0.0240
  842MPD2     N12380   1.705   4.396  16.770 -0.5464 -0.1593  0.6461
  842MPD2    H512381   1.655   4.370  16.855  0.1181  4.9398  2.6177
  842MPD2    N112382   1.759   4.288  16.297  0.0366 -0.8896 -0.2383
  842MPD2    H712383   1.713   4.238  16.222  0.1296  0.7869 -1.3931
  843MPD2     C12384   4.264   0.675  17.494 -0.1383 -0.1659  0.6695
  843MPD2    C112385   4.343   0.575  17.547 -0.1001 -0.5938 -0.1079
  843MPD2    C212386   4.481   0.595  17.554 -0.2869 -0.1252 -0.3524
  843MPD2    C312387   4.543   0.708  17.506 -0.0761 -0.1839  1.1323
  843MPD2    C412388   4.459   0.818  17.484 -0.0572  0.3713 -0.0560
  843MPD2    C512389   4.321   0.793  17.472 -0.2823  0.2065 -0.3317
  843MPD2     H12390   4.549   0.521  17.596 -0.6159  0.4116  1.1098
  843MPD2    H112391   4.495   0.917  17.461  3.0010 -0.2519  2.2043
  843MPD2    H212392   4.156   0.667  17.487 -0.1641  0.3354  0.4987
  843MPD2    H312393   4.263   0.879  17.440  0.6037 -0.1002 -2.7606
  843MPD2     N12394   4.684   0.727  17.489  0.7396  0.2934  0.4046
  843MPD2    H512395   4.708   0.823  17.467 -1.9726  1.0609  0.7763
  843MPD2    N112396   4.273   0.459  17.593 -0.1407 -0.6548 -0.5706
  843MPD2    H712397   4.172   0.472  17.590 -0.1816 -1.1620 -1.4807
  844MPD2     C12398   3.648   4.398  16.101  0.1200 -0.1279  0.7052
  844MPD2    C112399   3.571   4.445  16.207 -0.6523  0.8217 -0.8365
  844MPD2    C212400   3.638   4.494  16.319 -0.6421  0.0766 -0.7178
  844MPD2    C312401   3.779   4.480  16.335  1.2229 -0.1825 -0.2601
  844MPD2    C412402   3.858   4.436  16.228 -0.7978 -0.8871  0.3535
  844MPD2    C512403   3.789   4.386  16.119 -0.1738  0.7266  0.9921
  844MPD2     H12404   3.579   4.522  16.405  1.0248 -1.3700  0.9175
  844MPD2    H112405   3.964   4.413  16.232 -0.9426 -1.5042  0.6524
  844MPD2    H212406   3.597   4.350  16.018 -0.7412 -0.4640  1.4246
  844MPD2    H312407   3.846   4.339  16.040 -1.0205  1.9082 -0.3375
  844MPD2     N12408   3.832   4.518  16.458  0.7130 -0.3788 -0.5327
  844MPD2    H512409   3.766   4.562  16.521  0.8449 -1.3820  0.2903
  844MPD2    N112410   3.429   4.443  16.209  0.3700  0.2292  0.1902
  844MPD2    H712411   3.390   4.459  16.301  2.9018 -1.6473  1.5874
  845MPD2     C12412   3.802   0.679  16.715  0.6279  0.2490  0.9026
  845MPD2    C112413   3.717   0.603  16.639 -0.2461  0.4778  0.1664
  845MPD2    C212414   3.746   0.466  16.636  0.6240  0.0835  0.1097
  845MPD2    C312415   3.854   0.410  16.700  0.2129 -0.5360  0.2991
  845MPD2    C412416   3.944   0.499  16.764  0.8001  0.5468  0.2916
  845MPD2    C512417   3.911   0.629  16.779 -0.0865  0.1696 -0.4422
  845MPD2     H12418   3.683   0.397  16.582 -0.2131  1.0459 -0.1479
  845MPD2    H112419   4.024   0.458  16.825 -1.6584 -2.1077  1.7596
  845MPD2    H212420   3.770   0.782  16.729  1.0282  0.2751  1.6269
  845MPD2    H312421   3.975   0.690  16.842  2.2592 -3.8903  1.1423
  845MPD2     N12422   3.884   0.267  16.679 -0.2722  0.2766  0.4488
  845MPD2    H512423   3.823   0.208  16.623  0.8330  0.5341 -1.0506
  845MPD2    N112424   3.599   0.658  16.581  0.5039 -0.1319 -0.3212
  845MPD2    H712425   3.567   0.746  16.621 -1.4385 -0.6232 -0.7709
  846MPD2     C12426   4.650   0.810  13.409  0.2193 -0.1243 -0.8023
  846MPD2    C112427   4.573   0.925  13.402 -0.2970  0.8272 -0.3424
  846MPD2    C212428   4.504   0.954  13.513 -0.6262  0.1554  0.0976
  846MPD2    C312429   4.518   0.883  13.634 -0.1141 -0.3218 -0.5481
  846MPD2    C412430   4.601   0.774  13.644  0.2165  0.7913 -0.3069
  846MPD2    C512431   4.668   0.733  13.527 -0.2262  0.5097  0.1671
  846MPD2     H12432   4.454   1.050  13.507  0.7238  0.9572  1.7939
  846MPD2    H112433   4.642   0.730  13.734  0.7768  1.8447 -0.0461
  846MPD2    H212434   4.698   0.780  13.317 -0.1838  0.4250 -1.1961
  846MPD2    H312435   0.015   0.652  13.532  0.9983  1.5841  0.0992
  846MPD2     N12436   4.461   0.952  13.745  0.1917  0.2472  0.0162
  846MPD2    H512437   4.385   1.018  13.727  0.4498  0.2029 -1.2000
  846MPD2    N112438   4.558   1.013  13.293 -0.6287  0.2776  0.2153
  846MPD2    H712439   4.521   1.104  13.315 -1.3981  0.6336 -2.5142
  847MPD2     C12440   0.255   1.657  13.713 -0.3319  0.1843 -0.1538
  847MPD2    C112441   0.363   1.714  13.780  0.3988  0.2439  0.0072
  847MPD2    C212442   0.494   1.687  13.739  0.1642  0.1091  0.4716
  847MPD2    C312443   0.522   1.593  13.642  0.1424 -0.7017 -0.0238
  847MPD2    C412444   0.410   1.535  13.582  0.3867  0.9895  0.2441
  847MPD2    C512445   0.280   1.560  13.622 -0.4682 -0.1983 -0.2976
  847MPD2     H12446   0.578   1.740  13.784 -0.0446 -1.1245  2.3323
  847MPD2    H112447   0.430   1.470  13.497  1.6253  1.8388 -0.1276
  847MPD2    H212448   0.154   1.668  13.751 -0.3211 -0.9841  0.2112
  847MPD2    H312449   0.196   1.509  13.576 -2.0091  2.7191 -0.6980
  847MPD2     N12450   0.651   1.555  13.598 -0.8383 -0.0407  0.0488
  847MPD2    H512451   0.659   1.467  13.548 -0.1726 -0.3646  0.7366
  847MPD2    N112452   0.367   1.801  13.890  1.1282 -0.0437 -0.2670
  847MPD2    H712453   0.456   1.841  13.919  0.4005  2.3699 -1.3395
  848MPD2     C12454   2.286   0.081  16.330 -0.1399 -0.3061  0.1734
  848MPD2    C112455   2.403   0.153  16.308 -0.2722 -0.0607  0.4185
  848MPD2    C212456   2.409   0.247  16.211  0.4863 -0.6053  0.2155
  848MPD2    C312457   2.309   0.243  16.113  0.1141  1.1751 -0.1400
  848MPD2    C412458   2.195   0.164  16.133 -0.5508  0.0212 -0.5231
  848MPD2    C512459   2.188   0.081  16.238  0.2933 -0.1814  0.0605
  848MPD2     H12460   2.496   0.310  16.199 -0.7544  0.9390 -0.7710
  848MPD2    H112461   2.120   0.173  16.054  0.8161  0.1742 -1.8071
  848MPD2    H212462   2.289   0.020  16.419 -1.3121 -0.4616  0.1069
  848MPD2    H312463   2.098   0.022  16.254  0.8198 -0.2736  2.5447
  848MPD2     N12464   2.328   0.318  15.990 -0.2864  0.1859  0.4617
  848MPD2    H512465   2.251   0.308  15.924 -0.4231  1.2388  0.4696
  848MPD2    N112466   2.520   0.147  16.381  0.2022  0.5331 -0.2407
  848MPD2    H712467   2.590   0.219  16.366 -0.6690  1.8356  1.9651
  849MPD2     C12468   1.726   4.381  14.333  0.1115 -0.4785  0.7058
  849MPD2    C112469   1.768   4.302  14.232 -0.3646  0.3868  0.2136
  849MPD2    C212470   1.754   4.169  14.245 -0.3418 -0.3628  0.5550
  849MPD2    C312471   1.724   4.104  14.358  0.5167  0.8820 -0.5350
  849MPD2    C412472   1.686   4.192  14.463 -1.1729 -0.3767  0.3165
  849MPD2    C512473   1.672   4.324  14.447  0.9692  0.7893  0.5273
  849MPD2     H12474   1.774   4.107  14.158 -0.3230  1.2460 -0.5778
  849MPD2    H112475   1.662   4.146  14.558  1.1203 -0.6886  0.7440
  849MPD2    H212476   1.724   4.489  14.320  1.6194 -0.5343  0.0003
  849MPD2    H312477   1.631   4.387  14.525 -0.5696 -2.2536  2.1806
  849MPD2     N12478   1.742   3.968  14.388 -0.0259 -0.1182  0.0322
  849MPD2    H512479   1.724   3.945  14.486  0.0925  0.2938  0.1513
  849MPD2    N112480   1.835   4.352  14.120 -0.1974 -0.2784 -0.0672
  849MPD2    H712481   1.877   4.279  14.063  0.3533  0.0784 -0.1178
  850MPD2     C12482   0.076   2.129  14.567 -0.3266 -0.3375  0.0978
  850MPD2    C112483   0.075   2.236  14.653 -0.0391 -0.2952 -0.8700
  850MPD2    C212484   0.189   2.309  14.676  0.7198 -0.4372 -0.2753
  850MPD2    C312485   0.317   2.268  14.638  0.3052 -0.5488 -0.5990
  850MPD2    C412486   0.314   2.153  14.558  0.0569 -0.7241  0.4253
  850MPD2    C512487   0.198   2.087  14.517 -0.8007 -0.0065  0.1910
  850MPD2     H12488   0.184   2.401  14.733 -1.3054 -1.4940  1.2439
  850MPD2    H112489   0.411   2.108  14.538  0.5309  1.4247 -2.1424
  850MPD2    H212490   4.718   2.063  14.544 -0.8055  0.4627 -0.4600
  850MPD2    H312491   0.203   2.002  14.450  1.4335  0.3897 -0.1662
  850MPD2     N12492   0.440   2.331  14.676  0.5058  0.4094 -0.4202
  850MPD2    H512493   0.525   2.290  14.640  1.1053  0.5843  0.7838
  850MPD2    N112494   4.671   2.274  14.698 -0.8873 -0.3439  0.0802
  850MPD2    H712495   4.592   2.244  14.641  1.6149  0.5986 -3.9243
  851MPD2     C12496   0.651   2.233  15.133  0.2756  0.2945  0.0739
  851MPD2    C112497   0.549   2.181  15.052 -0.2579  0.3564 -0.0530
  851MPD2    C212498   0.579   2.067  14.980 -0.6931  0.2551 -0.2581
  851MPD2    C312499   0.708   2.017  14.990 -0.6466 -0.1417  0.0996
  851MPD2    C412500   0.814   2.073  15.064  0.3950  0.7022 -0.2833
  851MPD2    C512501   0.776   2.178  15.138  0.0086 -0.0778  0.9045
  851MPD2     H12502   0.500   2.016  14.926  0.1202 -1.1335 -0.1366
  851MPD2    H112503   0.916   2.036  15.068  0.3858  0.5362 -1.7143
  851MPD2    H212504   0.636   2.317  15.200 -4.3105 -1.0955  0.7764
  851MPD2    H312505   0.849   2.231  15.198  0.9257  2.3023 -2.2984
  851MPD2     N12506   0.726   1.895  14.916  0.4844 -0.2458 -0.4097
  851MPD2    H512507   0.651   1.879  14.850  1.4943  0.5568 -1.7689
  851MPD2    N112508   0.420   2.243  15.062  0.1188  0.0412  0.3029
  851MPD2    H712509   0.421   2.326  15.120  0.0561 -1.3241  2.2609
  852MPD2     C12510   4.593   0.644   9.380 -0.3236 -0.6796 -0.0265
  852MPD2    C112511   4.614   0.736   9.473  1.0551 -0.3049  0.0668
  852MPD2    C212512   0.020   0.787   9.500  0.6888 -1.1397  0.6128
  852MPD2    C312513   0.125   0.750   9.418 -0.9893  1.1900 -1.0735
  852MPD2    C412514   0.101   0.656   9.317 -0.5772 -0.5179  0.2547
  852MPD2    C512515   4.695   0.609   9.295  0.1147 -0.6389  0.1062
  852MPD2     H12516   0.040   0.855   9.583 -1.7469 -1.7736  1.7026
  852MPD2    H112517   0.183   0.626   9.252 -1.7002  0.1501 -1.4966
  852MPD2    H212518   4.492   0.607   9.363 -0.3699 -0.6128  0.1089
  852MPD2    H312519   4.677   0.534   9.218 -0.0248  0.5703 -1.0255
  852MPD2     N12520   0.252   0.809   9.436  0.5474  0.2263  0.4997
  852MPD2    H512521   0.263   0.858   9.525  2.2768  2.5374 -0.9924
  852MPD2    N112522   4.502   0.775   9.547 -0.1294 -0.6909 -0.2829
  852MPD2    H712523   4.419   0.723   9.521  1.0747 -3.0800  0.6989
  853MPD2     C12524   1.476   0.010  12.198  0.1922 -0.2668 -0.9282
  853MPD2    C112525   1.375   0.100  12.167 -0.2400  0.0956 -0.2723
  853MPD2    C212526   1.317   0.094  12.042  0.1027 -0.3316  1.0443
  853MPD2    C312527   1.364   0.001  11.948 -0.2747  0.0747  0.0120
  853MPD2    C412528   1.466   4.637  11.986 -0.6671 -0.3948 -0.0883
  853MPD2    C512529   1.522   4.646  12.106 -0.0166  1.0244 -0.0387
  853MPD2     H12530   1.239   0.163  12.013  1.4345  1.4608  1.7473
  853MPD2    H112531   1.517   4.580  11.909 -0.6758 -1.4051  0.6604
  853MPD2    H212532   1.520   0.018  12.297 -1.3235 -0.4107 -0.2424
  853MPD2    H312533   1.606   4.581  12.129 -0.3224  0.5286 -0.3160
  853MPD2     N12534   1.308   4.711  11.824 -0.4593 -0.6109  0.0465
  853MPD2    H512535   1.332   4.623  11.779  0.1493  0.3680 -1.5612
  853MPD2    N112536   1.330   0.190  12.271  0.2441  0.0112  0.1892
  853MPD2    H712537   1.381   0.190  12.359 -0.8998  0.6328  0.8499
  854MPD2     C12538   3.874   0.497  12.234  0.2701  0.3146  0.5736
  854MPD2    C112539   3.773   0.480  12.326  0.5156  0.1815  0.0494
  854MPD2    C212540   3.800   0.412  12.440  0.2225  0.4180 -0.0512
  854MPD2    C312541   3.929   0.354  12.460 -0.2327  0.8841  0.5089
  854MPD2    C412542   4.026   0.353  12.366 -0.2329 -0.6344 -0.1251
  854MPD2    C512543   3.996   0.434  12.255 -0.3507  0.0299  0.0349
  854MPD2     H12544   3.730   0.414  12.524 -0.7627 -0.7096 -0.8473
  854MPD2    H112545   4.128   0.324  12.387 -0.4949  0.1964  2.2788
  854MPD2    H212546   3.866   0.557  12.144  2.0501 -0.4352 -0.0788
  854MPD2    H312547   4.070   0.437  12.175  0.5594 -0.4049  0.8588
  854MPD2     N12548   3.957   0.279  12.575  0.1340 -0.1394  0.3284
  854MPD2    H512549   4.042   0.223  12.573 -1.0602 -1.9454 -0.0243
  854MPD2    N112550   3.646   0.533  12.318 -0.7711  0.3051 -0.2790
  854MPD2    H712551   3.580   0.509  12.391  0.3918 -1.8222  0.0660
  855MPD2     C12552   3.521   0.368  13.494  0.1867 -0.5719 -0.2389
  855MPD2    C112553   3.477   0.252  13.433  0.7281 -0.6642 -0.1766
  855MPD2    C212554   3.529   0.214  13.318  0.0880 -0.3962  0.5646
  855MPD2    C312555   3.636   0.279  13.254 -0.0401 -0.9289 -0.0403
  855MPD2    C412556   3.684   0.391  13.311 -0.1824 -0.2542 -0.0149
  855MPD2    C512557   3.631   0.430  13.435  0.4496  0.7023  0.1982
  855MPD2     H12558   3.500   0.115  13.286  3.8848 -1.6871  1.1017
  855MPD2    H112559   3.765   0.453  13.273 -0.8902  0.0386 -1.0377
  855MPD2    H212560   3.484   0.395  13.593  0.8359  0.4859 -0.2822
  855MPD2    H312561   3.668   0.520  13.483 -0.4010 -0.5612  3.1872
  855MPD2     N12562   3.713   0.222  13.146  0.2859 -0.8004 -0.8198
  855MPD2    H512563   3.781   0.286  13.107  1.5334 -2.0990 -0.7844
  855MPD2    N112564   3.404   0.151  13.503  0.0547 -0.6510  0.5925
  855MPD2    H712565   3.397   0.153  13.605  0.4098 -1.0100  0.6248
  856MPD2     C12566   0.869   0.898  13.137  0.7774  0.6048 -0.3848
  856MPD2    C112567   0.979   0.972  13.147 -0.4987 -0.2004  0.5247
  856MPD2    C212568   0.965   1.109  13.174 -0.0606  0.3899 -0.0702
  856MPD2    C312569   0.836   1.169  13.165 -0.1498 -0.3789  0.0245
  856MPD2    C412570   0.732   1.083  13.140 -0.5045 -0.4567 -0.0665
  856MPD2    C512571   0.747   0.950  13.131  0.1525  0.2649  0.9852
  856MPD2     H12572   1.045   1.178  13.199  1.4009 -0.5906 -2.0669
  856MPD2    H112573   0.634   1.125  13.120 -0.6153 -1.0316 -0.7371
  856MPD2    H212574   0.875   0.789  13.132 -0.1002  0.6754 -3.0953
  856MPD2    H312575   0.666   0.880  13.114 -0.9167  1.4128  1.3235
  856MPD2     N12576   0.799   1.309  13.172 -0.5746 -0.5346 -0.3400
  856MPD2    H512577   0.699   1.320  13.167 -0.6722 -1.8150 -1.2630
  856MPD2    N112578   1.105   0.915  13.143 -0.3458  0.3777  0.0109
  856MPD2    H712579   1.184   0.977  13.159 -0.4336  0.3544  0.5505
  857MPD2     C12580   2.231   3.207  12.321  0.2346 -0.2669 -0.0751
  857MPD2    C112581   2.345   3.218  12.406  0.1259 -0.2880 -0.1175
  857MPD2    C212582   2.408   3.344  12.409  0.0083 -0.1319  0.2297
  857MPD2    C312583   2.369   3.449  12.322 -0.0145 -0.5461 -0.4046
  857MPD2    C412584   2.252   3.437  12.252  0.0434  0.2036 -0.2029
  857MPD2    C512585   2.187   3.322  12.260  0.3438  0.0033  0.2699
  857MPD2     H12586   2.486   3.361  12.482  0.8859 -0.0766 -0.7130
  857MPD2    H112587   2.214   3.504  12.176  1.2842  0.8404 -0.2629
  857MPD2    H212588   2.183   3.110  12.318 -1.6370  0.6490  1.0772
  857MPD2    H312589   2.095   3.305  12.205  0.6719  1.4545 -0.7306
  857MPD2     N12590   2.449   3.563  12.321 -0.1590 -0.1679  0.4193
  857MPD2    H512591   2.517   3.574  12.396 -0.9270 -1.0532  1.2447
  857MPD2    N112592   2.396   3.103  12.467  0.9266 -0.0674 -0.0899
  857MPD2    H712593   2.355   3.014  12.440  0.7556 -0.2916  0.9199
  858MPD2     C12594   3.180   2.368  16.555  0.1529 -0.1061 -0.9368
  858MPD2    C112595   3.312   2.361  16.509 -0.1814  0.0441 -0.3116
  858MPD2    C212596   3.397   2.466  16.546  0.2515  0.7229 -0.1336
  858MPD2    C312597   3.349   2.571  16.622  0.0760 -0.6600  0.6566
  858MPD2    C412598   3.217   2.578  16.654  0.2433 -0.0302  0.3882
  858MPD2    C512599   3.138   2.470  16.627  0.1633  0.4123 -0.4386
  858MPD2     H12600   3.502   2.454  16.519 -0.2152 -0.9048 -1.2552
  858MPD2    H112601   3.167   2.655  16.712  1.5305  0.1850  1.1926
  858MPD2    H212602   3.109   2.294  16.521  1.0377  0.0327 -3.1306
  858MPD2    H312603   3.033   2.467  16.655 -0.2389 -2.6747 -2.2742
  858MPD2     N12604   3.430   2.668  16.678  0.3382  0.1681  0.1256
  858MPD2    H512605   3.384   2.731  16.743  0.8979 -0.6552  1.3066
  858MPD2    N112606   3.352   2.238  16.439 -0.6597 -0.3974  0.6116
  858MPD2    H712607   3.281   2.167  16.424 -1.5927  0.4876  0.8378
  859MPD2     C12608   2.271   3.736  15.273  0.2486  0.3621 -0.7877
  859MPD2    C112609   2.147   3.785  15.297  0.0303  0.0922 -0.3553
  859MPD2    C212610   2.085   3.776  15.425  0.0547  0.4411 -0.4054
  859MPD2    C312611   2.158   3.738  15.532  1.2743  0.3327 -0.0800
  859MPD2    C412612   2.287   3.690  15.505 -0.0429  0.2182  0.5219
  859MPD2    C512613   2.343   3.682  15.379 -0.3549  0.5414 -0.2505
  859MPD2     H12614   1.994   3.827  15.453 -1.1198 -1.9045  0.0311
  859MPD2    H112615   2.339   3.641  15.587 -1.5147 -2.3857 -0.1115
  859MPD2    H212616   2.326   3.744  15.180  0.7266  4.0695 -0.2132
  859MPD2    H312617   2.440   3.637  15.359  0.0662  1.9883 -1.4770
  859MPD2     N12618   2.109   3.739  15.669  0.0127 -0.3820  0.0532
  859MPD2    H512619   2.182   3.721  15.736  0.1935  2.3022  0.5878
  859MPD2    N112620   2.081   3.845  15.188 -0.0142 -0.6769  0.0798
  859MPD2    H712621   2.126   3.860  15.098 -2.0087 -0.7753 -0.9365
  860MPD2     C12622   3.569   4.496  11.514  0.0605 -0.2862  0.5689
  860MPD2    C112623   3.671   4.538  11.586 -0.2583  0.4768 -0.6027
  860MPD2    C212624   3.639   4.589  11.705 -0.3252  0.1911  0.4314
  860MPD2    C312625   3.510   4.602  11.750 -0.5568 -0.1459 -0.0311
  860MPD2    C412626   3.406   4.566  11.669  0.4563 -0.3708  0.1983
  860MPD2    C512627   3.435   4.510  11.551 -0.4557  0.3282  0.2068
  860MPD2     H12628   3.711   4.607  11.784 -0.5515 -1.2885  0.9845
  860MPD2    H112629   3.306   4.559  11.711 -0.0153  0.2311 -0.8042
  860MPD2    H212630   3.586   4.458  11.414 -1.5789 -0.9584  0.5335
  860MPD2    H312631   3.356   4.477  11.485 -0.8473  0.4296  0.6257
  860MPD2     N12632   3.500   4.631  11.885  0.0800  0.0789  0.6004
  860MPD2    H512633   3.594   4.638  11.924 -0.6115  0.0578  2.2415
  860MPD2    N112634   3.806   4.516  11.553 -0.6789 -0.2713 -0.5532
  860MPD2    H712635   3.868   4.567  11.616 -0.8915  0.4130 -0.8916
  861MPD2     C12636   3.073   2.953  10.889 -0.5789 -0.8929 -0.0540
  861MPD2    C112637   3.058   3.083  10.926 -0.5640 -0.2343 -0.7228
  861MPD2    C212638   2.960   3.157  10.862 -0.8607 -0.2016 -1.2214
  861MPD2    C312639   2.885   3.102  10.761 -0.0010 -0.0698  0.4668
  861MPD2    C412640   2.906   2.972  10.720 -0.7259  1.2838 -0.1877
  861MPD2    C512641   3.001   2.893  10.786 -0.0152  0.6327 -0.0717
  861MPD2     H12642   2.958   3.259  10.898 -0.7089 -0.9227  0.8278
  861MPD2    H112643   2.851   2.925  10.639 -0.4969  0.1245  0.3272
  861MPD2    H212644   3.156   2.892  10.923 -0.3297 -0.9415 -0.7608
  861MPD2    H312645   3.021   2.796  10.743 -2.3260  0.3889 -0.5938
  861MPD2     N12646   2.796   3.179  10.682 -0.2722 -0.0626 -0.6171
  861MPD2    H512647   2.769   3.146  10.590 -1.1173  0.4570 -0.5540
  861MPD2    N112648   3.148   3.150  11.017  0.5488  0.2599  0.2831
  861MPD2    H712649   3.146   3.249  11.038 -1.0019  0.9254 -2.9893
  862MPD2     C12650   2.577   3.282  10.001  0.7088  0.2885 -0.2328
  862MPD2    C112651   2.638   3.224  10.113 -0.9054  0.5293  0.0404
  862MPD2    C212652   2.672   3.097  10.111 -0.5320  0.6636  0.7889
  862MPD2    C312653   2.664   3.015   9.998  0.1025 -0.7284 -0.2554
  862MPD2    C412654   2.600   3.066   9.888 -0.2890  0.0571 -0.0984
  862MPD2    C512655   2.550   3.198   9.895  0.2057  0.4420  0.1510
  862MPD2     H12656   2.722   3.054  10.197 -0.2174 -0.6563 -0.0517
  862MPD2    H112657   2.586   3.004   9.800 -0.7078 -0.9482  0.6685
  862MPD2    H212658   2.557   3.388   9.989  0.4572  0.3711  0.9567
  862MPD2    H312659   2.503   3.234   9.805  1.6383  0.3462 -0.6339
  862MPD2     N12660   2.716   2.879   9.994  0.5322  0.8389 -0.5844
  862MPD2    H512661   2.703   2.815   9.916 -1.3148 -1.7417  1.8404
  862MPD2    N112662   2.660   3.292  10.234 -0.0738  0.2276 -0.1100
  862MPD2    H712663   2.691   3.229  10.307 -0.8343  0.4842  0.4415
  863MPD2     C12664   2.016   1.981  16.413  0.1130 -0.5511  0.1511
  863MPD2    C112665   1.938   1.890  16.476 -0.0481  0.2044  0.2053
  863MPD2    C212666   1.991   1.818  16.578  0.2291  0.6047  0.1537
  863MPD2    C312667   2.128   1.831  16.595 -0.3554 -0.0823 -0.1436
  863MPD2    C412668   2.212   1.922  16.533  0.6158  0.3362  0.1626
  863MPD2    C512669   2.150   2.002  16.442  0.7229  0.0016  0.0515
  863MPD2     H12670   1.933   1.760  16.649 -0.0607 -1.2175 -1.5830
  863MPD2    H112671   2.320   1.923  16.543  0.4593  0.3834  1.7945
  863MPD2    H212672   1.981   2.039  16.329 -0.5597 -0.8667  0.2148
  863MPD2    H312673   2.207   2.078  16.390  1.2118  0.2147  0.8830
  863MPD2     N12674   2.199   1.752  16.691 -0.0318 -0.0170  0.0227
  863MPD2    H512675   2.292   1.783  16.719  0.3841 -0.5954 -0.7111
  863MPD2    N112676   1.808   1.861  16.430 -0.0496  0.0563 -0.1334
  863MPD2    H712677   1.785   1.912  16.344 -1.8091 -0.4409  0.0309
  864MPD2     C12678   2.467   2.587  17.037 -0.6203  0.8623  0.2853
  864MPD2    C112679   2.390   2.609  16.922  0.0030  0.0360  0.8549
  864MPD2    C212680   2.448   2.706  16.835 -0.2510  0.6101 -0.0549
  864MPD2    C312681   2.563   2.781  16.866  0.3945 -1.1431  0.3338
  864MPD2    C412682   2.629   2.758  16.978  0.5099 -0.3980  0.2772
  864MPD2    C512683   2.578   2.661  17.064  0.0552  0.1249 -0.1311
  864MPD2     H12684   2.412   2.713  16.733  0.4488 -1.9444 -0.4708
  864MPD2    H112685   2.728   2.799  16.996 -0.0330  1.0781 -0.0894
  864MPD2    H212686   2.437   2.509  17.106 -1.5136  0.7339 -0.2531
  864MPD2    H312687   2.632   2.640  17.156 -0.0605 -2.9709 -0.7691
  864MPD2     N12688   2.618   2.884  16.782  0.1849 -0.4751  0.4269
  864MPD2    H512689   2.708   2.921  16.813 -0.7679  1.9266  0.3190
  864MPD2    N112690   2.274   2.536  16.893  0.2041  0.3904  0.0250
  864MPD2    H712691   2.250   2.474  16.971  1.2709 -0.6010 -0.4220
  865MPD2     C12692   2.584   3.148  15.744  0.4775 -0.0393  0.0496
  865MPD2    C112693   2.510   3.069  15.829  0.1118  0.6420  0.0840
  865MPD2    C212694   2.517   3.091  15.965 -0.4594  0.3349  0.2263
  865MPD2    C312695   2.619   3.172  16.015  0.4190 -0.2998 -0.0396
  865MPD2    C412696   2.695   3.256  15.931  0.5969  0.3242 -0.0251
  865MPD2    C512697   2.680   3.234  15.792 -0.7747  0.2165  0.5220
  865MPD2     H12698   2.454   3.042  16.038  2.1029 -1.4465  1.2178
  865MPD2    H112699   2.780   3.313  15.965  2.2586 -2.3827  0.3116
  865MPD2    H212700   2.581   3.130  15.637  0.3330 -1.9544  0.3666
  865MPD2    H312701   2.754   3.281  15.728 -0.3619 -2.0370 -0.6839
  865MPD2     N12702   2.657   3.161  16.148  0.4301 -0.3624  0.1808
  865MPD2    H512703   2.755   3.185  16.163  0.2942 -0.9078  2.0320
  865MPD2    N112704   2.427   2.967  15.773  0.6145  0.3071  0.1127
  865MPD2    H712705   2.428   2.961  15.672 -0.1257  0.4558  0.0938
  866MPD2     C12706   3.556   3.656  11.409  0.1446 -0.4497 -0.2281
  866MPD2    C112707   3.556   3.649  11.275 -0.4201 -0.4220  0.4933
  866MPD2    C212708   3.460   3.714  11.196  0.0691 -0.4541 -0.6422
  866MPD2    C312709   3.354   3.777  11.254  0.2824 -0.2716  0.6240
  866MPD2    C412710   3.345   3.775  11.393  0.1041 -0.1179  0.0606
  866MPD2    C512711   3.449   3.723  11.467  0.0391 -0.2101 -0.1831
  866MPD2     H12712   3.468   3.687  11.092  0.1371 -0.1971 -0.7021
  866MPD2    H112713   3.260   3.826  11.437 -0.8290 -0.2634 -1.5949
  866MPD2    H212714   3.631   3.627  11.483  0.1372  0.0011 -0.0435
  866MPD2    H312715   3.448   3.732  11.575  1.0910  0.5097 -0.2316
  866MPD2     N12716   3.247   3.832  11.190  0.0686  0.2997 -0.1510
  866MPD2    H512717   3.180   3.873  11.254 -0.1134 -0.1363 -0.0678
  866MPD2    N112718   3.664   3.577  11.215 -0.1736  0.7215  0.2012
  866MPD2    H712719   3.674   3.587  11.115  0.4174 -1.3732  0.0506
  867MPD2     C12720   0.638   2.931  16.855 -0.2622  0.2961  0.9798
  867MPD2    C112721   0.763   2.976  16.812 -1.0905 -0.5817 -0.1173
  867MPD2    C212722   0.805   3.104  16.838 -0.5264  0.6272  0.5082
  867MPD2    C312723   0.710   3.190  16.902  0.2251  0.0623 -0.8751
  867MPD2    C412724   0.596   3.139  16.950  0.4525  0.8785  0.0720
  867MPD2    C512725   0.558   3.016  16.921  0.1077  0.1699  1.2430
  867MPD2     H12726   0.896   3.143  16.795 -0.8584  0.0526 -0.7301
  867MPD2    H112727   0.531   3.206  17.005 -1.4163 -1.8149  1.1865
  867MPD2    H212728   0.610   2.827  16.851  3.1621 -0.4714 -2.6378
  867MPD2    H312729   0.467   2.971  16.960 -0.4030  1.6080  1.6987
  867MPD2     N12730   0.732   3.322  16.929 -0.3054  0.5752  0.0691
  867MPD2    H512731   0.649   3.368  16.965  0.4302  1.5505  0.5087
  867MPD2    N112732   0.847   2.878  16.757 -0.1675 -0.3913 -0.5682
  867MPD2    H712733   0.812   2.783  16.767 -2.0323  0.3589  0.1372
  868MPD2     C12734   3.407   1.825  13.229  0.7889 -0.2036 -0.3328
  868MPD2    C112735   3.355   1.708  13.287 -0.0468  0.0527 -0.4952
  868MPD2    C212736   3.259   1.721  13.387 -0.4509 -0.3272  0.0132
  868MPD2    C312737   3.228   1.844  13.437 -0.8218  0.1624 -0.3399
  868MPD2    C412738   3.274   1.959  13.372  0.3394  0.2154  0.6413
  868MPD2    C512739   3.357   1.953  13.261 -0.2056  0.2946  0.8331
  868MPD2     H12740   3.208   1.637  13.433 -1.0528  0.2366  0.3760
  868MPD2    H112741   3.253   2.058  13.412 -1.4758 -0.0526  0.3558
  868MPD2    H212742   3.468   1.809  13.141  3.0614 -0.2317  1.2496
  868MPD2    H312743   3.388   2.044  13.212 -1.9366  1.0208  1.0685
  868MPD2     N12744   3.148   1.849  13.553 -0.1007  0.3068 -0.1824
  868MPD2    H512745   3.117   1.760  13.591  0.3841 -0.5122 -1.7218
  868MPD2    N112746   3.402   1.578  13.239 -0.1622  0.4375  0.4254
  868MPD2    H712747   3.477   1.584  13.171 -1.6320  0.8147 -1.1628
  869MPD2     C12748   4.577   4.328   1.450 -0.6323 -0.2952 -0.1641
  869MPD2    C112749   4.443   4.322   1.477  0.1483  0.9085  0.2709
  869MPD2    C212750   4.352   4.382   1.395 -0.1385 -0.5613  0.0462
  869MPD2    C312751   4.402   4.467   1.291  0.2756 -0.6711 -0.3493
  869MPD2    C412752   4.532   4.470   1.269 -0.5042 -0.4327 -0.3502
  869MPD2    C512753   4.621   4.398   1.345 -0.6599 -0.1706  0.0314
  869MPD2     H12754   4.245   4.364   1.396 -0.1818 -0.3876 -1.3634
  869MPD2    H112755   4.572   4.519   1.181 -0.4087  1.1588  0.5815
  869MPD2    H212756   4.650   4.274   1.509 -0.8365 -0.0717  0.2969
  869MPD2    H312757   0.002   4.393   1.321 -1.1963  0.2964 -2.4330
  869MPD2     N12758   4.323   4.540   1.196  0.4638 -0.4801  0.3717
  869MPD2    H512759   4.362   4.565   1.106 -1.0196  2.0943  0.4644
  869MPD2    N112760   4.406   4.238   1.585  0.3421 -0.4799  0.0313
  869MPD2    H712761   4.476   4.179   1.629  0.4643  0.3418  0.9518
  870MPD2     C12762   3.279   3.768   1.542  0.9686  0.0078  0.2211
  870MPD2    C112763   3.400   3.747   1.477  0.2603  0.9962  1.0753
  870MPD2    C212764   3.409   3.753   1.337  0.0727  0.0043 -0.4016
  870MPD2    C312765   3.313   3.813   1.262 -0.3769  0.6961  0.3419
  870MPD2    C412766   3.202   3.868   1.335 -0.3107  0.4199 -0.4354
  870MPD2    C512767   3.189   3.835   1.468 -0.0855 -0.5691  0.1874
  870MPD2     H12768   3.500   3.718   1.291 -0.9225 -0.8219 -1.7304
  870MPD2    H112769   3.128   3.928   1.283  0.4146  2.4377  0.8634
  870MPD2    H212770   3.252   3.741   1.644 -0.1726  0.2188 -0.0259
  870MPD2    H312771   3.101   3.867   1.524 -0.5808 -1.2826 -0.1891
  870MPD2     N12772   3.341   3.832   1.130  1.3148 -0.2444 -0.3518
  870MPD2    H512773   3.431   3.793   1.102  0.4336 -0.7321 -2.4315
  870MPD2    N112774   3.508   3.719   1.554  0.4286 -0.3088 -0.0172
  870MPD2    H712775   3.493   3.681   1.647  1.3542 -1.0658 -0.1828
  871MPD2     C12776   0.231   2.857  15.900  0.1409 -0.6289  0.0096
  871MPD2    C112777   0.222   2.797  16.026 -0.5353  0.1645 -0.0144
  871MPD2    C212778   0.239   2.660  16.038 -0.2684 -0.0729  0.9520
  871MPD2    C312779   0.270   2.582  15.922  0.4331  0.1799 -0.2856
  871MPD2    C412780   0.271   2.640  15.797  0.4319 -0.3157  0.0472
  871MPD2    C512781   0.241   2.766  15.787 -0.2842 -0.0988  0.4175
  871MPD2     H12782   0.228   2.606  16.132  0.5893  1.1559  1.7590
  871MPD2    H112783   0.278   2.575  15.710 -0.4522 -2.3256  1.4930
  871MPD2    H212784   0.201   2.960  15.883  0.7759 -0.5423 -0.5858
  871MPD2    H312785   0.229   2.808  15.687  0.8483 -1.2450 -0.2059
  871MPD2     N12786   0.301   2.451  15.934 -0.2378 -0.7248  0.1796
  871MPD2    H512787   0.306   2.415  16.029  1.1087 -0.7980  0.0801
  871MPD2    N112788   0.181   2.876  16.140  0.6135 -0.1488  0.2657
  871MPD2    H712789   0.184   2.976  16.123 -0.1702 -0.2244 -0.3139
  872MPD2     C12790   0.522   0.224  13.991  0.2615  1.2835  0.4261
  872MPD2    C112791   0.469   0.310  13.894  0.2886  0.3621 -0.3038
  872MPD2    C212792   0.338   0.353  13.905  0.6436  0.4852  0.7620
  872MPD2    C312793   0.263   0.311  14.014 -0.1045 -0.2820 -0.7077
  872MPD2    C412794   0.320   0.234  14.109 -0.2720 -0.5303  0.6221
  872MPD2    C512795   0.450   0.194  14.098 -0.0920 -0.0179 -0.0329
  872MPD2     H12796   0.295   0.411  13.824  1.2660  0.8441  0.6813
  872MPD2    H112797   0.256   0.206  14.192 -0.2859  0.5058  0.9636
  872MPD2    H212798   0.627   0.197  13.991 -0.2832 -0.8768  1.6920
  872MPD2    H312799   0.483   0.130  14.179  1.9509  1.0720 -0.0254
  872MPD2     N12800   0.130   0.360  14.044  0.4198 -0.1609 -0.5229
  872MPD2    H512801   0.096   0.362  14.140 -1.1197  0.6176 -1.0982
  872MPD2    N112802   0.546   0.357  13.783  0.3848  0.2052  0.0969
  872MPD2    H712803   0.490   0.393  13.706  2.3712  0.0230 -1.4237
  873MPD2     C12804   2.561   0.387   0.593 -0.6090  0.2178 -0.1128
  873MPD2    C112805   2.635   0.378   0.705  0.5269 -0.2946 -0.2369
  873MPD2    C212806   2.751   0.304   0.705 -0.3921  0.4198 -0.6783
  873MPD2    C312807   2.797   0.248   0.588 -0.2471 -0.5103 -0.2825
  873MPD2    C412808   2.712   0.244   0.476  0.4079 -0.2296  0.3648
  873MPD2    C512809   2.594   0.317   0.477 -0.6535  0.2972 -0.1309
  873MPD2     H12810   2.809   0.299   0.796  0.8829 -3.1726 -1.6993
  873MPD2    H112811   2.746   0.200   0.383  1.2540 -0.2482  0.6762
  873MPD2    H212812   2.474   0.451   0.594 -0.7313  0.1170 -3.0309
  873MPD2    H312813   2.543   0.337   0.383 -3.8343  0.6310  1.6429
  873MPD2     N12814   2.929   0.187   0.573  0.3846  0.3505 -0.0468
  873MPD2    H512815   2.951   0.149   0.481  2.3631 -0.7943  0.8937
  873MPD2    N112816   2.582   0.446   0.817  0.4826  0.4242  0.4538
  873MPD2    H712817   2.489   0.484   0.803  0.1944 -0.7414 -0.8746
  874MPD2     C12818   2.330   4.452  15.599 -0.5264  0.1678  0.9601
  874MPD2    C112819   2.262   4.527  15.693  0.9465  0.9708 -0.7275
  874MPD2    C212820   2.283   4.666  15.695 -0.3470 -0.4130 -0.1922
  874MPD2    C312821   2.361   0.004  15.603 -0.6316 -0.5901 -0.0512
  874MPD2    C412822   2.425   4.653  15.511  0.5018 -0.3558 -0.5494
  874MPD2    C512823   2.410   4.518  15.505  0.2805  0.6574 -0.6117
  874MPD2     H12824   2.240   0.007  15.770 -0.4295  1.4444 -1.8395
  874MPD2    H112825   2.483   4.700  15.432 -0.8778 -0.8851 -1.8703
  874MPD2    H212826   2.323   4.344  15.586 -0.0242  0.0673  1.5141
  874MPD2    H312827   2.477   4.466  15.439  0.8663 -1.9021  1.9950
  874MPD2     N12828   2.386   0.142  15.621  0.0364  0.4524  0.2597
  874MPD2    H512829   2.364   0.180  15.713  0.9498  2.7046 -0.4571
  874MPD2    N112830   2.173   4.457  15.779  0.9104 -0.0308 -1.3504
  874MPD2    H712831   2.152   4.360  15.758  0.1538 -0.0882 -0.3615
  875MPD2     C12832   3.367   3.727  14.100  0.0439  0.7106  0.3480
  875MPD2    C112833   3.329   3.620  14.176 -0.0153 -0.1645 -0.1418
  875MPD2    C212834   3.384   3.594  14.299 -0.4666  0.3528  0.3884
  875MPD2    C312835   3.468   3.689  14.360 -0.7913  0.2160 -0.5043
  875MPD2    C412836   3.501   3.797  14.282 -0.1651  0.1895 -0.7616
  875MPD2    C512837   3.459   3.810  14.154 -0.7797  0.9830  0.0478
  875MPD2     H12838   3.347   3.511  14.359  0.0807 -0.1635  0.0124
  875MPD2    H112839   3.577   3.868  14.311  0.9630 -1.7944  1.1817
  875MPD2    H212840   3.314   3.754  14.009 -0.6275  3.2110  1.4743
  875MPD2    H312841   3.477   3.906  14.109  1.9785  0.1443 -0.6668
  875MPD2     N12842   3.522   3.677  14.493  0.0962  1.1548  0.2366
  875MPD2    H512843   3.596   3.740  14.523  1.5078 -0.2284 -0.3177
  875MPD2    N112844   3.225   3.541  14.127  0.0239 -0.1737 -0.0910
  875MPD2    H712845   3.186   3.579  14.041  2.8017 -0.6366 -1.5601
  876MPD2     C12846   3.128   4.559  15.561  0.0309 -0.2035 -0.7888
  876MPD2    C112847   2.993   4.530  15.527  0.1903 -0.3434 -0.2165
  876MPD2    C212848   2.927   4.436  15.605  0.7749  0.1052 -0.2522
  876MPD2    C312849   2.998   4.366  15.704  0.1653 -0.3221 -0.0500
  876MPD2    C412850   3.132   4.403  15.726 -0.4657 -0.1730 -0.4039
  876MPD2    C512851   3.190   4.501  15.659 -0.3125 -0.6445  0.2180
  876MPD2     H12852   2.823   4.416  15.583  0.5904  1.6026 -0.7486
  876MPD2    H112853   3.199   4.362  15.802 -0.5452 -0.1452 -0.3198
  876MPD2    H212854   3.178   4.642  15.512 -0.1482 -0.5261 -1.5229
  876MPD2    H312855   3.290   4.532  15.690 -1.3056  1.6383  1.1724
  876MPD2     N12856   2.925   4.276  15.778  0.3454  0.5804  0.4572
  876MPD2    H512857   2.836   4.256  15.733 -0.4119  0.8313  1.8306
  876MPD2    N112858   2.918   4.596  15.425 -0.3503 -0.4110 -0.3293
  876MPD2    H712859   2.819   4.575  15.417 -0.1934 -1.0157 -0.6923
  877MPD2     C12860   2.751   0.373  14.774  0.6255  0.1699 -0.3596
  877MPD2    C112861   2.713   0.249  14.819 -0.0205 -0.1155 -0.2489
  877MPD2    C212862   2.638   0.172  14.732  0.1092  0.0211 -0.5227
  877MPD2    C312863   2.599   0.221  14.606 -0.2364 -0.1497  0.2370
  877MPD2    C412864   2.649   0.336  14.564 -0.4123  0.6993  0.4875
  877MPD2    C512865   2.717   0.415  14.652 -0.3856  0.0679  0.4146
  877MPD2     H12866   2.610   0.071  14.759 -0.0340 -0.0441 -0.9171
  877MPD2    H112867   2.623   0.366  14.463 -0.6972  0.5602  0.5180
  877MPD2    H212868   2.801   0.438  14.846  3.1079 -1.2388 -0.8041
  877MPD2    H312869   2.746   0.512  14.612 -1.1270 -0.5970 -1.7033
  877MPD2     N12870   2.509   0.147  14.523 -0.3047  0.5065  0.2148
  877MPD2    H512871   2.493   0.190  14.432 -2.7934  1.2965  1.0235
  877MPD2    N112872   2.741   0.201  14.946  0.2719  0.3318  0.0775
  877MPD2    H712873   2.724   0.101  14.959 -2.0286  0.5121 -1.4528
  878MPD2     C12874   1.536   4.334  13.227  0.7734 -0.3166  0.0756
  878MPD2    C112875   1.661   4.389  13.194 -0.0666 -0.7200  0.0460
  878MPD2    C212876   1.745   4.414  13.294 -0.0134 -0.2956 -0.1113
  878MPD2    C312877   1.703   4.409  13.429 -0.0766 -0.3201 -0.2436
  878MPD2    C412878   1.575   4.380  13.460 -0.3082  0.0496 -0.5104
  878MPD2    C512879   1.500   4.340  13.356 -0.1155  0.7774  0.2122
  878MPD2     H12880   1.845   4.451  13.279 -0.0039 -0.4933 -0.5343
  878MPD2    H112881   1.533   4.353  13.556 -1.9648 -1.5000 -1.6793
  878MPD2    H212882   1.466   4.307  13.149  2.0167  0.3202 -1.2533
  878MPD2    H312883   1.397   4.307  13.367  1.0995 -2.6694  1.2717
  878MPD2     N12884   1.801   4.438  13.530  0.0973  0.6703 -0.6226
  878MPD2    H512885   1.898   4.425  13.504  0.6513 -1.3419  2.4701
  878MPD2    N112886   1.689   4.396  13.056  0.3467 -0.0846  0.3868
  878MPD2    H712887   1.617   4.365  12.992  1.7268 -1.1214 -0.6643
  879MPD2     C12888   2.660   1.552  16.889 -0.0897 -0.0618  0.4125
  879MPD2    C112889   2.686   1.440  16.966  0.6060  0.0720  0.6994
  879MPD2    C212890   2.667   1.307  16.919 -0.9310  0.0694 -0.3299
  879MPD2    C312891   2.600   1.295  16.801  0.8899  0.0311 -0.3773
  879MPD2    C412892   2.573   1.409  16.723 -0.5206 -0.4289 -0.0104
  879MPD2    C512893   2.600   1.539  16.767 -0.7475 -0.2379  0.3410
  879MPD2     H12894   2.708   1.225  16.977 -1.9463  0.0114  0.2933
  879MPD2    H112895   2.531   1.403  16.623  0.5551  1.1615 -0.5683
  879MPD2    H212896   2.677   1.651  16.931  1.8761 -0.4385  0.5410
  879MPD2    H312897   2.582   1.628  16.707  1.3434 -0.3378 -0.4241
  879MPD2     N12898   2.551   1.168  16.760  0.2714 -0.0510 -0.0052
  879MPD2    H512899   2.517   1.154  16.665 -0.1591  1.5562 -0.0994
  879MPD2    N112900   2.729   1.462  17.095 -0.5266  0.7081  0.0242
  879MPD2    H712901   2.754   1.558  17.115 -0.5033  1.0129 -1.4445
  880MPD2     C12902   4.165   2.846   0.037 -0.0911 -0.5260 -0.2431
  880MPD2    C112903   4.176   2.902   0.160  0.1233  0.2712 -0.1649
  880MPD2    C212904   4.222   2.825   0.265  0.1942  0.7353  0.1804
  880MPD2    C312905   4.259   2.689   0.247 -0.0537  0.0290 -0.3206
  880MPD2    C412906   4.263   2.640   0.119 -0.1117 -0.0108 -0.6263
  880MPD2    C512907   4.225   2.724   0.017 -0.6651  0.2321 -0.4638
  880MPD2     H12908   4.229   2.876   0.360  0.3028 -1.9833  1.6209
  880MPD2    H112909   4.280   2.535   0.095  0.5497 -0.0663  0.1114
  880MPD2    H212910   4.120   2.900  17.654  2.9560  0.5692 -1.1806
  880MPD2    H312911   4.236   2.693  17.614  2.3023  0.1825 -0.1396
  880MPD2     N12912   4.265   2.611   0.367 -0.2750 -0.3785 -0.1984
  880MPD2    H512913   4.258   2.653   0.459 -0.5935 -1.8353  0.4440
  880MPD2    N112914   4.143   3.038   0.166  0.0301  0.0097 -0.0578
  880MPD2    H712915   4.125   3.083   0.077  0.8609 -1.7893 -1.1350
  881MPD2     C12916   4.296   3.876  17.347 -0.1797  0.5194  0.0808
  881MPD2    C112917   4.296   3.744  17.330  0.2024 -0.3594 -0.5703
  881MPD2    C212918   4.243   3.671  17.433  0.1209  0.2109  0.4196
  881MPD2    C312919   4.232   3.719  17.565 -0.1819 -0.8915 -0.0510
  881MPD2    C412920   4.261   3.854  17.578  0.2713  0.6808 -0.1134
  881MPD2    C512921   4.285   3.938  17.471  0.2218 -0.0176 -0.1020
  881MPD2     H12922   4.233   3.564  17.416 -2.1574  0.5706 -0.4587
  881MPD2    H112923   4.260   3.891  17.680 -1.9645  1.3400 -0.3695
  881MPD2    H212924   4.331   3.935  17.263  0.1373  0.4591  0.1708
  881MPD2    H312925   4.298   4.045  17.483 -1.5326  0.2786 -0.7634
  881MPD2     N12926   4.211   3.639  17.686 -0.4902  0.7264 -0.1580
  881MPD2    H512927   4.226   3.687   0.074  0.7233 -0.2812  0.1861
  881MPD2    N112928   4.300   3.699  17.199  0.3898  0.7296  0.1474
  881MPD2    H712929   4.317   3.767  17.126  1.0481  1.6021  1.1127
  882MPD2     C12930   2.154   0.057  13.765  0.4332  0.1360  0.3656
  882MPD2    C112931   2.121   0.050  13.900  1.0090 -0.2811  0.5366
  882MPD2    C212932   1.995   0.094  13.938  0.0969 -0.7357  0.4852
  882MPD2    C312933   1.899   0.128  13.842  0.1636 -0.3550  0.0922
  882MPD2    C412934   1.940   0.132  13.707  0.4101 -0.1952 -0.1223
  882MPD2    C512935   2.064   0.106  13.672  0.5518  0.8518  0.1582
  882MPD2     H12936   1.964   0.072  14.039 -0.1087 -0.1835  0.5363
  882MPD2    H112937   1.871   0.188  13.645  2.3890 -1.0808 -3.1664
  882MPD2    H212938   2.245   0.008  13.731  0.6392  1.5618 -1.1251
  882MPD2    H312939   2.090   0.122  13.568  2.1583 -1.4752  0.2116
  882MPD2     N12940   1.761   0.154  13.878  0.3475 -0.6029  0.2162
  882MPD2    H512941   1.690   0.161  13.805  1.4752  1.4606 -0.6719
  882MPD2    N112942   2.207   4.720  14.002  0.3691 -0.0025 -0.2510
  882MPD2    H712943   2.295   4.694  13.958  0.3611  1.4246 -1.0964
  883MPD2     C12944   0.569   1.084  16.021 -0.2501  0.2649 -0.3200
  883MPD2    C112945   0.477   1.001  15.950  0.1766  0.5081  0.6729
  883MPD2    C212946   0.527   0.920  15.853  0.1698 -0.0817 -0.5422
  883MPD2    C312947   0.661   0.919  15.823  0.3358 -0.0840  0.5582
  883MPD2    C412948   0.753   0.990  15.905  0.4794 -0.2218 -0.2718
  883MPD2    C512949   0.704   1.079  15.991  0.0308 -0.2883  0.3801
  883MPD2     H12950   0.467   0.840  15.810  0.9519 -1.1347  0.3326
  883MPD2    H112951   0.860   0.986  15.895  0.4841 -1.4266  0.2185
  883MPD2    H212952   0.550   1.152  16.103  0.8274 -0.7378  0.7430
  883MPD2    H312953   0.775   1.146  16.039  1.1752 -1.6182  0.5253
  883MPD2     N12954   0.700   0.807  15.748  0.9248  0.0150  0.2634
  883MPD2    H512955   0.636   0.748  15.697  0.0941  0.6057  0.6246
  883MPD2    N112956   0.340   0.994  15.979  0.0851  0.6548 -0.1174
  883MPD2    H712957   0.275   0.937  15.925  0.2016 -0.4630  0.9152
  884MPD2     C12958   1.608   0.877  15.261  0.5736  0.7272  0.7130
  884MPD2    C112959   1.511   0.836  15.171  0.6102  0.0465  0.6702
  884MPD2    C212960   1.395   0.902  15.163  0.0736 -0.6751 -0.2221
  884MPD2    C312961   1.360   0.998  15.251  0.9859  0.4273  0.1310
  884MPD2    C412962   1.449   1.040  15.347 -1.2169 -0.5027 -0.4663
  884MPD2    C512963   1.577   0.975  15.344  0.4701 -0.6461  0.8621
  884MPD2     H12964   1.321   0.867  15.092 -0.9888  2.0060 -0.4515
  884MPD2    H112965   1.426   1.104  15.431  1.5855 -0.3960  0.2352
  884MPD2    H212966   1.705   0.828  15.273  1.7559  2.9948  0.3638
  884MPD2    H312967   1.636   1.005  15.430  1.4886  1.3931 -0.5350
  884MPD2     N12968   1.230   1.044  15.243 -0.6804  0.1763  0.4811
  884MPD2    H512969   1.171   1.013  15.166 -0.6558  0.5318  0.3187
  884MPD2    N112970   1.535   0.733  15.074 -0.2443  0.7076  0.2959
  884MPD2    H712971   1.464   0.717  15.003 -0.3333 -2.9200  1.2573
  885MPD2     C12972   4.437   1.734  17.664  0.7272 -0.1873 -0.6090
  885MPD2    C112973   4.508   1.635  17.616 -0.2048  0.4543  1.2855
  885MPD2    C212974   4.527   1.640  17.478  0.5407  0.1824  0.0225
  885MPD2    C312975   4.471   1.737  17.390  0.3914 -0.3896  0.5606
  885MPD2    C412976   4.404   1.843  17.451  0.1103 -0.5209  0.2282
  885MPD2    C512977   4.385   1.833  17.587 -0.3169 -0.0027  0.0078
  885MPD2     H12978   4.582   1.558  17.433 -0.2636  0.4709 -1.5080
  885MPD2    H112979   4.362   1.929  17.401 -0.0410 -0.6332  0.1624
  885MPD2    H212980   4.419   1.745   0.070  0.4847 -0.3540 -0.6329
  885MPD2    H312981   4.325   1.905  17.641 -2.2955 -2.6796  1.3506
  885MPD2     N12982   4.486   1.719  17.247  0.3784  0.7595  0.9204
  885MPD2    H512983   4.547   1.645  17.214  0.2868  1.6334 -1.2138
  885MPD2    N112984   4.565   1.538   0.002 -0.3676 -0.1339  0.1746
  885MPD2    H712985   4.545   1.540   0.101 -0.0160  0.5841  0.2300
  886MPD2     C12986   1.220   4.291  15.096  0.4729 -0.8468  0.1418
  886MPD2    C112987   1.314   4.360  15.170 -0.6020  0.0182 -0.8120
  886MPD2    C212988   1.306   4.502  15.163 -0.1666 -0.2621 -0.0951
  886MPD2    C312989   1.213   4.571  15.094 -0.2708 -1.1544  1.1720
  886MPD2    C412990   1.125   4.508  15.018 -0.4670 -0.2720 -0.2923
  886MPD2    C512991   1.134   4.371  15.016 -0.3308  0.2136 -1.0291
  886MPD2     H12992   1.382   4.556  15.219  1.5072 -1.9965 -0.6966
  886MPD2    H112993   1.049   4.561  14.961 -1.2722 -0.7685  0.3169
  886MPD2    H212994   1.228   4.186  15.072  1.7719 -0.8932  0.7944
  886MPD2    H312995   1.055   4.319  14.964  0.4088 -0.9020 -1.0334
  886MPD2     N12996   1.208   4.711  15.097 -0.1220  0.1507 -0.1222
  886MPD2    H512997   1.290   0.034  15.132 -2.1340  3.3423  0.3462
  886MPD2    N112998   1.410   4.298  15.245 -0.3775 -0.2222 -0.1853
  886MPD2    H712999   1.473   4.359  15.296  2.0146 -1.1378 -2.0858
  887MPD2     C13000   2.073   4.425  15.355  0.4462 -0.4646  0.5312
  887MPD2    C113001   1.951   4.454  15.418  0.0302 -0.2225 -0.3695
  887MPD2    C213002   1.925   4.587  15.434 -0.2827 -0.0830  0.2723
  887MPD2    C313003   2.012   4.686  15.398  0.8021  0.0689  0.1992
  887MPD2    C413004   2.123   4.652  15.332 -0.8388  0.4082  0.1263
  887MPD2    C513005   2.157   4.520  15.311 -0.0571  0.3433  0.0618
  887MPD2     H13006   1.830   4.611  15.480 -0.1945 -1.3681  1.1258
  887MPD2    H113007   2.191   0.003  15.295 -0.1510 -0.1126  0.3113
  887MPD2    H213008   2.105   4.323  15.340 -0.4096 -0.7143  0.3770
  887MPD2    H313009   2.253   4.501  15.264  0.2810  0.8657  0.5376
  887MPD2     N13010   1.972   0.094  15.432  0.4275 -0.2062  0.3355
  887MPD2    H513011   1.885   0.103  15.483  0.7823  0.0011  0.8975
  887MPD2    N113012   1.846   4.354  15.434 -0.1027 -0.7409  0.2896
  887MPD2    H713013   1.753   4.393  15.439 -0.3533 -1.3711  0.5244
  888MPD2     C13014   3.045   0.107  14.772  0.8546 -0.5674  0.5097
  888MPD2    C113015   3.150   0.103  14.858 -0.4718 -0.5332 -0.3816
  888MPD2    C213016   3.241   0.206  14.849  0.6969 -0.3155  0.3911
  888MPD2    C313017   3.237   0.295  14.744 -0.6548  0.2746  0.2670
  888MPD2    C413018   3.126   0.305  14.666 -0.2453 -0.1538  0.3351
  888MPD2    C513019   3.029   0.211  14.686  0.2237  0.7523 -0.6936
  888MPD2     H13020   3.319   0.218  14.923  0.3546  1.7596  0.4151
  888MPD2    H113021   3.108   0.381  14.591 -1.2275  0.2921  1.0402
  888MPD2    H213022   2.964   0.036  14.766  0.3047  0.1974 -1.3106
  888MPD2    H313023   2.947   0.204  14.615 -0.0940  0.2722 -0.2750
  888MPD2     N13024   3.335   0.393  14.740  0.4364  0.0342  0.3544
  888MPD2    H513025   3.400   0.399  14.817  0.8043  0.0547  0.0420
  888MPD2    N113026   3.168   4.724  14.945  0.4713  0.0147 -0.4730
  888MPD2    H713027   3.247   0.017  15.007 -1.2259  1.0835  1.3894
  889MPD2     C13028   2.439   4.394  12.436 -0.4756 -0.2999 -0.2663
  889MPD2    C113029   2.516   4.308  12.516  0.1222 -1.0135  0.3550
  889MPD2    C213030   2.536   4.342  12.648 -0.4530 -0.4121 -0.0244
  889MPD2    C313031   2.478   4.461  12.695  0.2658  0.4027 -1.1566
  889MPD2    C413032   2.419   4.550  12.610 -0.3243 -0.5737  0.1177
  889MPD2    C513033   2.401   4.514  12.481 -0.9970 -0.1196 -0.0016
  889MPD2     H13034   2.579   4.269  12.716  0.3515  1.2659  1.2712
  889MPD2    H113035   2.390   4.649  12.645 -0.8049  0.0737 -2.1042
  889MPD2    H213036   2.426   4.378  12.330  2.7813  1.4069 -0.8985
  889MPD2    H313037   2.342   4.575  12.413 -0.2685  1.8831  1.1645
  889MPD2     N13038   2.489   4.480  12.833 -0.8173 -0.0017  0.5179
  889MPD2    H513039   2.523   4.399  12.884 -0.0572  0.2679  0.4466
  889MPD2    N113040   2.545   4.175  12.475  0.2597 -1.0514 -0.3405
  889MPD2    H713041   2.602   4.125  12.542 -1.3601  1.2603  2.7326
  890MPD2     C13042   2.409   1.161  14.636  0.8245 -0.7999 -0.3644
  890MPD2    C113043   2.529   1.225  14.633  0.7010 -0.6453 -0.6440
  890MPD2    C213044   2.611   1.237  14.750  0.2474 -0.0288 -0.0650
  890MPD2    C313045   2.582   1.155  14.860 -0.1552  0.2882 -0.4198
  890MPD2    C413046   2.468   1.076  14.857  0.5821 -0.3533  0.7532
  890MPD2    C513047   2.379   1.088  14.747 -0.0150 -0.2203 -0.4501
  890MPD2     H13048   2.698   1.302  14.748 -0.2173  0.5361 -1.5349
  890MPD2    H113049   2.427   1.027  14.944  0.3126 -1.1696  0.1623
  890MPD2    H213050   2.344   1.170  14.550  1.1641  0.3907 -0.4999
  890MPD2    H313051   2.289   1.028  14.747  0.9230 -1.6567  1.0366
  890MPD2     N13052   2.677   1.164  14.966 -0.2073 -0.1968  0.4549
  890MPD2    H513053   2.751   1.233  14.964  1.0125 -1.5203  0.8102
  890MPD2    N113054   2.564   1.298  14.513  0.0319  0.1367  0.0504
  890MPD2    H713055   2.498   1.292  14.436 -0.1050  1.0891  0.0959
  891MPD2     C13056   0.452   3.989  16.309  1.0626 -0.1879 -0.1789
  891MPD2    C113057   0.451   4.121  16.360  0.7622 -0.6170  0.4476
  891MPD2    C213058   0.503   4.154  16.484  0.1298  0.2091  0.5579
  891MPD2    C313059   0.601   4.072  16.534 -0.1297  0.2046  0.4155
  891MPD2    C413060   0.623   3.949  16.471  0.4137  0.2624 -0.4610
  891MPD2    C513061   0.543   3.910  16.366 -0.2803  0.1654 -0.2368
  891MPD2     H13062   0.487   4.248  16.536  0.5990  0.8306 -0.4081
  891MPD2    H113063   0.684   3.869  16.512  1.8156  0.3463 -2.3844
  891MPD2    H213064   0.403   3.947  16.222 -1.5701  2.5790 -0.0262
  891MPD2    H313065   0.564   3.807  16.341  1.4128  0.0130  1.8048
  891MPD2     N13066   0.673   4.101  16.654 -0.3308  0.1645 -0.2773
  891MPD2    H513067   0.661   4.192  16.697 -1.1792  0.6912 -1.6486
  891MPD2    N113068   0.371   4.198  16.283 -0.2085 -0.1983  0.3940
  891MPD2    H713069   0.317   4.150  16.212  0.7984 -1.0926  0.2367
  892MPD2     C13070   1.468   0.439  14.781  0.6774 -0.7326  0.8527
  892MPD2    C113071   1.361   0.481  14.703  0.2559  0.2892  0.4576
  892MPD2    C213072   1.356   0.429  14.575  0.4946  0.3634 -0.2669
  892MPD2    C313073   1.452   0.345  14.527  0.0482  0.3272 -0.3555
  892MPD2    C413074   1.557   0.305  14.610  0.1490 -0.4825 -0.4563
  892MPD2    C513075   1.564   0.359  14.734 -0.2228 -0.4253  0.1362
  892MPD2     H13076   1.267   0.462  14.523  1.8415 -0.3181 -2.9495
  892MPD2    H113077   1.617   0.221  14.578 -0.4019 -2.2886  3.2391
  892MPD2    H213078   1.477   0.458  14.888 -1.0987  1.1849  0.6681
  892MPD2    H313079   1.652   0.339  14.793  0.3701  1.9695  0.0695
  892MPD2     N13080   1.456   0.297  14.394 -0.0981  0.1506  0.2871
  892MPD2    H513081   1.526   0.231  14.363  0.6978  0.6473  1.0284
  892MPD2    N113082   1.251   0.550  14.747 -0.2495  0.1933 -0.1592
  892MPD2    H713083   1.172   0.546  14.683 -0.8453  1.4130  0.4974
  893MPD2     C13084   2.835   4.406   1.210 -0.0856 -0.8892  0.0384
  893MPD2    C113085   2.917   4.409   1.324  0.3730  0.3749  0.1858
  893MPD2    C213086   2.876   4.478   1.438  0.4265  0.4628  0.0300
  893MPD2    C313087   2.755   4.536   1.440 -0.2646 -0.5319 -0.4968
  893MPD2    C413088   2.670   4.535   1.329  0.0186  0.1229 -1.2651
  893MPD2    C513089   2.714   4.474   1.212  0.0093 -0.2641 -0.4357
  893MPD2     H13090   2.946   4.496   1.519  1.2712  1.1838 -0.8608
  893MPD2    H113091   2.574   4.585   1.340 -1.2175 -2.6252  0.6566
  893MPD2    H213092   2.864   4.364   1.115  0.5303 -2.9271  1.1148
  893MPD2    H313093   2.655   4.474   1.122 -1.2062 -0.8428  0.3548
  893MPD2     N13094   2.706   4.595   1.557 -0.1129 -0.2909 -0.6551
  893MPD2    H513095   2.614   4.635   1.543  0.2482  1.1866  1.1408
  893MPD2    N113096   3.050   4.355   1.307 -0.2108 -0.0100  0.1079
  893MPD2    H713097   3.066   4.314   1.215  0.5806  1.5903 -0.4859
  894MPD2     C13098   1.471   2.286   0.782  0.2500 -0.1066  0.2784
  894MPD2    C113099   1.564   2.290   0.883 -0.0593  0.2015  0.3639
  894MPD2    C213100   1.674   2.375   0.864  1.2722  0.0220  0.2465
  894MPD2    C313101   1.678   2.457   0.758 -0.2738 -0.1566 -0.1282
  894MPD2    C413102   1.575   2.461   0.664 -0.0106 -0.5821  0.1904
  894MPD2    C513103   1.471   2.369   0.676 -0.1257  0.1453 -0.2638
  894MPD2     H13104   1.756   2.386   0.934  0.2243  1.2369  1.2986
  894MPD2    H113105   1.586   2.538   0.588 -0.2179  0.7298  1.4841
  894MPD2    H213106   1.396   2.209   0.789 -0.6267  0.7124 -0.1241
  894MPD2    H313107   1.381   2.360   0.615 -1.4290  0.6529  1.5847
  894MPD2     N13108   1.799   2.537   0.747  0.8141  0.1312 -0.0757
  894MPD2    H513109   1.880   2.509   0.801 -2.1587 -3.9660  2.2306
  894MPD2    N113110   1.555   2.209   0.999 -0.6425 -0.1966  0.2506
  894MPD2    H713111   1.635   2.224   1.060  0.1064 -0.4378 -0.6618
  895MPD2     C13112   0.081   0.076  13.395  0.5204  1.0382 -0.0365
  895MPD2    C113113   0.030   4.692  13.318 -0.2942 -0.6956 -0.5833
  895MPD2    C213114   0.095   4.572  13.327  0.2727 -0.7073  0.7277
  895MPD2    C313115   0.226   4.565  13.380 -0.1978 -0.1848 -0.3046
  895MPD2    C413116   0.273   4.667  13.466 -0.2995  0.0157  0.7714
  895MPD2    C513117   0.195   0.057  13.468 -0.1540  0.6463 -0.2003
  895MPD2     H13118   0.062   4.486  13.270 -1.4516  1.2176 -1.2054
  895MPD2    H113119   0.362   4.658  13.528  0.1591  0.5449  0.1889
  895MPD2    H213120   0.029   0.172  13.392  0.8309  1.2188  0.3293
  895MPD2    H313121   0.228   0.145  13.523 -2.3422  2.2341 -1.4272
  895MPD2     N13122   0.296   4.445  13.354  0.3817  0.0658 -0.0756
  895MPD2    H513123   0.242   4.373  13.306 -0.6358  1.3698 -0.8886
  895MPD2    N113124   4.643   4.695  13.230 -0.3095  0.2338 -0.0309
  895MPD2    H713125   4.623   4.608  13.181 -2.0564 -0.4969  1.9749
  896MPD2     C13126   3.482   2.333   0.952  0.2211 -0.4622 -0.6534
  896MPD2    C113127   3.459   2.423   1.050  0.6725 -0.2114  0.5599
  896MPD2    C213128   3.344   2.418   1.120  0.5394  0.7812 -0.4725
  896MPD2    C313129   3.240   2.333   1.079 -0.0776 -0.2395  0.3468
  896MPD2    C413130   3.266   2.245   0.974 -0.3532  0.4756 -0.9835
  896MPD2    C513131   3.388   2.240   0.912  0.3263 -0.6191 -0.6963
  896MPD2     H13132   3.324   2.486   1.202  0.6772  0.4508 -0.1640
  896MPD2    H113133   3.190   2.175   0.940  0.0309 -1.2128  1.6539
  896MPD2    H213134   3.580   2.331   0.906  1.0172 -0.1379  1.0197
  896MPD2    H313135   3.400   2.176   0.826 -0.6278 -1.7981  0.0487
  896MPD2     N13136   3.108   2.350   1.129 -0.0866  0.5807 -0.3624
  896MPD2    H513137   3.099   2.441   1.174 -0.1609  0.2571  0.2822
  896MPD2    N113138   3.570   2.514   1.074  0.0326  0.2179 -0.0462
  896MPD2    H713139   3.649   2.513   1.011 -0.1028  0.1810 -0.2133
  897MPD2     C13140   3.647   3.811  10.370  0.2145 -0.1163 -0.1049
  897MPD2    C113141   3.654   3.949  10.387  0.3020  0.0808  0.2439
  897MPD2    C213142   3.591   4.001  10.501 -0.1175 -0.1109 -0.7667
  897MPD2    C313143   3.553   3.921  10.606 -0.6195 -0.4664 -0.3663
  897MPD2    C413144   3.544   3.785  10.589  0.0916  0.6813 -0.1723
  897MPD2    C513145   3.590   3.730  10.472  0.2328 -0.1156 -0.8866
  897MPD2     H13146   3.598   4.108  10.522  2.9178 -0.5728  0.6388
  897MPD2    H113147   3.484   3.730  10.660  0.3196  0.7501  0.0744
  897MPD2    H213148   3.668   3.776  10.270  0.8892 -0.4346  0.1534
  897MPD2    H313149   3.579   3.622  10.460 -1.4967 -0.3461  3.0204
  897MPD2     N13150   3.531   3.979  10.733  0.4656  0.4029 -0.2686
  897MPD2    H513151   3.497   4.074  10.731 -1.3296 -0.2236 -0.2680
  897MPD2    N113152   3.718   4.018  10.283 -0.0667  0.3004  0.8268
  897MPD2    H713153   3.746   3.955  10.208 -1.3898  1.3391 -0.5280
  898MPD2     C13154   1.724   0.082  17.682  0.3962 -0.7589 -0.9089
  898MPD2    C113155   1.723   0.218  17.657 -0.0058  0.0376 -0.3834
  898MPD2    C213156   1.716   0.259  17.529  0.4006  0.6963  0.7299
  898MPD2    C313157   1.684   0.185  17.419 -0.4537 -0.1782  0.0770
  898MPD2    C413158   1.671   0.052  17.444 -0.4974 -0.4414  0.2195
  898MPD2    C513159   1.695   0.002  17.574 -0.0395 -0.3488 -0.9626
  898MPD2     H13160   1.719   0.365  17.511  2.9853  0.3768 -0.5933
  898MPD2    H113161   1.654   4.704  17.365 -0.5309  1.0682 -1.1654
  898MPD2    H213162   1.733   0.034   0.079 -0.6303 -0.9588 -0.9128
  898MPD2    H313163   1.694   4.621  17.600  0.6234 -0.6961 -2.3751
  898MPD2     N13164   1.657   0.249  17.298 -0.3926  0.7961 -0.3710
  898MPD2    H513165   1.688   0.345  17.287  1.1870  0.5329  1.6213
  898MPD2    N113166   1.725   0.320   0.054  1.4133 -0.1287 -0.6103
  898MPD2    H713167   1.729   0.417   0.026  0.1356  0.0132 -0.3231
  899MPD2     C13168   2.064   0.981  16.859 -0.0164 -0.5728 -0.0851
  899MPD2    C113169   2.128   1.065  16.955 -0.0601  0.2055  0.3148
  899MPD2    C213170   2.097   1.051  17.090  0.0030  0.0117  0.0517
  899MPD2    C313171   1.998   0.955  17.133  1.1833 -0.5051  0.9674
  899MPD2    C413172   1.952   0.866  17.041 -0.3972 -0.0358  0.4641
  899MPD2    C513173   1.991   0.877  16.914 -0.5953 -0.5545 -0.0120
  899MPD2     H13174   2.150   1.107  17.166 -0.7467 -1.0636  1.3702
  899MPD2    H113175   1.887   0.787  17.078  1.8724 -1.8626  0.5300
  899MPD2    H213176   2.069   0.994  16.751 -2.2369 -0.1515 -0.1415
  899MPD2    H313177   1.958   0.803  16.841  1.6151 -0.6649 -0.8970
  899MPD2     N13178   1.949   0.947  17.261  0.0207  0.1815 -0.2104
  899MPD2    H513179   1.868   0.887  17.272  0.1446 -0.3996 -2.3174
  899MPD2    N113180   2.198   1.185  16.912 -0.1736 -0.1692  0.5568
  899MPD2    H713181   2.203   1.206  16.812 -0.5869 -1.8064  0.2011
  900MPD2     C13182   1.659   2.551  12.150 -0.0711  0.2686 -0.2407
  900MPD2    C113183   1.584   2.453  12.095  0.5837  0.3147 -0.4328
  900MPD2    C213184   1.454   2.487  12.060  0.0410  0.4643  0.3429
  900MPD2    C313185   1.407   2.617  12.066 -1.1005  1.0421  0.2124
  900MPD2    C413186   1.493   2.716  12.114 -0.1911  0.2383  0.3632
  900MPD2    C513187   1.621   2.681  12.161 -0.5733 -0.6346  1.1129
  900MPD2     H13188   1.388   2.409  12.022  0.6366 -0.0417  0.3492
  900MPD2    H113189   1.466   2.821  12.117  1.0394  0.6297 -1.9865
  900MPD2    H213190   1.760   2.532  12.185 -0.2250  0.0900  0.1049
  900MPD2    H313191   1.673   2.757  12.219  1.2272 -0.3631 -0.8495
  900MPD2     N13192   1.282   2.651  12.012 -0.0814  0.3212  0.0315
  900MPD2    H513193   1.222   2.578  11.974  1.5550 -0.7547 -0.4661
  900MPD2    N113194   1.640   2.322  12.096 -0.7164 -0.3528  0.4806
  900MPD2    H713195   1.742   2.321  12.105 -0.4880  1.5127 -2.0549
  901MPD2     C13196   1.462   1.396  12.607 -0.3420  0.0905 -0.7245
  901MPD2    C113197   1.536   1.350  12.510  0.0055 -0.6600  0.3624
  901MPD2    C213198   1.587   1.440  12.414 -0.8424  0.5110 -0.7506
  901MPD2    C313199   1.553   1.578  12.415  0.2285  0.1946 -0.4285
  901MPD2    C413200   1.465   1.622  12.518 -0.6551 -0.4018 -0.3502
  901MPD2    C513201   1.432   1.528  12.616 -0.8469 -0.4194 -0.1367
  901MPD2     H13202   1.656   1.407  12.337 -0.5002 -0.8546  0.1544
  901MPD2    H113203   1.426   1.723  12.524 -3.0732 -1.2266 -2.1217
  901MPD2    H213204   1.424   1.336  12.690  0.2420 -1.3652 -1.5046
  901MPD2    H313205   1.377   1.560  12.704 -2.3173  1.3032 -1.6640
  901MPD2     N13206   1.614   1.670  12.323 -0.1019  0.3657 -0.0389
  901MPD2    H513207   1.677   1.637  12.251 -0.4264 -0.3016 -0.0164
  901MPD2    N113208   1.554   1.213  12.507  0.4658  0.0802  0.8693
  901MPD2    H713209   1.496   1.167  12.577  1.1524 -1.7715  0.2099
  902MPD2     C13210   0.387   0.136  12.027 -0.0389 -0.5474 -0.3411
  902MPD2    C113211   0.283   0.185  12.098  0.4037 -0.2478  0.6015
  902MPD2    C213212   0.207   0.106  12.182  0.5247  0.1978  0.0401
  902MPD2    C313213   0.251   4.698  12.198 -0.4029 -1.4416  0.0855
  902MPD2    C413214   0.352   4.648  12.114 -0.1874 -0.0544  0.2824
  902MPD2    C513215   0.425   0.008  12.033  0.1116  0.5576 -0.1293
  902MPD2     H13216   0.127   0.134  12.249 -0.6834 -1.5146 -0.6826
  902MPD2    H113217   0.381   4.543  12.113  1.1858  0.3210  0.2771
  902MPD2    H213218   0.432   0.199  11.952 -0.9116 -0.0445 -0.4423
  902MPD2    H313219   0.504   4.686  11.976  0.2821  2.9804 -1.8354
  902MPD2     N13220   0.186   4.606  12.286  0.0002  0.5913  0.3209
  902MPD2    H513221   0.222   4.511  12.293 -0.8863  0.2460  0.1890
  902MPD2    N113222   0.253   0.323  12.080  0.2445 -0.4932 -0.2348
  902MPD2    H713223   0.320   0.376  12.025 -0.6115  0.0913 -0.7136
  903MPD2     C13224   4.559   0.040  12.042 -0.1537 -0.1507 -1.0818
  903MPD2    C113225   4.508   4.641  12.069 -0.0105 -0.0115 -0.4653
  903MPD2    C213226   4.414   4.582  11.985  0.1901 -0.0738 -1.0446
  903MPD2    C313227   4.381   4.643  11.864 -0.0816 -0.5800 -0.6538
  903MPD2    C413228   4.442   0.039  11.831 -0.2315  0.2313 -0.1122
  903MPD2    C513229   4.539   0.093  11.917 -0.5591  0.0198 -0.3703
  903MPD2     H13230   4.373   4.484  12.004 -0.0953 -0.0618 -1.6213
  903MPD2    H113231   4.411   0.080  11.736 -0.9580 -0.4429 -0.1633
  903MPD2    H213232   4.632   0.086  12.108 -0.3603  0.2928 -1.1633
  903MPD2    H313233   4.595   0.183  11.894  1.3844 -0.4430  2.5250
  903MPD2     N13234   4.298   4.563  11.776  0.1289  0.1196  0.3376
  903MPD2    H513235   4.265   4.478  11.819 -1.2410  0.2170 -0.5241
  903MPD2    N113236   4.546   4.585  12.188  0.1305 -0.9242 -0.7646
  903MPD2    H713237   4.620   4.632  12.239  0.4143 -1.5345 -0.6108
  904MPD2     C13238   4.600   4.214  13.506 -0.0520 -0.9136 -0.3464
  904MPD2    C113239   4.572   4.155  13.632 -0.8724 -0.1692 -0.2288
  904MPD2    C213240   4.677   4.140  13.725 -0.9170 -0.0501  0.6113
  904MPD2    C313241   0.076   4.197  13.706 -0.6107 -0.2953 -0.0464
  904MPD2    C413242   0.098   4.255  13.584  0.2083  0.5744  0.7655
  904MPD2    C513243   0.003   4.256  13.487 -0.4766  0.1174  0.6461
  904MPD2     H13244   4.665   4.088  13.819  0.0385 -1.4350 -0.0232
  904MPD2    H113245   0.192   4.308  13.572  1.1564 -0.9618  1.4590
  904MPD2    H213246   4.531   4.213  13.423  0.1707  0.7456 -0.5502
  904MPD2    H313247   0.036   4.295  13.391 -0.5271 -1.8414 -0.1737
  904MPD2     N13248   0.173   4.171  13.803 -0.1833  0.1756  0.9654
  904MPD2    H513249   0.143   4.128  13.890  0.1052  1.5814  1.7642
  904MPD2    N113250   4.446   4.096  13.657  0.0297  0.5750 -0.0341
  904MPD2    H713251   4.450   4.028  13.733  0.0850 -0.5342 -1.0347
  905MPD2     C13252   4.441   4.048  12.959  0.3668 -0.2699 -0.0662
  905MPD2    C113253   4.486   4.142  13.056  0.1420 -0.1510 -0.2206
  905MPD2    C213254   4.620   4.149  13.093  0.7080 -0.5336  0.9094
  905MPD2    C313255   4.712   4.062  13.036 -0.7278 -0.3288 -0.0136
  905MPD2    C413256   4.657   3.954  12.966 -0.3250 -0.1420  0.2376
  905MPD2    C513257   4.528   3.951  12.922 -1.0882 -0.0309 -0.0668
  905MPD2     H13258   4.657   4.227  13.159  1.3264 -0.4120  0.4185
  905MPD2    H113259   4.710   3.868  12.926  0.8552 -0.4920  2.5839
  905MPD2    H213260   4.343   4.058  12.914  0.2540 -1.0582  0.0045
  905MPD2    H313261   4.492   3.871  12.859 -0.7893  0.1023 -0.4015
  905MPD2     N13262   0.125   4.061  13.083  0.0269 -0.6579  0.6840
  905MPD2    H513263   0.180   3.979  13.063  1.2481  0.2088  0.5065
  905MPD2    N113264   4.386   4.217  13.122 -0.6813 -0.0009 -0.2700
  905MPD2    H713265   4.294   4.175  13.125 -0.2782 -0.7087  2.7711
  906MPD2     C13266   2.179   4.392  11.330  0.4569  0.6794  0.3836
  906MPD2    C113267   2.290   4.339  11.270  0.3932  0.4356 -0.1394
  906MPD2    C213268   2.320   4.206  11.287 -0.4555 -0.4143  0.3002
  906MPD2    C313269   2.242   4.125  11.371 -0.0463  0.2706 -0.2456
  906MPD2    C413270   2.133   4.178  11.431 -0.5679 -0.0664 -0.5131
  906MPD2    C513271   2.102   4.308  11.404 -0.3229  0.0552  0.4877
  906MPD2     H13272   2.408   4.165  11.237 -1.1335 -0.9036 -0.4944
  906MPD2    H113273   2.082   4.121  11.508 -0.3829  1.0686  0.4425
  906MPD2    H213274   2.158   4.498  11.328 -0.9691  0.4036  1.0213
  906MPD2    H313275   2.017   4.349  11.457  1.4134  1.7798  1.9518
  906MPD2     N13276   2.259   3.986  11.385 -0.6180  0.0810 -0.4062
  906MPD2    H513277   2.180   3.936  11.426  0.2634 -2.6629 -2.0142
  906MPD2    N113278   2.373   4.417  11.184  0.4637 -0.1745 -1.3572
  906MPD2    H713279   2.460   4.372  11.155  0.3356 -0.2881 -1.5584
  907MPD2     C13280   1.148   3.124  15.061 -0.4478  0.5642  0.1985
  907MPD2    C113281   1.192   2.994  15.037  0.3824 -0.1024  0.5083
  907MPD2    C213282   1.256   2.926  15.134 -0.0401  0.2527  0.8313
  907MPD2    C313283   1.277   2.988  15.255  0.4613 -0.2166  1.1392
  907MPD2    C413284   1.221   3.108  15.281 -0.9652 -0.2451  0.7380
  907MPD2    C513285   1.161   3.182  15.182 -0.5481  0.0946 -0.1766
  907MPD2     H13286   1.303   2.831  15.112  0.6811  0.8203 -0.0838
  907MPD2    H113287   1.243   3.153  15.377  0.3534 -2.7931  1.6311
  907MPD2    H213288   1.101   3.189  14.989  1.5985  0.5918 -1.1189
  907MPD2    H313289   1.128   3.285  15.190  0.1379  0.2399  0.7950
  907MPD2     N13290   1.362   2.923  15.341 -0.1686 -0.2810 -0.2493
  907MPD2    H513291   1.414   2.843  15.306 -2.2111 -1.8413  0.2946
  907MPD2    N113292   1.194   2.946  14.907  0.1183 -0.0479 -0.6414
  907MPD2    H713293   1.251   2.863  14.891  0.1567 -0.0206 -0.6471
  908MPD2     C13294   3.983   3.609   9.571  0.1522  0.4891  0.3716
  908MPD2    C113295   4.018   3.584   9.705 -0.1664 -0.0979 -0.9773
  908MPD2    C213296   3.985   3.683   9.802  0.0907 -0.4826 -0.7615
  908MPD2    C313297   3.936   3.807   9.764  0.8911 -0.5987 -0.0495
  908MPD2    C413298   3.907   3.822   9.630  0.3658  0.2670  0.5506
  908MPD2    C513299   3.917   3.727   9.539 -0.7300 -0.2139 -0.0394
  908MPD2     H13300   4.013   3.667   9.905  2.1785 -2.5585 -1.6590
  908MPD2    H113301   3.884   3.923   9.598  0.6051  0.4084  0.8268
  908MPD2    H213302   4.000   3.546   9.485  0.6855  2.1906 -0.7782
  908MPD2    H313303   3.883   3.751   9.439  1.7326 -2.4319 -1.4091
  908MPD2     N13304   3.909   3.905   9.865  0.4209 -0.4963  0.2763
  908MPD2    H513305   3.908   3.876   9.962  3.3787 -2.8524 -0.4005
  908MPD2    N113306   4.077   3.468   9.750  0.6038  0.0619  0.6448
  908MPD2    H713307   4.088   3.455   9.850 -1.3477 -2.6806  0.5137
  909MPD2     C13308   3.828   2.184  11.393  0.2037  0.4695  0.0982
  909MPD2    C113309   3.897   2.299  11.427 -0.2714  0.7150  0.1723
  909MPD2    C213310   3.863   2.374  11.538 -0.6014 -0.4158  0.0043
  909MPD2    C313311   3.766   2.328  11.627 -0.1299  0.4171 -0.2272
  909MPD2    C413312   3.699   2.209  11.595 -0.7472  0.1540  0.0671
  909MPD2    C513313   3.725   2.145  11.477  1.1480  0.1057  0.4559
  909MPD2     H13314   3.923   2.461  11.562 -1.3089 -0.0698  0.5030
  909MPD2    H113315   3.626   2.157  11.656  0.8695 -1.9702  0.1971
  909MPD2    H213316   3.855   2.126  11.305  0.7537  2.0206 -0.7565
  909MPD2    H313317   3.669   2.055  11.455  1.4433 -0.0800  0.4564
  909MPD2     N13318   3.739   2.418  11.736  0.3451 -0.4256  0.2042
  909MPD2    H513319   3.782   2.510  11.730  0.9914 -0.7514 -0.2880
  909MPD2    N113320   3.999   2.350  11.348  0.6393  0.3277 -0.0206
  909MPD2    H713321   4.045   2.436  11.377  0.6139 -0.3821  2.0881
  910MPD2     C13322   0.704   4.298  15.542  0.2382  0.3600  0.0343
  910MPD2    C113323   0.684   4.168  15.572 -0.1532 -0.5678 -0.6512
  910MPD2    C213324   0.604   4.081  15.488  0.1524  0.5923 -0.7925
  910MPD2    C313325   0.548   4.134  15.374 -0.1795 -0.6022 -0.5316
  910MPD2    C413326   0.561   4.268  15.350  0.3743  0.8616 -0.2382
  910MPD2    C513327   0.628   4.346  15.435  0.5306  0.2739  0.3996
  910MPD2     H13328   0.585   3.980  15.520  1.6535  0.3309 -0.7288
  910MPD2    H113329   0.512   4.327  15.274 -0.0605  2.3450  1.1782
  910MPD2    H213330   0.758   4.371  15.601  1.7537 -2.1636  1.7846
  910MPD2    H313331   0.625   4.452  15.412 -0.7513 -0.2204 -1.6858
  910MPD2     N13332   0.474   4.064  15.276  0.1364 -0.4230 -0.5073
  910MPD2    H513333   0.451   4.117  15.193 -0.8895  1.0668  0.7361
  910MPD2    N113334   0.745   4.115  15.688  0.0029 -0.3495 -0.2809
  910MPD2    H713335   0.736   4.014  15.700  2.0322 -0.6132 -0.9835
  911MPD2     C13336   3.863   0.278  15.951 -0.3535 -0.1415 -0.8182
  911MPD2    C113337   3.883   0.235  15.819  0.0117 -0.7991  0.0097
  911MPD2    C213338   3.820   0.289  15.714  0.2275 -0.3692  0.0651
  911MPD2    C313339   3.725   0.389  15.737 -0.0285  0.3233 -0.3017
  911MPD2    C413340   3.690   0.423  15.868  0.1179  0.4031  0.0257
  911MPD2    C513341   3.760   0.367  15.974 -0.0687 -0.0403 -0.6309
  911MPD2     H13342   3.852   0.253  15.617 -1.2973  0.5517 -0.7622
  911MPD2    H113343   3.609   0.490  15.894 -0.3326 -0.2823  0.4004
  911MPD2    H213344   3.921   0.241  16.034 -0.4204  1.9587  0.1761
  911MPD2    H313345   3.750   0.399  16.077  0.7613 -0.5485 -0.3921
  911MPD2     N13346   3.646   0.457  15.644  0.2321 -0.5282  0.3971
  911MPD2    H513347   3.581   0.526  15.682  2.6002  1.9859 -0.0982
  911MPD2    N113348   3.970   0.122  15.818  0.1954  0.2169 -0.0949
  911MPD2    H713349   4.023   0.102  15.903 -1.0769 -2.2302  0.1167
  912MPD2     C13350   2.887   0.217  15.577 -0.2675 -0.1842 -0.1526
  912MPD2    C113351   3.012   0.215  15.623 -0.6763  0.0809  0.7994
  912MPD2    C213352   3.046   0.142  15.740  0.2025 -0.1052 -0.2617
  912MPD2    C313353   2.950   0.069  15.805  0.6322  0.5889 -0.2468
  912MPD2    C413354   2.825   0.054  15.740  0.2637  0.4171  0.7507
  912MPD2    C513355   2.796   0.129  15.627  0.7998  0.6390 -0.4698
  912MPD2     H13356   3.144   0.130  15.784 -0.3260  1.7203  1.4044
  912MPD2    H113357   2.757   4.709  15.788  0.6933  0.9520  2.1325
  912MPD2    H213358   2.851   0.284  15.500 -1.6363  0.0716  0.7205
  912MPD2    H313359   2.702   0.108  15.577  0.7701 -0.7860  0.2123
  912MPD2     N13360   2.991   4.719  15.918  0.1754 -0.7390  0.1622
  912MPD2    H513361   3.082   0.008  15.960  0.6979 -0.8522 -0.9194
  912MPD2    N113362   3.103   0.298  15.550 -0.4539 -0.1309 -0.1986
  912MPD2    H713363   3.060   0.348  15.473 -2.4592 -0.5611  0.6211
  913MPD2     C13364   3.642   0.389  10.737  0.5120 -0.5187  0.2835
  913MPD2    C113365   3.680   0.524  10.736 -0.6265  0.2002  0.2037
  913MPD2    C213366   3.676   0.593  10.617 -0.0643 -0.0917 -0.1573
  913MPD2    C313367   3.638   0.532  10.496  0.2128 -0.6148 -0.4849
  913MPD2    C413368   3.622   0.395  10.499 -0.2255 -0.1505  0.0976
  913MPD2    C513369   3.617   0.331  10.621  0.1987 -0.2360 -0.2143
  913MPD2     H13370   3.696   0.700  10.614  1.4591 -0.3654  0.6191
  913MPD2    H113371   3.610   0.330  10.412  0.9801  1.4753 -1.2639
  913MPD2    H213372   3.639   0.338  10.832 -0.4452 -1.5972 -0.3237
  913MPD2    H313373   3.589   0.227  10.620  0.3778 -0.2825 -0.4646
  913MPD2     N13374   3.631   0.598  10.367 -0.3020  0.2417  0.4082
  913MPD2    H513375   3.595   0.543  10.289  0.8925  1.2584 -0.8592
  913MPD2    N113376   3.733   0.581  10.860 -0.3244 -0.1565  0.2326
  913MPD2    H713377   3.715   0.535  10.948  0.2747 -2.5776 -0.8993
  914MPD2     C13378   1.215   0.654  11.810  0.0283  0.7947  0.0362
  914MPD2    C113379   1.244   0.790  11.821  0.6500 -0.8721 -1.0271
  914MPD2    C213380   1.312   0.824  11.936 -0.1856  0.3330  0.4174
  914MPD2    C313381   1.332   0.738  12.041  0.5271  0.0338 -0.5409
  914MPD2    C413382   1.298   0.606  12.023  0.0338  0.1680  0.5181
  914MPD2    C513383   1.250   0.565  11.899 -0.8776  0.1036 -0.2556
  914MPD2     H13384   1.347   0.925  11.954 -0.0487  0.4574 -0.5859
  914MPD2    H113385   1.313   0.526  12.095  0.5737  1.2522  1.6109
  914MPD2    H213386   1.183   0.617  11.714  1.6842 -1.5478  0.3758
  914MPD2    H313387   1.260   0.459  11.875  1.8125  0.1702  0.5373
  914MPD2     N13388   1.407   0.789  12.149  0.1558  0.1454 -0.0638
  914MPD2    H513389   1.440   0.885  12.141 -0.3824  0.4541  1.3831
  914MPD2    N113390   1.215   0.879  11.717  0.0208  0.3204  0.3001
  914MPD2    H713391   1.149   0.848  11.646 -0.7601  1.2190  0.6170
  915MPD2     C13392   0.243   1.310  15.692  0.7043 -0.2946 -0.2015
  915MPD2    C113393   0.123   1.358  15.645 -0.1308  0.0448  0.0995
  915MPD2    C213394   0.025   1.394  15.736 -0.1595  0.1457 -0.1585
  915MPD2    C313395   0.050   1.395  15.871  0.4944  0.3678 -0.7455
  915MPD2    C413396   0.175   1.349  15.923 -0.4868  0.5521 -0.4938
  915MPD2    C513397   0.273   1.311  15.830  0.6003 -0.0359  0.6213
  915MPD2     H13398   4.654   1.432  15.701 -0.8595 -1.9350 -0.5006
  915MPD2    H113399   0.199   1.351  16.029 -0.8180  0.9975 -0.4256
  915MPD2    H213400   0.327   1.291  15.627 -0.1427 -0.2700 -1.3108
  915MPD2    H313401   0.372   1.290  15.869 -0.1610 -2.4687  1.2156
  915MPD2     N13402   4.674   1.444  15.958 -0.1683  0.2562 -0.2009
  915MPD2    H513403   4.591   1.478  15.910  0.3999  1.8996 -0.0266
  915MPD2    N113404   0.108   1.356  15.502 -0.0617  0.1074 -0.3660
  915MPD2    H713405   0.184   1.326  15.442 -0.7632  1.4216 -1.9178
  916MPD2     C13406   2.578   3.979  15.416 -0.3340  0.2019 -0.7596
  916MPD2    C113407   2.644   3.896  15.504 -0.0449 -0.4529 -0.4373
  916MPD2    C213408   2.696   3.780  15.449 -0.1943  0.5188  0.5476
  916MPD2    C313409   2.691   3.746  15.311  0.2980  0.5275 -0.1058
  916MPD2    C413410   2.615   3.828  15.230 -0.4214  0.7707 -0.2442
  916MPD2    C513411   2.554   3.943  15.285 -0.0333 -0.1624 -0.0349
  916MPD2     H13412   2.746   3.706  15.510  0.9185 -0.5378 -1.6411
  916MPD2    H113413   2.599   3.804  15.125  0.7659 -1.5668  0.1135
  916MPD2    H213414   2.532   4.067  15.461  1.7152  0.7388  0.2479
  916MPD2    H313415   2.486   4.001  15.224 -0.5332 -1.4630 -0.7328
  916MPD2     N13416   2.767   3.631  15.269 -0.5632 -0.4649  0.0723
  916MPD2    H513417   2.803   3.574  15.345  0.9777 -1.0893 -1.1411
  916MPD2    N113418   2.666   3.927  15.643 -0.5742 -0.0344 -0.0239
  916MPD2    H713419   2.659   4.025  15.669 -0.8069 -0.1491  0.3477
  917MPD2     C13420   3.025   1.727  11.040  0.1368 -0.4035 -0.0821
  917MPD2    C113421   3.039   1.802  11.154 -0.8708  0.6422  0.5238
  917MPD2    C213422   3.119   1.915  11.154 -0.0659  0.3460  0.1598
  917MPD2    C313423   3.152   1.968  11.025 -0.4064  0.1150 -0.6733
  917MPD2    C413424   3.133   1.892  10.913 -0.0749 -0.3833 -0.0402
  917MPD2    C513425   3.067   1.774  10.919 -0.4203 -0.2368  0.2528
  917MPD2     H13426   3.121   1.977  11.243  0.9191  0.4298  0.0794
  917MPD2    H113427   3.162   1.924  10.813 -0.6830  0.8149  0.1672
  917MPD2    H213428   2.961   1.640  11.043  0.1461 -0.3935  0.4739
  917MPD2    H313429   3.045   1.719  10.828 -0.2791  0.9450 -0.4964
  917MPD2     N13430   3.211   2.100  11.013 -0.0484  0.3850  0.5871
  917MPD2    H513431   3.254   2.129  10.925 -1.1017 -1.5859 -0.5811
  917MPD2    N113432   2.971   1.755  11.268 -0.4076  0.1657 -0.6812
  917MPD2    H713433   2.939   1.659  11.267  1.7088 -0.5701  1.2861
  918MPD2     C13434   3.250   2.074  12.132 -0.6801  0.3680  0.5650
  918MPD2    C113435   3.263   1.934  12.117  0.3916 -0.7962  0.0378
  918MPD2    C213436   3.171   1.867  12.031  0.1387 -0.5364 -0.4979
  918MPD2    C313437   3.079   1.947  11.965  0.7439 -0.5778 -0.1253
  918MPD2    C413438   3.084   2.088  11.975 -0.0203  0.6713 -0.2790
  918MPD2    C513439   3.165   2.144  12.061 -0.2774 -0.3004 -0.5030
  918MPD2     H13440   3.175   1.760  12.012  0.3239 -0.5806 -0.1924
  918MPD2    H113441   3.009   2.151  11.927 -1.9600 -1.7714 -0.5016
  918MPD2    H213442   3.308   2.126  12.208  1.6342 -0.2039 -0.7900
  918MPD2    H313443   3.147   2.247  12.087  0.4319 -0.0946 -0.8229
  918MPD2     N13444   2.983   1.902  11.872  0.3816  0.3341  0.8398
  918MPD2    H513445   2.934   1.974  11.821  0.3515 -1.1749 -1.2680
  918MPD2    N113446   3.363   1.859  12.184 -0.0489 -0.3150 -0.7089
  918MPD2    H713447   3.353   1.758  12.185 -1.0430 -0.2010  0.4208
  919MPD2     C13448   3.487   0.954  11.221  0.1703 -0.3425 -0.2571
  919MPD2    C113449   3.442   0.824  11.193 -0.0986  0.6055 -0.2291
  919MPD2    C213450   3.426   0.783  11.065  0.4458  0.7802 -0.4571
  919MPD2    C313451   3.451   0.874  10.963  0.4788 -0.2639  0.2583
  919MPD2    C413452   3.484   1.003  10.998 -0.0487 -0.1161  0.3084
  919MPD2    C513453   3.504   1.043  11.126 -0.2611 -0.0782  0.0487
  919MPD2     H13454   3.380   0.686  11.051  2.9110 -0.9699  3.4220
  919MPD2    H113455   3.478   1.078  10.920  1.1111 -0.7168 -0.3619
  919MPD2    H213456   3.501   0.986  11.324  0.5089  1.9385 -1.0243
  919MPD2    H313457   3.506   1.150  11.143 -1.9356 -0.1969  0.9879
  919MPD2     N13458   3.424   0.854  10.824 -1.0342 -0.3906  0.2074
  919MPD2    H513459   3.431   0.937  10.765 -0.9179 -0.8129 -0.3772
  919MPD2    N113460   3.411   0.731  11.295 -0.3834  0.2604 -0.2705
  919MPD2    H713461   3.392   0.636  11.263 -0.7334 -0.8750  3.2809
  920MPD2     C13462   3.174   1.280   9.968  0.3242 -0.1276 -0.6223
  920MPD2    C113463   3.091   1.169   9.964 -0.1749  0.2555 -0.0817
  920MPD2    C213464   3.124   1.065  10.048  0.4408 -0.0026  0.5632
  920MPD2    C313465   3.218   1.083  10.153  0.6174  0.5702  0.2010
  920MPD2    C413466   3.292   1.198  10.163 -0.1176 -0.7061  0.1683
  920MPD2    C513467   3.272   1.297  10.066  0.6762  0.0425 -0.2388
  920MPD2     H13468   3.059   0.978  10.046 -1.3004  1.2684  1.2558
  920MPD2    H113469   3.367   1.224  10.238  0.2062 -1.9279  0.2683
  920MPD2    H213470   3.160   1.369   9.907  0.0878 -1.0426 -1.8893
  920MPD2    H313471   3.323   1.391  10.083  1.4938 -0.1428 -1.6637
  920MPD2     N13472   3.242   0.976  10.242  0.1437  0.2439  0.0486
  920MPD2    H513473   3.182   0.894  10.237 -1.9208  1.7206  0.5292
  920MPD2    N113474   2.989   1.153   9.867  0.3946  0.1014 -0.5751
  920MPD2    H713475   2.955   1.059   9.848 -0.9616  0.1427  1.6112
  921MPD2     C13476   4.716   0.170  16.266 -0.2725 -0.2353  0.3913
  921MPD2    C113477   0.016   0.080  16.165 -0.1130 -0.5910  0.2953
  921MPD2    C213478   4.640   0.036  16.081 -0.3608  0.1336  0.0755
  921MPD2    C313479   4.506   0.073  16.112  0.1827  0.1126 -0.2105
  921MPD2    C413480   4.482   0.167  16.212  0.1412  0.1935 -0.4055
  921MPD2    C513481   4.592   0.210  16.284  0.3807  0.1878 -0.1379
  921MPD2     H13482   4.661   4.701  15.993  1.5927  1.5289 -0.4024
  921MPD2    H113483   4.381   0.193  16.242  0.1091  0.9605 -1.1916
  921MPD2    H213484   0.062   0.207  16.339  1.1676 -0.1068 -1.0925
  921MPD2    H313485   4.574   0.269  16.373  0.9800  0.3144 -0.1014
  921MPD2     N13486   4.397   0.021  16.039 -0.2877  0.5330 -0.1349
  921MPD2    H513487   4.311   0.072  16.055 -1.5122 -0.7037 -2.8139
  921MPD2    N113488   0.143   0.028  16.151 -0.2343 -0.4028  0.2621
  921MPD2    H713489   0.205   0.038  16.231  1.6468 -0.2469 -1.1890
  922MPD2     C13490   1.029   2.254  17.132  0.0561  0.9304 -0.1056
  922MPD2    C113491   0.944   2.351  17.098 -0.2626  0.0120  0.4981
  922MPD2    C213492   0.812   2.315  17.072 -0.1620  1.0202 -0.4900
  922MPD2    C313493   0.770   2.183  17.076  0.6947 -0.4090 -0.1340
  922MPD2    C413494   0.859   2.083  17.108  0.1720  0.0851  0.0848
  922MPD2    C513495   0.988   2.120  17.126  0.4170  0.3545  0.4410
  922MPD2     H13496   0.741   2.393  17.048  0.7360  1.5241 -1.5294
  922MPD2    H113497   0.827   1.979  17.114  0.7772 -0.0068  1.6776
  922MPD2    H213498   1.130   2.284  17.158 -0.0221  0.0836  1.1749
  922MPD2    H313499   1.060   2.042  17.148 -0.7007 -1.3535 -1.9776
  922MPD2     N13500   0.636   2.153  17.045 -0.5153 -0.1790 -0.3284
  922MPD2    H513501   0.574   2.234  17.037 -1.2818 -0.9364 -1.8614
  922MPD2    N113502   0.975   2.488  17.090  0.2591  0.3388 -0.2577
  922MPD2    H713503   0.903   2.545  17.046  0.6258  0.7082 -0.3861
  923MPD2     C13504   1.690   4.310   8.597  0.0739  0.0532 -0.7606
  923MPD2    C113505   1.750   4.400   8.692  0.4890  0.4233  0.9857
  923MPD2    C213506   1.873   4.369   8.748  0.2111  0.5149 -0.2746
  923MPD2    C313507   1.948   4.268   8.687 -0.6429 -0.0254 -1.1463
  923MPD2    C413508   1.883   4.183   8.597 -0.8715 -0.0055 -0.3778
  923MPD2    C513509   1.757   4.199   8.559 -0.2888 -0.0850 -0.4241
  923MPD2     H13510   1.918   4.423   8.830  1.5824 -1.2025  0.1066
  923MPD2    H113511   1.940   4.103   8.552 -0.2227  0.0949  0.2633
  923MPD2    H213512   1.595   4.334   8.551 -1.3448 -0.8075  1.6700
  923MPD2    H313513   1.713   4.136   8.482 -1.5271 -1.2922  1.2437
  923MPD2     N13514   2.084   4.239   8.729 -0.7082  0.2690  0.0263
  923MPD2    H513515   2.125   4.149   8.704 -1.7839 -1.4139  4.2491
  923MPD2    N113516   1.673   4.510   8.735 -0.1021 -1.0943  0.0405
  923MPD2    H713517   1.579   4.498   8.699 -1.0295  0.4866  1.9668
  924MPD2     C13518   0.977   2.587  16.063 -0.3900  0.1757 -0.6355
  924MPD2    C113519   1.084   2.674  16.095  0.0884  0.0458 -0.1143
  924MPD2    C213520   1.197   2.675  16.011  0.3239 -0.1575  0.2646
  924MPD2    C313521   1.205   2.591  15.899 -0.1625 -0.0903 -0.1038
  924MPD2    C413522   1.109   2.501  15.878  0.1305  0.3870  0.6056
  924MPD2    C513523   0.999   2.497  15.959 -0.2079 -0.4718  0.3544
  924MPD2     H13524   1.278   2.743  16.032 -0.0147 -0.1862  1.6420
  924MPD2    H113525   1.117   2.424  15.802  0.7324 -0.4620  1.5195
  924MPD2    H213526   0.894   2.586  16.132  2.7616  0.9766  3.1220
  924MPD2    H313527   0.922   2.426  15.931  1.2622 -2.3475  1.0769
  924MPD2     N13528   1.320   2.609  15.814 -0.7546 -0.6028  0.2636
  924MPD2    H513529   1.381   2.681  15.852 -0.6880 -0.4607 -0.1120
  924MPD2    N113530   1.076   2.746  16.218  0.1633 -0.4655  0.1186
  924MPD2    H713531   0.986   2.744  16.264  0.4478 -1.4531  0.6249
  925MPD2     C13532   0.047   0.723  14.611  0.2276  0.7906  0.2450
  925MPD2    C113533   4.644   0.670  14.591  0.4296  0.2577  0.5804
  925MPD2    C213534   4.587   0.606  14.697  0.0254  0.8103 -0.2144
  925MPD2    C313535   4.652   0.602  14.823  0.1783  0.4229 -0.0137
  925MPD2    C413536   0.051   0.658  14.845 -0.1949 -0.1228 -0.1334
  925MPD2    C513537   0.106   0.716  14.739  0.0399  0.4902  0.5735
  925MPD2     H13538   4.487   0.568  14.685 -0.5992  2.2847  0.3092
  925MPD2    H113539   0.106   0.636  14.936  0.5488 -2.9104 -1.2509
  925MPD2    H213540   0.106   0.759  14.528  0.0170 -0.9237 -0.6539
  925MPD2    H313541   0.204   0.759  14.756 -0.5583  1.7912  0.7335
  925MPD2     N13542   4.593   0.536  14.935  0.1752 -0.3675  0.2649
  925MPD2    H513543   4.655   0.523  15.014 -2.6290 -4.4581  1.8278
  925MPD2    N113544   4.592   0.646  14.465 -0.4294 -1.2991  0.1554
  925MPD2    H713545   4.499   0.607  14.461 -1.5044  1.2762 -0.3248
  926MPD2     C13546   3.726   3.532  13.047 -0.1597  0.0529  0.6391
  926MPD2    C113547   3.621   3.600  12.985  0.0140  0.6030 -0.3684
  926MPD2    C213548   3.638   3.656  12.860 -0.2715  0.0265  0.3668
  926MPD2    C313549   3.750   3.648  12.787 -0.5785 -0.1565 -0.0114
  926MPD2    C413550   3.851   3.574  12.848  0.6326  0.0874 -0.4968
  926MPD2    C513551   3.839   3.517  12.973 -0.2579  0.4573 -0.6818
  926MPD2     H13552   3.554   3.709  12.816  1.0308  2.3431  0.6647
  926MPD2    H113553   3.940   3.564  12.787  0.3445 -0.9306 -0.7650
  926MPD2    H213554   3.715   3.478  13.140 -3.3053  1.5681  1.1660
  926MPD2    H313555   3.930   3.474  13.012  0.4084  1.6865 -0.8865
  926MPD2     N13556   3.763   3.690  12.650 -0.8812  0.1938  0.3806
  926MPD2    H513557   3.851   3.664  12.606  0.1926  0.2373  2.4747
  926MPD2    N113558   3.493   3.627  13.042  0.3546 -0.5675  0.6844
  926MPD2    H713559   3.439   3.690  12.984 -1.4647  0.2415  3.2918
  927MPD2     C13560   4.353   1.282   0.432  0.3769 -0.4472 -0.2843
  927MPD2    C113561   4.255   1.361   0.387  0.3550  1.2939 -0.2742
  927MPD2    C213562   4.229   1.357   0.247 -0.4450  0.6785 -0.1767
  927MPD2    C313563   4.308   1.288   0.159  0.8974  0.1051 -0.4847
  927MPD2    C413564   4.414   1.214   0.210  0.4122 -0.1083  0.2207
  927MPD2    C513565   4.436   1.209   0.345 -0.0396  0.0888  0.3406
  927MPD2     H13566   4.136   1.387   0.201 -0.3948  2.2134  0.7275
  927MPD2    H113567   4.483   1.158   0.147 -1.3112 -1.8821 -0.1248
  927MPD2    H213568   4.364   1.271   0.539 -0.8018  1.1464  0.0049
  927MPD2    H313569   4.510   1.140   0.385 -0.9157 -1.1993 -0.2723
  927MPD2     N13570   4.275   1.299   0.021  0.0810  0.1439  0.5564
  927MPD2    H513571   4.194   1.357   0.003  1.4950  1.2892 -2.1012
  927MPD2    N113572   4.164   1.415   0.480  1.3501  0.8719 -0.3483
  927MPD2    H713573   4.186   1.406   0.579  1.7290  0.8695 -0.4319
  928MPD2     C13574   2.299   4.440   1.059  0.0181  0.1104  0.5407
  928MPD2    C113575   2.245   4.572   1.049  0.1909  0.2928  0.4541
  928MPD2    C213576   2.239   4.627   0.925  0.5136 -0.2054  0.1207
  928MPD2    C313577   2.276   4.550   0.814 -0.5238  0.2088  0.9293
  928MPD2    C413578   2.317   4.420   0.825 -0.3052 -0.5214 -0.8434
  928MPD2    C513579   2.323   4.368   0.944 -0.4693  0.0041 -0.6911
  928MPD2     H13580   2.183   4.720   0.922 -0.0550 -0.5433  0.3511
  928MPD2    H113581   2.344   4.353   0.744 -0.4664 -0.4108 -0.9890
  928MPD2    H213582   2.329   4.393   1.152 -0.6219 -6.2935 -2.5127
  928MPD2    H313583   2.354   4.264   0.948 -1.2894 -0.2325 -0.2829
  928MPD2     N13584   2.274   4.603   0.679  0.3879  0.1803  0.3300
  928MPD2    H513585   2.306   4.541   0.606 -1.1789 -1.4083  0.9952
  928MPD2    N113586   2.212   4.633   1.172 -0.0997 -0.5029  1.0458
  928MPD2    H713587   2.230   4.573   1.252 -0.3584 -0.3543  1.2161
  929MPD2     C13588   2.059   4.403  10.288  0.4838 -0.1656 -0.6480
  929MPD2    C113589   1.992   4.281  10.276  0.3207  0.3648  0.2026
  929MPD2    C213590   1.924   4.248  10.157 -0.2907  0.4592  1.0676
  929MPD2    C313591   1.923   4.340  10.055  0.3265  0.0708  0.4122
  929MPD2    C413592   2.006   4.451  10.067 -0.0857 -0.6414 -0.6906
  929MPD2    C513593   2.064   4.485  10.181 -0.2769 -0.2598  0.2594
  929MPD2     H13594   1.855   4.165  10.160  1.7760 -1.3144 -0.4501
  929MPD2    H113595   2.019   4.524   9.988  0.1031 -2.1054 -2.0078
  929MPD2    H213596   2.114   4.421  10.379 -0.6435  0.4699 -0.0875
  929MPD2    H313597   2.124   4.575  10.191 -0.5082 -0.3507  2.5109
  929MPD2     N13598   1.848   4.326   9.939 -0.3228 -0.7589 -0.9219
  929MPD2    H513599   1.847   4.412   9.884  1.3946 -1.1236 -1.5195
  929MPD2    N113600   2.005   4.205  10.389 -0.9827  0.2328  0.0079
  929MPD2    H713601   2.042   4.243  10.475 -0.9579  2.3018 -0.9209
  930MPD2     C13602   3.991   1.370  14.382  0.1054 -0.6905  0.6770
  930MPD2    C113603   3.926   1.483  14.341  1.5219  0.7635 -0.4166
  930MPD2    C213604   3.860   1.485  14.224 -0.3553  0.7569  0.7420
  930MPD2    C313605   3.836   1.367  14.156  0.3061  0.5060  0.5734
  930MPD2    C413606   3.893   1.250  14.198  0.5360  0.4123 -0.1895
  930MPD2    C513607   3.981   1.250  14.306  0.0182 -0.2226 -0.5821
  930MPD2     H13608   3.821   1.575  14.178  1.3816  0.3568 -1.5395
  930MPD2    H113609   3.874   1.161  14.139 -0.0754  1.1328 -1.0838
  930MPD2    H213610   4.042   1.369  14.478  2.0129  0.0314 -0.3442
  930MPD2    H313611   4.032   1.158  14.333 -2.3142 -0.6914  2.2616
  930MPD2     N13612   3.761   1.367  14.033  0.1245 -0.2487 -0.3778
  930MPD2    H513613   3.758   1.283  13.977  0.4699  0.3032 -1.2252
  930MPD2    N113614   3.958   1.604  14.408  0.8200 -0.8914 -0.0004
  930MPD2    H713615   4.032   1.610  14.478  0.6590  1.0394 -0.0007
  931MPD2     C13616   4.216   1.200   1.040 -0.0173 -0.2784  0.5061
  931MPD2    C113617   4.087   1.237   1.018 -0.2007 -1.0802  0.6591
  931MPD2    C213618   3.984   1.186   1.091 -0.1907 -0.4124  0.1364
  931MPD2    C313619   4.002   1.073   1.172  0.3716 -0.6826 -0.4463
  931MPD2    C413620   4.132   1.030   1.186  0.2263 -0.3380  0.4116
  931MPD2    C513621   4.234   1.100   1.128 -0.0227  0.4617 -0.1711
  931MPD2     H13622   3.887   1.196   1.043  0.6009 -3.0301 -2.0584
  931MPD2    H113623   4.169   0.949   1.248  1.0902  1.0929  1.7845
  931MPD2    H213624   4.302   1.250   0.996 -0.0718  0.5365  1.3233
  931MPD2    H313625   4.328   1.047   1.135 -0.4600 -0.3053 -0.1593
  931MPD2     N13626   3.893   1.003   1.222  0.1936 -0.1643 -0.5285
  931MPD2    H513627   3.904   0.911   1.262 -2.8144 -0.3021 -0.0136
  931MPD2    N113628   4.066   1.335   0.927  0.2963  0.6223 -0.3824
  931MPD2    H713629   4.132   1.347   0.852  3.2623  1.6736  2.4243
  932MPD2     C13630   0.489   4.662  10.815  0.2148 -0.4587 -0.2630
  932MPD2    C113631   0.464   0.057  10.875 -0.5784  0.1293 -0.4578
  932MPD2    C213632   0.396   0.057  10.993 -0.3932 -0.5303 -0.0554
  932MPD2    C313633   0.345   4.666  11.041  0.2389 -0.8068  0.2096
  932MPD2    C413634   0.371   4.547  10.985  0.7608 -0.0849  0.4255
  932MPD2    C513635   0.436   4.549  10.871 -0.4576  0.3816 -0.1799
  932MPD2     H13636   0.368   0.150  11.042  2.4142  0.5442 -0.4552
  932MPD2    H113637   0.336   4.454  11.030  0.5383 -1.2860 -2.2694
  932MPD2    H213638   0.557   4.665  10.731 -0.0123 -1.1235 -0.4754
  932MPD2    H313639   0.447   4.454  10.820  2.8001 -0.1747  1.5552
  932MPD2     N13640   0.259   4.674  11.150 -0.2191  0.6499 -0.1491
  932MPD2    H513641   0.235   0.043  11.179  1.3103  1.1632 -0.5412
  932MPD2    N113642   0.521   0.181  10.840  0.2900 -0.0028 -0.4890
  932MPD2    H713643   0.493   0.252  10.907 -0.4873 -1.1067  0.3684
  933MPD2     C13644   1.836   4.701   1.854  0.7583 -0.0400  0.1147
  933MPD2    C113645   1.846   0.101   1.791 -0.2331  0.0200  0.7071
  933MPD2    C213646   1.744   0.190   1.812  0.1919  0.0532  0.0909
  933MPD2    C313647   1.637   0.156   1.893 -0.7084 -0.4389  0.0755
  933MPD2    C413648   1.614   0.025   1.926  0.0222  0.3674 -0.9835
  933MPD2    C513649   1.713   4.661   1.905  0.1952  0.0041 -0.2227
  933MPD2     H13650   1.755   0.292   1.777  0.7276 -0.0456 -0.0287
  933MPD2    H113651   1.524   4.712   1.972  1.1845  0.1109  1.0934
  933MPD2    H213652   1.910   4.622   1.843  1.5206  0.7458 -0.4185
  933MPD2    H313653   1.708   4.555   1.926  0.9115  0.1580  0.7445
  933MPD2     N13654   1.553   0.260   1.932  0.5095  0.3788 -0.4810
  933MPD2    H513655   1.570   0.349   1.887  2.0469  1.6907  2.6812
  933MPD2    N113656   1.960   0.123   1.716 -0.0199 -0.2000  0.8091
  933MPD2    H713657   2.039   0.064   1.742 -0.2393 -0.9553 -0.2024
  934MPD2     C13658   2.485   1.731   2.105  0.3538 -0.2152 -0.0167
  934MPD2    C113659   2.472   1.857   2.053 -0.8394  0.5337  0.1158
  934MPD2    C213660   2.433   1.883   1.928 -0.2334  0.4061  0.4769
  934MPD2    C313661   2.408   1.777   1.846  0.3236 -0.3212  0.2621
  934MPD2    C413662   2.427   1.647   1.893 -0.3255 -1.0553  0.4204
  934MPD2    C513663   2.469   1.623   2.026 -0.5200  0.8698  1.0202
  934MPD2     H13664   2.437   1.987   1.899  0.8943  0.2636  0.1203
  934MPD2    H113665   2.415   1.561   1.829 -2.0453 -2.1059  2.1488
  934MPD2    H213666   2.524   1.712   2.205 -2.2674 -0.3148  0.9761
  934MPD2    H313667   2.498   1.526   2.066  0.3286  1.2931  1.4311
  934MPD2     N13668   2.369   1.795   1.714  0.7677  0.4884  0.2367
  934MPD2    H513669   2.344   1.709   1.667  0.0788  0.1289  1.2516
  934MPD2    N113670   2.517   1.968   2.132  0.0484 -0.0406 -0.2820
  934MPD2    H713671   2.542   2.056   2.090  0.4155 -0.6533 -1.3447
  935MPD2     C13672   2.395   1.185   1.252  0.5379 -0.5829 -0.3740
  935MPD2    C113673   2.369   1.264   1.138  0.4398 -0.4052 -0.4370
  935MPD2    C213674   2.319   1.391   1.149 -0.0557 -0.4808 -0.2012
  935MPD2    C313675   2.309   1.435   1.273  0.2560  0.7478  0.2371
  935MPD2    C413676   2.349   1.365   1.382 -0.6088  0.2021  0.6152
  935MPD2    C513677   2.384   1.233   1.379 -0.3875  0.2186 -0.4820
  935MPD2     H13678   2.302   1.451   1.060 -0.2332 -0.6752 -0.2979
  935MPD2    H113679   2.351   1.420   1.476  0.8457  2.0300 -0.4784
  935MPD2    H213680   2.420   1.080   1.243  0.2444 -0.5459 -1.6643
  935MPD2    H313681   2.398   1.180   1.473 -1.0795  0.2551 -0.3634
  935MPD2     N13682   2.272   1.565   1.312 -0.0607 -0.1019  0.3715
  935MPD2    H513683   2.261   1.580   1.411 -0.3134  0.4822  0.2503
  935MPD2    N113684   2.385   1.207   1.003 -0.0182  0.6209  0.7225
  935MPD2    H713685   2.346   1.250   0.919 -1.0608  0.5046  1.1502
  936MPD2     C13686   0.355   3.308  12.596 -0.1416 -0.3539  0.5770
  936MPD2    C113687   0.484   3.308  12.648 -0.2832  0.2376 -0.1636
  936MPD2    C213688   0.583   3.350  12.563 -0.9599 -0.1441  0.2515
  936MPD2    C313689   0.562   3.392  12.435 -0.2368 -0.2248 -0.8850
  936MPD2    C413690   0.430   3.406  12.393 -0.5693  0.2884 -0.0812
  936MPD2    C513691   0.330   3.352  12.468 -0.3063  0.0658 -0.2622
  936MPD2     H13692   0.679   3.347  12.612 -0.7697 -0.7920 -0.1625
  936MPD2    H113693   0.409   3.451  12.296 -0.6617  0.5406  0.0541
  936MPD2    H213694   0.267   3.283  12.655  0.2350  1.2314  1.8133
  936MPD2    H313695   0.231   3.346  12.424  0.2892  2.6608 -1.9241
  936MPD2     N13696   0.668   3.458  12.371 -0.4562 -0.5244 -0.4153
  936MPD2    H513697   0.647   3.519  12.293 -0.0860  2.5979  1.9460
  936MPD2    N113698   0.511   3.281  12.784  0.3652  0.0721 -0.4564
  936MPD2    H713699   0.610   3.280  12.807  0.0710  2.5299  0.9067
  937MPD2     C13700   3.655   0.067  11.317  0.8487  0.0291 -0.3787
  937MPD2    C113701   3.700   0.200  11.323  0.3722 -0.1426  0.3374
  937MPD2    C213702   3.783   0.238  11.217  0.1631  0.3271 -0.6292
  937MPD2    C313703   3.815   0.149  11.114  0.0634 -0.5207  0.6166
  937MPD2    C413704   3.773   0.021  11.110  0.7885 -0.9413 -0.0172
  937MPD2    C513705   3.701   4.707  11.218 -0.5475 -0.1530  0.2576
  937MPD2     H13706   3.819   0.341  11.212 -0.2627  0.5230  0.4224
  937MPD2    H113707   3.800   4.673  11.034 -0.4415 -0.6162 -0.7739
  937MPD2    H213708   3.606   0.023  11.403  0.0868 -1.5998 -1.6461
  937MPD2    H313709   3.650   4.612  11.217 -0.5010 -0.2267  3.5870
  937MPD2     N13710   3.888   0.205  11.005  0.2798  0.2512 -0.0916
  937MPD2    H513711   3.923   0.300  11.011  1.0385 -0.0764  0.6076
  937MPD2    N113712   3.632   0.305  11.395 -0.2970 -0.1304  0.1411
  937MPD2    H713713   3.647   0.400  11.363  0.3889 -1.3326 -3.0978
  938MPD2     C13714   1.392   1.969   0.416 -0.2017 -0.4046 -0.2310
  938MPD2    C113715   1.489   1.989   0.519  0.7016  0.9677  0.4735
  938MPD2    C213716   1.471   1.935   0.647  0.8301 -0.5194 -0.3134
  938MPD2    C313717   1.355   1.867   0.670  0.0417 -0.4082 -0.3842
  938MPD2    C413718   1.269   1.842   0.570  0.5658 -0.2309  0.3164
  938MPD2    C513719   1.283   1.890   0.445  0.2057  0.1704 -0.0606
  938MPD2     H13720   1.544   1.952   0.726  2.9567  3.7323 -3.2331
  938MPD2    H113721   1.187   1.776   0.596  1.8810 -1.7350  0.7027
  938MPD2    H213722   1.405   2.003   0.314  1.7061  0.5321  0.3455
  938MPD2    H313723   1.211   1.870   0.367 -0.9652 -1.4630  1.4453
  938MPD2     N13724   1.326   1.809   0.795  0.4917  0.6359  0.2809
  938MPD2    H513725   1.234   1.766   0.802  1.3654 -1.2368  0.2905
  938MPD2    N113726   1.608   2.056   0.495  0.8541  0.1133  0.8800
  938MPD2    H713727   1.671   2.050   0.575  0.0349 -0.7332  1.4605
  939MPD2     C13728   3.080   2.353   0.716  0.0545 -1.0923 -0.3889
  939MPD2    C113729   3.080   2.485   0.672  0.1399 -0.0981  0.0954
  939MPD2    C213730   3.096   2.510   0.536 -0.4177 -0.3351  0.4935
  939MPD2    C313731   3.125   2.411   0.448  0.1861  0.2219 -0.7000
  939MPD2    C413732   3.124   2.279   0.491 -0.3930 -0.0817 -0.6428
  939MPD2    C513733   3.094   2.252   0.624  0.1514  0.2927 -0.4878
  939MPD2     H13734   3.120   2.609   0.501  1.3724 -1.8073 -2.4144
  939MPD2    H113735   3.158   2.192   0.437  0.2611 -0.7372  0.8406
  939MPD2    H213736   3.056   2.333   0.820 -1.4143  0.4374 -0.4381
  939MPD2    H313737   3.080   2.149   0.657  1.5526 -0.5776 -2.5929
  939MPD2     N13738   3.154   2.447   0.316  0.8725 -0.9094  0.2154
  939MPD2    H513739   3.144   2.545   0.293 -2.5110 -1.4588 -0.6623
  939MPD2    N113740   3.065   2.585   0.768 -0.0038  0.0134  0.2039
  939MPD2    H713741   3.045   2.554   0.862  2.0834 -0.1609  0.5875
  940MPD2     C13742   1.154   2.662  12.817  0.2366  0.1921 -0.2861
  940MPD2    C113743   1.219   2.763  12.894  0.3924 -0.2356  0.4333
  940MPD2    C213744   1.208   2.897  12.853  0.2648 -0.2712 -0.3936
  940MPD2    C313745   1.146   2.930  12.730  0.3776  0.2357 -0.5528
  940MPD2    C413746   1.095   2.827  12.652  0.3683  0.6723  0.4398
  940MPD2    C513747   1.093   2.694  12.693  0.4895  0.8502 -1.0222
  940MPD2     H13748   1.261   2.967  12.917 -0.4614 -1.1122  1.1233
  940MPD2    H113749   1.043   2.859  12.562  0.3800  0.1559  0.2448
  940MPD2    H213750   1.151   2.558  12.847  0.8612  0.3493  0.3056
  940MPD2    H313751   1.048   2.615  12.635 -0.5204 -0.5255  1.6232
  940MPD2     N13752   1.134   3.063  12.676 -0.0928  0.2926 -0.3037
  940MPD2    H513753   1.087   3.078  12.587 -0.1779  1.2507 -0.1033
  940MPD2    N113754   1.277   2.744  13.021 -0.2657  0.0381  0.0753
  940MPD2    H713755   1.316   2.830  13.058  0.5130  0.4544 -1.7015
  941MPD2     C13756   1.132   2.817   9.237  0.3785 -0.2177 -0.2836
  941MPD2    C113757   1.211   2.775   9.344 -0.4993 -1.0639  0.1870
  941MPD2    C213758   1.172   2.673   9.423  0.9017 -0.2647 -0.7214
  941MPD2    C313759   1.041   2.620   9.409 -0.2625 -0.0896 -0.1301
  941MPD2    C413760   0.973   2.654   9.295 -0.4879  0.4997 -0.0103
  941MPD2    C513761   1.016   2.751   9.218 -0.4900 -0.5084 -0.4743
  941MPD2     H13762   1.234   2.648   9.507  1.2541 -0.0793 -0.9254
  941MPD2    H113763   0.886   2.599   9.261 -1.6071  2.4597 -0.3020
  941MPD2    H213764   1.157   2.904   9.177  2.3199 -1.0373 -0.6584
  941MPD2    H313765   0.953   2.773   9.132  1.3901  2.5374 -1.0396
  941MPD2     N13766   0.988   2.512   9.491  0.4537  0.0822 -0.9803
  941MPD2    H513767   0.887   2.499   9.490  0.4970 -0.1320 -1.7642
  941MPD2    N113768   1.325   2.837   9.384  0.6195  0.1337  0.2814
  941MPD2    H713769   1.353   2.809   9.477  0.8985 -2.7490 -0.6754
  942MPD2     C13770   0.566   4.291   9.715 -0.5582 -0.2800 -0.0707
  942MPD2    C113771   0.519   4.308   9.591 -0.4823 -0.7932  0.1622
  942MPD2    C213772   0.599   4.306   9.482  1.3210  1.0419 -0.5320
  942MPD2    C313773   0.738   4.292   9.497  0.4251 -0.4693  0.4211
  942MPD2    C413774   0.787   4.272   9.621  0.2535  0.3837 -0.2698
  942MPD2    C513775   0.699   4.258   9.728 -0.7497  0.2548 -0.0611
  942MPD2     H13776   0.553   4.317   9.384  0.9491 -0.8346 -0.5852
  942MPD2    H113777   0.893   4.265   9.640  0.6391 -0.3144 -2.6804
  942MPD2    H213778   0.509   4.287   9.808 -2.8945  1.5042 -1.4323
  942MPD2    H313779   0.738   4.236   9.826  0.6075  0.1428 -0.6287
  942MPD2     N13780   0.825   4.301   9.383  0.1059  0.0996 -0.4296
  942MPD2    H513781   0.920   4.281   9.410 -0.5312  0.1077  1.8142
  942MPD2    N113782   0.381   4.326   9.571  0.2512 -0.1007  0.0591
  942MPD2    H713783   0.346   4.310   9.478 -0.7251  0.1482  0.3881
  943MPD2     C13784   3.950   2.047   9.844  0.0551  0.4186 -0.4955
  943MPD2    C113785   4.047   2.036   9.933  0.0313  0.0965 -0.2044
  943MPD2    C213786   4.170   2.092   9.906 -0.1209 -0.4075  0.9354
  943MPD2    C313787   4.183   2.174   9.795  0.3186 -0.4714  0.3745
  943MPD2    C413788   4.071   2.196   9.718  0.0161 -0.3517  0.2141
  943MPD2    C513789   3.958   2.136   9.743  0.4374 -0.2093 -0.3600
  943MPD2     H13790   4.254   2.078   9.974  0.8977 -3.9951 -1.1031
  943MPD2    H113791   4.072   2.269   9.638  0.7266  0.6002  1.0716
  943MPD2    H213792   3.859   1.990   9.857 -0.0658 -0.1206 -3.6515
  943MPD2    H313793   3.872   2.146   9.678 -0.7066  0.6809  1.2991
  943MPD2     N13794   4.304   2.234   9.756  0.3819 -0.1536 -0.3629
  943MPD2    H513795   4.314   2.289   9.671 -0.3734  0.3043 -0.1586
  943MPD2    N113796   4.031   1.947  10.036 -0.4059  0.1768  0.1821
  943MPD2    H713797   3.942   1.898  10.038  0.0793 -0.7045  0.1516
  944MPD2     C13798   3.843   1.112  10.794 -0.3101 -0.1811 -0.6802
  944MPD2    C113799   3.929   1.221  10.769 -0.1555 -0.0553 -0.4169
  944MPD2    C213800   3.984   1.287  10.880 -0.3038 -0.0989 -0.0063
  944MPD2    C313801   3.965   1.246  11.009  0.3481  0.0530 -0.1890
  944MPD2    C413802   3.872   1.146  11.033 -0.3966  0.2713 -0.5254
  944MPD2    C513803   3.815   1.084  10.926  0.6470 -0.3433  0.0497
  944MPD2     H13804   4.052   1.369  10.859 -1.1297  0.9399  1.4173
  944MPD2    H113805   3.868   1.106  11.134 -0.1943 -4.2170 -2.3301
  944MPD2    H213806   3.791   1.049  10.724  1.4820 -0.8071 -1.4516
  944MPD2    H313807   3.749   1.000  10.943  0.4485 -0.1375  0.2948
  944MPD2     N13808   4.048   1.311  11.107  0.2021 -0.6969  0.2725
  944MPD2    H513809   4.090   1.402  11.094  0.7373 -1.1874 -1.3223
  944MPD2    N113810   3.962   1.242  10.631  1.0078  0.2248 -0.9702
  944MPD2    H713811   3.924   1.181  10.560 -0.6627 -0.2707  0.3596
    1TCq1    O113812   1.679   2.679  13.031  0.0207 -0.0802  0.3167
    1TCq1    C113813   1.740   2.746  13.132 -0.1446  0.3107  0.4627
    1TCq1    O213814   1.693   2.844  13.193  0.6381 -0.4626 -0.3875
    1TCq1    C213815   1.836   2.670  13.201 -0.0101  0.1639 -0.0859
    1TCq1    C313816   1.879   2.551  13.153  0.1056  0.2383 -0.5252
    1TCq1    C413817   1.978   2.479  13.221 -0.2772  0.1881 -0.5359
    1TCq1    C513818   2.035   2.536  13.335  0.1292  0.3447  0.0042
    1TCq1    C613819   1.993   2.656  13.378  0.7988  0.5414 -0.5593
    1TCq1    C713820   1.903   2.729  13.305 -0.1259  0.1541 -0.3031
    1TCq1    C813821   2.030   2.701  13.507 -0.9312  1.2830 -0.2414
    1TCq1    O413822   2.009   2.814  13.534  0.4550 -0.6762 -0.3612
    1TCq1    C913823   2.015   2.349  13.181 -0.7154 -0.3097  0.1217
    1TCq1    O513824   1.956   2.300  13.084  0.2552  0.3860 -0.0013
    1TCq1    O613825   2.121   2.312  13.234 -0.0294 -0.3887  0.2983
    1TCq1    H113826   1.738   2.620  12.979 -1.0322 -0.5801 -0.3096
    1TCq1    H213827   1.842   2.503  13.063  1.5397 -1.6396 -0.1205
    1TCq1    H313828   2.109   2.484  13.395  0.4537 -0.9731 -1.5480
    1TCq1    H413829   1.867   2.828  13.332 -2.7340 -1.2916  1.5639
    2MPD2     C13830   2.212   2.651  13.976  0.6591 -0.4567  0.5779
    2MPD2    C113831   2.142   2.758  13.925 -0.1383  0.1621  0.1042
    2MPD2    C213832   2.097   2.743  13.795  0.3366  0.7115  0.5330
    2MPD2    C313833   2.127   2.631  13.722  0.2247  0.5808  0.7554
    2MPD2    C413834   2.198   2.529  13.778 -0.4810 -0.3441 -0.1191
    2MPD2    C513835   2.244   2.540  13.905 -0.4823  0.2280  0.2066
    2MPD2     H13836   2.026   2.813  13.753 -1.2218 -1.2955 -0.1901
    2MPD2    H113837   2.219   2.434  13.728 -0.1529 -0.0884 -0.4675
    2MPD2    H213838   2.250   2.647  14.077  0.7433  1.5918  0.6086
    2MPD2    H313839   2.301   2.455  13.942  0.7546  0.0278 -2.1855
    2MPD2     N13840   2.091   2.609  13.589 -0.0494 -0.0969  1.0023
    2MPD2    H513841   2.107   2.514  13.558 -1.0429  0.0542  0.0410
    2MPD2    N113842   2.118   2.868  14.016  0.2676 -0.7919  0.3714
    2MPD2    H713843   2.141   2.855  14.114  1.5136 -0.3184  0.1429
    3TMC2    C113844   2.005   3.057  14.088 -0.5089 -0.2424 -0.1164
    3TMC2    C213845   2.050   3.037  14.210 -0.2864  0.0652  0.5972
    3TMC2    C313846   1.979   3.096  14.318  0.3615 -0.5540 -0.5814
    3TMC2    C413847   1.892   3.124  14.072 -0.3679  0.5848  0.0445
    3TMC2    C513848   1.815   3.173  14.175 -0.0024  0.4606  0.1837
    3TMC2    C613849   1.860   3.165  14.304 -0.3471 -0.0786  0.1675
    3TMC2     C13850   2.044   2.976  13.974 -0.2644 -0.0491  0.3140
    3TMC2     O13851   1.991   3.007  13.870 -0.8494  0.4056  0.1301
    3TMC2     H13852   2.145   2.988  14.230 -0.7578 -1.2504 -0.3862
    3TMC2    H113853   1.854   3.142  13.972 -1.3825  1.0247  0.5076
    3TMC2    H213854   1.813   3.213  14.390 -0.6934  0.1697 -0.1616
    3TMC2    C713855   1.702   3.261  14.153  0.2744  0.3570 -0.0900
    3TMC2    C813856   2.069   3.119  14.436 -0.4960 -0.3668  0.3802
    3TMC2    O113857   1.639   3.293  14.253 -0.1352 -0.3862 -0.1155
    3TMC2    O213858   2.077   3.229  14.490  0.6408 -0.2845  0.0792
    3TMC2    O513859   2.140   3.011  14.461 -0.5779 -0.4722 -0.4496
    3TMC2    H513860   2.087   2.941  14.417 -0.1314 -0.6326 -0.7402
    4MPD2     C13861   1.018   4.025  13.297  0.1883  0.1842  0.1074
    4MPD2    C113862   1.107   4.070  13.207 -0.7351  0.8142 -0.1787
    4MPD2    C213863   1.243   4.086  13.238 -0.3555  0.6005 -0.6233
    4MPD2    C313864   1.285   4.048  13.363  0.4421  0.5000 -0.0149
    4MPD2    C413865   1.197   4.005  13.454  0.1724 -0.4129 -0.4810
    4MPD2    C513866   1.069   3.990  13.420  0.0095 -0.2527  0.3088
    4MPD2     H13867   1.321   4.108  13.166  1.5685 -2.5007  0.5132
    4MPD2    H113868   1.209   3.972  13.557 -1.9624 -0.0517 -0.1197
    4MPD2    H213869   0.914   4.006  13.272  0.0622  0.5773  0.3268
    4MPD2    H313870   1.008   3.935  13.491 -1.9352  2.3797  0.6909
    4MPD2     N13871   1.421   4.047  13.396  0.3991  0.0356 -0.2576
    4MPD2    H513872   1.486   4.043  13.318 -1.2671 -3.2230 -1.4594
    4MPD2    N113873   1.056   4.103  13.074 -0.2841  0.3656 -0.6896
    4MPD2    H713874   0.959   4.074  13.064 -0.1671  0.7118 -2.9068
    5TCq2    C113875   1.470   4.043  13.525 -0.1216 -0.5082  0.5140
    5TCq2    O213876   1.409   4.054  13.631  0.5869  0.0881 -0.2268
    5TCq2    C213877   1.609   4.016  13.529  0.8582  0.1999 -0.3639
    5TCq2    C313878   1.683   4.008  13.410  0.4308 -0.3772  0.7219
    5TCq2    C413879   1.771   3.904  13.407  0.3073 -0.7356 -0.4760
    5TCq2    C513880   1.799   3.821  13.504 -0.4240  0.3548  0.2948
    5TCq2    C613881   1.743   3.844  13.623  0.1253  0.0711  0.5328
    5TCq2    C713882   1.642   3.941  13.637 -0.4374 -0.0243 -0.1430
    5TCq2    C813883   1.738   3.728  13.702 -0.6653 -0.0017  0.4905
    5TCq2    O413884   1.819   3.638  13.686 -0.2906 -0.3898 -0.4862
    5TCq2    C913885   1.848   3.885  13.290  0.2739  0.6162 -0.8853
    5TCq2    O513886   1.916   3.779  13.281 -0.6684 -0.2375 -0.0848
    5TCq2    O613887   1.806   3.945  13.189 -0.1226 -0.5893  0.0059
    5TCq2    H213888   1.670   4.065  13.319  1.0875 -2.4770 -0.6760
    5TCq2    H313889   1.878   3.748  13.495 -1.4168 -0.7445  0.4095
    5TCq2    H413890   1.579   3.949  13.725 -1.0279  0.9885 -0.6638
    6MPD1     C13891   0.137   0.815  12.571  1.1166 -0.3341  0.0234
    6MPD1    C113892   0.267   0.801  12.545  0.2444 -0.5551 -0.1072
    6MPD1    C213893   0.310   0.675  12.507 -0.0071  0.2255 -0.3157
    6MPD1    C313894   0.234   0.565  12.482 -0.0375  0.5051  0.4429
    6MPD1    C413895   0.097   0.582  12.501 -0.2942  0.3483 -0.1263
    6MPD1    C513896   0.056   0.702  12.555  0.3116 -0.1644 -0.0269
    6MPD1     H13897   0.418   0.667  12.517 -0.2343 -1.9619  0.3636
    6MPD1    H113898   0.014   0.511  12.497  0.9932 -1.0366 -2.6506
    6MPD1    H213899   0.088   0.900  12.617 -0.7141 -1.4527  0.1391
    6MPD1    H313900   4.674   0.712  12.572  0.4527  0.1804  0.6754
    6MPD1     N13901   0.284   0.434  12.456 -0.2902 -0.7246 -0.1112
    6MPD1    H513902   0.218   0.357  12.456  1.9918 -2.6749  1.2518
    6MPD1    N113903   0.357   0.899  12.582  0.5970  0.9252 -1.0357
    6MPD1    H613904   0.314   0.990  12.572 -1.1374  0.3999  1.4667
    6MPD1    H713905   0.443   0.910  12.529  1.1548  0.5158 -0.2231
    7MPD2     C13906   0.313   4.447  12.749 -0.4747 -0.4595  0.6385
    7MPD2    C113907   0.435   4.483  12.702 -0.7610  0.1744  0.0101
    7MPD2    C213908   0.539   4.395  12.706  0.1483  0.0105  0.1032
    7MPD2    C313909   0.538   4.274  12.763  0.0562 -0.1370 -0.5409
    7MPD2    C413910   0.425   4.249  12.831  0.1487  0.1116 -0.6896
    7MPD2    C513911   0.314   4.323  12.816  0.1084 -0.7060  0.2679
    7MPD2     H13912   0.630   4.431  12.658 -1.0449  1.3800 -1.1585
    7MPD2    H113913   0.417   4.158  12.889  0.4205  1.5740  1.6736
    7MPD2    H213914   0.225   4.510  12.748  0.4714  0.8092 -0.5216
    7MPD2    H313915   0.225   4.304  12.876  1.4819 -0.1289  2.4710
    7MPD2     N13916   0.643   4.181  12.764 -0.5938 -0.0659 -0.0347
    7MPD2    H513917   0.634   4.100  12.824 -1.5592  0.1538  0.1213
    7MPD2    N113918   0.456   4.600  12.623 -0.4155  0.6879  0.0576
    7MPD2    H713919   0.552   4.619  12.598 -0.7414  1.4640 -0.5966
    8TMC3    C113920   0.863   4.090  12.705 -0.0130 -0.3455  0.0072
    8TMC3    C213921   0.927   4.094  12.825  0.0588 -0.2155 -0.9329
    8TMC3    C313922   1.061   4.120  12.830 -0.1597  0.2734 -0.0733
    8TMC3    C413923   0.943   4.103  12.595  0.2010 -0.5071  0.7028
    8TMC3    C513924   1.084   4.137  12.603 -0.8005  0.5584  0.8706
    8TMC3    C613925   1.140   4.146  12.724  0.0128  0.0122  0.3000
    8TMC3     C13926   0.759   4.187  12.691 -0.4331 -0.2651 -0.3156
    8TMC3     O13927   0.777   4.268  12.602 -0.3903 -0.1644  0.6984
    8TMC3     H13928   0.866   4.086  12.914  0.8527 -0.3953 -0.3992
    8TMC3    H113929   0.903   4.102  12.494 -1.5925  1.1553  1.3892
    8TMC3    H213930   1.246   4.166  12.734  0.7368 -1.8925 -3.5053
    8TMC3    C713931   1.134   4.230  12.499 -0.2217  0.5778  0.2459
    8TMC3    C813932   1.134   4.114  12.956  0.5110  0.3498  0.3906
    8TMC3    O113933   1.251   4.236  12.473 -0.5811  0.5217  0.0562
    8TMC3    O213934   1.250   4.160  12.951  0.1732 -0.0113 -0.0535
    9TMC3    C113935   0.440   0.272  12.426 -0.4929  0.6299  0.4470
    9TMC3    C213936   0.561   0.244  12.371  0.2276 -0.0100 -1.1856
    9TMC3    C313937   0.606   0.114  12.369  0.1506  0.0408 -0.1384
    9TMC3    C413938   0.359   0.178  12.479 -0.1540 -0.0977  0.1076
    9TMC3    C513939   0.406   0.052  12.470  0.1271  0.8694 -0.4025
    9TMC3    C613940   0.528   0.011  12.412 -0.2029  0.1313 -0.8412
    9TMC3     C13941   0.415   0.407  12.443 -0.2742 -0.0771 -0.0363
    9TMC3     O13942   0.513   0.483  12.433 -0.5851 -0.0734  0.4843
    9TMC3     H13943   0.619   0.325  12.328  0.8209  0.9582  1.4867
    9TMC3    H113944   0.271   0.206  12.536  2.1980 -0.4723  3.8943
    9TMC3    H213945   0.553   4.633  12.390  0.5811 -0.3274  2.2152
    9TMC3    C713946   0.363   4.693  12.577 -0.2118  0.3612  1.0831
    9TMC3    C813947   0.728   0.089  12.299  0.4946  0.7653 -0.8992
    9TMC3    O113948   0.255   4.715  12.624  0.0161  0.5177 -0.0700
    9TMC3    O213949   0.760   0.160  12.203 -0.2813  0.1473  0.3496
   10MPD2     C13950   1.127   4.468  12.316  0.1684 -0.3253 -0.0684
   10MPD2    C113951   1.023   4.434  12.399  0.2202 -0.5261  0.6098
   10MPD2    C213952   0.912   4.517  12.410 -0.0724 -0.2046 -0.0367
   10MPD2    C313953   0.897   4.625  12.324 -0.3959  0.0324  0.1409
   10MPD2    C413954   0.995   4.661  12.233  0.1262  0.0922 -0.1146
   10MPD2    C513955   1.111   4.582  12.233  0.1048  0.2614  0.3624
   10MPD2     H13956   0.832   4.491  12.478 -0.0087 -0.9333 -0.2412
   10MPD2    H113957   1.000   0.026  12.173 -1.4797  2.6474  3.5841
   10MPD2    H213958   1.222   4.416  12.321 -0.1712 -0.9066  0.2735
   10MPD2    H313959   1.185   4.606  12.158 -1.8295  3.8672 -0.4079
   10MPD2     N13960   0.779   4.700  12.345  0.3028  0.3974  0.2365
   10MPD2    H513961   0.722   4.658  12.418 -0.3052 -0.0090 -0.4674
   10MPD2    N113962   1.032   4.316  12.484  0.2366 -0.0227  0.6839
   10MPD2    H713963   0.949   4.293  12.538 -1.2333 -3.0101 -2.8946
   11MPD2     C13964   1.486   3.427  14.050  0.1966 -0.0499 -0.1204
   11MPD2    C113965   1.613   3.417  13.990 -0.2034 -0.3306  0.6760
   11MPD2    C213966   1.665   3.512  13.904 -0.5543 -0.4125  0.1031
   11MPD2    C313967   1.586   3.622  13.869  0.2077 -0.9938 -0.3974
   11MPD2    C413968   1.456   3.633  13.925  0.8748 -0.3693 -0.1188
   11MPD2    C513969   1.407   3.537  14.013 -0.0652 -0.3690  0.5036
   11MPD2     H13970   1.769   3.517  13.876 -0.9585  0.2734 -1.2649
   11MPD2    H113971   1.393   3.715  13.892 -0.2486 -0.8379  0.8885
   11MPD2    H213972   1.462   3.339  14.108  0.4347 -1.0521 -1.5292
   11MPD2    H313973   1.310   3.550  14.060 -0.7117  0.4756 -1.0565
   11MPD2     N13974   1.625   3.727  13.772 -0.1559 -0.1224 -0.2519
   11MPD2    H513975   1.561   3.804  13.755  1.4772  0.9384 -1.5777
   11MPD2    N113976   1.706   3.315  14.024 -0.9043  0.2713 -0.5240
   11MPD2    H713977   1.787   3.294  13.966 -1.2622 -2.0126 -0.2204
    1MPD1     C13978   4.623   4.350  16.374 -0.0588 -0.6088 -0.1743
    1MPD1    C113979   4.654   4.482  16.358 -0.6696  0.7020 -0.4646
    1MPD1    C213980   0.027   4.543  16.420  0.0221  0.2354  0.0469
    1MPD1    C313981   0.119   4.472  16.492  0.1844 -0.4041  0.2173
    1MPD1    C413982   0.106   4.334  16.498  0.1748  0.6581  0.6530
    1MPD1    C513983   4.720   4.275  16.443  1.4042  0.3932  1.5458
    1MPD1     H13984   0.034   4.652  16.420  1.5945  0.1386 -0.7386
    1MPD1    H113985   0.179   4.271  16.548  0.7058  1.2552  0.6325
    1MPD1    H213986   4.540   4.301  16.325 -1.0092 -0.2190  1.0367
    1MPD1    H313987   4.708   4.167  16.443  0.3501  0.5229 -0.6250
    1MPD1     N13988   0.236   4.533  16.557 -0.5110  0.4967  0.3291
    1MPD1    H513989   0.304   4.475  16.605  0.1661  1.0211  0.0065
    1MPD1    N113990   4.552   4.560  16.307  0.5607 -0.3899 -0.0263
    1MPD1    H613991   4.585   4.652  16.280  0.1486  0.3966  2.1625
    1MPD1    H713992   4.486   4.516  16.243  1.3509 -0.8903 -0.4952
    2MPD1     C13993   0.865   0.576  17.033  0.4789 -0.3175 -0.0115
    2MPD1    C113994   0.938   0.455  17.021 -0.0586  0.4274 -0.4587
    2MPD1    C213995   0.895   0.360  16.931 -0.0043  0.1331  0.0327
    2MPD1    C313996   0.769   0.373  16.877 -0.3794  0.0555  0.1294
    2MPD1    C413997   0.702   0.494  16.876  0.1639  0.8330 -0.5507
    2MPD1    C513998   0.750   0.593  16.959 -0.2872 -0.0390  0.5016
    2MPD1     H13999   0.955   0.272  16.910  1.9402  1.9481 -2.0118
    2MPD1    H114000   0.607   0.524  16.833 -1.5271 -0.2704  2.3819
    2MPD1    H214001   0.914   0.654  17.090 -0.3866  0.6201 -0.5426
    2MPD1    H314002   0.689   0.682  16.963 -1.2587 -0.8513  3.3203
    2MPD1     N14003   0.714   0.262  16.818 -0.5775  0.4760  0.3747
    2MPD1    H514004   0.775   0.183  16.798 -0.7886  0.2713  0.5317
    2MPD1    N114005   1.067   0.447  17.074  0.0297 -0.2779  0.8518
    2MPD1    H614006   1.102   0.353  17.091 -2.5060 -1.3301  0.1995
    2MPD1    H714007   1.096   0.509  17.149  0.9702 -0.6432  0.7909
    3TMC3    C114008   0.564   0.113  16.711  0.3634  0.1060  0.2205
    3TMC3    C214009   0.664   0.020  16.711 -0.4185  0.5581 -0.0959
    3TMC3    C314010   0.622   4.618  16.665  0.3528 -0.5323  0.6019
    3TMC3    C414011   0.440   0.088  16.659  0.3058 -0.1793 -0.6701
    3TMC3    C514012   0.412   4.691  16.603  0.1292 -0.7285  0.7719
    3TMC3    C614013   0.503   4.594  16.605 -0.5903 -0.5043  0.0381
    3TMC3     C14014   0.587   0.245  16.772 -0.4613 -0.4041 -0.4021
    3TMC3     O14015   0.487   0.316  16.774  0.6858 -0.1135  0.5851
    3TMC3     H14016   0.763   0.046  16.748  0.0923  0.5533 -1.4713
    3TMC3    H114017   0.376   0.172  16.635 -1.1824 -1.0329  0.3282
    3TMC3    H214018   0.480   4.493  16.574  1.7710 -0.2645 -2.4878
    3TMC3    C714019   0.277   4.662  16.552 -0.1349  0.5016  0.2205
    3TMC3    C814020   0.719   4.511  16.642  0.3759  0.2781 -0.1206
    3TMC3    O114021   0.210   0.037  16.531 -0.6464 -0.1009 -0.1166
    3TMC3    O214022   0.677   4.403  16.602  0.1505  0.6019  0.0686
    4MPD1     C14023   1.177   4.289  16.661  0.4629 -0.1848  0.5369
    4MPD1    C114024   1.179   4.404  16.738  0.0785  0.0877  0.5545
    4MPD1    C214025   1.069   4.488  16.732  0.3854 -0.1569  0.1148
    4MPD1    C314026   0.954   4.459  16.663 -0.9529  0.4191  0.4479
    4MPD1    C414027   0.951   4.336  16.596 -0.2011 -0.1650  0.3914
    4MPD1    C514028   1.061   4.257  16.600  0.0485  0.0059  0.5243
    4MPD1     H14029   1.066   4.574  16.798 -0.8483  1.6816 -2.3421
    4MPD1    H114030   0.873   4.305  16.527 -0.7715  0.9314  0.5404
    4MPD1    H214031   1.242   4.202  16.659 -1.3774 -1.5048 -1.8166
    4MPD1    H314032   1.049   4.167  16.541  1.0261  1.4508 -1.8518
    4MPD1     N14033   0.848   4.552  16.663 -0.0646 -0.0753  0.1776
    4MPD1    H514034   0.866   4.635  16.717  2.0104  0.1256 -0.8009
    4MPD1    N114035   1.301   4.450  16.797  0.3935  0.0785  1.0642
    4MPD1    H614036   1.345   4.366  16.833 -0.4683 -0.1644  1.5522
    4MPD1    H714037   1.296   4.516  16.875 -0.4602  2.7015 -1.1939
    1TCq1    O114038   0.929   3.658  11.678  0.1730  0.4380  0.0136
    1TCq1    C114039   0.981   3.569  11.765 -0.5316  0.0050 -0.5260
    1TCq1    O214040   1.018   3.452  11.747 -0.6928  0.3886  0.5140
    1TCq1    C214041   1.021   3.653  11.875 -0.5424 -0.1161  0.4617
    1TCq1    C314042   0.932   3.724  11.948  0.5098 -0.3849 -0.5299
    1TCq1    C414043   0.978   3.803  12.045 -0.1327  0.2451  0.3143
    1TCq1    C514044   1.110   3.830  12.057 -0.7128 -0.4307  0.1349
    1TCq1    C614045   1.201   3.752  12.000  0.0911  0.2251  0.2999
    1TCq1    C714046   1.157   3.660  11.907 -0.1419  0.0032  0.1197
    1TCq1    C814047   1.341   3.780  11.998 -0.1485 -0.1284 -0.5028
    1TCq1    O414048   1.413   3.693  11.954 -0.4441 -0.1076 -0.2622
    1TCq1    C914049   0.879   3.892  12.088  0.8240 -0.2461  0.1553
    1TCq1    O514050   0.763   3.850  12.094  0.6601 -0.6124 -0.7656
    1TCq1    O614051   0.930   3.996  12.140  0.4451 -0.2577  0.3448
    1TCq1    H114052   0.924   3.749  11.715  1.2945  0.4851  0.0741
    1TCq1    H214053   0.828   3.725  11.917  0.2291  0.6303  0.4447
    1TCq1    H314054   1.144   3.904  12.128 -3.2958 -1.2787  2.2662
    1TCq1    H414055   1.226   3.599  11.850  0.5286  2.2609 -1.4449
    2MPD1     C14056   1.729   4.106  12.006  0.1954 -0.2683 -0.3654
    2MPD1    C114057   1.616   4.179  11.991 -0.3269  0.0538 -0.2368
    2MPD1    C214058   1.500   4.108  12.009 -0.2724  0.6086  0.3859
    2MPD1    C314059   1.491   3.971  12.004  1.0279  0.0273 -0.2625
    2MPD1    C414060   1.611   3.901  12.004 -0.0104  0.3649  0.1999
    2MPD1    C514061   1.730   3.966  12.007  0.4612  0.2350  0.3117
    2MPD1     H14062   1.404   4.157  12.022 -2.2289 -2.3635 -2.5971
    2MPD1    H114063   1.612   3.794  12.021 -1.9336  0.2079 -0.6075
    2MPD1    H214064   1.822   4.161  11.998  1.2706 -1.9670  0.4334
    2MPD1    H314065   1.819   3.907  12.029  0.6915  1.1814  1.9033
    2MPD1     N14066   1.367   3.914  12.019 -0.5472  0.0370  0.8358
    2MPD1    H514067   1.286   3.973  12.035 -0.6398 -1.1167  4.5844
    2MPD1    N114068   1.616   4.320  11.990  0.1073  0.2094  0.6799
    2MPD1    H614069   1.702   4.359  11.951 -0.0328  0.6590  0.8204
    2MPD1    H714070   1.529   4.362  11.957 -1.4636 -1.8792  2.2066
    1TCq1    O114071   3.531   3.182   8.404  0.2528  0.4141 -0.4187
    1TCq1    C114072   3.621   3.078   8.404  0.2846  0.3237  0.0739
    1TCq1    O214073   3.594   2.960   8.401 -0.5941  0.5482 -0.3621
    1TCq1    C214074   3.748   3.123   8.470 -0.2599 -0.0368 -0.9971
    1TCq1    C314075   3.800   3.244   8.431  0.5958 -0.0539 -0.2153
    1TCq1    C414076   3.923   3.282   8.475 -0.0805  0.4651  0.3319
    1TCq1    C514077   3.994   3.213   8.564  0.1039  0.0760  0.7498
    1TCq1    C614078   3.941   3.093   8.608  0.1194 -0.5966 -0.4965
    1TCq1    C714079   3.815   3.045   8.561 -0.6019  0.3217 -0.8933
    1TCq1    C814080   4.011   3.035   8.724  0.1371 -1.0049  0.5054
    1TCq1    O414081   4.091   3.104   8.782  0.0501  0.4550  0.1953
    1TCq1    C914082   3.991   3.384   8.397  0.0248 -0.2370  0.1007
    1TCq1    O514083   4.120   3.380   8.393  0.3809  0.1544 -0.5549
    1TCq1    O614084   3.924   3.437   8.304 -0.0447  1.0072  0.0464
    1TCq1    H114085   3.577   3.264   8.431  1.8233 -0.7130  0.3553
    1TCq1    H214086   3.762   3.283   8.337 -0.0379  0.3333  0.2038
    1TCq1    H314087   4.090   3.246   8.603  0.1593 -1.7447  2.2110
    1TCq1    H414088   3.761   2.960   8.600 -2.1784  0.5631 -2.5750
    2MPD1     C14089   4.173   2.629   8.975 -0.3586 -0.1120  0.2565
    2MPD1    C114090   4.076   2.577   8.891  0.2257  0.9054 -0.0628
    2MPD1    C214091   4.017   2.669   8.803 -0.1560  0.2749 -0.2471
    2MPD1    C314092   4.042   2.804   8.816  1.0274 -0.2266  0.1716
    2MPD1    C414093   4.134   2.852   8.912  0.1566  0.1983  0.7631
    2MPD1    C514094   4.202   2.762   8.989  0.5937 -0.2664 -0.6798
    2MPD1     H14095   3.937   2.636   8.739 -1.4835  1.3506  0.8607
    2MPD1    H114096   4.171   2.954   8.916  1.4259 -0.1074 -2.8047
    2MPD1    H214097   4.228   2.561   9.039  1.0984  0.6422 -0.1909
    2MPD1    H314098   4.288   2.794   9.047  0.2227 -1.1587  0.3708
    2MPD1     N14099   3.983   2.901   8.733  0.3301 -0.6335  0.0415
    2MPD1    H514100   3.924   2.862   8.660 -0.1549 -0.7062  0.4767
    2MPD1    N114101   4.057   2.439   8.880  0.5975 -0.4383  0.4752
    2MPD1    H614102   4.091   2.383   8.958 -1.9829 -0.4570  1.5688
    2MPD1    H714103   3.961   2.424   8.851  0.1499  2.3773  0.5585
    1MPD1     C14104   2.829   3.969  12.022  0.3150  0.4961  0.0762
    1MPD1    C114105   2.704   3.936  11.976 -0.6677  0.3501 -0.3689
    1MPD1    C214106   2.609   4.035  11.977 -0.1578  0.0773 -0.1644
    1MPD1    C314107   2.638   4.160  12.025 -0.1604 -0.0777 -0.2382
    1MPD1    C414108   2.765   4.189  12.069 -0.0665  0.1768  0.3198
    1MPD1    C514109   2.858   4.088  12.072  0.1574  0.6725  0.9987
    1MPD1     H14110   2.510   3.998  11.950 -0.0482 -0.6797  0.4518
    1MPD1    H114111   2.801   4.279  12.117  1.0867 -0.1641  0.0902
    1MPD1    H214112   2.898   3.887  12.035  0.5371  0.8704  1.2584
    1MPD1    H314113   2.960   4.106  12.105 -0.1689  0.7191  1.9979
    1MPD1     N14114   2.531   4.252  12.019  0.8003  0.1250  0.7545
    1MPD1    H514115   2.455   4.220  11.961  1.7932 -2.7207  1.0362
    1MPD1    N114116   2.675   3.806  11.932  0.2056  0.2008 -0.1223
    1MPD1    H614117   2.578   3.784  11.908  1.0751 -1.3219 -2.1793
    1MPD1    H714118   2.727   3.734  11.982  1.1831 -0.0929 -1.5805
    2MPD1     C14119   1.149   4.064  11.045  0.7923 -0.7964  1.2758
    2MPD1    C114120   1.203   4.014  10.932 -0.1687  0.2686 -0.1878
    2MPD1    C214121   1.269   4.106  10.850 -0.3105  0.5277 -0.3159
    2MPD1    C314122   1.276   4.239  10.877  0.1246  0.6163  0.2957
    2MPD1    C414123   1.218   4.289  10.989  0.0162  0.2050 -0.2337
    2MPD1    C514124   1.156   4.199  11.071  0.0650  0.3396 -0.2276
    2MPD1     H14125   1.333   4.073  10.769  0.1760  2.8697 -0.8893
    2MPD1    H114126   1.231   4.391  11.021 -1.2654 -0.4454  2.4134
    2MPD1    H214127   1.100   4.005  11.122  1.0911 -1.6863  0.7869
    2MPD1    H314128   1.101   4.235  11.158  0.2046  1.6555 -0.6834
    2MPD1     N14129   1.348   4.331  10.796 -0.4337  0.1640 -0.1831
    2MPD1    H514130   1.356   4.423  10.838 -0.2095 -0.0466  0.2339
    2MPD1    N114131   1.205   3.874  10.907 -0.1726  0.5500  0.1800
    2MPD1    H614132   1.236   3.846  10.814  0.8340 -2.0711  1.3181
    2MPD1    H714133   1.117   3.824  10.921  0.0737  0.4140  1.2833
    3MPD1     C14134   1.318   4.299   9.857 -0.3303 -1.3371 -0.5164
    3MPD1    C114135   1.328   4.201   9.953 -0.3961 -0.1419  0.0905
    3MPD1    C214136   1.403   4.224  10.064 -0.6729 -0.7405  0.4863
    3MPD1    C314137   1.445   4.359  10.099 -0.7407  0.0034  0.0457
    3MPD1    C414138   1.429   4.463  10.005  0.0847 -0.1581 -0.7488
    3MPD1    C514139   1.362   4.427   9.893  0.6337  0.1631  0.0114
    3MPD1     H14140   1.416   4.140  10.131  0.9294 -1.4888 -0.7488
    3MPD1    H114141   1.473   4.562  10.009 -0.1652 -0.1366  1.6437
    3MPD1    H214142   1.269   4.296   9.760 -2.6387  2.0589  0.5368
    3MPD1    H314143   1.365   4.504   9.817  0.9368 -1.7533 -1.8943
    3MPD1     N14144   1.515   4.372  10.224 -0.4838 -0.0520  0.0329
    3MPD1    H514145   1.512   4.289  10.283 -0.7051  1.6214  2.3821
    3MPD1    N114146   1.284   4.068   9.929  0.7263  0.1834 -0.2965
    3MPD1    H614147   1.204   4.066   9.866  0.5096  0.3209 -0.0282
    3MPD1    H714148   1.268   4.028  10.022 -0.0737  2.8399  0.7196
    4MPD2     C14149   1.858   4.433  11.800  0.3448  0.1571  0.1703
    4MPD2    C114150   1.934   4.545  11.839 -0.3424 -0.4927  0.6650
    4MPD2    C214151   1.920   4.666  11.771 -0.7288 -0.2118  0.1889
    4MPD2    C314152   1.817   4.680  11.676 -0.0971  0.2934 -0.2925
    4MPD2    C414153   1.734   4.574  11.657 -0.4853  0.0902 -0.4363
    4MPD2    C514154   1.747   4.452  11.717  0.1265  0.0571 -0.0667
    4MPD2     H14155   1.974   0.027  11.811  0.1540 -1.3548  1.4450
    4MPD2    H114156   1.639   4.590  11.607  0.8025  2.2909 -2.1842
    4MPD2    H214157   1.870   4.336  11.847  2.0517  1.5134  2.5769
    4MPD2    H314158   1.662   4.385  11.718  0.2354 -0.0737  0.3897
    4MPD2     N14159   1.794   0.075  11.603 -0.4407 -0.8259  0.1141
    4MPD2    H514160   1.721   0.069  11.533  0.9708  0.0609 -1.4654
    4MPD2    N114161   2.030   4.550  11.945 -0.5964 -0.2556 -0.0649
    4MPD2    H714162   2.077   4.640  11.955 -1.0316  0.3731 -3.8195
    5TMC3    C114163   2.196   4.488  12.080  0.7142 -0.0050 -0.1083
    5TMC3    C214164   2.299   4.405  12.054  0.3264  0.0223 -0.2837
    5TMC3    C314165   2.416   4.470  12.026  0.2106  0.4303  0.7583
    5TMC3    C414166   2.213   4.619  12.087  0.6431  0.3650  0.2771
    5TMC3    C514167   2.329   4.683  12.063 -0.2921  0.3530 -0.5572
    5TMC3    C614168   2.437   4.603  12.029  0.3627 -0.0136  0.0407
    5TMC3     C14169   2.069   4.448  12.029  0.0167  0.0127 -0.2568
    5TMC3     O14170   2.025   4.333  12.032  0.3148 -0.8597 -0.7380
    5TMC3     H14171   2.280   4.298  12.046 -0.3357  0.2226 -1.3381
    5TMC3    H114172   2.130   4.674  12.131  0.1615 -0.8227  0.8480
    5TMC3    H214173   2.531   4.644  11.991  1.6736 -0.0764  3.2720
    5TMC3    C714174   2.305   0.066  11.968 -0.0438  0.2086  0.0310
    5TMC3    C814175   2.538   4.390  12.052  0.1562 -0.7431  0.1956
    5TMC3    O114176   2.187   0.088  11.951  0.0739  0.2062  0.1657
    5TMC3    O214177   2.623   4.458  12.115 -0.1458 -0.4004 -0.8388
    6TMC3    C114178   1.497   4.400  10.617 -0.0694  0.5491 -0.4945
    6TMC3    C214179   1.536   4.381  10.489  0.0654 -0.2105  0.0476
    6TMC3    C314180   1.605   4.477  10.421 -0.3644  0.2730 -0.3692
    6TMC3    C414181   1.527   4.512  10.688 -0.1752 -0.4137  0.2587
    6TMC3    C514182   1.607   4.602  10.618  0.0032 -0.2668 -0.0273
    6TMC3    C614183   1.633   4.596  10.484 -0.7088 -0.0668  0.3469
    6TMC3     C14184   1.394   4.308  10.666 -1.0529  0.1180 -0.6321
    6TMC3     O14185   1.362   4.214  10.590  0.2994 -0.5284  0.2995
    6TMC3     H14186   1.529   4.277  10.458 -1.7438  0.4799 -1.8724
    6TMC3    H114187   1.512   4.524  10.795 -3.0666  0.9043 -0.2750
    6TMC3    H214188   1.678   4.681  10.434  2.4440 -1.0173  1.5889
    6TMC3    C714189   1.687   4.693  10.695 -0.0645  0.1160 -0.2021
    6TMC3    C814190   1.582   4.487  10.276  0.2705  0.0385  0.6297
    6TMC3    O114191   1.647   4.711  10.811  0.1728  0.6834 -0.0156
    6TMC3    O214192   1.597   4.596  10.222 -0.0089  0.0016 -0.2140
    7MPD2     C14193   2.441   0.368  11.588  0.1745 -0.3893 -0.3689
    7MPD2    C114194   2.317   0.330  11.633 -0.2116 -0.6132  0.5608
    7MPD2    C214195   2.304   0.241  11.735 -0.0351 -0.0562 -0.1175
    7MPD2    C314196   2.416   0.222  11.811  0.7736 -0.3379 -0.3531
    7MPD2    C414197   2.537   0.269  11.778  0.3154  0.2187  0.2063
    7MPD2    C514198   2.554   0.339  11.664 -0.4728 -0.9567  0.3814
    7MPD2     H14199   2.205   0.200  11.751 -1.0708  1.7901 -1.8185
    7MPD2    H114200   2.622   0.273  11.845 -1.1795 -1.0206  2.1678
    7MPD2    H214201   2.447   0.443  11.510  1.1191  0.2446  0.3097
    7MPD2    H314202   2.647   0.387  11.638 -0.3194 -0.2755  2.1709
    7MPD2     N14203   2.417   0.141  11.923  0.2341  0.5107 -0.3966
    7MPD2    H514204   2.501   0.130  11.980  0.1351 -0.0256 -0.3482
    7MPD2    N114205   2.200   0.340  11.568 -0.4072  0.0673  0.3813
    7MPD2    H714206   2.129   0.292  11.623 -0.0214 -0.8374  0.0851
    8TMC3    C114207   2.037   0.406  11.406  0.5432 -0.4380 -0.1372
    8TMC3    C214208   2.012   0.359  11.272  0.5964  0.2678 -0.2498
    8TMC3    C314209   1.907   0.273  11.259 -1.0941 -0.2060 -0.0193
    8TMC3    C414210   1.964   0.368  11.514  0.1875 -0.1491  0.3880
    8TMC3    C514211   1.861   0.274  11.498  0.0030 -0.3390  0.1457
    8TMC3    C614212   1.826   0.229  11.373 -0.5155 -0.2296 -0.4010
    8TMC3     C14213   2.177   0.407  11.444 -0.6175 -0.6745  0.6702
    8TMC3     O14214   2.257   0.458  11.366 -0.2881  0.2123  0.4698
    8TMC3     H14215   2.082   0.373  11.191  0.2612 -5.7182 -1.5190
    8TMC3    H114216   1.989   0.409  11.611  0.8765 -0.1397  0.2060
    8TMC3    H214217   1.745   0.158  11.363 -0.6108 -0.1698 -0.0709
    8TMC3    C714218   1.881   0.176  11.605 -0.1521 -0.7151  0.4786
    8TMC3    C814219   1.872   0.213  11.132 -0.3217 -0.2030 -0.4375
    8TMC3    O114220   1.981   0.189  11.671  0.0051 -0.0385  0.1005
    8TMC3    O214221   1.762   0.164  11.118  0.5236 -0.0273  0.1007
    9MPD2     C14222   2.135   0.104  10.890  0.0458  0.1203 -1.3851
    9MPD2    C114223   2.004   0.129  10.928 -0.4825 -0.0228  0.3486
    9MPD2    C214224   1.904   0.106  10.840  0.5788 -0.0456 -0.2142
    9MPD2    C314225   1.928   0.042  10.720 -0.3554 -0.2021  0.3089
    9MPD2    C414226   2.060   0.028  10.678 -0.1732  0.2586 -0.0277
    9MPD2    C514227   2.163   0.043  10.766 -0.2052 -1.0203  0.0714
    9MPD2     H14228   1.805   0.143  10.864  1.7868  2.0298  1.5275
    9MPD2    H114229   2.078   4.690  10.591  1.4739  2.6265 -1.3857
    9MPD2    H214230   2.210   0.136  10.961  1.7905 -2.2942 -2.1128
    9MPD2    H314231   2.262   0.028  10.724 -0.9649  0.6236 -2.2948
    9MPD2     N14232   1.819   4.708  10.648 -0.0271 -0.3368 -0.5260
    9MPD2    H514233   1.842   4.668  10.557  0.5298 -3.2194  0.8847
    9MPD2    N114234   1.987   0.189  11.056 -0.9544  0.0714  0.2041
    9MPD2    H714235   2.072   0.209  11.108 -0.9352 -2.0230  0.9889
    1MPD1     C14236   2.492   4.657   0.410 -0.4317 -0.5862  0.6372
    1MPD1    C114237   2.482   4.515   0.411 -0.4415 -0.5284 -0.3210
    1MPD1    C214238   2.430   4.455   0.298 -0.2367 -0.1723 -0.7949
    1MPD1    C314239   2.414   4.530   0.173 -0.2102  0.9624  0.2347
    1MPD1    C414240   2.431   4.665   0.184  0.3890 -0.5545 -0.4707
    1MPD1    C514241   2.476   0.005   0.295 -0.1415  0.3607  0.4530
    1MPD1     H14242   2.405   4.351   0.312 -0.6086  0.0557  0.2187
    1MPD1    H114243   2.436   4.722   0.092 -1.6002  1.8015  0.8863
    1MPD1    H214244   2.513   4.715   0.499 -1.8618  1.5389 -0.4109
    1MPD1    H314245   2.509   0.107   0.287 -0.4887  0.5498  1.4337
    1MPD1     N14246   2.380   4.464   0.045 -0.2521 -0.3071  0.3032
    1MPD1    H514247   2.357   4.522  17.665 -0.5249 -0.2792  0.3993
    1MPD1    N114248   2.481   4.443   0.533  0.8028  0.6269 -0.1614
    1MPD1    H614249   2.517   4.352   0.504 -1.0607 -0.1530 -0.0434
    1MPD1    H714250   2.538   4.481   0.608  0.1966 -1.6532  1.4460
    2MPD1     C14251   2.136   4.563  16.782  0.0861  0.3007  0.2177
    2MPD1    C114252   2.133   4.421  16.797 -0.2225 -0.1137  0.4029
    2MPD1    C214253   2.137   4.376  16.925 -0.2286  0.1697  0.4087
    2MPD1    C314254   2.172   4.449  17.036 -0.9897 -0.2727 -0.3574
    2MPD1    C414255   2.185   4.585  17.020  0.4770 -0.1338 -0.2809
    2MPD1    C514256   2.169   4.642  16.891 -0.0366  0.0234 -0.5600
    2MPD1     H14257   2.106   4.273  16.943 -0.4121  0.2935  0.8007
    2MPD1    H114258   2.203   4.656  17.100  0.2884 -0.5433  0.1228
    2MPD1    H214259   2.105   4.615  16.692  0.5528 -0.7842 -0.5770
    2MPD1    H314260   2.178   0.024  16.872  1.7939  0.2172  1.2978
    2MPD1     N14261   2.187   4.375  17.156 -0.1166  0.6925 -0.3967
    2MPD1    H514262   2.169   4.275  17.153 -0.5876  0.7641  0.0462
    2MPD1    N114263   2.074   4.344  16.693  0.0358 -0.2131 -0.9271
    2MPD1    H614264   2.091   4.388  16.604  0.0432  1.5664 -0.0395
    2MPD1    H714265   2.120   4.254  16.679  0.3020 -0.6880  2.9200
    3TCq2    C114266   2.229   4.422  17.277  0.1373  0.1390 -0.2423
    3TCq2    O214267   2.271   4.533  17.306  0.0389 -0.1108  0.0198
    3TCq2    C214268   2.235   4.321  17.383  0.2181 -0.4975 -0.1290
    3TCq2    C314269   2.247   4.183  17.352  0.3268 -0.0219 -0.0027
    3TCq2    C414270   2.289   4.099  17.456 -0.6368 -0.2397  0.4788
    3TCq2    C514271   2.331   4.143  17.575 -0.2578  0.1163 -0.3990
    3TCq2    C614272   2.325   4.279  17.595  0.3234 -0.1940 -0.1230
    3TCq2    C714273   2.276   4.366  17.504 -0.5662  0.6768  0.3901
    3TCq2    C814274   2.373   4.327   0.030  0.2082  0.5069 -0.5469
    3TCq2    O414275   2.386   4.234   0.109 -0.3441  0.0453 -0.8159
    3TCq2    C914276   2.300   3.953  17.433  0.6658  0.0266 -0.7080
    3TCq2    O514277   2.247   3.905  17.326  0.1597  0.6748 -0.1906
    3TCq2    O614278   2.337   3.886  17.535 -0.5509  0.3530  0.1985
    3TCq2    H214279   2.213   4.122  17.269 -1.4101  0.3853  0.4070
    3TCq2    H314280   2.382   4.075  17.643  0.6814  2.0794  0.8518
    3TCq2    H414281   2.268   4.473  17.520  2.3166  0.7734  1.2877
    1TCq1    O114282   4.517   2.588  12.323 -0.5477 -0.4183  0.4596
    1TCq1    C114283   4.606   2.511  12.256  0.3446 -0.5015  0.6603
    1TCq1    O214284   4.649   2.525  12.144  0.1636  0.3656 -0.1656
    1TCq1    C214285   4.688   2.452  12.361 -0.7407 -0.7360 -1.1414
    1TCq1    C314286   4.628   2.416  12.476  0.3326 -0.7939  0.9539
    1TCq1    C414287   4.704   2.344  12.561 -0.4856 -0.2481 -0.5753
    1TCq1    C514288   0.106   2.329  12.545 -0.8233 -0.2701 -0.1951
    1TCq1    C614289   0.168   2.388  12.439 -0.1189  0.3244  0.2433
    1TCq1    C714290   0.097   2.451  12.344 -0.4219  0.7105 -0.0329
    1TCq1    C814291   0.310   2.419  12.444  0.6247  0.3749  0.5633
    1TCq1    O414292   0.359   2.464  12.341  0.7049 -0.4686 -0.0620
    1TCq1    C914293   4.629   2.310  12.683 -0.4965 -0.3868  0.0234
    1TCq1    O514294   4.698   2.265  12.781  0.4158  0.3211 -0.0496
    1TCq1    O614295   4.515   2.358  12.696  0.8354 -0.1189  0.1038
    1TCq1    H114296   4.532   2.579  12.419 -0.4031 -3.4172  0.1595
    1TCq1    H214297   4.520   2.421  12.491  0.1613 -0.8666 -0.2854
    1TCq1    H314298   0.169   2.275  12.614  0.4550  1.7932  0.2510
    1TCq1    H414299   0.140   2.464  12.245  0.3815 -0.6372  0.1348
    2MPD2     C14300   0.595   2.470  12.513  0.5040  0.8919  0.4546
    2MPD2    C114301   0.491   2.469  12.606 -0.3422  0.0904 -0.3420
    2MPD2    C214302   0.525   2.508  12.734  0.4250  0.3135 -0.1163
    2MPD2    C314303   0.648   2.556  12.770 -0.0404 -0.0472 -0.2091
    2MPD2    C414304   0.739   2.580  12.672  0.3607 -0.1007 -1.0152
    2MPD2    C514305   0.714   2.528  12.549  0.4366 -0.0651 -0.5897
    2MPD2     H14306   0.449   2.508  12.811 -1.2487 -0.8915 -1.7568
    2MPD2    H114307   0.835   2.629  12.682  0.0291  0.4666 -0.6185
    2MPD2    H214308   0.586   2.436  12.410 -1.3946  1.1779  0.5314
    2MPD2    H314309   0.798   2.530  12.480  0.8853  0.3128 -0.0267
    2MPD2     N14310   0.659   2.594  12.905  0.1172  0.4320  0.2371
    2MPD2    H514311   0.586   2.568  12.972  1.4828 -0.2855  1.4455
    2MPD2    N114312   0.360   2.424  12.574 -0.0689 -0.1754  0.2118
    2MPD2    H714313   0.289   2.406  12.645  0.4623 -1.3501  0.4359
    3TCq1    O114314   0.997   2.838  13.366 -0.0461 -0.9567  0.4010
    3TCq1    C114315   0.870   2.844  13.396  0.4417  0.3573  0.0789
    3TCq1    O214316   0.821   2.843  13.508 -0.1454 -0.0841  0.0708
    3TCq1    C214317   0.790   2.845  13.275 -0.1898 -0.1768  0.2802
    3TCq1    C314318   0.656   2.882  13.292  0.5761  0.4557  0.1138
    3TCq1    C414319   0.564   2.839  13.209 -0.2732 -0.6318  0.0317
    3TCq1    C514320   0.592   2.752  13.106 -0.0905  0.4334 -0.3684
    3TCq1    C614321   0.718   2.716  13.096 -0.2663  0.5215 -0.3456
    3TCq1    C714322   0.816   2.762  13.172  0.2535 -0.2285  0.5759
    3TCq1    C814323   0.757   2.670  12.968 -0.6198  0.0259  1.3492
    3TCq1    O414324   0.847   2.716  12.901  0.8296 -0.4692  0.4090
    3TCq1    C914325   0.436   2.901  13.215 -0.0325  0.5130 -0.6392
    3TCq1    O514326   0.371   2.890  13.109  0.0802  0.1159 -0.1952
    3TCq1    O614327   0.409   2.989  13.304 -0.0079 -0.2319 -0.1619
    3TCq1    H114328   1.010   2.874  13.275 -3.7480 -2.7243 -0.8349
    3TCq1    H214329   0.626   2.967  13.352  0.1353  2.7233 -3.2699
    3TCq1    H314330   0.517   2.728  13.031  0.1889 -4.5475  0.9715
    3TCq1    H414331   0.921   2.739  13.157 -0.5332 -2.2808 -1.8951
    1MPD2     C14332   0.421   3.778  14.498  0.6241  0.7105  0.2123
    1MPD2    C114333   0.323   3.695  14.547 -1.2966  0.7118  0.4260
    1MPD2    C214334   0.354   3.559  14.563  0.1892  0.7844  0.0998
    1MPD2    C314335   0.482   3.505  14.526  0.7131 -0.3839  0.3287
    1MPD2    C414336   0.575   3.596  14.478  0.0665  0.1080 -0.6824
    1MPD2    C514337   0.545   3.733  14.473 -0.0602  0.1173 -0.5524
    1MPD2     H14338   0.290   3.485  14.609  2.0521 -0.2955  0.9855
    1MPD2    H114339   0.677   3.569  14.453  0.2817  0.1234  0.1690
    1MPD2    H214340   0.397   3.884  14.490  1.1064  0.5262 -3.4560
    1MPD2    H314341   0.618   3.804  14.433  2.5914 -0.7695  2.7082
    1MPD2     N14342   0.493   3.366  14.543  0.6444 -0.1391  0.2906
    1MPD2    H514343   0.410   3.333  14.591  0.0316  1.2636  0.2064
    1MPD2    N114344   0.188   3.739  14.566 -0.4260  0.7029  0.3067
    1MPD2    H714345   0.171   3.835  14.537  1.0895  0.6462 -0.7920
    2TMC3    C114346   4.696   3.737  14.650 -0.1184 -0.2230 -0.2180
    2TMC3    C214347   4.622   3.664  14.744  0.1025  0.6624 -0.3252
    2TMC3    C314348   4.496   3.635  14.707 -0.0144 -0.2160 -0.1143
    2TMC3    C414349   4.641   3.790  14.536  0.2293  0.9390  0.6207
    2TMC3    C514350   4.510   3.763  14.514 -0.3301 -0.1290 -0.2249
    2TMC3    C614351   4.430   3.679  14.590 -0.3602 -0.0898  0.2094
    2TMC3     C14352   0.098   3.668  14.637 -0.7840  0.5392 -0.8683
    2TMC3     O14353   0.097   3.557  14.687 -0.3700  0.5371  0.4927
    2TMC3     H14354   4.662   3.631  14.839 -1.3706 -0.6325 -0.1468
    2TMC3    H114355   4.698   3.861  14.478 -0.1698 -0.8431 -1.9051
    2TMC3    H214356   4.336   3.634  14.559  1.7466 -2.4778 -2.7697
    2TMC3    C714357   4.426   3.836  14.427  0.2183  0.1387 -0.5674
    2TMC3    C814358   4.459   3.501  14.729  0.5754 -0.0549  0.4149
    2TMC3    O114359   4.310   3.797  14.415  0.6413  0.2219  0.2305
    2TMC3    O214360   4.341   3.474  14.737 -0.5347  0.1908 -0.3329
    3TCq1    O114361   4.370   0.245  14.180  0.0579 -0.0147  0.0451
    3TCq1    C114362   4.433   0.211  14.065 -0.7107  0.3537 -0.4953
    3TCq1    O214363   4.399   0.245  13.954  0.1413 -0.9774  0.4814
    3TCq1    C214364   4.493   0.081  14.100 -1.1846 -0.4885 -0.7627
    3TCq1    C314365   4.589   0.089  14.200 -0.6752  0.2852  0.4262
    3TCq1    C414366   4.662   4.702  14.221 -0.5724 -0.0385 -0.1904
    3TCq1    C514367   4.617   4.589  14.158  0.3969 -0.0192  0.0961
    3TCq1    C614368   4.511   4.581  14.074 -0.6858  0.2025 -0.4661
    3TCq1    C714369   4.453   4.694  14.030 -0.2613 -0.1796  0.4611
    3TCq1    C814370   4.436   4.458  14.042  0.0126 -0.2516  0.8254
    3TCq1    O414371   4.342   4.472  13.955 -0.3379 -0.7799 -0.6735
    3TCq1    C914372   0.047   4.698  14.322  0.1540  0.0051  0.5321
    3TCq1    O514373   0.077   0.084  14.372 -0.1472  0.3035  0.0301
    3TCq1    O614374   0.106   4.587  14.335  0.0780 -0.5991 -1.0175
    3TCq1    H114375   4.400   0.194  14.258 -0.2609  0.9170  0.7687
    3TCq1    H214376   4.609   0.182  14.251  0.2817 -0.3348  1.1702
    3TCq1    H314377   4.663   4.496  14.191 -3.7327 -1.9314  0.4247
    3TCq1    H414378   4.378   4.708  13.954  1.4290  1.5930 -0.8942
    4MPD2     C14379   4.301   4.200  14.069  0.0928  1.0164 -0.2378
    4MPD2    C114380   4.424   4.230  14.126  0.3892 -0.2300 -0.0151
    4MPD2    C214381   4.486   4.145  14.219 -0.0234  0.2953  1.1048
    4MPD2    C314382   4.416   4.030  14.262  0.3651 -0.1405  0.1334
    4MPD2    C414383   4.297   4.001  14.200  0.5322 -0.5538 -1.0296
    4MPD2    C514384   4.237   4.082  14.104  0.5009  0.4568 -0.3040
    4MPD2     H14385   4.572   4.185  14.272  1.0697  1.7652 -1.7581
    4MPD2    H114386   4.256   3.902  14.217 -2.0405  0.8099  0.8412
    4MPD2    H214387   4.248   4.265  14.001  1.1663  1.0757 -1.0153
    4MPD2    H314388   4.140   4.059  14.063  0.7329  0.3092 -0.7743
    4MPD2     N14389   4.473   3.951  14.363  0.6867 -0.2080 -0.0843
    4MPD2    H514390   4.562   3.982  14.401  1.3044 -0.3702 -1.3843
    4MPD2    N114391   4.484   4.351  14.112  0.1488  0.5877  0.1345
    4MPD2    H714392   4.572   4.363  14.161  1.0707  2.3952 -1.9890
    5TMC2    C114393   0.373   3.004  14.589 -0.3157 -0.1921  0.5951
    5TMC2    C214394   0.458   2.904  14.626  0.3947 -0.0354  0.2338
    5TMC2    C314395   0.593   2.928  14.622 -0.9148 -0.0362  0.3144
    5TMC2    C414396   0.421   3.121  14.544  0.0040 -0.1959  0.0860
    5TMC2    C514397   0.554   3.144  14.534 -0.2490 -0.1597  0.1232
    5TMC2    C614398   0.647   3.044  14.568  0.3779 -0.4395 -0.7552
    5TMC2     C14399   0.226   2.980  14.601 -0.0425  0.2707 -0.3029
    5TMC2     O14400   0.171   2.870  14.600  0.2352 -0.4415  0.8115
    5TMC2     H14401   0.412   2.813  14.664 -1.3879  0.8173  0.1527
    5TMC2    H114402   0.347   3.183  14.496  0.8860  0.1491 -0.8256
    5TMC2    H214403   0.752   3.052  14.542 -0.1296  3.3496 -1.5736
    5TMC2    C714404   0.600   3.282  14.523 -0.6959  0.3860  0.9154
    5TMC2    C814405   0.677   2.809  14.638 -0.1210  0.4765 -0.6455
    5TMC2    O114406   0.720   3.306  14.502  0.3396 -0.6526 -0.0359
    5TMC2    O214407   0.791   2.811  14.677  0.0870 -0.0931 -0.2494
    5TMC2    O514408   0.603   2.703  14.602  0.6208  0.1925 -0.0260
    5TMC2    H514409   0.539   2.720  14.530 -0.2110 -2.6695  0.0424
    6MPD2     C14410   4.491   3.198  14.649  0.1417  0.2633 -0.1681
    6MPD2    C114411   4.589   3.288  14.682 -0.2146 -0.1314  0.3317
    6MPD2    C214412   4.719   3.245  14.666  0.2213 -0.2688  0.3270
    6MPD2    C314413   0.030   3.119  14.629  0.0138 -0.3196  0.7829
    6MPD2    C414414   4.656   3.028  14.613  0.3401  0.3627  0.4800
    6MPD2    C514415   4.525   3.066  14.622  0.1188  0.5820 -0.5105
    6MPD2     H14416   0.073   3.318  14.682 -0.6785  0.6574  0.5232
    6MPD2    H114417   4.672   2.923  14.590  1.7546  1.0858 -1.9127
    6MPD2    H214418   4.387   3.227  14.641 -0.1489 -1.1520 -1.4668
    6MPD2    H314419   4.447   2.996  14.594 -0.2726 -0.3308  2.8640
    6MPD2     N14420   0.164   3.096  14.623 -0.3394  0.2634 -1.1589
    6MPD2    H514421   0.228   3.174  14.638 -0.1372 -0.0627 -0.3310
    6MPD2    N114422   4.574   3.426  14.712  0.3413 -0.8678 -0.0690
    6MPD2    H714423   4.663   3.474  14.715 -0.2311  0.2585 -0.9416
  945NH3     N114424   0.520   0.294   7.069 -0.2548 -0.4774 -0.3368
  945NH3     H214425   0.544   0.350   6.988  0.6337  0.1603  0.3576
  945NH3     H314426   0.470   0.221   7.021  0.5998 -2.2921  1.5455
  945NH3     H414427   0.451   0.354   7.114  0.2864 -1.6140  1.9987
  946SOD     NA14428   4.428   1.680  14.764  0.1885 -0.3430 -0.0638
  947SOD     NA14429   2.504   3.322  14.467  0.7207 -0.3224  0.4566
  948SOD     NA14430   3.358   3.923  16.301 -0.1066 -0.3734  0.1025
  949SOD     NA14431   3.226   0.750   0.404 -0.6615 -0.4508 -0.1405
  950SOD     NA14432   0.042   0.859   1.467 -0.0284  0.1401  0.3475
  951SOD     NA14433   0.111   3.503  14.044  0.3023 -0.0913 -0.3341
  952SOD     NA14434   0.560   2.218  10.058  0.0977  0.4810  0.1408
  953SOD     NA14435   3.748   4.509   9.475  0.3774  0.2446  0.0855
  954SOD     NA14436   3.806   3.631   8.283  0.4601  0.0965  0.0225
  955SOD     NA14437   2.295   2.201  14.234 -0.0773 -0.0209 -0.6838
  956SOD     NA14438   4.432   0.394   1.353 -0.4161  0.1691 -0.2138
  957SOD     NA14439   3.490   4.611   9.306 -0.0878  0.4675 -0.2745
  958SOD     NA14440   2.240   3.175  16.316  0.3449 -0.0573 -0.1488
  959SOD     NA14441   3.084   2.330  14.022  0.1306 -0.1442 -0.3766
  960SOD     NA14442   4.345   0.147  11.467 -0.5422 -0.3825 -0.8105
  961SOD     NA14443   4.326   3.074  11.426 -0.1087  0.2698 -0.2664
  962SOD     NA14444   2.760   3.611   5.625 -0.2247 -0.1670  0.4233
  963SOD     NA14445   3.642   1.320   1.051 -0.1502  0.4269 -0.1018
  964SOD     NA14446   1.613   2.441   7.828 -0.7431  0.2646 -0.2439
  965SOD     NA14447   0.265   3.157  10.320  0.0608  0.4548  0.0592
  966SOD     NA14448   1.879   3.563  13.252 -0.1494  0.7695  0.2531
  967SOD     NA14449   0.274   2.393   9.345 -0.0087  0.5492  0.0724
  968SOD     NA14450   2.863   2.058   7.354 -0.5006 -0.1627 -0.3829
  969SOD     NA14451   1.480   3.437   1.430 -0.2299  0.0838 -0.0158
  970SOD     NA14452   2.285   3.833  17.138  0.2511 -0.4256 -0.0007
  971SOD     NA14453   2.910   3.084  14.633 -0.4598 -0.5250 -0.4817
  972SOD     NA14454   1.432   2.494  10.978  0.1375  0.2463  0.2415
  973SOD     NA14455   0.939   3.074   0.136  0.3140  0.6703  0.2314
  974SOD     NA14456   3.741   1.850  12.918 -0.0884 -0.2645  0.3522
  975SOD     NA14457   0.639   1.923  10.698 -0.5587  0.4588  0.2411
  976SOD     NA14458   1.970   3.822  13.076  0.2271  0.5281  0.2243
  977SOD     NA14459   4.346   1.835   8.372  0.6177 -0.2220  0.2629
  978SOD     NA14460   1.768   2.082   6.740 -0.1539 -0.0752 -0.5236
  979SOD     NA14461   4.374   2.329  12.848 -0.1238  0.2780 -0.3756
  980SOD     NA14462   2.635   0.809  14.950 -0.2162 -0.0398  0.2080
  981SOD     NA14463   1.467   0.820  13.858  0.6778 -0.0925  0.1044
  982SOD     NA14464   4.688   3.783   2.005 -0.4099 -0.5630  0.4612
  983SOD     NA14465   1.541   0.858  16.921  0.3708  0.2953 -0.1840
  984SOD     NA14466   1.369   1.423  16.750  0.4154  0.7082  0.6084
  985SOD     NA14467   1.129   3.268  10.986 -0.0625 -0.0829  0.2957
  986SOD     NA14468   3.748   2.692  11.150 -0.6176 -0.2590 -0.2143
  987SOD     NA14469   1.094   3.266  11.852 -0.6619 -0.0050 -0.2331
  988SOD     NA14470   1.872   3.216  11.072  0.6843  0.8101 -0.2214
  989SOD     NA14471   2.955   0.538   4.247 -0.0778 -0.0091 -0.5620
  990SOD     NA14472   4.688   1.673  10.689 -0.1175  0.3773 -0.1665
  991SOD     NA14473   1.025   3.762  15.478 -0.3418 -0.3718 -0.4081
  992SOD     NA14474   2.629   0.398  13.239 -0.0289 -0.1984  0.0099
  993SOD     NA14475   2.996   2.180  11.378 -0.1619  0.7983 -0.3454
  994SOD     NA14476   0.545   3.051  11.714 -0.0250  0.0019 -0.5487
  995SOD     NA14477   2.086   3.183  13.745  0.2938  0.1483 -0.3327
  996SOD     NA14478   3.109   2.568   1.433 -0.1869  0.0711  0.2188
  997SOD     NA14479   0.216   2.186  10.015  0.1747 -0.3249  0.3345
  998SOD     NA14480   0.480   0.436  15.197 -0.0326  0.0724  0.0235
  999SOD     NA14481   4.313   0.525   2.197  0.0124 -0.1216  0.1566
 1000SOD     NA14482   4.700   2.651  14.528 -0.5086  0.0023  0.1043
 1001SOD     NA14483   2.704   3.040   1.438 -0.3203 -0.1014  0.3552
 1002SOD     NA14484   2.906   3.546  12.572 -0.0119  0.4085 -0.4041
 1003SOD     NA14485   0.880   3.751   1.890  0.7344  0.1022  0.0025
 1004SOD     NA14486   0.438   2.636  12.216 -0.4275 -0.1749 -0.1251
 1005SOD     NA14487   3.552   1.703  14.234 -0.0410  0.1402  0.4103
 1006SOD     NA14488   0.015   3.341  10.508  0.2138  0.7928  0.0612
 1007SOD     NA14489   0.401   2.384   9.803  0.3990  0.2098 -0.0152
 1008SOD     NA14490   2.539   1.087  17.178 -0.2022 -0.0835  0.2784
 1009SOD     NA14491   0.133   1.476  16.378 -0.1334  0.0943 -0.1980
 1010SOD     NA14492   1.242   2.200  12.215 -0.3117 -0.3973  0.1673
 1011SOD     NA14493   0.266   4.136   8.684 -0.2315  0.4196 -0.1250
 1012SOL     OW14494   1.765   1.654   5.456  0.2853  0.4499  0.2766
 1012SOL    HW114495   1.727   1.655   5.544 -0.0942 -2.4731  0.1411
 1012SOL    HW214496   1.692   1.655   5.394 -0.2984  0.5530  0.9593
 1013SOL     OW14497   4.109   0.153  11.304 -0.0761  0.2429  0.3295
 1013SOL    HW114498   4.057   0.089  11.255  0.7629  0.9922 -1.5540
 1013SOL    HW214499   4.194   0.140  11.263 -1.1630  2.8304 -2.7277
 1014SOL     OW14500   3.225   3.363   8.692 -0.2013 -0.6453 -0.0347
 1014SOL    HW114501   3.138   3.336   8.724  0.1518  1.2225  2.5067
 1014SOL    HW214502   3.224   3.303   8.618  0.5881 -1.3086  0.4915
 1015SOL     OW14503   0.674   4.625   2.892  0.5709 -0.0454  0.2666
 1015SOL    HW114504   0.678   4.698   2.954 -0.6521  0.1679  0.0819
 1015SOL    HW214505   0.761   4.585   2.893 -0.1064 -1.5260 -1.3348
 1016SOL     OW14506   0.496   1.029   4.038 -0.3646  0.6627 -0.5203
 1016SOL    HW114507   0.416   0.977   4.031 -0.2563  0.5015 -0.5487
 1016SOL    HW214508   0.526   1.027   3.947  1.4798  0.3704  0.0933
 1017SOL     OW14509   2.265   1.209  16.603  0.0054 -0.2880  0.1107
 1017SOL    HW114510   2.178   1.249  16.604  0.2900  0.3579 -1.4646
 1017SOL    HW214511   2.269   1.161  16.521  0.7588 -0.3688  0.1979
 1018SOL     OW14512   0.282   2.075  10.921  0.3587  0.0856 -0.4662
 1018SOL    HW114513   0.290   2.105  11.011  1.3274  0.9544 -0.8364
 1018SOL    HW214514   0.281   1.980  10.928  1.5171  0.1619  0.7768
 1019SOL     OW14515   3.407   4.228   3.187 -0.6629 -0.3654 -0.4882
 1019SOL    HW114516   3.463   4.230   3.108 -1.8698  1.6007 -1.3034
 1019SOL    HW214517   3.423   4.314   3.226 -1.1924  0.8370 -2.8820
 1020SOL     OW14518   4.552   0.552   6.198  0.2126 -0.5666  0.1232
 1020SOL    HW114519   4.493   0.484   6.229 -1.2540  0.7288  0.1865
 1020SOL    HW214520   4.627   0.551   6.258 -0.6181  1.2046  1.1871
 1021SOL     OW14521   2.201   4.493   7.267 -0.2316  0.0180  0.1070
 1021SOL    HW114522   2.157   4.432   7.326 -0.1965  0.6949  0.8305
 1021SOL    HW214523   2.211   4.568   7.326 -0.1731 -0.2271  0.4063
 1022SOL     OW14524   4.241   3.804   6.074 -0.5976  0.0560 -0.1290
 1022SOL    HW114525   4.235   3.894   6.042 -2.0654 -0.4988 -1.4148
 1022SOL    HW214526   4.315   3.781   6.017 -0.6137  0.8440 -0.4717
 1023SOL     OW14527   3.423   2.930   3.000  0.7804 -0.1363 -0.0804
 1023SOL    HW114528   3.386   2.843   2.983  1.2329 -0.4362  0.4692
 1023SOL    HW214529   3.341   2.980   3.006  1.4975  0.7771  2.1885
 1024SOL     OW14530   3.294   0.635   1.920 -0.0050  0.3891 -0.1033
 1024SOL    HW114531   3.303   0.574   1.848 -2.4154  0.1013 -0.1888
 1024SOL    HW214532   3.246   0.578   1.981 -1.9126  1.5964 -0.4636
 1025SOL     OW14533   3.171   1.349   1.891  0.2692  0.1955 -0.0875
 1025SOL    HW114534   3.254   1.363   1.846  1.1695 -1.7269  0.9748
 1025SOL    HW214535   3.111   1.370   1.820  0.2301  0.7593  0.1134
 1026SOL     OW14536   0.755   3.107   4.022 -0.2152  0.4934  0.2123
 1026SOL    HW114537   0.757   3.127   4.116  1.9625 -0.6485  0.4187
 1026SOL    HW214538   0.770   3.196   3.990  0.0036  0.1467 -0.6379
 1027SOL     OW14539   0.750   4.179   5.607  0.2988  0.0393 -0.0270
 1027SOL    HW114540   0.784   4.169   5.696 -1.2615  0.3676  0.6110
 1027SOL    HW214541   0.788   4.114   5.548  0.1630  1.1770 -1.3681
 1028SOL     OW14542   3.989   2.812   1.608  0.3518  0.3922 -0.8662
 1028SOL    HW114543   3.955   2.744   1.549  1.6601 -0.3397 -0.7910
 1028SOL    HW214544   3.991   2.767   1.693 -0.7446 -2.3622 -2.2803
 1029SOL     OW14545   1.730   2.534   4.854 -0.4582 -0.0349 -0.2091
 1029SOL    HW114546   1.720   2.531   4.949 -0.2459  1.6087 -0.1474
 1029SOL    HW214547   1.769   2.447   4.841 -1.8794 -1.0185  2.1988
 1030SOL     OW14548   1.861   3.753  11.159 -0.2137  0.0197 -0.3044
 1030SOL    HW114549   1.873   3.752  11.064  2.0253  1.2763 -0.0170
 1030SOL    HW214550   1.817   3.838  11.153  0.8400  0.7617  2.4715
 1031SOL     OW14551   0.726   4.190  14.957  1.1480  0.0258  0.5732
 1031SOL    HW114552   0.630   4.189  14.957  1.1018  2.8972 -3.8033
 1031SOL    HW214553   0.756   4.217  15.044 -0.5910 -0.4629  1.3177
 1032SOL     OW14554   4.299   1.202   5.078  0.0423  0.4337  0.4706
 1032SOL    HW114555   4.377   1.236   5.034 -1.3068  1.4591 -1.1153
 1032SOL    HW214556   4.246   1.172   5.005  2.0882 -0.1216 -0.8034
 1033SOL     OW14557   0.626   1.581   8.512  0.3827  0.2408  0.1121
 1033SOL    HW114558   0.546   1.566   8.563  0.3807  1.1958  0.3898
 1033SOL    HW214559   0.688   1.516   8.544 -0.4090 -0.1764  0.7971
 1034SOL     OW14560   1.408   0.711  13.655  0.3699  0.3200 -0.2053
 1034SOL    HW114561   1.441   0.746  13.572 -1.1061  2.1790 -0.0004
 1034SOL    HW214562   1.316   0.726  13.634  0.9344  0.5485 -2.5493
 1035SOL     OW14563   2.474   0.191  11.189 -0.1290  0.0503 -0.2990
 1035SOL    HW114564   2.432   0.263  11.142 -0.9450 -0.7719 -0.8480
 1035SOL    HW214565   2.404   0.153  11.241  1.3351 -0.7354  1.0942
 1036SOL     OW14566   0.743   4.206  11.518  0.0315  0.2830 -0.4328
 1036SOL    HW114567   0.778   4.295  11.529  0.8988  0.0629 -1.4762
 1036SOL    HW214568   0.751   4.177  11.609 -0.4763  0.5229 -0.3123
 1037SOL     OW14569   1.328   1.171   6.512  0.1403  0.0672 -0.1870
 1037SOL    HW114570   1.232   1.178   6.514  0.3482  2.4569  1.1067
 1037SOL    HW214571   1.342   1.096   6.454  1.9984 -0.8541  1.4585
 1038SOL     OW14572   1.709   1.114   9.118  0.5586  0.0168  0.2525
 1038SOL    HW114573   1.753   1.054   9.178  0.9028 -0.8808 -0.8745
 1038SOL    HW214574   1.647   1.161   9.173 -1.0382 -0.4413 -1.1571
 1039SOL     OW14575   0.422   1.436   5.174 -0.3712  0.5035  0.2300
 1039SOL    HW114576   0.476   1.493   5.229  0.8714 -1.1355  0.7118
 1039SOL    HW214577   0.345   1.493   5.174 -1.5056 -1.0265 -0.9104
 1040SOL     OW14578   2.336   4.139   1.204 -0.2802  0.7718 -0.1290
 1040SOL    HW114579   2.379   4.063   1.164 -0.1064 -0.3140  2.1666
 1040SOL    HW214580   2.257   4.130   1.150  0.8214  0.9654 -1.7948
 1041SOL     OW14581   4.444   4.645  14.996  0.1361  0.4428 -0.0721
 1041SOL    HW114582   4.499   4.699  15.053 -1.5929 -0.1147  2.1330
 1041SOL    HW214583   4.492   4.563  15.010 -0.0707  0.1993 -0.8083
 1042SOL     OW14584   3.908   0.715  15.048  0.1234  0.1219  0.2255
 1042SOL    HW114585   3.928   0.806  15.070 -1.4078  0.5688 -0.2302
 1042SOL    HW214586   3.983   0.697  14.991  1.5271  0.4878  1.9739
 1043SOL     OW14587   4.603   4.243   8.127 -0.0399 -0.2425  0.8922
 1043SOL    HW114588   4.588   4.321   8.181  1.7230  1.1652 -0.6718
 1043SOL    HW214589   4.672   4.265   8.065 -0.3542  2.1724  1.3946
 1044SOL     OW14590   4.187   0.323  16.425  0.1222 -0.0225  0.0249
 1044SOL    HW114591   4.245   0.350  16.496  0.2981 -0.4057  0.0246
 1044SOL    HW214592   4.201   0.405  16.377 -3.2177  0.2089 -0.5367
 1045SOL     OW14593   4.531   4.259   5.558 -0.7114  0.1658 -0.8953
 1045SOL    HW114594   4.468   4.325   5.587  0.0473 -0.5002  2.3419
 1045SOL    HW214595   4.602   4.257   5.623  1.2296  0.3286 -2.9840
 1046SOL     OW14596   3.175   0.585   0.561 -0.4718 -0.4382 -0.0911
 1046SOL    HW114597   3.110   0.573   0.630 -0.3033 -3.2289 -0.4088
 1046SOL    HW214598   3.254   0.565   0.611  1.3755  4.1141 -1.2132
 1047SOL     OW14599   0.013   3.385   1.646  0.4938  0.1211 -0.0344
 1047SOL    HW114600   4.648   3.366   1.618 -1.0885  0.7867  4.4899
 1047SOL    HW214601   0.061   3.413   1.569 -0.0901  1.5974  0.1550
 1048SOL     OW14602   4.155   0.826   8.261  0.4229  0.0284  0.2711
 1048SOL    HW114603   4.168   0.791   8.349 -0.7533  0.7575  0.7438
 1048SOL    HW214604   4.173   0.748   8.209  0.5351  0.1114  0.1875
 1049SOL     OW14605   0.478   1.228  14.268  0.3400 -0.0990  0.0580
 1049SOL    HW114606   0.419   1.166  14.227  1.2250  0.0146 -1.3895
 1049SOL    HW214607   0.508   1.275  14.190  1.4400 -1.8790 -0.5955
 1050SOL     OW14608   3.077   2.333   6.724 -0.7175 -0.7193 -0.7713
 1050SOL    HW114609   3.135   2.258   6.738 -0.2114 -0.4110 -1.2100
 1050SOL    HW214610   3.025   2.318   6.803 -0.1606 -0.1179 -0.2888
 1051SOL     OW14611   3.659   0.545   3.619  0.8164  0.1283  0.8447
 1051SOL    HW114612   3.632   0.637   3.619 -0.1814 -0.1588  0.7092
 1051SOL    HW214613   3.665   0.528   3.713  2.0338 -0.0472  0.7257
 1052SOL     OW14614   2.894   2.968   0.078 -0.0411  0.0337  0.6229
 1052SOL    HW114615   2.897   2.891   0.022  0.1667 -0.2167  0.9828
 1052SOL    HW214616   2.836   2.943   0.149 -1.0804 -0.0792 -0.2625
 1053SOL     OW14617   1.905   3.745   4.989 -0.4026 -0.4165 -0.6571
 1053SOL    HW114618   1.972   3.684   5.019 -0.4130 -0.4884 -0.7814
 1053SOL    HW214619   1.845   3.686   4.944  0.7654 -1.5107 -0.7626
 1054SOL     OW14620   2.798   0.522   4.809  0.2310 -0.1609 -0.0101
 1054SOL    HW114621   2.705   0.509   4.788  0.0394  1.8645 -0.4417
 1054SOL    HW214622   2.807   0.514   4.904  0.8175 -0.1405 -0.0633
 1055SOL     OW14623   2.926   4.029   5.047 -0.6413  0.2108  0.3207
 1055SOL    HW114624   2.928   4.017   4.952  0.5022 -1.1234  0.5104
 1055SOL    HW214625   2.886   3.950   5.082 -0.6817  0.3572  0.6004
 1056SOL     OW14626   1.145   3.195   1.777  0.6705  0.1844 -0.5387
 1056SOL    HW114627   1.173   3.218   1.866  0.6505  1.1506 -0.7811
 1056SOL    HW214628   1.051   3.208   1.789  0.5093  0.3869 -2.0342
 1057SOL     OW14629   0.438   1.008  13.031  0.1409  0.1156 -0.5837
 1057SOL    HW114630   0.427   0.922  12.991  0.1505  0.0455 -0.4376
 1057SOL    HW214631   0.479   1.050  12.955  0.9125 -0.2701 -0.3808
 1058SOL     OW14632   4.054   4.035   3.860  0.3369  0.2193  0.0847
 1058SOL    HW114633   4.005   4.047   3.941 -0.8408  0.7981 -0.7031
 1058SOL    HW214634   4.066   3.941   3.852 -0.3642  0.3838 -3.0891
 1059SOL     OW14635   2.200   0.948   5.508 -0.2838 -0.0669  0.4998
 1059SOL    HW114636   2.205   0.853   5.522  4.7754  0.2036  0.8358
 1059SOL    HW214637   2.221   0.964   5.416  1.2007 -1.4465  0.5907
 1060SOL     OW14638   0.014   1.130   0.883 -0.0756  0.1304 -0.2180
 1060SOL    HW114639   4.709   1.160   0.797 -0.7017  0.9188  0.2797
 1060SOL    HW214640   4.655   1.106   0.925  2.2867 -2.9231  2.7537
 1061SOL     OW14641   4.036   4.520   8.749  0.0416 -0.0266 -0.0112
 1061SOL    HW114642   3.957   4.504   8.698  0.4515 -1.7223 -0.1148
 1061SOL    HW214643   4.081   4.436   8.742  0.7186  0.3805 -0.5034
 1062SOL     OW14644   3.093   2.044   5.282 -0.5307 -0.4993  0.0805
 1062SOL    HW114645   3.002   2.025   5.260 -0.0323  0.1209 -2.6024
 1062SOL    HW214646   3.117   1.986   5.354  0.3595 -1.1567 -0.7479
 1063SOL     OW14647   0.992   1.043   5.745 -0.6026  0.2447  0.3604
 1063SOL    HW114648   1.008   0.951   5.766  0.1963 -0.2625 -2.4830
 1063SOL    HW214649   1.028   1.045   5.657 -1.2481  1.1535  0.1249
 1064SOL     OW14650   1.334   2.760  10.101  0.1817  0.3159 -0.0670
 1064SOL    HW114651   1.406   2.819  10.076  1.1718 -0.7406  0.3078
 1064SOL    HW214652   1.377   2.680  10.072  0.0792  0.7426 -1.4125
 1065SOL     OW14653   0.239   4.087   2.175  0.4571 -0.2973 -0.4856
 1065SOL    HW114654   0.317   4.137   2.153  0.0123  1.1606  1.2828
 1065SOL    HW214655   0.243   4.107   2.268  1.5652 -1.2817 -0.3262
 1066SOL     OW14656   1.760   1.201  11.545 -0.6270 -0.4438 -0.1786
 1066SOL    HW114657   1.721   1.124  11.505 -1.2729 -0.5502  0.6532
 1066SOL    HW214658   1.711   1.189  11.627 -1.2723  1.0759 -0.3369
 1067SOL     OW14659   3.402   3.785   4.509  0.2128  0.3158 -0.0262
 1067SOL    HW114660   3.469   3.853   4.517  0.1873  0.5122 -1.4029
 1067SOL    HW214661   3.453   3.724   4.456  0.5793  2.2605 -1.9608
 1068SOL     OW14662   2.128   0.968  14.490 -0.0854 -0.1761  0.2902
 1068SOL    HW114663   2.045   0.952  14.446 -0.5540  3.3283 -0.1130
 1068SOL    HW214664   2.146   1.059  14.465 -0.7927 -0.6615 -2.0094
 1069SOL     OW14665   1.183   3.193   7.946  0.2727  0.0017 -0.7001
 1069SOL    HW114666   1.145   3.213   8.031 -0.2772  2.0901 -1.4295
 1069SOL    HW214667   1.126   3.242   7.887  5.3262  2.8381 -3.2265
 1070SOL     OW14668   0.426   1.106   1.802  0.1117 -0.1004  0.1636
 1070SOL    HW114669   0.424   1.035   1.738  1.2270 -0.1185  0.1379
 1070SOL    HW214670   0.421   1.182   1.744 -1.3869 -0.0887  0.3251
 1071SOL     OW14671   4.074   2.272   4.371  0.1702  0.0582  0.7500
 1071SOL    HW114672   4.082   2.273   4.275  1.8362  0.9864  0.8891
 1071SOL    HW214673   4.152   2.325   4.387  0.1811  0.1251  0.4856
 1072SOL     OW14674   3.445   4.245   4.128 -0.8508  0.6153 -0.2975
 1072SOL    HW114675   3.477   4.193   4.201  1.1942  1.4646 -0.6007
 1072SOL    HW214676   3.494   4.326   4.145 -1.7692  1.1861 -0.3479
 1073SOL     OW14677   2.292   2.076  12.917  0.2524  0.3433 -0.4648
 1073SOL    HW114678   2.328   2.160  12.945 -1.9820  0.0652  3.2484
 1073SOL    HW214679   2.298   2.096  12.824 -0.7210  1.8453 -0.2046
 1074SOL     OW14680   1.276   3.850   0.850  0.1474 -0.0580  0.8993
 1074SOL    HW114681   1.332   3.834   0.774 -2.4763 -1.5981 -0.7046
 1074SOL    HW214682   1.190   3.863   0.811  0.5743 -0.0767 -0.0341
 1075SOL     OW14683   0.089   1.951   5.124 -0.3432 -0.1330  0.2235
 1075SOL    HW114684   0.068   2.018   5.189  1.0550 -0.8990  1.4755
 1075SOL    HW214685   0.006   1.907   5.140  0.0663 -1.4334 -1.2061
 1076SOL     OW14686   4.022   0.186   6.539 -0.2796 -0.2873 -0.0465
 1076SOL    HW114687   4.073   0.109   6.514  1.1667  0.3146  1.0881
 1076SOL    HW214688   4.005   0.165   6.631  2.2838 -0.0289  0.4809
 1077SOL     OW14689   2.042   2.431   6.220  0.4253 -0.2541  0.3511
 1077SOL    HW114690   2.042   2.362   6.287 -0.8861 -2.3246 -1.7791
 1077SOL    HW214691   2.000   2.395   6.142 -0.6794  0.0907  0.7995
 1078SOL     OW14692   1.333   2.282   3.865 -0.4417  0.0424  0.0220
 1078SOL    HW114693   1.294   2.272   3.952 -1.6605 -2.1151 -0.7623
 1078SOL    HW214694   1.262   2.260   3.805 -0.7332  1.4387 -0.1408
 1079SOL     OW14695   2.471   2.208  14.400  0.3589  0.3659 -0.0114
 1079SOL    HW114696   2.453   2.286  14.452  1.8666  0.3003  0.6116
 1079SOL    HW214697   2.496   2.144  14.466 -1.3688 -0.5035 -0.1939
 1080SOL     OW14698   1.232   3.308  12.062  0.3147  0.7585 -0.4299
 1080SOL    HW114699   1.227   3.245  12.134  0.7923 -0.7344 -1.6995
 1080SOL    HW214700   1.249   3.382  12.120 -2.9789  1.8580 -0.8746
 1081SOL     OW14701   4.042   0.734   3.471  0.1089 -0.1687  0.2194
 1081SOL    HW114702   3.958   0.772   3.496 -0.0525  1.2244 -2.4848
 1081SOL    HW214703   4.027   0.644   3.500  1.1274 -0.6161 -0.6531
 1082SOL     OW14704   4.379   2.846   2.593  0.2205 -0.3549  0.5567
 1082SOL    HW114705   4.315   2.913   2.570 -0.4715 -1.1462  0.1663
 1082SOL    HW214706   4.379   2.836   2.688  0.5292 -2.9511  0.2800
 1083SOL     OW14707   2.215   0.317   8.265 -0.4428 -0.6168 -0.0250
 1083SOL    HW114708   2.143   0.351   8.211 -2.0105 -1.4988  1.5311
 1083SOL    HW214709   2.264   0.398   8.278  0.3468 -1.2907  1.1805
 1084SOL     OW14710   2.282   2.842   6.255 -0.2110  0.0624 -0.1698
 1084SOL    HW114711   2.269   2.750   6.232  0.4693 -0.1051  0.1420
 1084SOL    HW214712   2.342   2.838   6.329 -1.6465 -1.1549  0.9434
 1085SOL     OW14713   1.457   3.512   3.491 -0.3369 -0.3030  0.2479
 1085SOL    HW114714   1.524   3.455   3.452 -0.7411 -1.1053  0.7411
 1085SOL    HW214715   1.466   3.494   3.584 -1.7713  1.8126  0.7859
 1086SOL     OW14716   1.727   3.429   6.295  0.4583  0.0170 -0.9552
 1086SOL    HW114717   1.673   3.370   6.346 -0.2894  0.4788 -1.2192
 1086SOL    HW214718   1.717   3.515   6.335  0.2561  0.0190 -1.0116
 1087SOL     OW14719   0.748   2.347   3.766  0.3548 -0.3278 -0.0696
 1087SOL    HW114720   0.768   2.335   3.673 -1.0937 -0.3638 -0.3762
 1087SOL    HW214721   0.664   2.394   3.768  0.2209 -0.4011 -3.4683
 1088SOL     OW14722   1.019   3.093   8.705 -0.0024  0.7235  0.5219
 1088SOL    HW114723   0.966   3.032   8.653 -0.0750 -0.3005  1.7845
 1088SOL    HW214724   1.107   3.089   8.669 -1.2142  0.5890 -2.3860
 1089SOL     OW14725   2.235   3.626   1.273  0.4762  0.1599 -0.1864
 1089SOL    HW114726   2.161   3.682   1.247 -0.2723  0.1215  1.8802
 1089SOL    HW214727   2.242   3.630   1.368 -1.7682  1.1064 -0.0511
 1090SOL     OW14728   2.578   3.061   5.039 -0.1491 -0.1061 -0.3155
 1090SOL    HW114729   2.637   3.137   5.039 -1.5120  0.9554 -0.0465
 1090SOL    HW214730   2.634   2.989   5.070  1.8006  1.1982 -0.8125
 1091SOL     OW14731   0.995   1.682  10.611 -0.7811 -0.4580 -0.5157
 1091SOL    HW114732   0.900   1.683  10.625 -1.0620  0.2242 -2.3710
 1091SOL    HW214733   1.019   1.757  10.664 -0.3026 -0.7250 -0.3556
 1092SOL     OW14734   3.171   4.572   6.178  0.4514  0.3047  0.8143
 1092SOL    HW114735   3.231   4.605   6.245 -0.3113  0.8189  1.2354
 1092SOL    HW214736   3.090   4.618   6.197 -0.4402 -0.4503 -1.1002
 1093SOL     OW14737   0.887   3.484   0.941  0.3538  0.4287  0.5875
 1093SOL    HW114738   0.848   3.558   0.988 -1.1399 -0.0005  0.0420
 1093SOL    HW214739   0.949   3.533   0.888  0.0088 -0.6271 -0.7741
 1094SOL     OW14740   4.450   4.651   5.842  0.0969  0.4603 -0.0224
 1094SOL    HW114741   4.474   4.559   5.850 -0.9236  0.2534  0.6260
 1094SOL    HW214742   4.426   4.667   5.933  1.0837  0.9251  0.1540
 1095SOL     OW14743   1.733   3.657   0.817  0.4741 -0.2813 -0.2679
 1095SOL    HW114744   1.757   3.629   0.728  2.2695 -0.5736  0.3033
 1095SOL    HW214745   1.656   3.602   0.832  0.1362  0.5290  0.9978
 1096SOL     OW14746   2.971   0.734   4.762  0.5918 -0.2727 -0.0654
 1096SOL    HW114747   2.932   0.649   4.782 -1.0615  0.5450  0.1854
 1096SOL    HW214748   2.889   0.777   4.737  0.4092 -0.6739 -0.1509
 1097SOL     OW14749   4.009   2.701   7.715  0.3993  0.8093  0.3706
 1097SOL    HW114750   3.980   2.628   7.769 -0.3415  1.9048  1.4513
 1097SOL    HW214751   4.089   2.733   7.756  0.4922  1.2644 -0.1779
 1098SOL     OW14752   2.215   3.340  13.648 -0.2188  0.2331  0.6295
 1098SOL    HW114753   2.301   3.334  13.690  1.0290  1.7052 -1.6895
 1098SOL    HW214754   2.236   3.370  13.560 -1.3799 -0.5361  0.0961
 1099SOL     OW14755   0.165   1.792   8.331 -0.1528 -0.3055  0.4577
 1099SOL    HW114756   0.101   1.862   8.318  0.2288 -0.2942 -1.3538
 1099SOL    HW214757   0.113   1.717   8.359 -0.9893  0.4008  0.7758
 1100SOL     OW14758   0.675   4.672   7.264  0.2532  0.2264  0.5603
 1100SOL    HW114759   0.662   4.584   7.227 -0.3566 -0.0119  1.3486
 1100SOL    HW214760   0.609   4.674   7.333 -1.0238  3.2817 -0.7486
 1101SOL     OW14761   4.157   0.278   8.002  0.0720  0.4851  0.4401
 1101SOL    HW114762   4.065   0.267   8.027  0.1890  0.0087  0.6557
 1101SOL    HW214763   4.196   0.245   8.083  0.4809 -0.2681 -0.0745
 1102SOL     OW14764   0.101   3.068   6.255 -0.7197  0.0152  0.4245
 1102SOL    HW114765   0.080   3.100   6.342  3.1133 -1.1177  1.7636
 1102SOL    HW214766   0.014   3.053   6.218 -0.9214  0.7923  0.5799
 1103SOL     OW14767   3.537   1.814   6.504 -0.1556  0.1629  0.2310
 1103SOL    HW114768   3.524   1.843   6.594  1.9153  0.5770  0.3988
 1103SOL    HW214769   3.474   1.742   6.511 -3.0548  2.7288  0.2755
 1104SOL     OW14770   0.370   0.405   5.036 -0.2020 -0.0889  0.1474
 1104SOL    HW114771   0.428   0.418   5.110 -1.0644 -0.7600  0.9386
 1104SOL    HW214772   0.384   0.486   4.987 -2.7676  0.1846 -0.1556
 1105SOL     OW14773   1.807   4.526  14.714 -0.0620  0.1418  0.9480
 1105SOL    HW114774   1.891   4.549  14.673 -0.0026  0.8105  1.4590
 1105SOL    HW214775   1.746   4.523  14.641 -1.1445 -2.0516  1.9443
 1106SOL     OW14776   2.326   2.019  13.867 -0.4174 -0.3244 -0.3035
 1106SOL    HW114777   2.292   2.000  13.779  2.2808  0.3884 -1.4958
 1106SOL    HW214778   2.420   2.003  13.855 -0.0608  0.9402  0.8851
 1107SOL     OW14779   4.142   3.068   1.374  0.3021  0.4623 -0.0700
 1107SOL    HW114780   4.098   3.105   1.297 -2.9793 -0.4064  1.4097
 1107SOL    HW214781   4.086   3.100   1.444 -1.8581 -1.4129 -0.9691
 1108SOL     OW14782   4.284   2.796   5.570  0.3045  0.5597  0.1943
 1108SOL    HW114783   4.304   2.880   5.611  1.0588  0.7603 -0.5783
 1108SOL    HW214784   4.322   2.735   5.632 -0.2752  0.0219  0.0198
 1109SOL     OW14785   4.201   2.251   7.928 -0.4171  0.2146  0.5456
 1109SOL    HW114786   4.216   2.269   8.020 -0.4857  0.8066  0.4444
 1109SOL    HW214787   4.267   2.299   7.878 -0.5889  1.3068  1.3823
 1110SOL     OW14788   0.260   0.495  10.099 -0.3081 -0.1447  0.0896
 1110SOL    HW114789   0.293   0.576  10.137 -1.0989 -0.0816  0.6455
 1110SOL    HW214790   0.339   0.457  10.060 -0.1136 -1.6262  1.9021
 1111SOL     OW14791   2.538   4.647   8.365  0.4878 -0.3862 -0.4076
 1111SOL    HW114792   2.486   4.567   8.362 -0.4773  0.0949  3.1064
 1111SOL    HW214793   2.617   4.627   8.415 -1.5350 -0.0252  2.9226
 1112SOL     OW14794   4.042   2.971  14.786 -0.2993 -0.0464  0.1268
 1112SOL    HW114795   4.059   2.948  14.878 -1.5509 -1.3869  0.0201
 1112SOL    HW214796   3.998   3.056  14.794 -0.8216 -0.5651  3.0234
 1113SOL     OW14797   1.221   3.198  16.793  0.1494 -0.1478  0.0286
 1113SOL    HW114798   1.137   3.155  16.778 -0.6290  0.3501  2.9230
 1113SOL    HW214799   1.208   3.243  16.877 -2.3877 -2.0647  0.6779
 1114SOL     OW14800   1.669   0.965   4.877 -0.3084  0.2799  0.2210
 1114SOL    HW114801   1.633   1.049   4.850 -0.8684  0.0341  0.2177
 1114SOL    HW214802   1.664   0.913   4.796 -2.3221  1.4366 -0.3806
 1115SOL     OW14803   2.300   4.415  14.711 -0.8383  0.1359  0.2030
 1115SOL    HW114804   2.208   4.429  14.692 -0.4348  1.9558 -0.4190
 1115SOL    HW214805   2.331   4.505  14.726 -1.1551  0.2699  0.0456
 1116SOL     OW14806   1.413   4.623   0.955 -0.3130  0.1304 -0.1643
 1116SOL    HW114807   1.480   4.574   0.905 -0.0244  0.6804 -0.3151
 1116SOL    HW214808   1.463   4.655   1.030 -1.0572 -0.3408  0.5291
 1117SOL     OW14809   3.674   1.645   4.950  0.2676  0.2522  0.1661
 1117SOL    HW114810   3.714   1.567   4.910 -0.3428 -0.9912  1.9787
 1117SOL    HW214811   3.669   1.616   5.041 -1.4391  0.1020  0.0127
 1118SOL     OW14812   0.645   0.224  11.208 -0.5016  0.4130 -0.1706
 1118SOL    HW114813   0.691   0.294  11.255  1.1855 -0.2300 -0.8612
 1118SOL    HW214814   0.567   0.213  11.262 -1.6725  2.1904 -1.5240
 1119SOL     OW14815   1.380   2.579  17.364  0.2416 -0.8504  0.2818
 1119SOL    HW114816   1.402   2.564  17.456  2.0885 -0.4477 -0.1086
 1119SOL    HW214817   1.379   2.484  17.352  0.0023 -1.1017  2.2187
 1120SOL     OW14818   1.103   1.690   1.846  0.0407  0.1121  0.0061
 1120SOL    HW114819   1.078   1.755   1.781  1.8797  0.6529 -0.1588
 1120SOL    HW214820   1.170   1.650   1.791 -2.2776 -2.4336 -0.9377
 1121SOL     OW14821   3.923   3.735   6.075  0.2306  0.3460 -0.0360
 1121SOL    HW114822   4.018   3.744   6.065  0.3403  1.5763  2.0985
 1121SOL    HW214823   3.919   3.678   6.151 -0.2640  0.0462 -0.2853
 1122SOL     OW14824   2.526   0.407   3.660 -0.1195  0.5722 -0.2587
 1122SOL    HW114825   2.602   0.351   3.678  0.4021  0.7908 -1.7584
 1122SOL    HW214826   2.569   0.474   3.606  2.5660 -1.2537 -0.3814
 1123SOL     OW14827   2.511   3.958   5.441 -0.7869  0.0024 -0.1034
 1123SOL    HW114828   2.497   3.967   5.535 -0.8570  2.1593 -0.3140
 1123SOL    HW214829   2.500   4.043   5.398  0.0356  0.1910  0.0648
 1124SOL     OW14830   1.966   1.564   7.357  0.1537 -0.6851 -0.0467
 1124SOL    HW114831   1.935   1.510   7.284  0.1412 -2.4195  1.2242
 1124SOL    HW214832   2.031   1.613   7.309 -1.4890  0.4552 -1.1075
 1125SOL     OW14833   3.342   4.604   3.904 -0.1690 -0.6411 -0.0365
 1125SOL    HW114834   3.317   4.525   3.857 -0.8040 -0.4138 -0.0914
 1125SOL    HW214835   3.268   4.662   3.885  0.2856  0.0744  0.3794
 1126SOL     OW14836   3.847   2.467   1.849 -0.1932 -0.4601 -0.3245
 1126SOL    HW114837   3.914   2.493   1.913 -0.8591  1.7683 -0.5210
 1126SOL    HW214838   3.786   2.426   1.910 -0.1572  1.4989  1.0350
 1127SOL     OW14839   2.065   1.132  13.400 -0.0955 -0.0303  0.3374
 1127SOL    HW114840   2.122   1.196  13.443 -1.3566  1.1669  0.2365
 1127SOL    HW214841   2.115   1.084  13.333  1.1655  1.3065  0.3088
 1128SOL     OW14842   4.463   3.223   4.642  0.3702 -0.0688 -0.7737
 1128SOL    HW114843   4.413   3.278   4.701 -2.8576 -0.3776 -3.2024
 1128SOL    HW214844   4.548   3.219   4.686  0.3477 -1.5747 -0.8563
 1129SOL     OW14845   3.449   2.411   5.361 -0.1546  0.4331 -0.3294
 1129SOL    HW114846   3.516   2.368   5.415 -1.6786 -0.8895  0.5135
 1129SOL    HW214847   3.451   2.361   5.279  2.2575 -1.7244  1.0176
 1130SOL     OW14848   0.258   3.094   8.038  0.4688  0.5202 -0.3154
 1130SOL    HW114849   0.293   3.038   8.108 -0.1922 -1.2295 -1.3695
 1130SOL    HW214850   0.220   3.162   8.093  0.3984  0.3244 -0.1190
 1131SOL     OW14851   3.332   2.969  10.130  0.1401  0.3352 -0.1090
 1131SOL    HW114852   3.243   2.992  10.156  0.8537  1.4952  1.3341
 1131SOL    HW214853   3.359   3.061  10.128 -1.3755  0.8240  1.9910
 1132SOL     OW14854   4.701   3.642   1.246 -0.5196  0.0849 -1.0980
 1132SOL    HW114855   4.633   3.578   1.267  0.2661 -0.8059 -1.2758
 1132SOL    HW214856   4.654   3.723   1.227 -0.7793  0.1690 -0.1283
 1133SOL     OW14857   0.226   3.157   0.264  0.7919 -0.2776  0.1561
 1133SOL    HW114858   0.267   3.108   0.335  1.1829  1.2151  0.9716
 1133SOL    HW214859   0.144   3.108   0.256  0.8662 -0.4509  0.4712
 1134SOL     OW14860   3.189   1.191  14.640 -0.1957  0.0917 -0.1677
 1134SOL    HW114861   3.117   1.180  14.577  1.5681  0.1576 -2.1615
 1134SOL    HW214862   3.167   1.281  14.666 -2.3922 -0.0325 -1.6007
 1135SOL     OW14863   4.095   1.223   3.623 -0.1420 -0.3064  0.1142
 1135SOL    HW114864   4.110   1.162   3.550  0.8674 -2.0861  1.7984
 1135SOL    HW214865   4.087   1.305   3.576 -1.2330 -0.2448  0.4053
 1136SOL     OW14866   1.585   4.623  15.708  0.4405  0.4899  0.4437
 1136SOL    HW114867   1.624   4.538  15.687  0.6966  1.2076 -1.9354
 1136SOL    HW214868   1.496   4.619  15.673 -0.6749  1.5760  3.1538
 1137SOL     OW14869   1.499   4.677   5.100  0.0102  0.0945  0.3899
 1137SOL    HW114870   1.480   4.641   5.013  0.5445  0.1594  0.2469
 1137SOL    HW214871   1.576   4.626   5.125 -1.2868 -2.0662 -0.0072
 1138SOL     OW14872   4.000   4.653   7.239  0.5997  0.6045  0.1870
 1138SOL    HW114873   4.026   4.665   7.331  0.1024  0.6747  0.3198
 1138SOL    HW214874   4.004   0.015   7.198  1.6807 -0.1261 -1.2474
 1139SOL     OW14875   3.374   3.044   6.490  0.1929 -0.0461 -0.3349
 1139SOL    HW114876   3.357   2.964   6.441 -1.5717 -1.1003  2.0180
 1139SOL    HW214877   3.421   3.085   6.417  1.9432 -1.3120  0.0853
 1140SOL     OW14878   2.260   3.237   8.534 -0.3336  0.0131 -0.1429
 1140SOL    HW114879   2.276   3.284   8.453  0.5333 -2.3032 -1.3106
 1140SOL    HW214880   2.209   3.301   8.584  0.5431  1.1493 -0.7071
 1141SOL     OW14881   3.908   0.804  17.441  0.2582 -0.4820 -1.1474
 1141SOL    HW114882   3.872   0.796  17.352  0.7092  1.3521 -1.4966
 1141SOL    HW214883   3.831   0.830  17.492 -0.3359 -0.4059 -2.0797
 1142SOL     OW14884   1.036   3.700  14.514  0.3955 -0.1697 -0.3850
 1142SOL    HW114885   1.083   3.617  14.509  1.6091  0.4636  0.4966
 1142SOL    HW214886   0.968   3.675  14.452  3.0960 -0.7436 -3.1185
 1143SOL     OW14887   3.134   0.299   4.003  0.3097 -0.4270  0.4479
 1143SOL    HW114888   3.052   0.256   4.026  0.3065  0.5287  2.2749
 1143SOL    HW214889   3.198   0.259   4.063  0.4247 -0.1995  0.4768
 1144SOL     OW14890   3.762   2.418   2.784 -0.1599  0.2966  0.2544
 1144SOL    HW114891   3.807   2.487   2.832 -2.6902  2.2913 -0.2063
 1144SOL    HW214892   3.824   2.399   2.714 -1.0527  0.8780 -0.6915
 1145SOL     OW14893   3.056   4.398   8.461  0.0527 -0.0326 -0.1723
 1145SOL    HW114894   3.103   4.373   8.381 -2.4918 -1.3112 -1.2532
 1145SOL    HW214895   3.026   4.313   8.491 -2.6700  0.3715 -1.7829
 1146SOL     OW14896   1.178   3.735   5.452  0.0388  0.2064  0.3301
 1146SOL    HW114897   1.151   3.803   5.513 -1.6849  0.6234 -0.8833
 1146SOL    HW214898   1.089   3.708   5.426  0.5442 -1.6543  0.5550
 1147SOL     OW14899   1.522   2.298  11.095  0.0260  0.4737 -0.6432
 1147SOL    HW114900   1.609   2.308  11.133 -0.8521  1.9604  0.9569
 1147SOL    HW214901   1.500   2.208  11.119 -2.0730  1.2241  0.2102
 1148SOL     OW14902   0.166   0.456  10.726  0.0007 -0.2824  0.1170
 1148SOL    HW114903   0.082   0.429  10.690  0.3103 -0.6592 -0.3262
 1148SOL    HW214904   0.137   0.543  10.753 -1.1076 -1.8956  4.1967
 1149SOL     OW14905   2.530   1.705   5.415 -0.1601 -0.5255  0.0128
 1149SOL    HW114906   2.575   1.685   5.497  0.5186  0.5321 -0.1036
 1149SOL    HW214907   2.556   1.642   5.348 -0.5714  0.3768 -0.9993
 1150SOL     OW14908   1.048   3.279   0.184  0.7389 -0.1713 -0.5146
 1150SOL    HW114909   1.118   3.302   0.244 -0.1791  2.5790 -0.4830
 1150SOL    HW214910   1.069   3.327   0.104  0.3646  0.7336 -0.0646
 1151SOL     OW14911   1.183   1.231  13.540 -0.1734 -0.0871  0.3151
 1151SOL    HW114912   1.272   1.198  13.554  0.3908  0.1586 -2.6801
 1151SOL    HW214913   1.187   1.281  13.458 -0.2757 -0.2343  0.2193
 1152SOL     OW14914   1.314   2.803   3.418 -0.2297  0.1879 -0.6393
 1152SOL    HW114915   1.342   2.718   3.385 -2.0346  0.4853 -2.9409
 1152SOL    HW214916   1.275   2.832   3.336  0.3347 -0.9488 -1.2988
 1153SOL     OW14917   1.344   0.159  13.516 -1.0369  0.0796 -0.4526
 1153SOL    HW114918   1.286   0.216  13.466 -1.7892  0.6883  1.1272
 1153SOL    HW214919   1.312   0.173  13.605  1.9085 -3.0320  1.1345
 1154SOL     OW14920   0.547   4.381   5.596 -0.0040  0.0347 -0.3925
 1154SOL    HW114921   0.555   4.429   5.513 -0.4175  0.1659 -0.3580
 1154SOL    HW214922   0.602   4.307   5.573 -1.5125 -1.3791  0.5691
 1155SOL     OW14923   1.809   0.652   5.336  0.7178 -0.3828 -0.1552
 1155SOL    HW114924   1.796   0.689   5.249  0.9471 -0.3233 -0.1663
 1155SOL    HW214925   1.903   0.632   5.344  0.6904  0.1474  1.6269
 1156SOL     OW14926   2.676   1.820   0.361 -0.4388  0.1011  0.1895
 1156SOL    HW114927   2.667   1.753   0.429 -0.3751  1.1815  1.2543
 1156SOL    HW214928   2.595   1.798   0.313  0.0009 -2.4472  0.6338
 1157SOL     OW14929   3.614   1.326  16.491  0.3791 -0.7614 -0.0414
 1157SOL    HW114930   3.672   1.345  16.417  1.4882  4.1985  2.1411
 1157SOL    HW214931   3.591   1.415  16.515 -1.6805 -0.8443 -1.6964
 1158SOL     OW14932   1.557   0.479   4.063  0.0242 -0.3573  0.8487
 1158SOL    HW114933   1.643   0.440   4.045 -0.3841 -0.5021 -0.7987
 1158SOL    HW214934   1.510   0.397   4.079 -2.3071  1.1487  1.6231
 1159SOL     OW14935   1.653   1.602   4.034 -0.5205  0.5692 -0.7172
 1159SOL    HW114936   1.734   1.629   3.991 -1.2798 -0.4657 -2.7935
 1159SOL    HW214937   1.686   1.578   4.120 -2.4130 -1.9803 -0.7050
 1160SOL     OW14938   1.554   0.773  14.449  0.4527  0.5905  0.1339
 1160SOL    HW114939   1.536   0.863  14.477  0.5387  1.0472 -1.2546
 1160SOL    HW214940   1.562   0.725  14.531  1.8653 -1.4927 -1.2219
 1161SOL     OW14941   4.047   3.341  16.564 -0.0821  0.5059  0.4522
 1161SOL    HW114942   4.047   3.419  16.619  1.2602  1.3014 -0.6642
 1161SOL    HW214943   4.062   3.273  16.630 -2.1339 -1.5376 -1.1983
 1162SOL     OW14944   4.352   3.885   3.142 -0.2165  0.5849  0.1149
 1162SOL    HW114945   4.277   3.927   3.099 -0.0253  1.7690  0.9285
 1162SOL    HW214946   4.302   3.811   3.176  0.7128 -0.2451 -0.3414
 1163SOL     OW14947   4.568   0.463  10.947 -0.0803 -0.0614 -0.1840
 1163SOL    HW114948   4.568   0.374  10.983  1.1100  1.3272  3.1263
 1163SOL    HW214949   4.480   0.494  10.968 -0.0823 -0.2754  0.1324
 1164SOL     OW14950   3.467   0.394   4.012  0.3532 -0.0572 -0.2647
 1164SOL    HW114951   3.406   0.334   4.055  0.8229  0.1952  0.7532
 1164SOL    HW214952   3.495   0.437   4.092  0.0093  1.5714 -1.0306
 1165SOL     OW14953   1.525   2.521   8.821 -0.3533 -0.0265 -0.2276
 1165SOL    HW114954   1.445   2.551   8.780 -1.5889 -0.0516  2.1659
 1165SOL    HW214955   1.489   2.479   8.900 -2.9833  1.3019 -0.7352
 1166SOL     OW14956   3.307   3.162  12.273 -0.4536 -0.1287 -0.2176
 1166SOL    HW114957   3.263   3.087  12.234  0.2228 -0.4263 -0.3968
 1166SOL    HW214958   3.373   3.190  12.209 -2.3139 -2.0058 -2.9685
 1167SOL     OW14959   1.859   4.120   5.764  0.6996  0.2017  0.2163
 1167SOL    HW114960   1.909   4.039   5.752  1.2489  0.4557  0.8086
 1167SOL    HW214961   1.772   4.095   5.731  2.2207 -0.6818 -3.1082
 1168SOL     OW14962   1.138   1.967   0.145 -0.0693 -0.3816  0.0480
 1168SOL    HW114963   1.190   1.967   0.064 -2.4431 -2.3136 -1.4831
 1168SOL    HW214964   1.121   1.873   0.147  0.0492 -0.3520  2.0758
 1169SOL     OW14965   0.736   2.859   9.003 -0.3560 -0.0165 -0.7556
 1169SOL    HW114966   0.824   2.891   8.981  0.0075 -1.2516 -1.1086
 1169SOL    HW214967   0.694   2.945   9.007  0.2611  0.1576  1.6265
 1170SOL     OW14968   1.256   1.264  14.550  0.2653  0.5890  0.1919
 1170SOL    HW114969   1.229   1.290  14.462 -0.3679 -1.0125 -0.0825
 1170SOL    HW214970   1.247   1.349  14.592 -3.4435  0.1942  0.1958
 1171SOL     OW14971   2.990   1.177   0.417 -0.3082 -0.4268  0.1968
 1171SOL    HW114972   2.911   1.197   0.367  0.1070  0.7131  0.0049
 1171SOL    HW214973   3.035   1.260   0.403 -1.0938 -0.0364  0.0204
 1172SOL     OW14974   2.207   0.269   7.171  0.2088 -0.0687  0.0880
 1172SOL    HW114975   2.240   0.196   7.222  1.2662 -0.5326 -1.2479
 1172SOL    HW214976   2.180   0.227   7.089 -1.2644  1.1680 -0.0718
 1173SOL     OW14977   3.281   2.319   8.088 -0.5383 -0.3449  0.4060
 1173SOL    HW114978   3.358   2.354   8.132 -0.7610  0.0861  0.4486
 1173SOL    HW214979   3.239   2.400   8.059 -1.2022 -0.8805 -0.1690
 1174SOL     OW14980   3.271   1.116   2.305 -0.2612 -0.4026  0.7808
 1174SOL    HW114981   3.253   1.210   2.306  1.0810 -0.1415  0.3418
 1174SOL    HW214982   3.236   1.100   2.218  1.3118 -0.8567  0.2304
 1175SOL     OW14983   1.253   1.953  12.813  0.2155 -0.1082  0.3845
 1175SOL    HW114984   1.234   1.951  12.719 -0.8643 -0.3918  0.6035
 1175SOL    HW214985   1.339   1.912  12.803  0.4128 -0.2629  2.6699
 1176SOL     OW14986   2.776   3.063   6.985  0.4641  0.1129  0.3119
 1176SOL    HW114987   2.785   3.060   6.889  0.8252 -0.6229  0.3709
 1176SOL    HW214988   2.865   3.050   7.018 -0.2574 -1.6706  1.5181
 1177SOL     OW14989   4.525   0.228   9.676  0.1912 -0.3271 -0.5222
 1177SOL    HW114990   4.593   0.161   9.686 -0.2734 -0.7878 -0.4571
 1177SOL    HW214991   4.563   0.294   9.734  0.9730 -1.5592  0.3686
 1178SOL     OW14992   4.248   0.813   3.307  0.2009 -0.3410  0.3429
 1178SOL    HW114993   4.167   0.795   3.354  0.7208  0.0111  1.4029
 1178SOL    HW214994   4.297   0.733   3.289 -0.9920 -0.8340 -0.6495
 1179SOL     OW14995   0.406   3.837   8.081  0.7207  0.1632 -0.0839
 1179SOL    HW114996   0.410   3.788   8.163  0.4314 -0.2849 -0.3382
 1179SOL    HW214997   0.483   3.888   8.107  1.0849  0.4064 -1.6357
 1180SOL     OW14998   2.047   2.578   4.085  0.0314 -0.2126  0.2646
 1180SOL    HW114999   2.034   2.534   4.169  0.9442 -0.0657  0.4825
 1180SOL    HW215000   2.117   2.524   4.047 -0.9511  1.2108 -3.5313
 1181SOL     OW15001   3.026   3.742   7.464 -0.0505  0.4117  0.5246
 1181SOL    HW115002   3.060   3.674   7.407  0.1994  0.7215  0.2996
 1181SOL    HW215003   2.931   3.729   7.469  0.0522 -0.8930 -1.1862
 1182SOL     OW15004   1.534   4.073   7.118  0.8571  0.0453 -0.1870
 1182SOL    HW115005   1.455   4.068   7.171 -1.2676 -0.9763 -3.5157
 1182SOL    HW215006   1.603   4.071   7.185 -1.3560 -0.1833  2.0889
 1183SOL     OW15007   3.659   2.539   5.883 -0.0861  0.1533 -0.0323
 1183SOL    HW115008   3.640   2.482   5.957  1.5022 -0.4799 -0.1299
 1183SOL    HW215009   3.749   2.563   5.903  0.3118 -0.9651 -0.4767
 1184SOL     OW15010   3.924   1.372  17.029  0.2930  0.0378 -0.1818
 1184SOL    HW115011   3.962   1.327  16.953 -0.4925  0.3865 -0.7835
 1184SOL    HW215012   3.862   1.434  16.991  1.1848  0.2567 -1.2951
 1185SOL     OW15013   1.846   2.638   1.096  0.2058  0.4176 -0.2232
 1185SOL    HW115014   1.854   2.731   1.074  4.7404  0.2747  0.8039
 1185SOL    HW215015   1.823   2.642   1.189  3.1106  0.5520  0.5107
 1186SOL     OW15016   2.652   1.464   1.623 -0.2221  0.7482  0.4686
 1186SOL    HW115017   2.652   1.412   1.703  1.7796 -0.6531 -0.4361
 1186SOL    HW215018   2.698   1.545   1.646 -1.0563  0.9748  1.3552
 1187SOL     OW15019   3.632   1.782  10.586 -0.2732  0.1740 -0.1751
 1187SOL    HW115020   3.630   1.686  10.591 -2.2634  0.1063 -2.2699
 1187SOL    HW215021   3.705   1.806  10.643  0.8362 -1.8130 -0.7325
 1188SOL     OW15022   0.188   2.377   0.426 -0.0643  0.0323 -0.0427
 1188SOL    HW115023   0.186   2.352   0.518  0.2763  1.9609  0.4904
 1188SOL    HW215024   0.093   2.383   0.412 -0.2141 -1.2923  0.4434
 1189SOL     OW15025   0.049   1.774   2.245  0.5372  0.8705  0.3486
 1189SOL    HW115026   4.683   1.793   2.270  0.9131  3.6282 -0.3578
 1189SOL    HW215027   0.041   1.784   2.150 -1.4161  0.3258  0.4646
 1190SOL     OW15028   4.518   4.307  11.815 -0.1337 -0.2048 -0.0969
 1190SOL    HW115029   4.565   4.388  11.832 -0.1029 -0.4869  1.1421
 1190SOL    HW215030   4.502   4.313  11.721 -0.7708 -1.5175 -0.0829
 1191SOL     OW15031   3.828   2.540   8.205  0.1092  0.2187  0.2451
 1191SOL    HW115032   3.763   2.513   8.270 -0.2636  0.2778 -0.1027
 1191SOL    HW215033   3.767   2.568   8.137 -0.4882 -1.0664  0.2501
 1192SOL     OW15034   3.433   0.066   5.738 -0.2287  0.2769  0.4666
 1192SOL    HW115035   3.439   0.130   5.668 -2.4471  1.4661  1.3442
 1192SOL    HW215036   3.521   0.029   5.736  1.5075  4.6351 -0.8548
 1193SOL     OW15037   0.126   3.267   8.187  0.2498 -0.3759 -0.6130
 1193SOL    HW115038   0.058   3.261   8.254  3.2025 -0.4918  2.3519
 1193SOL    HW215039   0.139   3.362   8.183  1.4740 -0.5010  0.5255
 1194SOL     OW15040   0.142   3.402  14.399 -0.1102 -0.5464  0.0077
 1194SOL    HW115041   0.188   3.473  14.354 -0.6291 -0.4634 -0.3885
 1194SOL    HW215042   0.146   3.332  14.335 -2.6762 -1.6584  1.0894
 1195SOL     OW15043   2.280   0.429   2.243 -0.6778  0.0210 -0.0852
 1195SOL    HW115044   2.213   0.408   2.177 -1.6722  2.5986  0.0800
 1195SOL    HW215045   2.353   0.372   2.218 -0.5596  0.3291 -0.4466
 1196SOL     OW15046   0.071   2.036   7.119 -0.2582 -0.1705  0.1289
 1196SOL    HW115047   0.130   2.032   7.194 -2.0221 -3.5231  1.3459
 1196SOL    HW215048   0.138   2.034   7.050  0.7966  2.4285  1.0814
 1197SOL     OW15049   4.352   0.111   7.219  0.1616 -0.1145 -0.0720
 1197SOL    HW115050   4.425   0.054   7.242 -0.2254 -0.4540  0.3305
 1197SOL    HW215051   4.286   0.064   7.270 -0.0512 -0.9696 -1.1357
 1198SOL     OW15052   2.431   1.643   6.562  1.0316 -0.2911 -0.1292
 1198SOL    HW115053   2.371   1.705   6.520 -0.5881 -1.6700  0.1246
 1198SOL    HW215054   2.425   1.565   6.507 -2.2060  0.6040 -1.0666
 1199SOL     OW15055   3.400   4.139  17.431  0.4659  0.0801  0.0151
 1199SOL    HW115056   3.335   4.092  17.379 -0.6481 -0.4434  1.9042
 1199SOL    HW215057   3.392   4.099  17.517 -2.3523  0.0998 -0.2272
 1200SOL     OW15058   2.084   1.947   1.839  0.1134  0.0344 -0.3501
 1200SOL    HW115059   2.050   1.934   1.751 -0.7683 -1.1635  0.1681
 1200SOL    HW215060   2.116   1.857   1.840 -0.3688 -0.1267  0.7932
 1201SOL     OW15061   1.588   2.018  13.210  0.0567 -0.6639 -0.5177
 1201SOL    HW115062   1.631   1.938  13.181 -1.8006 -1.9555  0.3687
 1201SOL    HW215063   1.579   1.998  13.303  0.0598  2.1766  0.0883
 1202SOL     OW15064   3.102   1.603  13.714  0.5594  0.0476  0.0336
 1202SOL    HW115065   3.058   1.525  13.748 -0.1011  0.2344 -0.4027
 1202SOL    HW215066   3.143   1.630  13.796  1.7550 -1.8936  0.0793
 1203SOL     OW15067   2.016   1.552  12.760 -0.4194 -0.4645  0.5901
 1203SOL    HW115068   2.016   1.492  12.685 -1.2724  1.3999 -0.8753
 1203SOL    HW215069   2.104   1.591  12.760  1.1166 -3.8790 -0.8853
 1204SOL     OW15070   2.937   1.284   5.896 -0.2331  0.0461  0.0040
 1204SOL    HW115071   2.845   1.267   5.913  0.0294  0.1799  1.5955
 1204SOL    HW215072   2.948   1.283   5.801  0.3879 -1.3331  0.0862
 1205SOL     OW15073   2.618   4.124   3.090 -0.3146 -0.4035 -0.2591
 1205SOL    HW115074   2.700   4.123   3.139  1.5667 -0.4447 -3.4021
 1205SOL    HW215075   2.661   4.150   3.008 -2.6125 -0.1930 -1.3977
 1206SOL     OW15076   4.448   0.152   2.957  0.0536 -0.3994 -0.6633
 1206SOL    HW115077   4.404   0.233   2.980  1.3645  0.6272 -1.7759
 1206SOL    HW215078   4.389   0.083   2.989  2.0782 -2.7639 -1.9734
 1207SOL     OW15079   1.831   1.092   4.211 -0.1305 -0.4324 -0.2135
 1207SOL    HW115080   1.790   1.172   4.245  0.7210  0.2569 -0.8171
 1207SOL    HW215081   1.756   1.067   4.157 -1.7305  2.5587  0.6509
 1208SOL     OW15082   3.252   2.118   6.790 -0.3413  0.0168  0.1526
 1208SOL    HW115083   3.327   2.075   6.750  1.0823  2.3652  0.2999
 1208SOL    HW215084   3.235   2.065   6.868  3.5234 -0.6140  0.5407
 1209SOL     OW15085   3.435   4.471   5.063  0.4109 -0.3001 -0.3421
 1209SOL    HW115086   3.512   4.415   5.050  0.0006 -0.8937 -0.2145
 1209SOL    HW215087   3.421   4.456   5.157 -1.1077  0.1815 -0.5006
 1210SOL     OW15088   1.562   4.009   5.667  0.3215 -0.7190  0.0330
 1210SOL    HW115089   1.502   3.937   5.646 -0.0719 -0.0277 -1.2135
 1210SOL    HW215090   1.544   4.008   5.761  0.3528 -0.9280  0.0379
 1211SOL     OW15091   4.312   3.463   6.526 -0.0206 -0.0149  0.1001
 1211SOL    HW115092   4.326   3.442   6.433  0.9788  2.4003 -0.3035
 1211SOL    HW215093   4.255   3.390   6.548  0.9515  0.2880  3.5206
 1212SOL     OW15094   4.570   4.346   0.593 -0.7954 -0.1386  0.2868
 1212SOL    HW115095   4.584   4.251   0.594 -0.8432 -0.1396  0.6896
 1212SOL    HW215096   4.608   4.378   0.675  1.2296 -4.1249  0.8837
 1213SOL     OW15097   4.385   4.288   9.348 -0.2691 -0.3085  0.6899
 1213SOL    HW115098   4.466   4.330   9.319  1.5447 -2.3165  2.8796
 1213SOL    HW215099   4.399   4.194   9.358 -0.4224 -0.3586  0.4344
 1214SOL     OW15100   2.468   3.004   2.171  0.1113 -0.2340 -0.1502
 1214SOL    HW115101   2.445   2.973   2.083  0.9228 -1.2436 -0.0138
 1214SOL    HW215102   2.423   2.935   2.219  1.4770 -1.8117 -1.1225
 1215SOL     OW15103   4.455   3.009   9.090 -0.4828 -0.5823 -1.0466
 1215SOL    HW115104   4.489   3.045   9.172 -1.7495  0.7501 -1.0964
 1215SOL    HW215105   4.541   2.988   9.053 -0.0156  0.1751 -0.4012
 1216SOL     OW15106   3.084   1.510   2.158 -0.1196  0.2849 -0.2705
 1216SOL    HW115107   2.992   1.526   2.138 -0.2035 -1.7173 -1.5803
 1216SOL    HW215108   3.098   1.428   2.109 -1.2188 -1.0692  1.6689
 1217SOL     OW15109   3.694   2.381   2.060 -0.1505  0.4296 -0.3150
 1217SOL    HW115110   3.656   2.295   2.075 -0.5480  0.5977 -0.3509
 1217SOL    HW215111   3.707   2.424   2.144 -2.3544 -0.5003  0.5070
 1218SOL     OW15112   3.462   2.780  11.720 -0.6284  0.2046  0.3074
 1218SOL    HW115113   3.433   2.690  11.705 -0.5117  0.2697 -0.2960
 1218SOL    HW215114   3.438   2.811  11.633  0.5305 -1.9391 -0.7914
 1219SOL     OW15115   2.570   0.649  14.465 -0.0450 -0.7757 -0.3141
 1219SOL    HW115116   2.656   0.688  14.483 -0.3890 -0.7640  1.3027
 1219SOL    HW215117   2.529   0.621  14.546  0.2495 -2.3430 -0.7058
 1220SOL     OW15118   1.167   1.280   4.250 -0.0542  0.5525  0.3721
 1220SOL    HW115119   1.205   1.204   4.292 -0.8206  0.9214  1.7425
 1220SOL    HW215120   1.243   1.318   4.205  0.6425 -0.2569  0.8815
 1221SOL     OW15121   4.432   3.920   4.400  0.2966  0.7078 -0.1563
 1221SOL    HW115122   4.487   3.952   4.471 -0.1055 -0.0924  0.5123
 1221SOL    HW215123   4.496   3.918   4.328 -0.8542 -1.0925 -1.1403
 1222SOL     OW15124   0.072   1.849  17.502  0.1282 -0.4486  0.0602
 1222SOL    HW115125   4.703   1.829  17.506 -0.1726  0.4809 -2.2021
 1222SOL    HW215126   0.113   1.791  17.565  0.7582  1.5680  1.5269
 1223SOL     OW15127   4.218   1.165   8.979  0.3515 -0.0533  0.5839
 1223SOL    HW115128   4.224   1.155   8.884 -1.7753 -0.7707  0.5227
 1223SOL    HW215129   4.288   1.112   9.014  0.6815  0.7974  1.2158
 1224SOL     OW15130   2.647   0.158  12.082 -0.0584  0.2456 -0.1305
 1224SOL    HW115131   2.643   0.254  12.079  0.5767  0.2563 -0.5178
 1224SOL    HW215132   2.630   0.152  12.176  1.2312 -3.3104 -0.1353
 1225SOL     OW15133   3.342   1.466   7.937 -0.3069  0.0985 -0.1986
 1225SOL    HW115134   3.272   1.424   7.886 -0.5241 -1.1922  1.1808
 1225SOL    HW215135   3.413   1.402   7.925  0.0356  0.4107  0.1482
 1226SOL     OW15136   0.792   0.699  11.869 -0.4143 -0.2694  0.2935
 1226SOL    HW115137   0.834   0.656  11.794  0.3926  1.8448 -0.4525
 1226SOL    HW215138   0.701   0.718  11.847 -0.4901  0.0025  0.8381
 1227SOL     OW15139   1.736   2.642   3.064  0.2891  0.7627  0.1021
 1227SOL    HW115140   1.744   2.616   3.156  2.1561  0.3109 -0.1925
 1227SOL    HW215141   1.796   2.586   3.015 -0.7673 -1.0342  0.8453
 1228SOL     OW15142   4.403   2.455  10.373 -0.4748  0.5077 -0.4087
 1228SOL    HW115143   4.328   2.478  10.318 -2.1411 -2.9594  0.3898
 1228SOL    HW215144   4.402   2.359  10.371 -0.3705  0.5006  0.0319
 1229SOL     OW15145   4.152   0.809   0.694 -0.1808  0.0712  0.3590
 1229SOL    HW115146   4.072   0.780   0.651  0.2861  1.8514 -1.6830
 1229SOL    HW215147   4.124   0.813   0.786  0.2836  0.1657  0.4992
 1230SOL     OW15148   4.172   1.356  16.164  0.4018  0.1039 -0.1013
 1230SOL    HW115149   4.146   1.294  16.233  0.2953  0.0386 -0.2001
 1230SOL    HW215150   4.084   1.373  16.132 -0.2450  1.7791  2.5324
 1231SOL     OW15151   1.824   1.241   2.854 -1.2280  0.4804  0.4057
 1231SOL    HW115152   1.771   1.303   2.804 -1.0051 -0.1307 -0.6052
 1231SOL    HW215153   1.905   1.245   2.802 -1.7954 -0.6429 -0.5645
 1232SOL     OW15154   4.081   0.094   9.483  0.1137  1.0562 -0.1194
 1232SOL    HW115155   4.155   0.117   9.538 -1.2959 -1.0837  2.6802
 1232SOL    HW215156   4.044   0.019   9.530 -0.2855  1.0202 -0.4871
 1233SOL     OW15157   0.611   3.364   7.187 -0.6564  0.6611  0.1554
 1233SOL    HW115158   0.556   3.433   7.222  0.2947  0.9746  1.0305
 1233SOL    HW215159   0.632   3.309   7.263 -0.6930 -4.1675 -3.3169
 1234SOL     OW15160   2.420   3.781   5.790  0.6613 -0.2317 -0.3157
 1234SOL    HW115161   2.359   3.718   5.751 -0.7347  1.3466 -0.6467
 1234SOL    HW215162   2.476   3.725   5.845 -1.0403 -0.0968  1.5264
 1235SOL     OW15163   2.647   1.674   4.695 -0.1847  0.2387 -0.0209
 1235SOL    HW115164   2.621   1.652   4.605  0.0561  0.7475 -0.2148
 1235SOL    HW215165   2.656   1.585   4.730  2.1565  0.8606  0.9296
 1236SOL     OW15166   1.732   1.972   6.257 -0.2347 -0.5759 -0.0027
 1236SOL    HW115167   1.645   2.011   6.249  0.2301  0.6467  0.7503
 1236SOL    HW215168   1.716   1.878   6.262  1.5198 -0.8073  1.4719
 1237SOL     OW15169   3.184   0.161  11.775 -0.0024 -0.2390  0.1921
 1237SOL    HW115170   3.176   0.090  11.838  1.5662  0.3697  1.0668
 1237SOL    HW215171   3.120   0.217  11.819 -1.0590 -0.1252 -1.4916
 1238SOL     OW15172   1.607   0.739   4.004 -0.2640  0.3904 -1.0139
 1238SOL    HW115173   1.515   0.756   3.986 -0.3262 -0.3152 -1.3569
 1238SOL    HW215174   1.597   0.647   4.028  0.4606  1.1348  2.1712
 1239SOL     OW15175   0.287   3.014   8.722 -0.1055 -0.8729  0.3579
 1239SOL    HW115176   0.301   2.998   8.815  2.4990 -1.1265 -0.0724
 1239SOL    HW215177   0.269   3.108   8.722 -0.4193 -0.9277  1.9110
 1240SOL     OW15178   2.332   0.444  12.099  0.1994 -0.3276 -0.6152
 1240SOL    HW115179   2.332   0.408  12.188  1.3575  0.0640 -0.4556
 1240SOL    HW215180   2.427   0.433  12.089  0.0092 -1.1509 -1.4861
 1241SOL     OW15181   1.499   0.213   3.311  0.0069 -0.0708 -0.2850
 1241SOL    HW115182   1.479   0.276   3.380 -3.3558 -0.9252 -0.4764
 1241SOL    HW215183   1.542   0.265   3.243  0.5394  0.3766  0.3997
 1242SOL     OW15184   1.212   0.450   0.578 -0.4759 -0.4944 -0.1794
 1242SOL    HW115185   1.224   0.444   0.673 -1.1094 -2.0377 -0.2056
 1242SOL    HW215186   1.202   0.359   0.550 -5.0812  0.2700 -1.0060
 1243SOL     OW15187   1.602   4.211   3.844 -0.4547  0.2805 -0.1095
 1243SOL    HW115188   1.635   4.301   3.851 -3.1060  1.2503  0.0403
 1243SOL    HW215189   1.652   4.162   3.909 -0.6140  0.2719  0.0050
 1244SOL     OW15190   2.061   4.150   3.846 -0.0902 -0.2161  0.6321
 1244SOL    HW115191   1.999   4.119   3.780 -0.0346 -0.9663  0.9251
 1244SOL    HW215192   2.017   4.220   3.894 -0.0001 -0.5551  1.2143
 1245SOL     OW15193   1.352   1.353   0.485 -0.2593 -0.1327  0.3008
 1245SOL    HW115194   1.363   1.448   0.494 -0.5925 -0.3022  2.5594
 1245SOL    HW215195   1.441   1.317   0.493 -0.1770 -0.6391 -2.6333
 1246SOL     OW15196   1.661   3.812   2.236  0.2964 -0.1316 -0.1764
 1246SOL    HW115197   1.686   3.759   2.312 -1.7001 -2.2766 -1.0075
 1246SOL    HW215198   1.685   3.753   2.164 -0.8589  0.4354 -1.0353
 1247SOL     OW15199   2.995   2.013   2.320 -0.4822 -0.1111 -0.2666
 1247SOL    HW115200   2.936   1.969   2.381 -0.6760  1.7814  0.8984
 1247SOL    HW215201   3.030   2.080   2.379  0.5582  0.9579 -2.0867
 1248SOL     OW15202   4.335   2.160   3.190 -0.2381 -0.4002  0.0475
 1248SOL    HW115203   4.251   2.198   3.165  0.1325  1.3725  1.4744
 1248SOL    HW215204   4.380   2.155   3.105 -0.8862 -1.3824 -0.2308
 1249SOL     OW15205   2.251   3.025   2.883  0.5480 -0.4911 -0.0968
 1249SOL    HW115206   2.206   3.055   2.962 -0.9590  0.8343 -1.4495
 1249SOL    HW215207   2.290   3.108   2.859 -0.9438 -0.9736 -4.3352
 1250SOL     OW15208   2.916   2.681   2.521  0.2074 -0.5730 -0.1944
 1250SOL    HW115209   2.986   2.668   2.457  0.2052 -2.5476  0.2045
 1250SOL    HW215210   2.842   2.710   2.468 -0.0134 -1.1940 -0.2251
 1251SOL     OW15211   2.119   3.652   7.855 -0.0890 -0.4968 -0.0776
 1251SOL    HW115212   2.064   3.709   7.801 -0.3871 -2.2045 -1.6059
 1251SOL    HW215213   2.125   3.574   7.799  0.5961  1.7550 -3.1423
 1252SOL     OW15214   0.327   0.066  14.447 -0.3012 -0.1145 -0.1272
 1252SOL    HW115215   0.316   4.698  14.465 -2.7361  0.3956  1.0341
 1252SOL    HW215216   0.240   0.080  14.410 -1.2919 -0.4551  2.0569
 1253SOL     OW15217   2.018   1.462   7.616 -0.3485 -0.4134 -0.3263
 1253SOL    HW115218   2.111   1.438   7.624  0.2559  1.7199 -1.0567
 1253SOL    HW215219   2.024   1.494   7.526 -0.8813 -0.2361 -0.2957
 1254SOL     OW15220   2.293   3.405   2.455  0.3745 -0.4952  0.0791
 1254SOL    HW115221   2.356   3.350   2.407  0.8840  1.5486 -1.5917
 1254SOL    HW215222   2.351   3.453   2.515 -0.7629  0.7959  0.1319
 1255SOL     OW15223   0.206   4.340   6.681 -0.6050 -0.1905 -0.2731
 1255SOL    HW115224   0.146   4.397   6.633 -1.2710 -2.6712 -2.3905
 1255SOL    HW215225   0.267   4.298   6.620 -1.4383  0.0798 -1.3158
 1256SOL     OW15226   0.492   3.325   8.894 -0.2464 -0.3952 -0.2082
 1256SOL    HW115227   0.559   3.390   8.911  0.4740 -0.9597 -0.8965
 1256SOL    HW215228   0.480   3.275   8.975  1.3936 -2.8684 -1.4782
 1257SOL     OW15229   3.456   0.214   3.664 -0.5206  0.2609  0.0118
 1257SOL    HW115230   3.373   0.174   3.689 -0.2249 -1.5931 -1.9930
 1257SOL    HW215231   3.447   0.296   3.712 -0.6201  0.2550  0.0037
 1258SOL     OW15232   2.726   0.267   3.784  0.0551  0.5340 -0.4085
 1258SOL    HW115233   2.700   0.196   3.843 -1.2798 -0.2922 -2.0018
 1258SOL    HW215234   2.814   0.236   3.765  0.7446  0.7054  2.5094
 1259SOL     OW15235   0.889   1.892  15.680 -0.6153 -0.0037  0.0736
 1259SOL    HW115236   0.829   1.961  15.707  1.7115  2.2576 -0.4833
 1259SOL    HW215237   0.883   1.897  15.584  2.2192 -1.7536 -0.1968
 1260SOL     OW15238   1.509   4.340   5.318  0.8462 -0.5755 -0.2797
 1260SOL    HW115239   1.474   4.309   5.401  1.1905  0.6971  0.3450
 1260SOL    HW215240   1.446   4.315   5.251 -1.5339  2.7994  0.6733
 1261SOL     OW15241   3.678   3.567  14.080  0.1620 -0.2290 -0.0230
 1261SOL    HW115242   3.609   3.629  14.104  0.2025 -0.2686  0.1894
 1261SOL    HW215243   3.622   3.505  14.032 -0.8050  0.2963  0.4336
 1262SOL     OW15244   0.714   0.670   2.945  0.6515  0.0234 -0.1490
 1262SOL    HW115245   0.807   0.685   2.957  0.0530  2.8516  1.0253
 1262SOL    HW215246   0.701   0.578   2.921  2.3098 -0.9213  2.5721
 1263SOL     OW15247   1.161   4.060   1.257  0.0195 -0.2804  0.3369
 1263SOL    HW115248   1.120   4.103   1.332  0.0507  0.2911  0.0283
 1263SOL    HW215249   1.223   4.129   1.232 -1.2892  0.6532 -0.3112
 1264SOL     OW15250   0.989   4.567  11.841 -0.3012 -0.3187 -0.5351
 1264SOL    HW115251   0.946   4.610  11.915  1.7394 -2.2461  1.7675
 1264SOL    HW215252   1.060   4.519  11.884 -2.0130 -1.3240  1.1732
 1265SOL     OW15253   2.680   3.194   7.957  0.0025  0.5029  0.2876
 1265SOL    HW115254   2.654   3.209   8.047  0.4645  1.7936  0.1965
 1265SOL    HW215255   2.725   3.109   7.962 -2.2038 -0.8141 -1.9325
 1266SOL     OW15256   0.055   2.522   1.069 -0.5196 -0.4107  0.2157
 1266SOL    HW115257   0.079   2.614   1.073 -0.9935 -0.3227  0.9308
 1266SOL    HW215258   0.116   2.492   1.137 -0.9030 -2.2698 -0.2517
 1267SOL     OW15259   3.151   3.134  16.825 -0.4021 -0.0519  0.7322
 1267SOL    HW115260   3.228   3.188  16.843  0.6704 -1.3517  0.0567
 1267SOL    HW215261   3.183   3.084  16.750  2.3178  1.4835  0.8654
 1268SOL     OW15262   4.609   1.327   9.530 -0.3479 -0.1270  0.0013
 1268SOL    HW115263   4.643   1.417   9.536  1.1092 -0.6158 -0.9545
 1268SOL    HW215264   4.659   1.276   9.593 -0.0772 -1.1779 -1.0648
 1269SOL     OW15265   0.059   2.403   7.847 -0.0982 -0.1353 -0.1574
 1269SOL    HW115266   0.060   2.489   7.805 -0.7821  0.3379  0.8270
 1269SOL    HW215267   4.710   2.405   7.907  1.0351 -2.4548  1.2925
 1270SOL     OW15268   4.342   1.858   4.028 -0.8325 -0.4448  0.1174
 1270SOL    HW115269   4.282   1.932   4.021  0.5182  0.7138  0.8022
 1270SOL    HW215270   4.413   1.902   4.074 -0.3851 -1.6627  0.5897
 1271SOL     OW15271   0.589   3.554   1.441  0.0221 -0.4762 -0.0409
 1271SOL    HW115272   0.574   3.552   1.347  0.1540 -0.8188 -0.0557
 1271SOL    HW215273   0.671   3.504   1.446 -1.1402 -2.4956 -1.2286
 1272SOL     OW15274   3.365   1.860   9.708 -0.5718 -0.4453 -0.4388
 1272SOL    HW115275   3.340   1.900   9.624  0.8238  0.5475 -0.3793
 1272SOL    HW215276   3.311   1.900   9.775 -1.2014  1.3880 -2.0298
 1273SOL     OW15277   0.780   2.746   4.298  0.1575 -0.1370 -0.2246
 1273SOL    HW115278   0.739   2.696   4.368 -0.4370 -0.6023 -0.9179
 1273SOL    HW215279   0.735   2.702   4.227  1.1874 -1.9045  0.2366
 1274SOL     OW15280   3.913   4.023   5.279 -0.0190  0.5214 -0.3445
 1274SOL    HW115281   3.999   4.056   5.306 -1.4402  3.0322  1.1153
 1274SOL    HW215282   3.937   3.930   5.280  1.3172  0.8607 -0.9640
 1275SOL     OW15283   3.030   1.838   9.122  0.2028 -0.2009  0.5098
 1275SOL    HW115284   3.024   1.896   9.199 -2.5078 -1.8809  1.5796
 1275SOL    HW215285   3.088   1.778   9.169 -0.4479 -1.2673 -0.0398
 1276SOL     OW15286   1.020   2.174   6.857 -0.3389  0.1360 -0.2446
 1276SOL    HW115287   1.100   2.179   6.803  0.7103  0.4174  1.3466
 1276SOL    HW215288   1.064   2.129   6.929 -2.3026  0.8323  1.3513
 1277SOL     OW15289   0.675   1.182   8.715  0.4201 -0.3173  0.1679
 1277SOL    HW115290   0.638   1.170   8.627  0.5326  0.2001  0.0483
 1277SOL    HW215291   0.616   1.242   8.761  0.5224  0.6348 -0.9282
 1278SOL     OW15292   1.209   0.069   1.889 -0.0546  0.1017 -0.1297
 1278SOL    HW115293   1.258   0.009   1.833  0.3131  0.6635 -0.4042
 1278SOL    HW215294   1.274   0.093   1.956  0.7663  0.1754 -0.9546
 1279SOL     OW15295   0.993   1.394   7.180  0.0584 -0.0277 -0.1308
 1279SOL    HW115296   0.948   1.318   7.217 -0.5268 -0.1211 -1.0379
 1279SOL    HW215297   0.969   1.460   7.244 -0.1783  0.8053 -1.0731
 1280SOL     OW15298   3.456   4.347  17.034  0.4676  0.2718 -0.4339
 1280SOL    HW115299   3.511   4.425  17.024 -0.3595  0.8156 -0.7212
 1280SOL    HW215300   3.502   4.297  17.101  0.6048  1.0885  0.0805
 1281SOL     OW15301   4.228   2.916  11.301  0.0439 -0.0962  0.2618
 1281SOL    HW115302   4.198   2.925  11.211  0.1120 -0.6048  0.1861
 1281SOL    HW215303   4.277   2.834  11.296 -1.0193 -0.6314 -1.1781
 1282SOL     OW15304   4.539   1.335   9.005  0.1439 -0.2262  0.3063
 1282SOL    HW115305   4.501   1.254   9.038 -1.6110 -0.2753 -1.8412
 1282SOL    HW215306   4.621   1.346   9.054  0.0539 -0.4420  0.5069
 1283SOL     OW15307   1.198   2.865   7.598 -0.0699  0.0840 -0.3664
 1283SOL    HW115308   1.129   2.822   7.548 -4.5396  2.5967  3.7141
 1283SOL    HW215309   1.180   2.835   7.687 -1.4042  4.6492  0.8911
 1284SOL     OW15310   2.064   2.847  12.133 -0.6140  0.4239  0.0322
 1284SOL    HW115311   1.999   2.819  12.069 -0.5496  0.6893 -0.1524
 1284SOL    HW215312   2.101   2.923  12.087  1.8382 -1.3881 -0.9615
 1285SOL     OW15313   2.500   3.563  14.432 -0.3880  0.1469 -0.2169
 1285SOL    HW115314   2.429   3.610  14.478  0.0496  0.3164  0.2895
 1285SOL    HW215315   2.511   3.622  14.358 -1.2372 -0.6656 -0.9810
 1286SOL     OW15316   1.127   2.249  17.493  0.2834  0.1016  0.0843
 1286SOL    HW115317   1.131   2.274  17.586 -0.3489 -0.9418  0.3894
 1286SOL    HW215318   1.116   2.335  17.452 -1.9626 -0.7691 -1.1454
 1287SOL     OW15319   3.367   1.651   3.958  0.2882 -0.4516  0.1202
 1287SOL    HW115320   3.437   1.633   3.895  0.7911  1.3662  0.1511
 1287SOL    HW215321   3.403   1.727   4.004 -0.6826  0.6462 -0.9478
 1288SOL     OW15322   3.192   1.276   3.612 -0.5467 -0.0265 -0.4516
 1288SOL    HW115323   3.156   1.356   3.652 -3.0321 -0.6537 -1.4497
 1288SOL    HW215324   3.191   1.222   3.691  0.5489  2.3117  1.1615
 1289SOL     OW15325   3.895   4.429  10.359  0.0257 -0.0368  0.4500
 1289SOL    HW115326   3.845   4.398  10.435  2.8806 -1.6989  1.6799
 1289SOL    HW215327   3.954   4.493  10.399  0.4489 -0.6920  0.8715
 1290SOL     OW15328   0.009   0.124   7.377 -0.1342  0.1114  0.4005
 1290SOL    HW115329   4.704   0.188   7.442 -3.0219 -0.4386 -0.3582
 1290SOL    HW215330   0.052   0.070   7.443 -1.0589 -0.2045  0.7391
 1291SOL     OW15331   0.412   1.440   4.384 -0.6079 -0.9726 -0.2474
 1291SOL    HW115332   0.447   1.518   4.428  0.7029 -1.7208  0.0265
 1291SOL    HW215333   0.363   1.481   4.312 -1.1521  0.2658  0.8119
 1292SOL     OW15334   0.625   3.343   4.488 -0.6199 -0.1373 -0.3201
 1292SOL    HW115335   0.545   3.392   4.505 -0.4558  0.2786 -0.7532
 1292SOL    HW215336   0.651   3.386   4.406 -2.1694 -0.1291 -0.8050
 1293SOL     OW15337   2.951   4.343   7.207  0.7091  0.3656 -0.2396
 1293SOL    HW115338   2.973   4.426   7.165  0.1877 -0.5493 -2.2906
 1293SOL    HW215339   2.858   4.355   7.190  0.5448 -2.9189 -1.5531
 1294SOL     OW15340   4.155   1.814   4.278 -0.1236  0.4168 -0.1917
 1294SOL    HW115341   4.188   1.724   4.282  1.0038  0.7880 -1.2930
 1294SOL    HW215342   4.219   1.842   4.213 -0.0456 -0.0330 -0.3086
 1295SOL     OW15343   0.390   0.646  15.423 -0.2883  0.6698 -0.7075
 1295SOL    HW115344   0.448   0.690  15.486  0.2775  1.4812 -1.7834
 1295SOL    HW215345   0.394   0.554  15.446 -3.5470  0.9323  0.8663
 1296SOL     OW15346   1.324   4.322   3.107 -0.0665  0.2358  0.1152
 1296SOL    HW115347   1.410   4.297   3.072 -0.2500 -2.3353  1.4576
 1296SOL    HW215348   1.333   4.280   3.193 -0.2062  0.9839  0.4909
 1297SOL     OW15349   3.477   1.153   3.701  0.3891  0.0959  0.1372
 1297SOL    HW115350   3.428   1.195   3.772  2.8413 -0.0116  1.8811
 1297SOL    HW215351   3.408   1.125   3.641  1.8235 -1.2477 -0.9096
 1298SOL     OW15352   1.171   3.420   8.892  0.2054  0.3541 -0.7670
 1298SOL    HW115353   1.201   3.330   8.904 -0.2694  0.8113  3.8547
 1298SOL    HW215354   1.115   3.426   8.814 -0.1023  0.0357 -0.5660
 1299SOL     OW15355   1.443   1.977   7.961  0.2408  0.1850  0.4698
 1299SOL    HW115356   1.451   1.992   8.055  0.1651  1.4975  0.2710
 1299SOL    HW215357   1.350   1.965   7.945  0.0974  0.9819  0.6730
 1300SOL     OW15358   1.366   4.175   2.819 -0.2774  0.3995 -0.5284
 1300SOL    HW115359   1.361   4.080   2.827  0.7449  0.5044  1.2018
 1300SOL    HW215360   1.440   4.187   2.879 -0.8720  0.5276  0.1680
 1301SOL     OW15361   1.753   1.408   1.845 -0.0355 -0.1837  0.3436
 1301SOL    HW115362   1.807   1.421   1.767  0.6713  1.2756  1.0946
 1301SOL    HW215363   1.753   1.312   1.852  0.1519 -0.3004 -1.1422
 1302SOL     OW15364   1.046   2.313   4.947 -0.1330  0.4937 -0.3988
 1302SOL    HW115365   1.015   2.393   4.905 -0.9863 -0.0440 -0.8057
 1302SOL    HW215366   1.138   2.335   4.931 -0.2044  1.5222  0.6867
 1303SOL     OW15367   3.937   0.407   2.962  0.2738  0.0184  0.4877
 1303SOL    HW115368   3.979   0.321   2.955  0.6664  0.3796 -1.6141
 1303SOL    HW215369   3.856   0.389   2.914  0.8627 -0.9524 -0.1491
 1304SOL     OW15370   1.787   0.810  12.981 -0.1115  0.1690  0.1967
 1304SOL    HW115371   1.846   0.744  13.016 -0.3390  0.3746  0.9843
 1304SOL    HW215372   1.792   0.800  12.886  0.5616  3.7040 -0.1437
 1305SOL     OW15373   3.719   1.185   6.221  0.5999 -0.1350  0.1789
 1305SOL    HW115374   3.637   1.168   6.266  0.1415  0.5108 -0.4000
 1305SOL    HW215375   3.705   1.142   6.137  0.4579 -1.7205  1.0240
 1306SOL     OW15376   3.871   2.340   3.861 -0.2382  0.1877 -0.0116
 1306SOL    HW115377   3.822   2.421   3.849  0.0011  0.4977  1.0991
 1306SOL    HW215378   3.848   2.320   3.952 -0.6801 -0.0782 -0.1818
 1307SOL     OW15379   1.305   2.164   8.420 -0.4225  0.1984 -0.3208
 1307SOL    HW115380   1.251   2.205   8.487 -0.2002 -1.0242  0.5965
 1307SOL    HW215381   1.371   2.234   8.419 -0.1625 -0.0544 -1.2118
 1308SOL     OW15382   1.556   3.305   1.256  0.5629  0.1199  0.5249
 1308SOL    HW115383   1.643   3.327   1.222  1.0698 -1.0852  1.0433
 1308SOL    HW215384   1.524   3.278   1.170  1.6774 -0.4927  0.3044
 1309SOL     OW15385   3.728   4.625   4.887 -0.5564  0.3232 -0.2780
 1309SOL    HW115386   3.772   4.550   4.925 -1.7630  0.7106  1.8926
 1309SOL    HW215387   3.714   4.678   4.965  0.6501  0.6739 -0.3009
 1310SOL     OW15388   3.354   0.488  17.325 -0.1031  0.2423 -0.3291
 1310SOL    HW115389   3.426   0.545  17.300 -0.1060  0.3417 -0.1054
 1310SOL    HW215390   3.344   0.447  17.239  0.9984 -1.5031  0.3814
 1311SOL     OW15391   0.360   2.258   0.897 -0.1132 -0.3434  0.1486
 1311SOL    HW115392   0.398   2.345   0.905 -1.8670  0.5171 -1.0224
 1311SOL    HW215393   0.266   2.272   0.887 -0.5296 -0.6022  3.4673
 1312SOL     OW15394   4.705   0.730   8.521  0.2552 -0.4141 -0.2594
 1312SOL    HW115395   0.011   0.810   8.564 -0.1599 -1.5509  2.1437
 1312SOL    HW215396   0.050   0.714   8.456  1.4334  1.2492  0.6070
 1313SOL     OW15397   4.162   2.998   2.511  0.2664 -0.0294 -0.6106
 1313SOL    HW115398   4.127   3.054   2.581 -1.3254 -0.9942 -0.6176
 1313SOL    HW215399   4.157   3.041   2.426 -2.1573  2.6047  0.8717
 1314SOL     OW15400   2.745   1.575   3.864 -0.0433 -0.3915 -0.3564
 1314SOL    HW115401   2.745   1.556   3.770  1.6150  0.0862 -0.4578
 1314SOL    HW215402   2.806   1.648   3.863 -1.3045  0.6538 -0.7740
 1315SOL     OW15403   1.794   3.504  16.704  0.0910  0.1637 -0.6243
 1315SOL    HW115404   1.888   3.515  16.720 -0.0183  1.2530 -0.6993
 1315SOL    HW215405   1.779   3.411  16.721 -0.6174  0.1602 -1.2468
 1316SOL     OW15406   3.215   2.882  12.297 -0.0549  0.0453 -0.0793
 1316SOL    HW115407   3.201   2.826  12.373  1.9654 -2.2757 -1.4322
 1316SOL    HW215408   3.133   2.881  12.247  0.7465  0.4203 -1.3803
 1317SOL     OW15409   0.645   2.498   7.669  0.0174  0.2199 -0.1929
 1317SOL    HW115410   0.668   2.508   7.577 -0.2994  0.9183 -0.1997
 1317SOL    HW215411   0.715   2.539   7.718 -0.1502  1.8661 -1.3399
 1318SOL     OW15412   2.521   2.269   5.381 -0.4951 -0.2572  0.2245
 1318SOL    HW115413   2.558   2.229   5.302 -1.6031  0.7439 -0.8003
 1318SOL    HW215414   2.429   2.272   5.357 -0.4228 -0.1761 -0.0521
 1319SOL     OW15415   3.607   4.689   7.032  0.1969  0.6850 -0.2312
 1319SOL    HW115416   3.586   0.057   7.021 -2.2779  0.0289 -1.1156
 1319SOL    HW215417   3.685   4.688   7.087 -0.1288 -0.5633  0.2091
 1320SOL     OW15418   1.896   3.746   6.158  0.3038  0.5107 -0.1569
 1320SOL    HW115419   1.844   3.797   6.096 -1.4073  0.1897  1.0404
 1320SOL    HW215420   1.949   3.817   6.194  0.0132  0.3136  0.6625
 1321SOL     OW15421   2.551   1.458   7.894  0.1406  0.6925 -0.5271
 1321SOL    HW115422   2.621   1.477   7.956 -1.6120  2.3375  0.9520
 1321SOL    HW215423   2.478   1.424   7.946  1.8068 -0.7267  0.8990
 1322SOL     OW15424   0.953   0.611  16.252 -0.4508 -0.0606 -0.1703
 1322SOL    HW115425   0.875   0.666  16.246 -0.5618 -0.1255  0.5778
 1322SOL    HW215426   1.011   0.662  16.196 -0.1684 -0.7993 -0.5584
 1323SOL     OW15427   0.499   0.416  10.011 -0.2668 -0.3981  0.4751
 1323SOL    HW115428   0.496   0.323  10.034  1.7377 -0.7700 -0.6921
 1323SOL    HW215429   0.586   0.440  10.045  0.0049 -0.5500 -0.1123
 1324SOL     OW15430   3.428   2.309   5.828 -0.7493 -0.0883  0.0918
 1324SOL    HW115431   3.462   2.266   5.906 -0.0432 -0.3324 -0.3575
 1324SOL    HW215432   3.402   2.388   5.875  0.0415 -0.3432  0.9563
 1325SOL     OW15433   2.963   0.762   5.086  0.0684  0.2676  0.5806
 1325SOL    HW115434   3.043   0.719   5.054  0.9042  0.6958  2.1243
 1325SOL    HW215435   2.913   0.694   5.131 -0.9141  0.3698 -0.3406
 1326SOL     OW15436   1.187   3.810  11.494  0.1645 -0.0446 -0.5277
 1326SOL    HW115437   1.110   3.804  11.550 -0.3468 -1.9707 -1.4379
 1326SOL    HW215438   1.185   3.900  11.461 -1.9928  0.7554  1.8107
 1327SOL     OW15439   3.172   1.946   4.962 -0.3065 -0.1303 -0.1684
 1327SOL    HW115440   3.101   1.921   5.021  0.7006  1.7408  1.8486
 1327SOL    HW215441   3.195   1.862   4.922 -0.5577 -0.9969  1.5306
 1328SOL     OW15442   0.684   2.008   7.303  0.3211 -0.4983 -0.0593
 1328SOL    HW115443   0.743   2.076   7.335 -1.8104  2.0643 -1.5443
 1328SOL    HW215444   0.671   1.957   7.382  1.0828  0.3327  0.5968
 1329SOL     OW15445   3.362   0.743   8.763 -0.2618 -0.0664 -0.0378
 1329SOL    HW115446   3.379   0.802   8.837 -0.1983 -0.3988  0.2141
 1329SOL    HW215447   3.432   0.777   8.707 -0.0949 -1.5305 -0.7015
 1330SOL     OW15448   4.309   2.324   3.587  0.0364  0.2919 -0.4834
 1330SOL    HW115449   4.258   2.393   3.544 -0.7074  0.4378  0.6035
 1330SOL    HW215450   4.249   2.249   3.580 -0.6431  0.4701  3.4215
 1331SOL     OW15451   3.632   4.534  16.961  0.1046 -0.2915 -0.0690
 1331SOL    HW115452   3.648   4.601  17.028  2.5979 -0.9006 -0.0529
 1331SOL    HW215453   3.704   4.478  16.989  0.8241  0.7194  0.0685
 1332SOL     OW15454   2.838   1.527   1.856 -0.5430 -0.1897  0.1824
 1332SOL    HW115455   2.767   1.466   1.878 -0.4732 -0.0224  0.8879
 1332SOL    HW215456   2.849   1.580   1.936 -0.0491 -1.8626  1.2177
 1333SOL     OW15457   3.668   4.253  14.194  0.1884 -0.3050  0.1842
 1333SOL    HW115458   3.728   4.196  14.242 -0.4969 -0.7538  0.5075
 1333SOL    HW215459   3.732   4.291  14.134 -0.4289 -0.9352 -0.8722
 1334SOL     OW15460   3.374   3.437   4.337  0.3836  0.5225  0.7799
 1334SOL    HW115461   3.342   3.443   4.246 -0.7452  0.2026  1.1539
 1334SOL    HW215462   3.317   3.368   4.370  1.2866 -0.8972 -0.6552
 1335SOL     OW15463   4.723   4.262   7.216 -0.4975 -0.4181  0.3090
 1335SOL    HW115464   4.657   4.326   7.190  0.1226 -0.2614 -0.8610
 1335SOL    HW215465   4.671   4.183   7.231 -0.9959 -0.3321 -0.9449
 1336SOL     OW15466   3.629   2.750   5.042 -0.0255  0.0389  0.5126
 1336SOL    HW115467   3.643   2.668   4.995 -1.8229  0.1603 -0.2045
 1336SOL    HW215468   3.635   2.726   5.135 -0.1881 -2.0426 -0.0244
 1337SOL     OW15469   1.397   4.599  13.631 -0.3382  0.3138 -0.3071
 1337SOL    HW115470   1.381   4.678  13.682 -0.4542  1.4976 -2.1551
 1337SOL    HW215471   1.480   4.568  13.667 -0.1394  1.1446 -0.0554
 1338SOL     OW15472   1.500   4.493   7.373  0.0907  0.3051 -0.1703
 1338SOL    HW115473   1.530   4.549   7.302 -1.3731  1.1787 -0.0977
 1338SOL    HW215474   1.579   4.440   7.382 -0.4517 -0.4339  0.2005
 1339SOL     OW15475   1.814   2.571   8.239 -0.6277  0.4546 -0.2307
 1339SOL    HW115476   1.859   2.652   8.217  1.6699 -0.0482  2.5182
 1339SOL    HW215477   1.875   2.552   8.312  0.1283 -0.9576 -1.2135
 1340SOL     OW15478   3.415   1.711  10.150 -0.4444 -0.0689  0.6163
 1340SOL    HW115479   3.487   1.731  10.210 -1.2474 -1.5546  2.0811
 1340SOL    HW215480   3.359   1.666  10.213  0.3826 -0.8465  0.8113
 1341SOL     OW15481   2.388   1.394   3.960 -0.1688 -0.2937  0.2060
 1341SOL    HW115482   2.450   1.356   4.021  0.9832 -1.4798 -1.7048
 1341SOL    HW215483   2.422   1.356   3.879 -1.1026  0.4112 -0.5192
 1342SOL     OW15484   3.156   3.970  17.481 -0.0559  0.0767  0.1706
 1342SOL    HW115485   3.083   3.945  17.425 -1.9732  0.0905  2.6572
 1342SOL    HW215486   3.111   3.992  17.563 -0.6486 -0.3946 -0.0306
 1343SOL     OW15487   0.706   2.847   5.126  0.2056 -0.0250 -0.4246
 1343SOL    HW115488   0.611   2.850   5.136  0.2943  2.2075 -0.2294
 1343SOL    HW215489   0.721   2.752   5.129  2.6184  0.3049 -2.1180
 1344SOL     OW15490   0.475   2.504   6.321  0.3414 -0.4397  0.1860
 1344SOL    HW115491   0.447   2.515   6.231  1.6593 -2.7044 -0.5045
 1344SOL    HW215492   0.398   2.538   6.368 -0.4277 -1.1672 -0.5510
 1345SOL     OW15493   4.516   0.931   1.041 -0.4087 -0.2980  0.0863
 1345SOL    HW115494   4.519   0.925   0.946  0.4350 -0.5333  0.1258
 1345SOL    HW215495   4.451   0.862   1.054 -1.0968  0.3968  0.2452
 1346SOL     OW15496   1.726   4.436   6.244 -0.2505 -0.4026  0.1886
 1346SOL    HW115497   1.698   4.344   6.247 -0.3376 -0.3194  2.0357
 1346SOL    HW215498   1.772   4.456   6.326  1.2873 -0.1959 -0.7148
 1347SOL     OW15499   3.605   0.421   7.990  0.0177 -0.2712 -0.3487
 1347SOL    HW115500   3.675   0.423   8.055 -0.0749  1.5795 -0.2928
 1347SOL    HW215501   3.597   0.326   7.990 -0.2001 -0.2608 -1.4700
 1348SOL     OW15502   0.588   2.368   8.521  0.6026 -0.0661 -0.4211
 1348SOL    HW115503   0.595   2.425   8.598  1.3804 -0.7844  0.0477
 1348SOL    HW215504   0.554   2.284   8.553 -2.3124  0.9442 -0.9688
 1349SOL     OW15505   3.669   2.635  16.315  0.6282 -0.1779  0.2361
 1349SOL    HW115506   3.761   2.633  16.341  1.0277  1.6901 -0.9604
 1349SOL    HW215507   3.637   2.647  16.404  2.2785 -0.7432  0.8995
 1350SOL     OW15508   1.202   1.521  12.333  0.1073 -0.1170  0.4409
 1350SOL    HW115509   1.212   1.538  12.427 -0.6467 -2.2446  0.8990
 1350SOL    HW215510   1.218   1.607  12.294  0.4399  0.4615  1.8539
 1351SOL     OW15511   2.224   4.410   4.626 -0.9440  0.5157  0.2930
 1351SOL    HW115512   2.279   4.332   4.625  0.2433  1.3655 -1.2387
 1351SOL    HW215513   2.213   4.431   4.719 -3.8994 -1.2209  0.3427
 1352SOL     OW15514   2.761   0.728   8.963  0.1374  0.4731 -0.1192
 1352SOL    HW115515   2.781   0.637   8.941 -1.3631  0.6139 -2.0460
 1352SOL    HW215516   2.666   0.736   8.971  0.2657  1.2491  0.6250
 1353SOL     OW15517   1.154   1.960   7.885 -0.1388 -0.2176 -0.5231
 1353SOL    HW115518   1.072   1.956   7.934 -0.4593 -1.0801 -1.1447
 1353SOL    HW215519   1.135   1.901   7.812 -1.7796  0.0131 -0.2820
 1354SOL     OW15520   3.432   0.857   2.978 -0.1966  0.4079 -0.0683
 1354SOL    HW115521   3.455   0.862   3.071  0.6940  6.2841 -0.6326
 1354SOL    HW215522   3.421   0.948   2.953  0.7769 -0.2683 -2.9051
 1355SOL     OW15523   2.284   3.259  14.785  0.5733 -0.3079  0.0582
 1355SOL    HW115524   2.365   3.277  14.833 -0.0768  1.5613  0.4295
 1355SOL    HW215525   2.293   3.292  14.696  1.6485 -4.0121 -1.2353
 1356SOL     OW15526   4.531   1.871   4.995 -0.1191 -0.1379  0.0007
 1356SOL    HW115527   4.508   1.838   4.908 -1.5099 -0.6155  0.5542
 1356SOL    HW215528   4.444   1.908   5.007  0.0198  0.0091  0.5533
 1357SOL     OW15529   0.223   3.893   5.324  0.3870 -0.3587  0.2070
 1357SOL    HW115530   0.152   3.896   5.388  1.3135 -1.5135  1.2808
 1357SOL    HW215531   0.233   3.984   5.297 -0.1698 -0.5774 -0.7373
 1358SOL     OW15532   0.629   0.901  16.871 -0.3531  0.3086  0.0406
 1358SOL    HW115533   0.694   0.954  16.918  0.5906 -1.4332  0.7152
 1358SOL    HW215534   0.557   0.960  16.850 -1.1504  0.1970  2.3694
 1359SOL     OW15535   1.315   2.656   8.396 -0.0305 -0.1783 -0.2353
 1359SOL    HW115536   1.335   2.739   8.439 -0.3542 -0.9388  1.4001
 1359SOL    HW215537   1.397   2.614   8.368 -1.7146 -1.0402 -3.8560
 1360SOL     OW15538   0.455   1.190  17.335  0.3119 -0.2849  0.3347
 1360SOL    HW115539   0.411   1.163  17.415 -0.8176  1.6727  0.3670
 1360SOL    HW215540   0.425   1.119  17.278 -1.0033 -0.3365  1.0876
 1361SOL     OW15541   1.935   0.795   6.420  0.4646 -0.0416 -0.0879
 1361SOL    HW115542   1.934   0.753   6.334 -2.5827  0.4839 -0.3413
 1361SOL    HW215543   1.846   0.831   6.414 -0.0827 -1.2430  0.7752
 1362SOL     OW15544   0.388   2.080  13.332  0.3823  0.6596  0.9232
 1362SOL    HW115545   0.446   2.004  13.337 -0.0569  0.2987  0.5510
 1362SOL    HW215546   0.446   2.141  13.284 -1.3388 -0.4744 -2.6242
 1363SOL     OW15547   0.028   2.374  11.322  0.0597 -0.3364 -0.3582
 1363SOL    HW115548   4.720   2.370  11.232 -1.8336 -1.6120  0.3711
 1363SOL    HW215549   0.101   2.435  11.311  0.9760 -1.7459 -1.9454
 1364SOL     OW15550   3.664   3.566  10.876 -0.2987 -0.5796  0.4422
 1364SOL    HW115551   3.650   3.654  10.841  1.8705 -0.0609  0.8903
 1364SOL    HW215552   3.758   3.565  10.857 -0.3535 -2.3089  0.3253
 1365SOL     OW15553   3.100   1.453   0.724 -0.3548 -0.3778  0.1788
 1365SOL    HW115554   3.091   1.519   0.793  0.2082  0.4865 -0.5670
 1365SOL    HW215555   3.014   1.456   0.682 -0.6839  1.3447  0.9940
 1366SOL     OW15556   0.558   3.545  10.741 -0.0986  0.1175 -0.0281
 1366SOL    HW115557   0.653   3.535  10.745 -0.0200  1.0523  0.4523
 1366SOL    HW215558   0.535   3.492  10.817  1.8073 -0.5885  0.0382
 1367SOL     OW15559   3.158   0.934  11.013  0.2618 -0.8526  0.1253
 1367SOL    HW115560   3.149   0.952  11.106  0.7804 -0.7086  0.1508
 1367SOL    HW215561   3.236   0.878  11.010 -2.2742 -4.4309  1.6995
 1368SOL     OW15562   2.360   2.837  11.743  0.7239  0.1816  0.3378
 1368SOL    HW115563   2.326   2.795  11.821 -2.2977 -1.0425 -1.6573
 1368SOL    HW215564   2.282   2.843  11.689  0.1387  0.4489  1.2221
 1369SOL     OW15565   2.903   1.065   8.468 -0.0748  0.4378  0.4035
 1369SOL    HW115566   2.815   1.048   8.500  0.7551 -4.1586  0.2608
 1369SOL    HW215567   2.879   1.140   8.415  3.0276  0.1095 -1.4566
 1370SOL     OW15568   4.245   1.915  10.812  0.7062 -0.0059 -0.0170
 1370SOL    HW115569   4.188   1.910  10.735  1.4997  0.1956 -0.6127
 1370SOL    HW215570   4.261   2.009  10.809  1.2697 -0.0928  0.2873
 1371SOL     OW15571   2.946   1.849   8.846  0.2683 -0.0078  0.2488
 1371SOL    HW115572   2.993   1.841   8.929  0.2947  0.8116  0.3111
 1371SOL    HW215573   2.985   1.774   8.800  1.6064  1.5400 -1.1366
 1372SOL     OW15574   3.297   0.346   7.273  0.3338 -0.1122  0.2678
 1372SOL    HW115575   3.204   0.325   7.273 -0.0010  1.3702 -4.8141
 1372SOL    HW215576   3.305   0.392   7.357 -2.1202 -2.3795  1.7408
 1373SOL     OW15577   2.754   0.797   4.604  0.0139 -0.3813 -0.3599
 1373SOL    HW115578   2.718   0.815   4.691 -0.0625  1.0802 -0.6961
 1373SOL    HW215579   2.677   0.772   4.552 -0.5817  2.6394 -0.9438
 1374SOL     OW15580   1.545   3.605   3.854 -0.0757  0.6069 -0.1991
 1374SOL    HW115581   1.631   3.620   3.815  0.0453  1.4646  0.3974
 1374SOL    HW215582   1.573   3.567   3.937 -0.7554  0.5670  0.0104
 1375SOL     OW15583   2.639   1.787  16.112  0.3408  0.5000 -0.6148
 1375SOL    HW115584   2.603   1.827  16.033 -2.5362 -1.4848 -0.3233
 1375SOL    HW215585   2.664   1.699  16.083  1.9326  0.0019  2.2652
 1376SOL     OW15586   3.487   0.705  15.711 -0.6929 -0.5207  0.0046
 1376SOL    HW115587   3.466   0.780  15.656  0.7954 -0.6764 -0.7686
 1376SOL    HW215588   3.474   0.740  15.800 -0.4974 -0.1398 -0.1150
 1377SOL     OW15589   4.529   2.520   4.222  0.1679  0.0198  0.0099
 1377SOL    HW115590   4.520   2.605   4.180 -2.2230 -0.5381 -0.6175
 1377SOL    HW215591   4.605   2.528   4.279 -0.3441  0.6696  0.6052
 1378SOL     OW15592   0.007   1.026   3.975  0.1602  0.1359 -0.7051
 1378SOL    HW115593   4.639   1.047   3.975  0.0271 -0.5149 -2.2504
 1378SOL    HW215594   0.010   0.976   4.057  0.6081  2.3810  0.6661
 1379SOL     OW15595   2.149   0.125  17.594 -0.0742 -0.4334  0.2880
 1379SOL    HW115596   2.227   0.168  17.628  1.2200 -1.8709 -0.8244
 1379SOL    HW215597   2.081   0.191  17.605 -1.4511 -1.8240  0.2911
 1380SOL     OW15598   2.853   4.234   4.524  0.1077 -0.6889 -0.0452
 1380SOL    HW115599   2.767   4.273   4.507  0.0733 -0.2645  1.1113
 1380SOL    HW215600   2.830   4.141   4.526  0.6348 -0.8347 -0.9836
 1381SOL     OW15601   3.968   2.705  11.263  0.2928  0.2384 -0.1133
 1381SOL    HW115602   3.996   2.791  11.296 -0.4572  0.6228 -0.4595
 1381SOL    HW215603   4.004   2.647  11.329 -0.1898  0.9833  0.8174
 1382SOL     OW15604   2.426   4.140   6.565 -0.0952  0.6470 -0.0995
 1382SOL    HW115605   2.462   4.059   6.527 -0.8098  0.6778 -0.8431
 1382SOL    HW215606   2.443   4.197   6.491 -1.7239  1.4735  0.1799
 1383SOL     OW15607   3.747   4.106   4.891  0.2724 -0.2770  0.6308
 1383SOL    HW115608   3.719   4.150   4.811  0.4295 -0.2445  0.5946
 1383SOL    HW215609   3.696   4.025   4.882  1.3379 -0.6173 -2.4372
 1384SOL     OW15610   2.231   2.665   3.718  0.1824  0.3953  0.1968
 1384SOL    HW115611   2.291   2.597   3.747 -1.8876 -2.0942 -1.3272
 1384SOL    HW215612   2.154   2.609   3.704  1.3721 -0.8304 -1.3852
 1385SOL     OW15613   1.089   0.226   4.438 -0.5005  0.6314 -0.1059
 1385SOL    HW115614   1.043   0.182   4.510 -1.1290  1.8385  0.2346
 1385SOL    HW215615   1.166   0.266   4.479 -0.0336  0.3643 -0.7213
 1386SOL     OW15616   1.218   1.197   3.700 -0.0592  0.1223  0.0625
 1386SOL    HW115617   1.246   1.215   3.790 -2.2761  0.0298  0.7684
 1386SOL    HW215618   1.167   1.116   3.704 -0.2512  0.3187  1.4780
 1387SOL     OW15619   2.718   4.006  12.679  0.0838 -0.0674 -0.6206
 1387SOL    HW115620   2.743   3.917  12.703 -3.9055 -1.3969 -1.4630
 1387SOL    HW215621   2.689   4.042  12.762  0.0366 -0.7076 -0.3576
 1388SOL     OW15622   3.749   2.873   2.203  0.7712  0.3710  0.1518
 1388SOL    HW115623   3.746   2.830   2.288  2.0806 -0.4272 -0.2049
 1388SOL    HW215624   3.733   2.799   2.144 -1.7348  0.7794  0.3427
 1389SOL     OW15625   2.854   1.381  14.945 -0.7004  0.3068 -0.3678
 1389SOL    HW115626   2.901   1.438  15.006 -1.0244 -1.1983  1.2850
 1389SOL    HW215627   2.908   1.395  14.867 -0.6788  1.6520 -0.1081
 1390SOL     OW15628   2.478   3.679   7.640  0.3785  0.0189  0.1093
 1390SOL    HW115629   2.429   3.606   7.603 -0.8887  0.3776  1.1090
 1390SOL    HW215630   2.411   3.746   7.645 -1.0240 -1.2666 -1.5956
 1391SOL     OW15631   1.625   4.079  10.294 -0.3245  0.0195 -0.1635
 1391SOL    HW115632   1.583   3.993  10.290 -0.5379  0.0348  1.7781
 1391SOL    HW215633   1.665   4.071  10.208 -2.9653  1.0893 -1.4782
 1392SOL     OW15634   3.619   3.256   9.353  0.0818  0.2018 -0.1217
 1392SOL    HW115635   3.611   3.338   9.402 -2.8601 -0.5375  0.5659
 1392SOL    HW215636   3.556   3.266   9.281  2.5562  2.8128 -1.9544
 1393SOL     OW15637   0.246   0.123   3.754  0.2258  0.2556 -0.5141
 1393SOL    HW115638   0.220   0.204   3.712 -0.8813  0.2817  0.2245
 1393SOL    HW215639   0.233   0.053   3.690  0.1480  0.5769 -0.8427
 1394SOL     OW15640   4.624   1.672  14.240 -0.2368  0.2990 -0.2986
 1394SOL    HW115641   4.561   1.620  14.289  0.5580 -0.8021 -0.4397
 1394SOL    HW215642   4.592   1.679  14.151 -1.5234 -0.8900  0.0794
 1395SOL     OW15643   1.105   1.949  10.376  0.0585 -0.5566  0.1990
 1395SOL    HW115644   1.117   1.979  10.467 -2.6232 -2.0338  1.0336
 1395SOL    HW215645   1.119   1.855  10.381  0.7774 -0.5624 -2.0100
 1396SOL     OW15646   4.589   1.652   1.803  0.1455 -0.1794 -0.3205
 1396SOL    HW115647   4.498   1.667   1.828  0.5377  0.1754  0.8966
 1396SOL    HW215648   4.574   1.571   1.753 -1.2620 -0.4102  0.4902
 1397SOL     OW15649   3.991   0.413   8.309 -0.3011  0.6025  0.3068
 1397SOL    HW115650   4.047   0.336   8.318  0.7311  1.6002  2.3243
 1397SOL    HW215651   4.000   0.441   8.400  1.8961  0.4880  0.1224
 1398SOL     OW15652   0.081   3.973   4.731  0.0891 -0.3712 -0.0803
 1398SOL    HW115653   0.119   3.890   4.758  0.9756  0.1292  0.1931
 1398SOL    HW215654   0.040   3.991   4.816  0.1637 -1.2387  0.1386
 1399SOL     OW15655   2.777   3.713   3.777 -0.0184  0.5811 -0.0026
 1399SOL    HW115656   2.705   3.764   3.741 -0.0133 -0.3050 -1.2655
 1399SOL    HW215657   2.854   3.753   3.738  1.0223 -0.5662  0.8928
 1400SOL     OW15658   1.943   0.919   2.774  0.0367  0.4493  0.2540
 1400SOL    HW115659   1.872   0.902   2.711  0.1875  1.9099 -0.3146
 1400SOL    HW215660   2.004   0.973   2.723 -0.9309  0.2558 -1.1217
 1401SOL     OW15661   3.825   4.355  17.097 -0.1103 -0.0420 -0.1080
 1401SOL    HW115662   3.835   4.400  17.181 -1.0800 -0.9878  0.5131
 1401SOL    HW215663   3.821   4.265  17.130  1.5066  0.0809  0.4379
 1402SOL     OW15664   4.270   2.050   7.641 -0.0592  0.0062  0.1882
 1402SOL    HW115665   4.251   2.061   7.734 -1.0386 -1.1201  0.1188
 1402SOL    HW215666   4.347   1.993   7.652  0.6683  1.0013  0.2770
 1403SOL     OW15667   4.469   0.512  16.410 -0.0066 -0.3401  0.1748
 1403SOL    HW115668   4.556   0.551  16.417 -0.8402  1.3349  1.3667
 1403SOL    HW215669   4.455   0.476  16.498  2.3015  2.0380  1.5126
 1404SOL     OW15670   1.598   4.005   6.594  0.6297 -0.4797  0.1391
 1404SOL    HW115671   1.596   4.072   6.662  0.3178  0.2880 -0.6190
 1404SOL    HW215672   1.694   3.999   6.591  0.7554  1.2641  0.4791
 1405SOL     OW15673   1.950   1.309  12.311 -0.6805  0.0152 -0.7457
 1405SOL    HW115674   1.939   1.371  12.239 -0.6448  0.1372 -0.6471
 1405SOL    HW215675   1.868   1.259  12.307 -0.7782  0.0459  0.7109
 1406SOL     OW15676   4.047   1.066   6.941 -0.2056  0.0543 -0.2211
 1406SOL    HW115677   4.015   1.104   6.859  0.1269 -0.4442 -0.5785
 1406SOL    HW215678   4.122   1.018   6.907  0.4674  0.9133  0.0392
 1407SOL     OW15679   3.282   2.392   5.600  0.7197 -0.0197  0.0236
 1407SOL    HW115680   3.322   2.387   5.514 -0.3476  0.3506 -0.4886
 1407SOL    HW215681   3.342   2.333   5.646  1.8173  2.4063  1.6866
 1408SOL     OW15682   3.918   2.327  12.040  0.4484 -0.2180 -0.7295
 1408SOL    HW115683   3.920   2.388  12.114 -0.2594 -1.0067 -0.0553
 1408SOL    HW215684   3.838   2.281  12.066  1.7041 -1.0635  1.6564
 1409SOL     OW15685   2.590   2.551   5.342 -0.1640 -0.6977 -0.3746
 1409SOL    HW115686   2.538   2.583   5.269 -1.2464 -0.9901  0.2569
 1409SOL    HW215687   2.593   2.456   5.331  0.0874 -0.7406  0.0284
 1410SOL     OW15688   2.771   3.398   8.940  0.3346 -0.2106  0.1044
 1410SOL    HW115689   2.685   3.402   8.982 -0.7670 -0.1843 -2.1540
 1410SOL    HW215690   2.826   3.413   9.017 -0.4010  0.5028  0.4881
 1411SOL     OW15691   2.728   2.488  11.337 -0.0599  0.4937 -0.0850
 1411SOL    HW115692   2.713   2.397  11.365 -1.4533  0.6669 -0.2466
 1411SOL    HW215693   2.730   2.488  11.242  2.0581 -1.0333 -0.0300
 1412SOL     OW15694   1.609   4.344   8.220 -0.3092 -0.1858  0.0506
 1412SOL    HW115695   1.520   4.374   8.240  0.4182  0.7176  1.9714
 1412SOL    HW215696   1.666   4.402   8.272  2.0054 -1.8544 -0.6211
 1413SOL     OW15697   2.213   0.141   6.663  0.1988 -0.2387  0.0333
 1413SOL    HW115698   2.269   0.106   6.594 -0.9398  1.2387 -1.6096
 1413SOL    HW215699   2.203   0.232   6.637 -0.3058 -1.3131 -3.4825
 1414SOL     OW15700   4.313   2.473   4.870 -0.0217 -0.1667 -0.0462
 1414SOL    HW115701   4.346   2.555   4.908  0.1160 -0.6482  0.8820
 1414SOL    HW215702   4.377   2.403   4.882  2.7716  2.0749 -1.7805
 1415SOL     OW15703   3.462   1.854  14.415 -0.1140 -0.3769 -0.5059
 1415SOL    HW115704   3.475   1.948  14.400  0.7968 -0.7350 -1.9800
 1415SOL    HW215705   3.386   1.852  14.472 -0.7588  0.8751 -1.3140
 1416SOL     OW15706   0.365   4.534   0.687  0.4632  0.2402  0.5847
 1416SOL    HW115707   0.305   4.466   0.719 -0.8189  1.4793  0.8295
 1416SOL    HW215708   0.311   4.587   0.629 -0.3815 -0.6657  0.5277
 1417SOL     OW15709   4.160   3.843   4.187  0.2234  0.4768  0.1239
 1417SOL    HW115710   4.203   3.788   4.122  0.5432  2.4549 -1.3481
 1417SOL    HW215711   4.230   3.908   4.192  2.4755 -2.1208  1.6604
 1418SOL     OW15712   1.706   2.293  13.042  1.0653  0.0682  0.4136
 1418SOL    HW115713   1.800   2.298  13.056  1.2248 -0.9569 -0.2685
 1418SOL    HW215714   1.668   2.305  13.129 -1.0093  0.0662 -0.4750
 1419SOL     OW15715   1.734   2.737   6.594 -0.0397 -0.1554 -0.2059
 1419SOL    HW115716   1.651   2.703   6.561  0.7251 -1.9629 -0.2880
 1419SOL    HW215717   1.761   2.784   6.515  1.0351  1.6443  1.2255
 1420SOL     OW15718   2.603   0.285   4.966 -0.7186  0.3069 -0.1858
 1420SOL    HW115719   2.517   0.286   4.923 -1.2314 -0.5113  0.8116
 1420SOL    HW215720   2.658   0.223   4.918  0.3428  1.5991 -0.6210
 1421SOL     OW15721   2.411   4.552   5.226 -0.1366 -0.0839  0.2059
 1421SOL    HW115722   2.497   4.518   5.204  0.3562  0.9377  0.5976
 1421SOL    HW215723   2.386   4.601   5.148 -2.1991  0.7856  1.3948
 1422SOL     OW15724   0.215   3.334  10.194  0.2453 -0.0278 -0.2774
 1422SOL    HW115725   0.191   3.426  10.186  0.8741  0.3731  2.6888
 1422SOL    HW215726   0.246   3.319  10.104 -0.6679 -1.2468 -0.3872
 1423SOL     OW15727   3.479   4.101   5.427 -0.0240 -0.0303  0.5585
 1423SOL    HW115728   3.484   4.166   5.497  0.4881  0.4253  0.1027
 1423SOL    HW215729   3.556   4.116   5.373 -1.0326 -0.9985 -1.1676
 1424SOL     OW15730   3.799   1.502  16.366  0.0487  0.7417  0.1250
 1424SOL    HW115731   3.750   1.563  16.421 -0.5945 -1.0703  1.5204
 1424SOL    HW215732   3.834   1.555  16.294  1.5060 -0.5317 -0.0926
 1425SOL     OW15733   4.065   3.445   5.481 -0.3701  0.4143 -0.2887
 1425SOL    HW115734   4.008   3.488   5.418 -0.1591 -0.4700 -1.0841
 1425SOL    HW215735   4.015   3.464   5.561  0.6085 -0.0527  0.4360
 1426SOL     OW15736   0.446   4.364   0.203  0.1137 -0.3946 -0.1198
 1426SOL    HW115737   0.431   4.440   0.258 -2.4047  1.1228 -2.8868
 1426SOL    HW215738   0.529   4.329   0.235 -0.3173 -0.3775  1.0189
 1427SOL     OW15739   0.331   1.156   5.189 -0.0097  0.5029 -0.0579
 1427SOL    HW115740   0.392   1.229   5.196  0.0313  0.3931  0.7626
 1427SOL    HW215741   0.303   1.154   5.281 -0.3634 -1.9718 -0.2206
 1428SOL     OW15742   0.110   0.882   0.958 -0.1328 -0.1714 -0.3509
 1428SOL    HW115743   0.106   0.896   1.053 -0.6497 -0.5893 -0.3055
 1428SOL    HW215744   0.065   0.960   0.927 -2.6465 -0.4076  2.6063
 1429SOL     OW15745   3.364   1.763   5.119  0.5152 -0.1789  0.3977
 1429SOL    HW115746   3.362   1.682   5.170  0.0478  1.2020  2.5505
 1429SOL    HW215747   3.336   1.729   5.034 -1.7131 -2.8146  2.1851
 1430SOL     OW15748   2.102   0.271   3.956  0.2033 -0.0601  0.5325
 1430SOL    HW115749   2.189   0.235   3.940  1.3969  1.7700  2.9558
 1430SOL    HW215750   2.073   0.284   3.865 -1.7019  0.7548  1.2550
 1431SOL     OW15751   1.536   3.750  13.016  0.0865 -0.2466  0.4661
 1431SOL    HW115752   1.479   3.713  12.949 -1.8762  3.3800  0.1700
 1431SOL    HW215753   1.482   3.733  13.094  0.9276 -1.0099  0.8857
 1432SOL     OW15754   2.639   2.926   1.223  0.5495  0.3558 -0.1252
 1432SOL    HW115755   2.668   2.848   1.175 -1.1046 -0.3187 -0.0249
 1432SOL    HW215756   2.576   2.959   1.159  0.9429 -2.5254 -2.0323
 1433SOL     OW15757   4.451   1.683  10.730  0.2133  0.0702 -0.1020
 1433SOL    HW115758   4.414   1.715  10.812  0.4271 -1.0633  0.4352
 1433SOL    HW215759   4.402   1.737  10.669 -0.4530 -1.8702 -1.2837
 1434SOL     OW15760   2.570   0.989  13.671  0.0818 -0.1629  0.1625
 1434SOL    HW115761   2.484   0.989  13.712  0.0423  0.8643  0.0724
 1434SOL    HW215762   2.552   0.933  13.595  1.1438 -1.4408  0.8312
 1435SOL     OW15763   4.409   3.269  11.506  0.5019 -0.1014 -0.1024
 1435SOL    HW115764   4.486   3.307  11.548 -1.5243  2.5032  1.2775
 1435SOL    HW215765   4.358   3.342  11.470 -0.6433 -0.6151  0.4468
 1436SOL     OW15766   1.958   0.352  14.705  0.2471  0.1764 -0.1632
 1436SOL    HW115767   2.044   0.354  14.662  0.6116  1.7744  0.6400
 1436SOL    HW215768   1.914   0.396  14.632 -1.3670 -0.7807  0.2357
 1437SOL     OW15769   4.482   0.828   6.214 -0.4897 -0.0677  0.2284
 1437SOL    HW115770   4.521   0.745   6.186 -2.0560 -0.4014 -0.9607
 1437SOL    HW215771   4.548   0.866   6.273 -1.6887  1.8992  0.3020
 1438SOL     OW15772   0.299   3.475   9.846  0.5602 -0.1974 -0.1974
 1438SOL    HW115773   0.256   3.520   9.773  0.2696 -1.7940 -1.0217
 1438SOL    HW215774   0.268   3.384   9.843  1.5709 -0.5318 -0.4997
 1439SOL     OW15775   1.334   0.152   7.462 -0.3245 -0.0140  0.0654
 1439SOL    HW115776   1.285   0.097   7.401  1.7987 -1.2668 -0.5024
 1439SOL    HW215777   1.363   0.087   7.526 -1.6860 -0.4971  0.1950
 1440SOL     OW15778   4.512   0.393   4.555  0.3755  0.0368  0.9964
 1440SOL    HW115779   4.420   0.412   4.574  0.3540 -2.1450  3.0578
 1440SOL    HW215780   4.551   0.464   4.604 -1.1800 -0.9071  3.5982
 1441SOL     OW15781   4.325   0.698   8.787  0.1755  0.0553 -0.0377
 1441SOL    HW115782   4.412   0.657   8.781 -0.5090 -1.1679 -1.8044
 1441SOL    HW215783   4.267   0.623   8.775 -0.9963  1.1712 -1.3847
 1442SOL     OW15784   1.382   3.662   1.570  0.3160 -0.0099  0.3090
 1442SOL    HW115785   1.452   3.722   1.594 -0.6839  0.6567  1.5580
 1442SOL    HW215786   1.336   3.708   1.500 -0.1589 -1.1326 -0.1177
 1443SOL     OW15787   0.053   2.504   1.561 -0.2341 -0.5427 -0.0739
 1443SOL    HW115788   4.697   2.463   1.591  0.9968 -1.5344  1.8613
 1443SOL    HW215789   0.018   2.539   1.478 -0.7259  2.3062  1.3385
 1444SOL     OW15790   3.812   1.357   8.802  0.0868 -1.1372 -0.0845
 1444SOL    HW115791   3.767   1.296   8.861 -0.4976 -0.7718 -0.1598
 1444SOL    HW215792   3.746   1.418   8.771  0.7215  0.3030  1.3689
 1445SOL     OW15793   0.496   1.801   7.322 -0.1544  0.3195 -0.1994
 1445SOL    HW115794   0.558   1.872   7.336  3.5053 -2.3558 -3.0323
 1445SOL    HW215795   0.535   1.755   7.248 -2.5530 -0.5483 -0.9230
 1446SOL     OW15796   0.426   2.391   8.285  0.2680  0.0465 -0.1520
 1446SOL    HW115797   0.496   2.392   8.351  0.4150 -2.0787 -0.2660
 1446SOL    HW215798   0.430   2.297   8.271 -1.0271  0.4851 -3.3123
 1447SOL     OW15799   2.611   0.863   3.661 -0.6499 -0.5452  0.0782
 1447SOL    HW115800   2.613   0.908   3.746 -0.4382  2.7085 -1.6536
 1447SOL    HW215801   2.665   0.919   3.606  0.8793 -3.0850 -1.0335
 1448SOL     OW15802   2.031   2.140  15.635  0.3238  0.2676  0.1416
 1448SOL    HW115803   2.019   2.201  15.562 -0.8905  0.2663  0.3512
 1448SOL    HW215804   2.027   2.205  15.705 -2.7499  0.6838 -0.4457
 1449SOL     OW15805   2.289   3.285   3.170  0.2926 -0.0340 -0.0754
 1449SOL    HW115806   2.255   3.355   3.114  0.0201  1.3148  1.7954
 1449SOL    HW215807   2.371   3.254   3.132  0.2326  1.8290 -1.7127
 1450SOL     OW15808   1.444   2.350   7.371  0.4112  0.2946 -0.0898
 1450SOL    HW115809   1.486   2.276   7.414 -0.9539  0.4640  1.5187
 1450SOL    HW215810   1.352   2.324   7.377  0.3769  0.1401 -1.2665
 1451SOL     OW15811   3.872   0.832   8.252  0.0977 -0.5864  1.2100
 1451SOL    HW115812   3.807   0.788   8.307 -0.3884  0.6721  1.6469
 1451SOL    HW215813   3.948   0.775   8.260 -1.0749 -2.5618 -1.8193
 1452SOL     OW15814   0.434   4.590   3.691 -0.1557 -0.2597 -0.1268
 1452SOL    HW115815   0.360   4.589   3.631  0.2491 -0.1737 -0.6212
 1452SOL    HW215816   0.425   4.503   3.731  0.5781 -0.1400  0.2838
 1453SOL     OW15817   2.954   3.274  14.484  0.6269 -0.5813 -0.4633
 1453SOL    HW115818   2.939   3.348  14.425 -2.8170 -0.2846  0.7963
 1453SOL    HW215819   2.990   3.314  14.563  1.2106 -2.0888  0.0284
 1454SOL     OW15820   2.816   2.284   4.991 -0.0771  0.0475  0.1805
 1454SOL    HW115821   2.870   2.363   4.994 -0.7825  0.5058  0.9600
 1454SOL    HW215822   2.844   2.242   4.910  1.0596  1.2663 -0.0472
 1455SOL     OW15823   0.371   1.584   0.914  0.3506  0.0103 -0.3279
 1455SOL    HW115824   0.293   1.552   0.869  0.5812 -0.5424 -0.3386
 1455SOL    HW215825   0.428   1.507   0.918 -0.7324 -0.6315  2.5749
 1456SOL     OW15826   2.205   0.006   2.931  0.0381 -0.0973  0.6017
 1456SOL    HW115827   2.110   0.003   2.945 -0.1291  1.2598 -0.2872
 1456SOL    HW215828   2.210   0.094   2.895  1.2103  0.8287  3.0029
 1457SOL     OW15829   1.662   0.865   2.237 -0.3439  0.7023  0.1668
 1457SOL    HW115830   1.594   0.802   2.261  1.5057 -1.0790  0.6672
 1457SOL    HW215831   1.737   0.809   2.258  0.5080  1.4382 -0.9116
 1458SOL     OW15832   0.830   4.358   3.958  0.3982 -0.3720  0.5162
 1458SOL    HW115833   0.763   4.333   3.895  1.3202  0.8863 -0.9740
 1458SOL    HW215834   0.811   4.319   4.043  2.8417 -1.3098  0.6478
 1459SOL     OW15835   4.109   0.836   8.823 -0.5457  0.0669 -0.7586
 1459SOL    HW115836   4.183   0.776   8.834 -0.0737  0.9641  0.9585
 1459SOL    HW215837   4.151   0.901   8.766  0.1781  0.7922  0.6040
 1460SOL     OW15838   4.510   4.555   7.800 -0.2708  0.0191  0.3283
 1460SOL    HW115839   4.427   4.536   7.757 -0.6262 -0.0615  1.0467
 1460SOL    HW215840   4.493   4.585   7.890 -2.3592  2.3641 -0.8826
 1461SOL     OW15841   3.843   3.363  16.384 -0.1122 -0.3267  0.6893
 1461SOL    HW115842   3.786   3.393  16.454  0.7344  0.6963  0.9323
 1461SOL    HW215843   3.925   3.355  16.433  0.3851  0.1099 -0.0797
 1462SOL     OW15844   1.215   3.135   6.794  0.0197  0.3368  0.1768
 1462SOL    HW115845   1.265   3.084   6.857 -0.7729 -0.1441  0.4296
 1462SOL    HW215846   1.192   3.059   6.740  0.7653  1.6365 -1.9572
 1463SOL     OW15847   0.794   2.722   5.706  0.2839 -0.2484  0.2647
 1463SOL    HW115848   0.710   2.676   5.703  0.4526 -0.3398 -2.6804
 1463SOL    HW215849   0.838   2.710   5.622 -0.0192 -1.2743  0.2439
 1464SOL     OW15850   2.493   3.749   5.123  0.3738  0.4438  0.2704
 1464SOL    HW115851   2.452   3.769   5.039 -0.7179 -1.1485  0.4155
 1464SOL    HW215852   2.431   3.783   5.188 -0.2421  1.6552 -0.9654
 1465SOL     OW15853   0.928   4.169   3.322  0.1413 -0.5736  0.0766
 1465SOL    HW115854   0.982   4.233   3.369 -2.2968 -0.0598  2.1236
 1465SOL    HW215855   0.967   4.173   3.234 -0.1089 -1.1329 -0.0583
 1466SOL     OW15856   0.819   3.804  15.400  0.4426  1.0815  0.0930
 1466SOL    HW115857   0.792   3.883  15.353  2.1697  1.1667 -0.7457
 1466SOL    HW215858   0.731   3.783  15.431  0.4957  1.5905  0.6001
 1467SOL     OW15859   4.287   0.379  10.245 -0.4557  0.2852 -0.0884
 1467SOL    HW115860   4.299   0.355  10.337 -1.4712 -0.2915 -0.1108
 1467SOL    HW215861   4.259   0.470  10.254  0.0007  0.3141  1.0430
 1468SOL     OW15862   1.902   4.410   6.492 -0.1726 -0.4087  0.1772
 1468SOL    HW115863   1.950   4.331   6.518 -1.5227 -0.9746  0.9251
 1468SOL    HW215864   1.962   4.442   6.424 -2.2646  1.7427 -0.6639
 1469SOL     OW15865   1.343   4.596  15.558 -0.4586  0.4098  0.0827
 1469SOL    HW115866   1.309   4.662  15.499 -0.2332  0.5064  0.0632
 1469SOL    HW215867   1.314   4.640  15.638 -0.2035  0.0902  0.3525
 1470SOL     OW15868   3.377   2.864  11.481  0.2558 -0.0246  0.0053
 1470SOL    HW115869   3.427   2.917  11.419 -0.9714  0.0634 -0.9011
 1470SOL    HW215870   3.375   2.786  11.427  2.1535  0.5514 -0.8721
 1471SOL     OW15871   4.196   0.627  10.327  0.1583  0.1172  0.3828
 1471SOL    HW115872   4.120   0.621  10.384  1.9908  1.0169  2.9183
 1471SOL    HW215873   4.199   0.722  10.317 -0.4246 -0.0209 -1.0522
 1472SOL     OW15874   0.039   0.227   3.585  0.1289  0.2898 -0.1797
 1472SOL    HW115875   0.019   0.321   3.585 -0.4517  0.1724  0.6527
 1472SOL    HW215876   0.024   0.210   3.492  1.7336 -0.6309 -0.2608
 1473SOL     OW15877   0.546   2.869   4.075  0.2569 -0.6998  0.3326
 1473SOL    HW115878   0.618   2.889   4.014  0.9271 -0.9934  1.0253
 1473SOL    HW215879   0.477   2.847   4.013  1.3708 -2.6582 -0.2416
 1474SOL     OW15880   2.839   0.887  12.750 -0.3151  0.1076 -0.2023
 1474SOL    HW115881   2.821   0.860  12.839 -1.0134  0.2820 -0.2894
 1474SOL    HW215882   2.753   0.914  12.716 -0.3837 -2.1888 -1.8870
 1475SOL     OW15883   1.998   1.148   7.220  0.1096 -0.2971 -0.0940
 1475SOL    HW115884   2.089   1.123   7.234  0.9498  3.3954  1.1933
 1475SOL    HW215885   1.954   1.152   7.305  1.7477 -0.0973  0.7409
 1476SOL     OW15886   3.756   3.763   5.554  0.0193  0.1567 -0.0351
 1476SOL    HW115887   3.664   3.751   5.530 -0.2872  1.2928  0.5964
 1476SOL    HW215888   3.754   3.807   5.639  2.6092 -1.0233  0.6514
 1477SOL     OW15889   3.684   1.147   0.045 -0.2846  0.4997 -0.4643
 1477SOL    HW115890   3.727   1.186   0.121  3.5359  0.2326 -2.4691
 1477SOL    HW215891   3.629   1.217   0.011  0.2155  0.1163 -2.0643
 1478SOL     OW15892   2.870   0.730   1.011  0.5437  0.4811  0.1918
 1478SOL    HW115893   2.832   0.722   0.923  0.4407  1.9021  0.1033
 1478SOL    HW215894   2.935   0.662   0.995  1.8801  2.0189 -1.0222
 1479SOL     OW15895   0.865   0.650   0.142 -0.3475 -0.0338  0.0766
 1479SOL    HW115896   0.881   0.744   0.153 -1.7167  0.0618  1.2996
 1479SOL    HW215897   0.788   0.644   0.087 -1.7306 -0.1246  2.0117
 1480SOL     OW15898   3.212   2.891   5.456 -0.0874 -0.7657 -0.1490
 1480SOL    HW115899   3.196   2.797   5.469  0.2067 -0.8910 -0.7238
 1480SOL    HW215900   3.127   2.933   5.473 -0.0790  0.2341 -2.6873
 1481SOL     OW15901   4.384   3.456   9.339 -0.5812  0.1832 -0.5156
 1481SOL    HW115902   4.301   3.413   9.321 -0.6907  1.4252 -3.0887
 1481SOL    HW215903   4.351   3.534   9.384  0.0540  0.8904 -1.2492
 1482SOL     OW15904   2.300   4.267  16.078 -0.1736 -0.0734  0.0479
 1482SOL    HW115905   2.243   4.202  16.118 -0.7048 -0.8354 -1.9412
 1482SOL    HW215906   2.348   4.307  16.150  1.2647  0.0787 -0.9977
 1483SOL     OW15907   3.832   2.222   8.418 -0.4626 -0.3925 -0.0613
 1483SOL    HW115908   3.765   2.190   8.479 -0.8621 -1.3215 -1.0016
 1483SOL    HW215909   3.803   2.203   8.329 -3.8759 -2.2183  1.4119
 1484SOL     OW15910   3.513   0.200   5.499 -0.5409 -0.4752 -0.7135
 1484SOL    HW115911   3.450   0.240   5.439 -0.5425  0.9506  0.2382
 1484SOL    HW215912   3.581   0.163   5.443 -1.4521 -0.4444 -1.8463
 1485SOL     OW15913   4.527   2.573   9.225 -0.1223 -0.3738 -0.6139
 1485SOL    HW115914   4.564   2.661   9.224  0.1684 -0.4929 -0.5776
 1485SOL    HW215915   4.479   2.556   9.305  1.8711 -0.7963  0.5096
 1486SOL     OW15916   1.444   2.342  12.900  0.4484  0.3111 -0.0535
 1486SOL    HW115917   1.412   2.422  12.941  0.3730 -0.1902  0.8611
 1486SOL    HW215918   1.538   2.357  12.915  1.5631 -1.8937 -4.8571
 1487SOL     OW15919   2.102   2.471   2.260  0.6275 -0.5256  0.2920
 1487SOL    HW115920   2.073   2.481   2.169  2.0284  0.7940  0.0033
 1487SOL    HW215921   2.071   2.551   2.302 -0.3058 -0.8116  0.1532
 1488SOL     OW15922   1.805   2.102   6.017  0.1244  0.5261 -0.4244
 1488SOL    HW115923   1.785   2.036   5.951  1.7388 -0.7429  0.3568
 1488SOL    HW215924   1.795   2.044   6.093  0.0348  0.6274 -0.3589
 1489SOL     OW15925   2.344   3.481   6.833  0.0525  0.5289  0.5310
 1489SOL    HW115926   2.285   3.464   6.759  0.5087 -2.2680  0.8172
 1489SOL    HW215927   2.419   3.423   6.818  0.2276  0.9311 -0.1803
 1490SOL     OW15928   4.615   3.254  10.221  0.0519 -0.4002  0.2165
 1490SOL    HW115929   4.574   3.285  10.302 -3.1047  0.1529 -1.5773
 1490SOL    HW215930   4.691   3.223  10.270  0.5084  1.2092  0.5262
 1491SOL     OW15931   3.889   3.564   5.656 -0.1011 -0.3213 -0.1166
 1491SOL    HW115932   3.832   3.624   5.610 -0.2211 -0.8586 -0.6706
 1491SOL    HW215933   3.905   3.612   5.737 -0.3276 -0.4552  0.0068
 1492SOL     OW15934   3.309   3.880   5.892  0.1764 -0.7422 -0.1766
 1492SOL    HW115935   3.253   3.808   5.920 -0.6468  0.2722  0.7850
 1492SOL    HW215936   3.365   3.903   5.966  1.0445  2.3368 -1.7920
 1493SOL     OW15937   3.358   3.857   6.770  0.0087  0.3497  0.8602
 1493SOL    HW115938   3.396   3.923   6.827  1.5031 -1.8242  2.4049
 1493SOL    HW215939   3.438   3.822   6.731 -1.0398 -0.2925 -0.7234
 1494SOL     OW15940   3.640   4.678   1.682  0.0297  0.2353 -0.1949
 1494SOL    HW115941   3.722   4.654   1.638 -1.0295 -0.3423 -1.8409
 1494SOL    HW215942   3.621   4.595   1.727  0.4334  2.0560  3.3077
 1495SOL     OW15943   1.135   3.710  11.240 -0.8633  0.8883  0.2900
 1495SOL    HW115944   1.206   3.761  11.201  0.6658 -1.6658 -0.3056
 1495SOL    HW215945   1.077   3.780  11.269 -0.8672  0.0093  2.4127
 1496SOL     OW15946   0.231   2.880  17.126  0.0976  0.1057  0.0082
 1496SOL    HW115947   0.200   2.968  17.142  2.3132  1.2355 -1.7978
 1496SOL    HW215948   0.201   2.840  17.207  0.3764 -1.4038 -0.6179
 1497SOL     OW15949   2.853   1.646   2.099 -0.3084 -0.3573  0.2049
 1497SOL    HW115950   2.799   1.676   2.172 -1.6654 -1.7532 -0.2066
 1497SOL    HW215951   2.920   1.713   2.087 -0.1886 -0.7537 -1.3398
 1498SOL     OW15952   4.323   3.593  11.172 -0.1543  0.3014 -0.5673
 1498SOL    HW115953   4.332   3.682  11.135 -3.1236  1.1207  0.7338
 1498SOL    HW215954   4.390   3.545  11.123 -0.0187  0.9746 -1.0519
 1499SOL     OW15955   3.038   3.120  11.664 -0.6815 -0.2162 -0.5716
 1499SOL    HW115956   3.105   3.180  11.631 -1.6513  0.9724 -0.3801
 1499SOL    HW215957   3.046   3.045  11.606 -3.2525 -1.5846  0.8527
 1500SOL     OW15958   0.315   2.772   5.343  0.1433 -0.2932 -0.4683
 1500SOL    HW115959   0.376   2.807   5.278  0.6280  0.9430  0.6717
 1500SOL    HW215960   0.230   2.777   5.300  0.3624 -0.1645 -0.8821
 1501SOL     OW15961   2.124   4.711  11.545 -0.3572 -0.1759 -0.1588
 1501SOL    HW115962   2.090   0.017  11.629  0.0936 -0.0637 -0.0185
 1501SOL    HW215963   2.045   4.676  11.505 -2.2901  2.4071  1.4140
 1502SOL     OW15964   2.342   4.051   3.512  0.0240  0.1221  0.2494
 1502SOL    HW115965   2.428   4.050   3.468 -1.7522 -0.6891 -3.1757
 1502SOL    HW215966   2.286   4.011   3.446  1.2970 -1.6157  0.1973
 1503SOL     OW15967   1.765   0.420  10.308  0.2844 -0.6458 -0.0329
 1503SOL    HW115968   1.677   0.440  10.340  0.5404 -2.8028  1.9917
 1503SOL    HW215969   1.768   0.489  10.241 -1.0645  1.6958  2.2758
 1504SOL     OW15970   2.018   3.960   4.297 -0.0842  0.0064 -0.3735
 1504SOL    HW115971   2.010   3.920   4.383  0.7602 -1.4876 -0.9927
 1504SOL    HW215972   2.060   4.044   4.314  0.8834 -0.5216 -0.1964
 1505SOL     OW15973   1.310   0.967   7.276  0.0787  0.8569  0.1496
 1505SOL    HW115974   1.327   0.999   7.365  2.1443 -3.0827  1.2309
 1505SOL    HW215975   1.340   0.879   7.300 -1.8336  0.3326  0.5936
 1506SOL     OW15976   4.113   0.651   2.289  0.0822 -0.4133 -0.7754
 1506SOL    HW115977   4.021   0.674   2.300  0.2278  0.4203 -1.3706
 1506SOL    HW215978   4.164   0.718   2.334  1.1223 -2.5050  1.2114
 1507SOL     OW15979   1.209   2.256   1.380  0.5043 -0.3421 -0.5467
 1507SOL    HW115980   1.144   2.316   1.343  0.3879 -0.5393 -0.6662
 1507SOL    HW215981   1.291   2.294   1.348  0.2235  1.1752  0.5494
 1508SOL     OW15982   1.203   0.222   6.400 -0.0952 -0.0928 -0.1949
 1508SOL    HW115983   1.121   0.270   6.393 -0.1091 -0.0058  0.5621
 1508SOL    HW215984   1.277   0.277   6.374  1.2336 -1.0270  1.5989
 1509SOL     OW15985   4.642   4.168   6.668 -0.3081  0.1181 -0.2679
 1509SOL    HW115986   4.576   4.234   6.690 -0.0287 -0.0236  0.9797
 1509SOL    HW215987   4.720   4.217   6.641 -0.5616 -0.6857 -2.4311
 1510SOL     OW15988   0.256   3.520   7.921  0.0715  0.1106  0.1667
 1510SOL    HW115989   0.229   3.542   8.010  0.1434 -1.1080  0.4911
 1510SOL    HW215990   0.347   3.548   7.928 -0.6763  2.9206 -1.4792
 1511SOL     OW15991   1.783   0.302   3.894  0.6908  0.6882 -0.3683
 1511SOL    HW115992   1.710   0.266   3.843 -0.0182 -0.2427  1.2992
 1511SOL    HW215993   1.783   0.235   3.963  2.9362  0.8641 -0.2083
 1512SOL     OW15994   3.961   1.178  13.772 -0.5025  0.3168  0.5886
 1512SOL    HW115995   3.949   1.101  13.828  1.5892 -0.0977  0.4844
 1512SOL    HW215996   3.900   1.148  13.705  1.1218 -1.2922 -0.1781
 1513SOL     OW15997   0.523   4.609   8.594  0.3491 -0.2500  0.6877
 1513SOL    HW115998   0.529   4.567   8.508 -1.2801  1.6046 -0.3079
 1513SOL    HW215999   0.551   4.540   8.654 -1.4685  0.1127  1.9307
 1514SOL     OW16000   3.558   1.198   1.939  0.0932 -0.4384  0.0372
 1514SOL    HW116001   3.580   1.281   1.897 -0.2934 -0.5197 -0.3214
 1514SOL    HW216002   3.499   1.152   1.880  2.4323 -1.9247 -1.1570
 1515SOL     OW16003   4.449   1.254  11.464 -0.5963  0.0730 -0.5924
 1515SOL    HW116004   4.376   1.202  11.432 -0.1093 -0.1440 -1.3438
 1515SOL    HW216005   4.419   1.259  11.555  1.7401  0.7779  0.1357
 1516SOL     OW16006   2.845   0.851  15.039 -0.6363 -0.4053  0.4412
 1516SOL    HW116007   2.897   0.911  14.985 -2.1855 -0.2958 -0.9142
 1516SOL    HW216008   2.917   0.788  15.051  1.5923  1.6401 -2.1803
 1517SOL     OW16009   1.411   1.751   4.522 -0.1503  0.2202  0.5563
 1517SOL    HW116010   1.485   1.716   4.572 -0.0041  0.1047  0.2573
 1517SOL    HW216011   1.436   1.841   4.502  3.6466 -0.9387  0.2027
 1518SOL     OW16012   1.919   3.963   4.812  0.3650 -0.1379 -0.3557
 1518SOL    HW116013   1.864   4.013   4.873  0.0514  0.7990 -1.4160
 1518SOL    HW216014   1.930   3.885   4.867  0.2293 -0.6458 -1.0517
 1519SOL     OW16015   3.456   0.232   6.452 -0.2105 -0.3261 -0.3246
 1519SOL    HW116016   3.549   0.251   6.435  0.3598 -0.8743  2.2043
 1519SOL    HW216017   3.416   0.265   6.372 -0.9137 -0.8210 -0.1767
 1520SOL     OW16018   0.129   1.006  12.853 -0.2318 -0.0567 -0.0888
 1520SOL    HW116019   0.196   1.040  12.793  0.0816 -0.6113 -0.0480
 1520SOL    HW216020   0.178   0.932  12.888  2.2365  2.0919  1.0660
 1521SOL     OW16021   1.517   0.111   0.414  0.7561  0.4639 -0.3817
 1521SOL    HW116022   1.510   0.034   0.358 -1.5781 -0.0804  0.6799
 1521SOL    HW216023   1.534   0.183   0.353  2.3401  0.1621 -0.3095
 1522SOL     OW16024   0.157   1.822   7.704  0.2678 -0.1894  0.3290
 1522SOL    HW116025   0.091   1.777   7.756  0.9200  0.8254  2.0160
 1522SOL    HW216026   0.161   1.769   7.624  2.8864  1.0297 -0.3682
 1523SOL     OW16027   4.012   0.569  16.466 -0.3554 -0.1248 -0.2617
 1523SOL    HW116028   3.998   0.475  16.468 -0.5542 -0.1144 -1.0146
 1523SOL    HW216029   3.961   0.596  16.542  1.0367  0.4880  0.4428
 1524SOL     OW16030   3.533   1.759  17.628  0.2554  0.3864  0.0149
 1524SOL    HW116031   3.508   1.847  17.600 -1.1348 -0.1641 -0.4621
 1524SOL    HW216032   3.606   1.751  17.565  0.9724 -1.9728  1.1323
 1525SOL     OW16033   1.509   3.761  15.064 -0.0379  0.1160  0.4734
 1525SOL    HW116034   1.543   3.796  14.981 -0.6832 -0.1327  0.1068
 1525SOL    HW216035   1.427   3.809  15.069  0.3064  0.7651  0.0045
 1526SOL     OW16036   2.071   1.331   1.715 -0.0241 -0.0994 -0.0213
 1526SOL    HW116037   1.997   1.380   1.678  1.3040  0.8008 -1.4703
 1526SOL    HW216038   2.043   1.308   1.803  0.4987  1.1371  0.4692
 1527SOL     OW16039   0.987   2.480   2.989  0.3363  0.3268  0.1540
 1527SOL    HW116040   0.949   2.547   3.047  2.7754 -1.5910  4.0013
 1527SOL    HW216041   0.985   2.531   2.908 -2.2447 -0.8591 -0.5421
 1528SOL     OW16042   4.599   0.473  11.378  0.4156 -0.0921 -0.0824
 1528SOL    HW116043   4.623   0.465  11.470 -0.7706 -1.3196  0.1246
 1528SOL    HW216044   4.628   0.386  11.352  0.5932 -0.5261  1.6111
 1529SOL     OW16045   4.438   3.510   5.080  0.0178  0.2794  0.2654
 1529SOL    HW116046   4.465   3.497   5.171  0.2043  2.2693  0.4807
 1529SOL    HW216047   4.518   3.515   5.029 -0.6447  0.9749 -0.7035
 1530SOL     OW16048   0.895   0.113   3.686 -0.0491 -0.4900 -0.2119
 1530SOL    HW116049   0.807   0.082   3.711  0.0101 -0.5119 -0.0295
 1530SOL    HW216050   0.882   0.207   3.681  0.1185 -0.4163  0.8545
 1531SOL     OW16051   2.433   0.481  13.176 -0.0067  0.5037 -0.0478
 1531SOL    HW116052   2.369   0.482  13.247 -1.8333  2.1589 -1.7041
 1531SOL    HW216053   2.387   0.540  13.116 -2.8570  1.3077  2.8665
 1532SOL     OW16054   3.043   1.780   9.678  0.3940 -0.0542 -0.1064
 1532SOL    HW116055   2.960   1.826   9.679  0.4029 -0.0761  0.8460
 1532SOL    HW216056   3.086   1.808   9.758  1.4521 -2.0608  0.0297
 1533SOL     OW16057   4.166   4.464   6.783  0.0505 -0.2409 -0.5236
 1533SOL    HW116058   4.218   4.406   6.727  1.4163  0.6479 -0.1804
 1533SOL    HW216059   4.225   4.493   6.852 -0.7576 -0.4333  0.2480
 1534SOL     OW16060   2.779   2.183   7.518 -0.4261 -0.5483 -0.1078
 1534SOL    HW116061   2.730   2.239   7.579  1.7487  3.2752 -1.8940
 1534SOL    HW216062   2.858   2.179   7.573 -0.7713 -0.9364  0.3637
 1535SOL     OW16063   0.410   4.283   6.493 -0.1362 -0.2436 -0.2389
 1535SOL    HW116064   0.479   4.272   6.558  0.6693 -0.7160 -1.1567
 1535SOL    HW216065   0.405   4.198   6.448  2.8134  0.7003 -2.3482
 1536SOL     OW16066   3.205   3.065   1.703  0.1503 -0.3157 -0.0956
 1536SOL    HW116067   3.157   2.983   1.704 -1.0524  0.3737 -0.6388
 1536SOL    HW216068   3.164   3.109   1.777  0.8218 -0.8308  0.5754
 1537SOL     OW16069   1.638   4.240   4.250 -0.1734 -0.1975  0.1595
 1537SOL    HW116070   1.664   4.148   4.255 -0.4551 -0.4159 -2.3986
 1537SOL    HW216071   1.544   4.233   4.230  0.0393 -3.2615  0.1689
 1538SOL     OW16072   2.785   0.546   9.443  0.6706  0.5680 -0.0556
 1538SOL    HW116073   2.823   0.575   9.360 -0.3481  1.4358 -0.2286
 1538SOL    HW216074   2.764   0.634   9.473  0.1272  0.5669 -0.4285
 1539SOL     OW16075   3.345   1.724  14.102  0.2694 -0.1584  0.6357
 1539SOL    HW116076   3.368   1.766  14.020  0.4589  0.5807  1.0683
 1539SOL    HW216077   3.292   1.790  14.146  1.4805  2.2427 -1.5718
 1540SOL     OW16078   0.720   0.495   8.889  0.3270  0.2539  0.1361
 1540SOL    HW116079   0.701   0.434   8.960 -0.2236 -0.8515 -0.9449
 1540SOL    HW216080   0.709   0.580   8.930  1.2658  0.7659 -0.6922
 1541SOL     OW16081   4.388   4.082  11.657  0.1906 -0.4677 -0.2905
 1541SOL    HW116082   4.401   4.117  11.569  3.2516  0.8832  0.6971
 1541SOL    HW216083   4.307   4.116  11.695 -0.1505 -0.5961 -0.9081
 1542SOL     OW16084   1.715   2.923   5.426  0.4854 -0.0438 -0.2050
 1542SOL    HW116085   1.798   2.890   5.393  0.0193  0.6440 -2.0590
 1542SOL    HW216086   1.728   2.935   5.520  0.0664 -1.1492 -0.0039
 1543SOL     OW16087   1.703   1.196  17.068 -0.0371  0.3248 -0.5040
 1543SOL    HW116088   1.646   1.119  17.071 -0.3230  0.6174  2.4490
 1543SOL    HW216089   1.658   1.255  17.130  0.0173  1.5157 -1.6079
 1544SOL     OW16090   3.095   4.357   1.881 -0.6670  0.0948  0.4495
 1544SOL    HW116091   3.106   4.439   1.929 -0.1621 -0.4662  1.2966
 1544SOL    HW216092   3.005   4.330   1.898  0.1127 -1.7600  1.6439
 1545SOL     OW16093   2.531   0.578   4.274 -0.1549 -0.4061 -0.1507
 1545SOL    HW116094   2.512   0.656   4.325  0.1916  0.3481 -1.1801
 1545SOL    HW216095   2.444   0.539   4.265 -0.3803 -0.1673  1.1051
 1546SOL     OW16096   1.129   1.358   8.637 -0.2304 -0.2758  0.8485
 1546SOL    HW116097   1.112   1.366   8.543 -0.6441  4.2483  1.3249
 1546SOL    HW216098   1.222   1.338   8.627 -0.6673 -1.7967 -0.2581
 1547SOL     OW16099   2.734   3.971   9.562 -0.1344  0.3580  0.1928
 1547SOL    HW116100   2.751   4.051   9.611 -2.4522  1.7540 -1.2591
 1547SOL    HW216101   2.741   3.912   9.637  0.5032  0.8468  0.5136
 1548SOL     OW16102   3.665   4.162   5.232 -0.4615  0.5364  0.0665
 1548SOL    HW116103   3.681   4.172   5.138 -0.1444  0.2080  0.0803
 1548SOL    HW216104   3.724   4.087   5.247 -0.7766  0.4720  0.9333
 1549SOL     OW16105   3.558   0.600   6.174 -0.2256  0.0027 -0.1076
 1549SOL    HW116106   3.617   0.577   6.245 -1.8154  0.3729  1.3244
 1549SOL    HW216107   3.541   0.689   6.205 -3.9083 -0.2947 -1.2674
 1550SOL     OW16108   4.604   3.436  14.406  0.2115  0.2030  0.2957
 1550SOL    HW116109   4.697   3.414  14.405  0.3202  0.7977 -2.3201
 1550SOL    HW216110   4.581   3.411  14.496 -0.6300 -0.1548 -0.0132
 1551SOL     OW16111   3.043   0.452  17.591  0.3315 -0.1946  0.4363
 1551SOL    HW116112   3.104   0.517  17.557  1.6114  0.0716  3.2549
 1551SOL    HW216113   3.098   0.374  17.578  0.4938  0.0824 -0.5383
 1552SOL     OW16114   0.057   0.686  10.848 -0.1003 -0.2259 -0.0768
 1552SOL    HW116115   0.114   0.763  10.850  0.1344 -0.3917 -0.3587
 1552SOL    HW216116   4.698   0.732  10.842  0.9102  1.7537  1.1460
 1553SOL     OW16117   3.592   3.892  16.379  0.3854  0.3994  0.3002
 1553SOL    HW116118   3.649   3.825  16.341 -1.3929 -1.1323  0.3495
 1553SOL    HW216119   3.656   3.943  16.429 -1.0700  1.9411  0.5894
 1554SOL     OW16120   1.397   0.029   1.674 -0.0607  0.2314 -0.5411
 1554SOL    HW116121   1.374   0.118   1.651 -0.7748  0.2812  0.3621
 1554SOL    HW216122   1.492   0.032   1.686 -0.3804 -2.0205  2.6980
 1555SOL     OW16123   3.291   0.995   3.533  0.4985 -0.1208 -0.3825
 1555SOL    HW116124   3.233   1.070   3.519 -1.3367 -1.6506 -0.9115
 1555SOL    HW216125   3.350   1.000   3.457 -0.2722  1.3070 -0.8946
 1556SOL     OW16126   0.583   3.465   4.888  0.0287  0.0909 -0.8492
 1556SOL    HW116127   0.607   3.444   4.978 -0.4865 -0.4784 -0.8451
 1556SOL    HW216128   0.536   3.547   4.906 -0.9976 -0.8473  0.8037
 1557SOL     OW16129   2.074   1.109   4.083 -0.4124 -0.0651 -0.5985
 1557SOL    HW116130   1.983   1.107   4.113 -0.6252  0.8384 -1.1774
 1557SOL    HW216131   2.050   1.116   3.991 -0.8293  1.3918 -0.3837
 1558SOL     OW16132   3.617   3.943   4.534 -0.3006 -0.1751 -0.0209
 1558SOL    HW116133   3.687   3.889   4.570 -1.0957 -1.7280 -0.8020
 1558SOL    HW216134   3.629   4.017   4.594  0.3243  0.4420 -0.9090
 1559SOL     OW16135   4.023   1.028   5.770  0.0971  0.1917 -0.4653
 1559SOL    HW116136   4.084   0.964   5.806  0.4440  1.2552  0.8327
 1559SOL    HW216137   3.953   0.986   5.820  1.0507  0.4988  1.1285
 1560SOL     OW16138   2.866   3.420   1.509  0.4616  0.0163  0.5509
 1560SOL    HW116139   2.872   3.478   1.433  3.1416  1.6965  2.0666
 1560SOL    HW216140   2.862   3.489   1.575 -1.7125  0.3850  0.0461
 1561SOL     OW16141   4.215   1.033   9.413 -0.0497  0.5755  0.6993
 1561SOL    HW116142   4.243   0.999   9.328 -0.7623  2.2855 -0.1921
 1561SOL    HW216143   4.288   1.087   9.444  0.4803  0.7000 -0.7816
 1562SOL     OW16144   2.626   3.103   6.093 -0.1612 -0.3806  1.0056
 1562SOL    HW116145   2.637   3.111   6.188 -0.1652 -0.0400  0.9781
 1562SOL    HW216146   2.607   3.010   6.080  2.6964 -0.8162  0.0111
 1563SOL     OW16147   0.848   1.692   3.976  0.1877 -0.0131  0.0891
 1563SOL    HW116148   0.844   1.619   3.914 -0.0961  1.9452 -2.1889
 1563SOL    HW216149   0.778   1.673   4.038  1.5326 -1.0432  1.2781
 1564SOL     OW16150   3.603   3.058  12.270 -0.0338 -0.2922  0.3816
 1564SOL    HW116151   3.644   3.081  12.352  1.0007  0.8498 -0.4664
 1564SOL    HW216152   3.683   3.033  12.223  2.3541 -1.4293  5.1393
 1565SOL     OW16153   4.161   2.534   6.836 -0.5257  0.2493 -0.4369
 1565SOL    HW116154   4.130   2.458   6.786  0.2426  0.2992 -0.9808
 1565SOL    HW216155   4.218   2.586   6.780 -0.3086  2.1100  1.5231
 1566SOL     OW16156   3.650   3.151  15.709 -0.1452  0.5630 -0.5563
 1566SOL    HW116157   3.667   3.059  15.690  0.5544  0.5490  0.1419
 1566SOL    HW216158   3.727   3.170  15.763 -0.0643 -2.2322  0.2945
 1567SOL     OW16159   1.959   1.652   4.569  0.3966  0.0353  0.4914
 1567SOL    HW116160   2.030   1.695   4.617  0.9632 -0.7410  0.3621
 1567SOL    HW216161   1.966   1.685   4.480  0.3104 -1.7417 -0.1814
 1568SOL     OW16162   2.577   3.275   0.474 -0.1425  0.0245  0.4941
 1568SOL    HW116163   2.604   3.350   0.526  0.6276  0.0287  0.0887
 1568SOL    HW216164   2.666   3.248   0.452 -0.7748 -0.6730 -1.2376
 1569SOL     OW16165   0.265   3.020   0.526  0.0558 -0.1236 -0.1759
 1569SOL    HW116166   0.291   2.944   0.474 -0.0140 -0.6860  0.6300
 1569SOL    HW216167   0.347   3.070   0.522 -1.4011  2.2218 -1.0234
 1570SOL     OW16168   4.231   1.101  11.405 -0.2878 -0.4458  0.0749
 1570SOL    HW116169   4.158   1.079  11.463 -0.5379 -0.0092 -0.0756
 1570SOL    HW216170   4.205   1.051  11.328 -0.1440  2.6489 -2.0076
 1571SOL     OW16171   1.463   4.010   3.175 -0.5389 -0.3104  0.2244
 1571SOL    HW116172   1.461   3.992   3.081  0.5055  1.7489 -0.1885
 1571SOL    HW216173   1.431   3.927   3.211 -2.2779  1.3074  2.4103
 1572SOL     OW16174   3.425   2.955   0.815  0.3160  0.3156 -0.3143
 1572SOL    HW116175   3.436   3.020   0.884  2.3853  1.3585 -1.6159
 1572SOL    HW216176   3.519   2.940   0.801  0.3225  0.2507 -0.2038
 1573SOL     OW16177   2.319   2.492   0.536 -0.3609 -0.2529 -0.2337
 1573SOL    HW116178   2.232   2.483   0.573 -1.0275 -2.5123 -2.3120
 1573SOL    HW216179   2.319   2.577   0.491  0.5979  0.1707  0.5708
 1574SOL     OW16180   2.186   3.689   0.954 -0.5237  0.1668 -0.2275
 1574SOL    HW116181   2.190   3.632   0.876  0.4144 -1.3400  0.9177
 1574SOL    HW216182   2.143   3.771   0.930 -4.4475 -1.2149  2.1322
 1575SOL     OW16183   3.510   2.694   6.193 -0.6643  0.0973 -0.5024
 1575SOL    HW116184   3.470   2.752   6.128 -2.2056 -0.5310 -0.1217
 1575SOL    HW216185   3.447   2.715   6.262 -0.7950 -0.8514 -0.3323
 1576SOL     OW16186   4.452   2.791  14.886 -0.6496  0.1926  0.2575
 1576SOL    HW116187   4.473   2.862  14.947 -0.0243 -0.3942  0.7211
 1576SOL    HW216188   4.382   2.751  14.939 -0.3448 -1.7258 -0.8120
 1577SOL     OW16189   0.059   3.377   2.117  0.4670 -0.4921  0.3319
 1577SOL    HW116190   0.142   3.405   2.156 -0.7839 -0.4098  2.9408
 1577SOL    HW216191   0.083   3.366   2.025  0.5388  0.6993  0.2175
 1578SOL     OW16192   3.688   1.289   0.362 -0.1658 -0.2766  0.0063
 1578SOL    HW116193   3.694   1.377   0.324  2.0555 -1.5566 -2.5983
 1578SOL    HW216194   3.775   1.254   0.346  1.0585  2.0194  1.7925
 1579SOL     OW16195   2.556   4.132   5.145  0.4609  0.2192 -0.5938
 1579SOL    HW116196   2.645   4.167   5.153  0.1302  0.7686  0.7450
 1579SOL    HW216197   2.573   4.071   5.074 -1.6502  0.6736 -1.4822
 1580SOL     OW16198   0.150   1.569   9.257  0.5141 -0.2830  0.4843
 1580SOL    HW116199   0.228   1.616   9.288  0.1163 -0.3956  1.6468
 1580SOL    HW216200   0.099   1.563   9.338  0.5138  1.7389  0.6261
 1581SOL     OW16201   1.949   3.876   5.726  0.0425 -0.6709  0.9393
 1581SOL    HW116202   1.936   3.784   5.750  0.4846 -0.9289  0.1726
 1581SOL    HW216203   2.040   3.875   5.756  0.6338 -0.4741 -0.8584
 1582SOL     OW16204   1.494   1.006   4.301  0.5263  0.0862  0.6245
 1582SOL    HW116205   1.532   0.920   4.320  2.1023  0.9921  1.6087
 1582SOL    HW216206   1.544   1.022   4.221  1.8972  0.9915  1.6595
 1583SOL     OW16207   4.316   3.742   5.538  0.5629  0.6949  0.1657
 1583SOL    HW116208   4.384   3.768   5.476  1.1444 -1.0956  0.0384
 1583SOL    HW216209   4.242   3.799   5.518 -1.0556 -1.1777  0.8535
 1584SOL     OW16210   0.901   0.788   7.681  0.5121 -0.7013  0.5205
 1584SOL    HW116211   0.875   0.751   7.765  0.6115 -1.3905  0.2450
 1584SOL    HW216212   0.899   0.883   7.692  0.4172 -0.2806 -3.0512
 1585SOL     OW16213   4.556   2.741   2.426  0.5318 -0.0458 -0.1356
 1585SOL    HW116214   4.644   2.749   2.463 -0.3597  0.8518  1.8071
 1585SOL    HW216215   4.499   2.782   2.491  1.3696  0.8672  0.0454
 1586SOL     OW16216   2.270   4.062  14.067  0.0580  0.0554  0.1272
 1586SOL    HW116217   2.230   4.142  14.101  2.2171  1.8954 -1.6758
 1586SOL    HW216218   2.341   4.098  14.014 -0.2587 -1.5853 -1.4303
 1587SOL     OW16219   0.020   4.706   6.299  0.2875  0.1879 -0.2306
 1587SOL    HW116220   4.703   0.066   6.282 -1.5848 -0.5411  0.7459
 1587SOL    HW216221   0.111   0.009   6.313  1.0564 -1.6453 -1.6075
 1588SOL     OW16222   1.305   1.155   5.144 -0.2129  0.1806 -0.1295
 1588SOL    HW116223   1.215   1.165   5.111 -0.4044  4.2495  1.7353
 1588SOL    HW216224   1.352   1.145   5.061 -1.1621  1.4885 -0.8180
 1589SOL     OW16225   3.351   4.142   4.612  0.0240 -0.0407  0.3346
 1589SOL    HW116226   3.372   4.073   4.549  4.7457  2.4115 -0.8172
 1589SOL    HW216227   3.293   4.101   4.676  0.7833 -1.1423  0.3187
 1590SOL     OW16228   2.342   3.497  10.114 -0.4247 -0.6953 -0.1573
 1590SOL    HW116229   2.354   3.544  10.196  0.4480  0.1837 -0.7970
 1590SOL    HW216230   2.435   3.475  10.108  0.7395  3.6342  1.6441
 1591SOL     OW16231   0.038   1.095   8.766  0.0720  0.0420 -0.0654
 1591SOL    HW116232   4.678   1.051   8.777  0.5124 -0.4225  1.4739
 1591SOL    HW216233   0.063   1.141   8.846  2.1569 -2.3933  0.7015
 1592SOL     OW16234   0.143   3.456   1.405 -0.3052 -0.2690  0.0736
 1592SOL    HW116235   0.096   3.525   1.358  1.8227  1.6817  0.7934
 1592SOL    HW216236   0.220   3.439   1.351  0.7433  0.8150  1.1920
 1593SOL     OW16237   0.508   4.478   1.586 -0.0375 -0.1589  0.6947
 1593SOL    HW116238   0.541   4.399   1.629  0.8053 -0.6038 -0.7600
 1593SOL    HW216239   0.575   4.542   1.612 -0.1676  0.2778 -0.0650
 1594SOL     OW16240   0.291   1.547   1.592 -0.3643 -0.1322 -0.4596
 1594SOL    HW116241   0.220   1.536   1.655 -1.1661  0.1616 -1.3169
 1594SOL    HW216242   0.357   1.480   1.611 -1.4893 -0.4040  2.5061
 1595SOL     OW16243   2.982   1.299  13.150  0.5236 -0.0117 -0.3004
 1595SOL    HW116244   3.025   1.382  13.168 -1.1751  1.0768 -1.3433
 1595SOL    HW216245   2.894   1.310  13.185  0.0270 -0.4136 -1.4312
 1596SOL     OW16246   4.116   0.677  14.849  0.0190 -0.4989 -0.1010
 1596SOL    HW116247   4.103   0.644  14.761 -0.9808 -1.4892  0.4171
 1596SOL    HW216248   4.202   0.639  14.865  0.7034  1.4572  0.9033
 1597SOL     OW16249   1.075   3.166   6.033  0.2581 -0.1875  0.0415
 1597SOL    HW116250   1.068   3.098   6.101  1.2957  0.1909  0.5375
 1597SOL    HW216251   1.159   3.147   5.990  0.2319 -1.4207  0.5360
 1598SOL     OW16252   2.288   0.573   0.657 -0.5844 -0.5547  0.6439
 1598SOL    HW116253   2.248   0.642   0.711 -0.2211  0.1500  0.0118
 1598SOL    HW216254   2.244   0.494   0.691 -1.9144  0.7377  1.9783
 1599SOL     OW16255   4.702   0.381   2.651 -0.1524  0.3258  0.0527
 1599SOL    HW116256   4.628   0.441   2.656 -2.1298 -2.2717  1.6768
 1599SOL    HW216257   0.043   0.434   2.605 -0.1987 -1.0282 -1.5753
 1600SOL     OW16258   3.852   3.192   5.299 -0.1090  0.2484  0.1605
 1600SOL    HW116259   3.808   3.159   5.220  1.5451 -2.4342  0.3576
 1600SOL    HW216260   3.877   3.277   5.264  3.0345 -1.3174 -1.4030
 1601SOL     OW16261   3.803   0.918   3.468  0.2452 -0.2497 -0.4728
 1601SOL    HW116262   3.809   0.969   3.386 -1.0024  1.9634  0.8246
 1601SOL    HW216263   3.732   0.959   3.518  0.8359 -0.7932  0.8016
 1602SOL     OW16264   4.039   2.682   7.017  0.1022 -0.1049 -0.5218
 1602SOL    HW116265   4.092   2.639   6.950 -0.7846 -2.3798  0.2451
 1602SOL    HW216266   4.043   2.616   7.086  2.0812  1.2286  0.6762
 1603SOL     OW16267   4.271   0.627   9.427  0.0766 -0.2551 -0.2473
 1603SOL    HW116268   4.239   0.537   9.421 -0.7319 -0.0321  0.7021
 1603SOL    HW216269   4.196   0.659   9.476  0.4395 -0.5519  0.5093
 1604SOL     OW16270   3.385   4.284   7.861  0.2667 -0.1134 -0.1291
 1604SOL    HW116271   3.442   4.248   7.929  0.0681 -2.4030 -1.1831
 1604SOL    HW216272   3.395   4.378   7.877  0.1051  0.0263 -0.8364
 1605SOL     OW16273   1.444   1.704   8.112  0.5681  0.1140  0.3504
 1605SOL    HW116274   1.461   1.754   8.192 -1.2339 -0.7659  1.2716
 1605SOL    HW216275   1.491   1.623   8.131  0.1596  0.1291  1.3862
 1606SOL     OW16276   1.266   1.782  11.389  0.0673  0.0491 -0.3413
 1606SOL    HW116277   1.341   1.801  11.445 -1.2892  2.4785  0.6679
 1606SOL    HW216278   1.200   1.784  11.459  0.5043  0.3151  0.0628
 1607SOL     OW16279   2.885   1.589   2.863  0.3760 -0.6003 -0.1303
 1607SOL    HW116280   2.876   1.575   2.768 -1.4326  0.0297 -0.0688
 1607SOL    HW216281   2.870   1.502   2.899 -0.4451 -0.4988 -0.2075
 1608SOL     OW16282   4.005   0.270   3.406  0.1620  0.2641  0.1248
 1608SOL    HW116283   4.019   0.176   3.413 -0.1856  0.1396 -0.9181
 1608SOL    HW216284   3.969   0.278   3.318 -0.1934  1.7241  0.3973
 1609SOL     OW16285   3.098   0.196   5.244  0.2153 -0.2784 -0.7141
 1609SOL    HW116286   3.084   0.106   5.273 -2.5013  0.4106  0.1156
 1609SOL    HW216287   3.080   0.197   5.150  3.2414  1.9137 -1.2834
 1610SOL     OW16288   0.971   2.666   7.607 -0.4125 -0.2870 -0.6633
 1610SOL    HW116289   1.019   2.604   7.553 -1.0042 -1.1511 -0.1968
 1610SOL    HW216290   0.899   2.701   7.554 -2.8778  1.1395  3.6002
 1611SOL     OW16291   2.111   2.850  16.249 -0.2701  0.5326  0.0975
 1611SOL    HW116292   2.156   2.929  16.218  1.1347 -0.3330 -0.0664
 1611SOL    HW216293   2.177   2.795  16.207 -0.0975  0.4372  0.4988
 1612SOL     OW16294   4.427   3.549   4.485 -0.4492 -0.9049  0.1244
 1612SOL    HW116295   4.486   3.505   4.546  2.5490  0.6739 -1.6497
 1612SOL    HW216296   4.449   3.642   4.493 -3.3121 -0.4670  2.9007
 1613SOL     OW16297   4.571   3.337   5.854 -0.3033  0.2400 -0.9068
 1613SOL    HW116298   4.659   3.375   5.865  0.9264 -3.1421  0.8650
 1613SOL    HW216299   4.510   3.403   5.885 -1.4875 -1.3323  0.0777
 1614SOL     OW16300   0.761   0.164   1.136 -0.3841  0.7322  0.0691
 1614SOL    HW116301   0.832   0.111   1.173 -1.7490 -0.1973  1.4025
 1614SOL    HW216302   0.751   0.120   1.052  0.6319  2.0710 -0.7436
 1615SOL     OW16303   0.112   3.446   4.198  0.4483  0.0469 -0.1544
 1615SOL    HW116304   0.155   3.417   4.118 -2.6211  1.1206 -2.1926
 1615SOL    HW216305   0.153   3.386   4.261 -0.7607  0.1690  0.7667
 1616SOL     OW16306   4.539   3.816   3.481 -0.1439  0.1110 -0.1300
 1616SOL    HW116307   4.565   3.908   3.484 -0.0808  0.0081  2.3279
 1616SOL    HW216308   4.616   3.768   3.449 -0.6186  0.0090 -1.1298
 1617SOL     OW16309   3.625   3.605   9.804 -0.0509 -0.1394  0.1986
 1617SOL    HW116310   3.651   3.573   9.890  2.0577 -1.5147 -0.9580
 1617SOL    HW216311   3.581   3.686   9.830 -1.2031 -1.2477  1.7049
 1618SOL     OW16312   2.518   3.424   9.637 -0.3023 -0.3288 -0.3473
 1618SOL    HW116313   2.480   3.339   9.657 -1.0458  0.0929  0.0422
 1618SOL    HW216314   2.459   3.482   9.686 -0.7056 -1.7611  0.8441
 1619SOL     OW16315   1.501   4.380   2.654 -0.3067  0.3483  0.7848
 1619SOL    HW116316   1.449   4.374   2.574 -2.7313 -1.8985  2.5408
 1619SOL    HW216317   1.448   4.325   2.711 -2.6178  1.7539 -0.0283
 1620SOL     OW16318   0.732   2.717  11.479  0.1893  0.7412 -0.0803
 1620SOL    HW116319   0.747   2.623  11.477  0.0024  0.7215 -0.4525
 1620SOL    HW216320   0.815   2.749  11.443 -1.5324  2.4160 -2.5258
 1621SOL     OW16321   1.935   1.826   7.982  0.2999 -0.3552 -0.1348
 1621SOL    HW116322   1.926   1.816   7.887  1.2991  1.6191 -0.4529
 1621SOL    HW216323   1.862   1.776   8.018  1.7005 -1.3979  1.2262
 1622SOL     OW16324   3.354   3.517   1.754  0.0963 -0.2876  0.5672
 1622SOL    HW116325   3.378   3.447   1.816  1.0869  0.1356  0.6736
 1622SOL    HW216326   3.289   3.566   1.805  0.1888  0.3454  0.0709
 1623SOL     OW16327   0.977   3.599   2.331 -0.1394  0.0560  0.4758
 1623SOL    HW116328   0.932   3.529   2.378 -1.2861  0.9373  0.7067
 1623SOL    HW216329   0.920   3.667   2.367 -1.0822  0.5693 -1.9688
 1624SOL     OW16330   4.106   1.002   0.105 -0.3276 -0.0433  0.2926
 1624SOL    HW116331   4.201   1.000   0.104 -0.3687 -1.8487 -0.0156
 1624SOL    HW216332   4.092   1.008   0.011 -0.7184  1.7278  0.4640
 1625SOL     OW16333   3.517   4.121  15.757 -0.0712 -0.0314 -0.5777
 1625SOL    HW116334   3.511   4.216  15.760  0.7636 -0.0142  0.8599
 1625SOL    HW216335   3.444   4.085  15.807  1.5033 -1.9851  0.3393
 1626SOL     OW16336   1.077   1.186   8.840 -0.3641 -0.1365 -0.4762
 1626SOL    HW116337   1.155   1.133   8.830  1.2635  1.6936  2.2917
 1626SOL    HW216338   1.096   1.251   8.773 -1.0289  0.3618 -0.1904
 1627SOL     OW16339   2.355   4.301   5.035  0.2229 -0.1061  0.5001
 1627SOL    HW116340   2.420   4.245   5.078 -0.6304 -0.1255  1.7499
 1627SOL    HW216341   2.338   4.375   5.093  1.0385  0.0382  0.5501
 1628SOL     OW16342   1.594   4.657   8.086  0.2965 -0.5727 -0.2504
 1628SOL    HW116343   1.653   4.582   8.083  0.3089 -0.5797  0.0903
 1628SOL    HW216344   1.506   4.622   8.071 -0.3713  0.2042  1.7470
 1629SOL     OW16345   2.811   3.725   9.006  0.2163 -0.2742  0.4619
 1629SOL    HW116346   2.892   3.718   8.956  1.3252 -2.0221  2.5136
 1629SOL    HW216347   2.830   3.648   9.059 -1.3665 -1.6397 -0.9670
 1630SOL     OW16348   1.908   3.115  10.869 -0.4314  0.4019 -0.1563
 1630SOL    HW116349   1.986   3.064  10.891 -1.9012 -1.2556  1.2793
 1630SOL    HW216350   1.855   3.044  10.832 -2.3322  1.6531  0.1832
 1631SOL     OW16351   4.409   3.887  14.876 -0.0545 -0.1763 -0.0632
 1631SOL    HW116352   4.502   3.868  14.889  0.8041  1.3975 -3.9252
 1631SOL    HW216353   4.394   3.936  14.956  0.1246 -1.1761  0.5803
 1632SOL     OW16354   0.946   4.156   6.802  0.0872  0.2339  0.3312
 1632SOL    HW116355   1.037   4.186   6.792 -0.6339  2.5423  0.6516
 1632SOL    HW216356   0.909   4.176   6.716  0.0481 -2.3698 -0.2443
 1633SOL     OW16357   4.121   2.231   3.815  0.2411 -0.1159 -0.1429
 1633SOL    HW116358   4.037   2.276   3.805 -1.1600 -2.7885 -0.4349
 1633SOL    HW216359   4.125   2.194   3.727 -1.1176  0.6141 -0.5095
 1634SOL     OW16360   0.699   0.267   6.844  0.5091  0.4020 -0.1074
 1634SOL    HW116361   0.683   0.205   6.916 -1.6642  0.9462 -0.1088
 1634SOL    HW216362   0.648   0.229   6.772 -0.0420 -0.6308  0.8118
 1635SOL     OW16363   3.972   3.536  17.134  0.3908  0.3195 -0.5919
 1635SOL    HW116364   3.940   3.626  17.140 -2.7262 -0.8210 -0.2276
 1635SOL    HW216365   3.986   3.515  17.226  1.5175 -2.3454 -1.3704
 1636SOL     OW16366   3.806   4.285   2.046 -0.6005 -0.3827  0.6092
 1636SOL    HW116367   3.864   4.361   2.044 -1.1476 -0.0539 -1.8587
 1636SOL    HW216368   3.875   4.225   2.075 -1.3158 -1.7851 -0.6196
 1637SOL     OW16369   0.870   2.167   3.029 -0.6720 -0.2820  0.0659
 1637SOL    HW116370   0.904   2.255   3.049  0.8047 -1.0933  1.1311
 1637SOL    HW216371   0.792   2.188   2.978 -1.1495  0.4065  1.0724
 1638SOL     OW16372   0.184   0.740   1.676 -0.2204  0.1504  0.3855
 1638SOL    HW116373   0.264   0.793   1.680  0.1817 -0.6127  2.4220
 1638SOL    HW216374   0.150   0.766   1.761  2.9588 -1.6713  2.2347
 1639SOL     OW16375   3.968   0.456  17.341  0.6401 -0.2306 -0.3835
 1639SOL    HW116376   3.948   0.371  17.380  0.5753 -0.5243 -1.0481
 1639SOL    HW216377   3.888   0.506  17.355 -0.1810 -1.6222 -0.1185
 1640SOL     OW16378   4.611   0.952   6.962 -0.0159  0.1500  0.7548
 1640SOL    HW116379   4.577   0.969   6.874 -0.3114  0.0771  0.8551
 1640SOL    HW216380   4.609   1.045   6.986 -0.6886  0.1023  0.8732
 1641SOL     OW16381   3.533   1.941  12.898 -0.6172  0.0389 -0.2784
 1641SOL    HW116382   3.521   2.036  12.909 -1.1588 -0.0906  0.2737
 1641SOL    HW216383   3.477   1.920  12.823  1.7143 -0.8209 -1.7783
 1642SOL     OW16384   3.093   0.255  13.198 -0.5785 -0.1063 -0.4131
 1642SOL    HW116385   3.138   0.276  13.280  0.4279  0.0180 -0.9888
 1642SOL    HW216386   3.074   0.162  13.190  0.5075 -0.4546  1.2300
 1643SOL     OW16387   0.284   3.781   2.978 -0.1973  0.0916  0.3752
 1643SOL    HW116388   0.362   3.793   2.923  0.0435 -0.6027  0.5534
 1643SOL    HW216389   0.303   3.696   3.018  2.0112  0.0894 -0.6218
 1644SOL     OW16390   4.425   2.438   1.504 -0.3231  0.0557  0.4805
 1644SOL    HW116391   4.343   2.422   1.458 -1.4435  0.3580  2.3946
 1644SOL    HW216392   4.419   2.532   1.520  1.8253  0.2547  0.1500
 1645SOL     OW16393   1.013   4.303   0.972 -0.1351  0.1285 -0.2311
 1645SOL    HW116394   1.003   4.288   0.878 -0.5800 -1.0532  0.0067
 1645SOL    HW216395   1.104   4.334   0.981 -0.9640  1.7308  2.4061
 1646SOL     OW16396   0.476   4.594   2.330 -0.0334  0.6149  0.0891
 1646SOL    HW116397   0.413   4.556   2.390 -0.0700  1.1186  0.3645
 1646SOL    HW216398   0.554   4.585   2.385  1.2001  1.2357 -1.5500
 1647SOL     OW16399   2.475   1.591  11.876 -0.2257 -0.1568  0.8257
 1647SOL    HW116400   2.525   1.539  11.814  1.1313  0.0438  1.7523
 1647SOL    HW216401   2.509   1.561  11.961  1.8286 -0.5201 -0.1389
 1648SOL     OW16402   2.744   3.094   4.289  0.7315  0.5143 -0.0577
 1648SOL    HW116403   2.790   3.163   4.242  3.0543 -0.2448  1.1282
 1648SOL    HW216404   2.670   3.148   4.317 -0.2137 -0.6593 -0.3117
 1649SOL     OW16405   3.162   1.952   4.441  0.3929  0.0229  0.1489
 1649SOL    HW116406   3.223   1.988   4.506  0.7325 -2.5969  1.2984
 1649SOL    HW216407   3.184   1.859   4.452  0.5913  0.4376  3.2235
 1650SOL     OW16408   1.341   3.424   2.345  0.1531 -0.4206 -0.2137
 1650SOL    HW116409   1.357   3.511   2.383  1.0970 -0.6227 -0.1546
 1650SOL    HW216410   1.395   3.366   2.399  1.4973  0.3672 -0.7136
 1651SOL     OW16411   3.742   4.359   6.917  0.9057 -0.0716 -0.0401
 1651SOL    HW116412   3.732   4.349   7.012 -2.6297  1.4929 -0.2584
 1651SOL    HW216413   3.788   4.285   6.876  2.5881  0.5167  0.7653
 1652SOL     OW16414   2.890   2.024   6.810 -0.2494  0.0204  0.1380
 1652SOL    HW116415   2.955   1.962   6.778  0.6750  0.9390  0.2248
 1652SOL    HW216416   2.847   2.014   6.725 -0.7064 -1.1387  0.5045
 1653SOL     OW16417   1.475   1.422   7.604  0.1169  0.0771 -0.3628
 1653SOL    HW116418   1.563   1.415   7.640 -0.4260 -0.5381  0.8451
 1653SOL    HW216419   1.431   1.468   7.675 -0.8766 -0.8399 -0.3844
 1654SOL     OW16420   0.445   1.248   0.794  0.0044 -0.3269  0.0933
 1654SOL    HW116421   0.431   1.281   0.706 -0.3678  1.4000  0.8036
 1654SOL    HW216422   0.523   1.194   0.784 -1.0658 -1.8605 -0.1037
 1655SOL     OW16423   4.650   2.120   6.793  0.1120  0.3583 -0.1234
 1655SOL    HW116424   4.590   2.192   6.773 -1.1934 -0.7260 -0.1401
 1655SOL    HW216425   4.675   2.140   6.883  0.7476  0.0875 -0.2370
 1656SOL     OW16426   1.543   2.589   8.279 -0.2891  0.3045 -0.0333
 1656SOL    HW116427   1.531   2.679   8.247 -0.3417  1.3039  2.7741
 1656SOL    HW216428   1.624   2.565   8.235 -0.2968 -0.4949  0.3930
 1657SOL     OW16429   1.947   3.814   8.695 -0.1909 -0.1227 -0.2908
 1657SOL    HW116430   1.939   3.836   8.788  1.0612  0.2601 -0.2647
 1657SOL    HW216431   2.001   3.887   8.664  0.2399  0.3425  1.5395
 1658SOL     OW16432   2.227   3.301  16.494 -0.1212 -0.0000 -0.0341
 1658SOL    HW116433   2.147   3.282  16.544 -0.2342 -0.7338 -0.4737
 1658SOL    HW216434   2.226   3.396  16.496 -1.0667 -0.0125  0.3670
 1659SOL     OW16435   1.841   0.693   2.350  0.6738 -0.4759  0.2293
 1659SOL    HW116436   1.810   0.604   2.366 -1.5896 -0.4024 -3.8366
 1659SOL    HW216437   1.932   0.681   2.321  0.9539 -1.4382  1.4919
 1660SOL     OW16438   0.547   2.489   2.326  0.0846 -0.1960  0.3541
 1660SOL    HW116439   0.531   2.469   2.418 -2.5961  0.3924  0.0170
 1660SOL    HW216440   0.586   2.405   2.301  2.8690  0.5326  2.2817
 1661SOL     OW16441   2.894   4.117   1.921  0.1935 -0.0343 -0.0386
 1661SOL    HW116442   2.811   4.088   1.960  0.4905 -1.0684 -0.1807
 1661SOL    HW216443   2.852   4.163   1.848  1.4063  0.2646 -0.5334
 1662SOL     OW16444   0.483   3.156   2.773 -0.3068  0.1807 -0.1261
 1662SOL    HW116445   0.388   3.147   2.767 -0.3104  1.5143 -2.1577
 1662SOL    HW216446   0.509   3.107   2.695  0.5251  4.2301 -2.4025
 1663SOL     OW16447   3.955   3.598   4.990 -0.1470  0.2150  0.0534
 1663SOL    HW116448   4.030   3.657   4.983 -1.1131  1.6809  2.3029
 1663SOL    HW216449   3.904   3.629   4.915 -0.3519 -1.6380 -0.5676
 1664SOL     OW16450   4.136   1.324   2.043 -0.5903 -0.3943 -0.0758
 1664SOL    HW116451   4.187   1.300   1.965  1.2154  0.2730  0.9115
 1664SOL    HW216452   4.179   1.401   2.080  1.1306 -0.0115 -2.8306
 1665SOL     OW16453   4.705   2.682   8.081  0.4913  0.1279 -0.3724
 1665SOL    HW116454   4.714   2.773   8.107 -1.2781 -0.1143  1.1070
 1665SOL    HW216455   0.004   2.687   7.989  1.6536  0.7517 -0.0479
 1666SOL     OW16456   0.740   4.484   0.107  0.0407 -0.7438 -0.2886
 1666SOL    HW116457   0.768   4.393   0.094 -0.1898 -0.5787 -2.0059
 1666SOL    HW216458   0.759   4.503   0.199  3.4317  2.2957 -1.6407
 1667SOL     OW16459   4.337   1.610   4.235 -0.2955 -0.2645 -0.1879
 1667SOL    HW116460   4.420   1.631   4.279 -0.4833 -2.0522  1.0080
 1667SOL    HW216461   4.364   1.595   4.145  0.7615  3.0107 -0.4449
 1668SOL     OW16462   3.728   1.873   3.120  0.2357 -0.0565 -0.2941
 1668SOL    HW116463   3.646   1.879   3.070  1.8907  0.1663 -2.9713
 1668SOL    HW216464   3.684   1.886   3.204  1.6518 -1.7599  0.7079
 1669SOL     OW16465   1.504   2.144   9.575  0.2085  0.0695 -0.4110
 1669SOL    HW116466   1.542   2.167   9.490  1.0582 -0.2066 -0.1177
 1669SOL    HW216467   1.468   2.057   9.559  1.0996 -0.3908  0.0511
 1670SOL     OW16468   1.694   2.912   6.805  0.6020 -0.3467  0.3529
 1670SOL    HW116469   1.730   2.831   6.768  0.0589 -0.3675 -0.1279
 1670SOL    HW216470   1.776   2.962   6.807  1.3269 -1.6688  3.3648
 1671SOL     OW16471   1.930   0.976  16.385 -0.7786  0.4074 -0.3659
 1671SOL    HW116472   1.843   0.966  16.346 -2.3078 -1.1277  3.3929
 1671SOL    HW216473   1.978   0.970  16.303 -1.7366 -1.3654 -0.7880
 1672SOL     OW16474   3.593   2.430   4.557 -0.6061  0.2430  0.8535
 1672SOL    HW116475   3.684   2.402   4.550 -1.0750 -1.0017 -0.3442
 1672SOL    HW216476   3.571   2.393   4.643  1.6952  0.9901  1.7784
 1673SOL     OW16477   0.007   3.057   7.116  0.4230 -0.2562  0.2580
 1673SOL    HW116478   4.671   3.036   7.187  1.5311 -1.1040  0.9359
 1673SOL    HW216479   4.679   3.025   7.043 -0.5458 -1.3025  1.4139
 1674SOL     OW16480   2.097   3.120   4.572 -0.1394 -0.2672  0.2393
 1674SOL    HW116481   2.193   3.122   4.561  0.1905  1.3691  3.3886
 1674SOL    HW216482   2.081   3.197   4.626 -1.4477 -0.8685  0.6870
 1675SOL     OW16483   4.105   0.662   2.597 -0.0674  0.2201 -0.6401
 1675SOL    HW116484   4.062   0.623   2.521  0.1675  1.9061 -1.6517
 1675SOL    HW216485   4.037   0.644   2.662  2.8812 -2.7237  1.6061
 1676SOL     OW16486   0.489   4.265   3.505  0.4489  0.1710 -0.6745
 1676SOL    HW116487   0.571   4.307   3.479  1.2748 -0.0508  1.5656
 1676SOL    HW216488   0.500   4.196   3.440 -0.4792  1.5446 -2.2584
 1677SOL     OW16489   2.003   1.842  10.691 -0.5098  0.2657  0.3323
 1677SOL    HW116490   2.058   1.913  10.723 -0.3584 -0.4508  1.6782
 1677SOL    HW216491   2.061   1.768  10.708 -0.9901 -0.3081 -0.5352
 1678SOL     OW16492   0.149   4.721   0.632  0.0979 -0.2773 -0.0248
 1678SOL    HW116493   0.156   0.088   0.606 -1.2630  0.0502  0.7887
 1678SOL    HW216494   0.086   4.723   0.704 -0.9748  2.5754 -1.0543
 1679SOL     OW16495   3.989   1.096   2.336 -0.3323  0.4024 -0.2221
 1679SOL    HW116496   4.078   1.094   2.370 -0.7363  1.4201  0.8925
 1679SOL    HW216497   3.951   1.083   2.423 -1.1427  3.1158 -0.1695
 1680SOL     OW16498   2.886   4.195   3.140 -0.4662 -0.2679 -0.0530
 1680SOL    HW116499   2.953   4.258   3.165 -1.4870 -0.5550  3.3200
 1680SOL    HW216500   2.942   4.126   3.104  0.2352  0.9351 -1.2745
 1681SOL     OW16501   1.548   1.976   4.809 -0.1703 -0.1826  0.1205
 1681SOL    HW116502   1.469   2.029   4.819 -1.3941 -1.8424 -0.7322
 1681SOL    HW216503   1.563   1.934   4.894  0.1817 -0.6249 -0.1587
 1682SOL     OW16504   2.018   4.273   5.059  0.2811  0.4542  0.1685
 1682SOL    HW116505   2.090   4.227   5.103  0.6229  1.6003  0.8132
 1682SOL    HW216506   1.941   4.252   5.111  0.7275  0.2324  0.7411
 1683SOL     OW16507   2.270   1.599   0.848 -0.2199  0.2029 -0.6592
 1683SOL    HW116508   2.353   1.634   0.880 -1.5933  2.6698  0.2509
 1683SOL    HW216509   2.208   1.607   0.921  0.7461 -0.5027  0.2333
 1684SOL     OW16510   0.898   4.245   2.200  0.1267 -0.2039  0.3023
 1684SOL    HW116511   0.961   4.310   2.228  0.5414 -0.5545  0.1814
 1684SOL    HW216512   0.860   4.222   2.285  1.4471 -0.0729  0.9149
 1685SOL     OW16513   2.285   1.097   8.264 -0.1695 -0.0885  0.2268
 1685SOL    HW116514   2.265   1.114   8.172  1.6456  0.8215  0.0041
 1685SOL    HW216515   2.329   1.012   8.259 -0.0925 -0.1420  1.6038
 1686SOL     OW16516   4.590   3.380  11.314 -0.2918  0.3239 -0.2899
 1686SOL    HW116517   4.598   3.385  11.409 -0.8714  0.4640 -0.2482
 1686SOL    HW216518   4.669   3.424  11.283  0.8726 -2.2572 -0.9706
 1687SOL     OW16519   0.201   3.873   7.380  0.4173 -0.1595  0.1206
 1687SOL    HW116520   0.252   3.864   7.300 -2.6955  4.2891 -2.3850
 1687SOL    HW216521   0.115   3.885   7.339 -0.2622  1.0140  1.8679
 1688SOL     OW16522   1.195   0.510   8.068 -0.3141 -0.0353  0.1874
 1688SOL    HW116523   1.139   0.459   8.127  0.6999 -1.0534  0.2635
 1688SOL    HW216524   1.130   0.519   7.999 -1.0386  1.2006  1.0151
 1689SOL     OW16525   3.338   2.079   2.859 -0.1604  0.2273  0.0068
 1689SOL    HW116526   3.340   2.166   2.819 -0.0128  0.7662  1.1952
 1689SOL    HW216527   3.397   2.018   2.815 -0.4127  0.3021 -0.4383
 1690SOL     OW16528   1.257   1.964   2.159 -0.2579 -0.1886  0.5908
 1690SOL    HW116529   1.349   1.984   2.145 -0.5915 -1.1893 -3.0564
 1690SOL    HW216530   1.264   1.869   2.151  0.6507 -0.1912  1.5052
 1691SOL     OW16531   4.616   0.361  10.645 -0.9015  0.4980  0.4666
 1691SOL    HW116532   4.572   0.440  10.676 -2.2241  0.3911 -1.1069
 1691SOL    HW216533   4.567   0.294  10.692 -0.3629 -0.6109 -0.5254
 1692SOL     OW16534   3.407   3.496   0.187 -0.6220 -0.1090  0.1222
 1692SOL    HW116535   3.432   3.545   0.265  2.0605 -0.5725 -0.4558
 1692SOL    HW216536   3.374   3.417   0.230  0.0853 -1.0318 -1.0010
 1693SOL     OW16537   1.748   3.283   7.100  0.1509  0.1251  0.2581
 1693SOL    HW116538   1.721   3.199   7.137 -0.3475 -0.3992 -1.3038
 1693SOL    HW216539   1.812   3.325   7.157  3.3635 -1.0828 -2.4516
 1694SOL     OW16540   4.014   3.799   3.626  0.2180 -0.1946 -0.2354
 1694SOL    HW116541   3.962   3.856   3.569  0.3598  1.7682  1.5720
 1694SOL    HW216542   4.103   3.832   3.614  0.0790  0.2338 -0.1038
 1695SOL     OW16543   4.664   4.611   3.778  0.6311 -0.0339  0.0680
 1695SOL    HW116544   4.661   4.524   3.737 -0.3838  0.6080 -1.2071
 1695SOL    HW216545   0.034   4.622   3.792  1.2087 -2.8068 -1.5083
 1696SOL     OW16546   1.610   3.517   2.379 -0.2283  0.1870 -0.4878
 1696SOL    HW116547   1.690   3.495   2.427  0.1951  1.1869 -0.7289
 1696SOL    HW216548   1.631   3.496   2.288 -1.2912  0.9529 -0.9124
 1697SOL     OW16549   4.023   0.631   9.151 -0.3203 -0.7079  0.3592
 1697SOL    HW116550   4.117   0.645   9.145 -0.5230  0.7870  0.7862
 1697SOL    HW216551   4.006   0.709   9.204 -1.4884 -0.4911 -0.3365
 1698SOL     OW16552   2.624   1.974   5.627  0.3903 -0.3015 -0.5070
 1698SOL    HW116553   2.685   2.032   5.582  1.0207 -1.8356 -1.6404
 1698SOL    HW216554   2.679   1.896   5.638  0.5402  0.0167  1.0864
 1699SOL     OW16555   2.327   1.572  14.476  0.0191  0.4293  0.2992
 1699SOL    HW116556   2.334   1.639  14.408  2.4251  0.7761  0.8862
 1699SOL    HW216557   2.260   1.516  14.438  1.3634 -0.4366 -0.8046
 1700SOL     OW16558   2.651   2.339   7.694  0.4829 -0.1319  0.2561
 1700SOL    HW116559   2.688   2.277   7.757 -2.0923 -1.6969  0.2027
 1700SOL    HW216560   2.558   2.319   7.700  0.6209 -0.9483 -0.3503
 1701SOL     OW16561   1.958   2.732   2.061 -0.0623  0.2065  0.4576
 1701SOL    HW116562   1.871   2.770   2.050  0.4090  1.1658  0.0427
 1701SOL    HW216563   1.952   2.637   2.052  3.4149  0.1639 -1.3330
 1702SOL     OW16564   1.250   0.144   1.286  0.5685 -0.0486 -0.1789
 1702SOL    HW116565   1.193   0.182   1.219 -0.2704 -2.2198 -0.7086
 1702SOL    HW216566   1.289   0.075   1.232  0.3088 -0.2351 -0.1284
 1703SOL     OW16567   0.888   3.254  10.967 -0.1911  0.3975  0.1597
 1703SOL    HW116568   0.802   3.269  11.007  0.0815  0.4060  0.7359
 1703SOL    HW216569   0.877   3.170  10.923 -2.0151  0.0457  1.2845
 1704SOL     OW16570   0.662   1.065   7.037  0.7363  0.1828  0.5577
 1704SOL    HW116571   0.640   1.068   7.130 -0.2210 -0.0078  0.3339
 1704SOL    HW216572   0.755   1.040   7.041  0.8431  0.0871 -2.6411
 1705SOL     OW16573   0.597   0.566   3.487  0.0374  0.2121 -0.1015
 1705SOL    HW116574   0.612   0.574   3.581 -0.9183  1.5364 -0.0616
 1705SOL    HW216575   0.685   0.578   3.452 -0.3667  0.5797 -1.0035
 1706SOL     OW16576   1.259   4.648   2.519 -0.6244  0.0728  0.9279
 1706SOL    HW116577   1.326   4.650   2.587 -0.2377  0.6144  0.5297
 1706SOL    HW216578   1.187   4.601   2.562 -0.6459 -1.0959 -0.3893
 1707SOL     OW16579   0.899   0.172   8.974 -0.3613  0.2804 -0.6737
 1707SOL    HW116580   0.871   0.184   8.883  2.4423 -1.6995 -1.7766
 1707SOL    HW216581   0.994   0.178   8.971 -0.1804 -0.8077  2.9412
 1708SOL     OW16582   0.917   2.928   1.933 -0.5576  0.3058  0.5904
 1708SOL    HW116583   0.853   2.956   1.999 -0.8950 -0.6670  0.6776
 1708SOL    HW216584   1.001   2.926   1.980  0.1458  2.2071 -0.6049
 1709SOL     OW16585   2.883   1.144  16.643  0.9197 -0.2744  0.2224
 1709SOL    HW116586   2.873   1.083  16.717  0.2101 -1.4153 -0.8260
 1709SOL    HW216587   2.799   1.190  16.648  0.8280 -0.3288 -0.8689
 1710SOL     OW16588   1.645   4.630  11.377  0.7092  0.6075  0.6371
 1710SOL    HW116589   1.588   4.553  11.372 -0.0486  1.2381 -0.3977
 1710SOL    HW216590   1.606   4.684  11.308  0.4304  0.0205  0.3368
 1711SOL     OW16591   3.878   4.629   9.652  0.7539 -0.2048 -0.0396
 1711SOL    HW116592   3.813   4.696   9.674  0.4360 -0.1603 -1.1083
 1711SOL    HW216593   3.901   4.584   9.733 -0.2035 -2.3752 -0.9632
 1712SOL     OW16594   3.439   2.671  14.816 -0.0990 -0.1546 -0.2939
 1712SOL    HW116595   3.529   2.644  14.797 -0.5836 -1.7148 -0.3632
 1712SOL    HW216596   3.439   2.758  14.776 -1.9368 -0.3257 -0.6629
 1713SOL     OW16597   0.444   3.963   1.909  0.1111 -0.8073  0.1390
 1713SOL    HW116598   0.489   3.961   1.993  1.6830  1.2372 -0.6339
 1713SOL    HW216599   0.482   4.042   1.871  1.8913 -1.2264  1.0495
 1714SOL     OW16600   1.000   2.232   6.088 -0.0231 -0.4072  0.0504
 1714SOL    HW116601   0.927   2.251   6.148  0.4315  1.6490 -0.0399
 1714SOL    HW216602   1.074   2.283   6.121  0.0694 -0.9334  0.6608
 1715SOL     OW16603   4.249   4.130   9.681  0.0503  0.0283 -0.0475
 1715SOL    HW116604   4.158   4.109   9.705  0.0643 -2.3845 -2.0821
 1715SOL    HW216605   4.244   4.224   9.666  1.0347 -0.2496 -2.2012
 1716SOL     OW16606   2.130   2.155   7.882 -0.1518  0.4446  0.1101
 1716SOL    HW116607   2.170   2.078   7.843  1.7123  1.2017  0.4913
 1716SOL    HW216608   2.064   2.182   7.818 -0.7299  0.5386  0.7436
 1717SOL     OW16609   0.839   1.749   7.578  0.3440  0.0878 -0.0920
 1717SOL    HW116610   0.918   1.776   7.626 -0.0599  0.4827  0.3472
 1717SOL    HW216611   0.813   1.674   7.632  0.6481  0.6932  0.9101
 1718SOL     OW16612   3.487   3.378   5.429 -0.7087  0.4303 -0.0540
 1718SOL    HW116613   3.454   3.288   5.434 -0.7111  0.4604  0.5707
 1718SOL    HW216614   3.569   3.365   5.382  0.3666  2.0943  1.3618
 1719SOL     OW16615   2.217   4.236   6.314 -0.1623 -0.2845  0.5593
 1719SOL    HW116616   2.289   4.293   6.340  1.9829 -2.4123 -0.6178
 1719SOL    HW216617   2.203   4.258   6.222 -1.5497  3.7234  1.7698
 1720SOL     OW16618   0.133   1.295   7.382 -0.4466  0.0776 -0.0427
 1720SOL    HW116619   0.062   1.237   7.356 -1.8799  0.8236  2.1713
 1720SOL    HW216620   0.195   1.226   7.405  1.3992  1.6897 -0.1601
 1721SOL     OW16621   4.461   0.788   7.775  0.0361 -0.8168 -0.7031
 1721SOL    HW116622   4.536   0.734   7.751  0.5471 -0.2743 -0.3079
 1721SOL    HW216623   4.480   0.802   7.868 -5.0491  0.2325  0.1898
 1722SOL     OW16624   1.872   1.474   8.515 -0.1615  0.1365 -0.3873
 1722SOL    HW116625   1.851   1.385   8.488  2.1543  0.3767 -3.0542
 1722SOL    HW216626   1.964   1.491   8.497 -0.0617 -0.9559 -0.9176
 1723SOL     OW16627   0.888   4.090   1.671 -0.4880 -0.2131 -0.2042
 1723SOL    HW116628   0.887   4.116   1.763  0.6191  1.0342 -0.5388
 1723SOL    HW216629   0.962   4.030   1.682 -0.9180 -1.1007 -2.0086
 1724SOL     OW16630   2.259   1.257   6.017  0.1874  0.3304 -0.1886
 1724SOL    HW116631   2.164   1.256   6.027  0.5666 -0.2865  3.2079
 1724SOL    HW216632   2.295   1.323   6.077  0.8469 -1.4273  1.3413
 1725SOL     OW16633   0.433   0.816  13.338 -0.2665  0.0113 -0.7207
 1725SOL    HW116634   0.337   0.817  13.338 -0.2590  0.1124  1.3818
 1725SOL    HW216635   0.455   0.773  13.255 -1.4120 -1.1897 -0.3971
 1726SOL     OW16636   2.994   4.190   6.621 -1.1841  0.5651 -0.1089
 1726SOL    HW116637   2.953   4.171   6.537 -1.4528  1.3969 -0.1706
 1726SOL    HW216638   3.072   4.135   6.612 -0.1490  1.9600  0.1780
 1727SOL     OW16639   2.749   4.139   7.702 -0.1454 -0.1041  0.0128
 1727SOL    HW116640   2.702   4.056   7.707 -0.8517  0.2635 -0.5841
 1727SOL    HW216641   2.737   4.163   7.610 -2.1003  1.9606  0.8043
 1728SOL     OW16642   3.880   4.288   4.600  0.1717 -0.1820  0.7291
 1728SOL    HW116643   3.936   4.212   4.585  0.5357  0.4321 -1.0671
 1728SOL    HW216644   3.796   4.256   4.633 -0.0406 -1.2231 -0.7671
 1729SOL     OW16645   2.770   2.781   3.224  0.4657 -0.3743 -0.1127
 1729SOL    HW116646   2.763   2.759   3.131 -1.4524  0.3194 -0.1461
 1729SOL    HW216647   2.754   2.698   3.269  0.6533 -0.2896  0.1098
 1730SOL     OW16648   4.219   0.373   6.091  0.7567  0.7491  0.2429
 1730SOL    HW116649   4.144   0.320   6.116  2.2758 -1.0043  1.0847
 1730SOL    HW216650   4.182   0.461   6.096  0.1790  0.6071 -1.6896
 1731SOL     OW16651   0.572   3.553  14.169 -0.3941  0.3816 -0.0730
 1731SOL    HW116652   0.563   3.648  14.170 -3.0502  0.1152  0.9942
 1731SOL    HW216653   0.578   3.543  14.074  0.2496  0.0973 -0.0018
 1732SOL     OW16654   3.038   4.003   7.522  0.0705  0.6634  0.0971
 1732SOL    HW116655   3.022   3.909   7.519 -0.4817  0.7791 -0.4768
 1732SOL    HW216656   2.952   4.042   7.506 -0.0373 -0.2840 -1.6534
 1733SOL     OW16657   3.341   1.273  15.937  0.6619  0.5135 -0.5965
 1733SOL    HW116658   3.392   1.218  15.878  1.6793  0.1349  0.6142
 1733SOL    HW216659   3.259   1.253  15.893 -0.3306  0.6424  1.1691
 1734SOL     OW16660   3.233   0.351   3.498  0.0857 -0.4445 -0.2076
 1734SOL    HW116661   3.236   0.310   3.585 -3.6431  4.4545  2.2300
 1734SOL    HW216662   3.324   0.377   3.483 -1.4172  2.9732 -3.2971
 1735SOL     OW16663   4.252   2.468   8.679 -0.1347  0.1922  0.4014
 1735SOL    HW116664   4.191   2.463   8.606  1.2503 -2.8109 -0.5311
 1735SOL    HW216665   4.189   2.457   8.751 -1.7201  0.3423 -0.9770
 1736SOL     OW16666   1.833   2.765   0.034 -0.2630 -0.0824  0.1182
 1736SOL    HW116667   1.812   2.696   0.097 -0.1040  0.1933  0.4757
 1736SOL    HW216668   1.921   2.731   0.019 -0.1021 -0.9035  2.8266
 1737SOL     OW16669   2.226   1.965   7.381  0.2190 -0.1413 -0.2293
 1737SOL    HW116670   2.296   1.988   7.321  0.4545  0.3351  0.2339
 1737SOL    HW216671   2.183   1.889   7.341 -0.9493  0.4087 -0.0174
 1738SOL     OW16672   2.009   4.465   1.664  0.3745 -0.3031 -0.2977
 1738SOL    HW116673   2.030   4.389   1.610 -2.7240 -0.7129 -0.9302
 1738SOL    HW216674   2.093   4.511   1.667  0.6276 -0.7721 -0.2165
 1739SOL     OW16675   3.078   3.065  13.281 -0.2151 -0.4251  0.1941
 1739SOL    HW116676   2.993   3.096  13.249 -0.8767 -0.2637  2.1050
 1739SOL    HW216677   3.136   3.072  13.205 -0.4648 -0.1942  0.0201
 1740SOL     OW16678   0.482   0.962   8.248 -0.1786  0.1562  0.0526
 1740SOL    HW116679   0.537   0.994   8.176  1.4650  1.0892  1.7031
 1740SOL    HW216680   0.525   0.881   8.276 -1.1594 -0.6817 -0.8768
 1741SOL     OW16681   1.966   0.132   5.078  0.1859  0.3090  0.0377
 1741SOL    HW116682   1.909   0.206   5.100 -0.4296 -0.5546  1.4043
 1741SOL    HW216683   1.908   0.055   5.078  0.6080 -0.0041 -1.9667
 1742SOL     OW16684   1.355   2.643   1.968 -0.2535  0.5731 -0.2138
 1742SOL    HW116685   1.303   2.563   1.970 -0.5477  0.7270 -2.4510
 1742SOL    HW216686   1.398   2.655   1.883 -2.6877 -0.4419 -1.5704
 1743SOL     OW16687   3.841   0.987   2.569  0.2661 -0.4097 -0.3131
 1743SOL    HW116688   3.827   0.936   2.489  0.7244 -2.5570  0.9764
 1743SOL    HW216689   3.755   1.025   2.589  1.6695  2.4113  0.2712
 1744SOL     OW16690   0.852   1.708  10.155 -0.0044 -0.0503 -0.0605
 1744SOL    HW116691   0.818   1.757  10.080 -2.2001 -0.8668  0.3990
 1744SOL    HW216692   0.923   1.656  10.117  0.5989  0.7455 -0.0274
 1745SOL     OW16693   2.495   3.744   1.802 -0.2435 -0.2676 -0.0514
 1745SOL    HW116694   2.571   3.787   1.763  0.1263 -1.0613 -0.1982
 1745SOL    HW216695   2.523   3.751   1.894 -1.5162 -2.2834  0.4898
 1746SOL     OW16696   0.593   4.239   6.694 -0.6723  0.0060 -0.2437
 1746SOL    HW116697   0.647   4.216   6.769 -1.6074 -1.8543 -0.1436
 1746SOL    HW216698   0.651   4.215   6.621 -1.5102 -0.6349 -0.6975
 1747SOL     OW16699   0.839   3.748   1.050 -0.0383 -1.0535 -0.0729
 1747SOL    HW116700   0.801   3.796   1.123 -0.8575 -0.9098 -0.5933
 1747SOL    HW216701   0.913   3.808   1.042  0.9655 -2.3510 -0.6711
 1748SOL     OW16702   1.283   2.941   1.721 -0.1907 -0.4121 -0.1805
 1748SOL    HW116703   1.241   3.024   1.745  0.7044  0.4342 -1.5225
 1748SOL    HW216704   1.326   2.969   1.640  0.3804  0.3820  0.4012
 1749SOL     OW16705   3.243   3.157   7.160  0.3828  0.1123 -0.2301
 1749SOL    HW116706   3.173   3.114   7.111  0.1170 -0.6155  0.7935
 1749SOL    HW216707   3.320   3.109   7.131  1.3388  2.1398 -1.0928
 1750SOL     OW16708   3.763   1.539  13.204  0.3461 -0.1487  0.0116
 1750SOL    HW116709   3.827   1.482  13.160  0.1544  0.1539 -0.6557
 1750SOL    HW216710   3.724   1.487  13.274  1.3018  0.4890  1.0292
 1751SOL     OW16711   0.161   4.561   1.615 -0.3916  0.0374 -0.4038
 1751SOL    HW116712   0.136   4.474   1.648  0.0925 -0.2560 -0.8100
 1751SOL    HW216713   0.213   4.541   1.537 -1.6035 -1.9593 -0.7125
 1752SOL     OW16714   1.453   1.051   7.060 -0.1361  0.0848  0.5540
 1752SOL    HW116715   1.538   1.018   7.091  0.7001  1.2047 -0.5198
 1752SOL    HW216716   1.395   1.039   7.135 -1.2219  0.2662 -0.2655
 1753SOL     OW16717   2.809   2.506   5.636 -0.7145  0.4725 -0.9963
 1753SOL    HW116718   2.728   2.468   5.672  1.7301 -1.9645  1.9502
 1753SOL    HW216719   2.877   2.463   5.688 -1.1385 -0.6191 -1.3320
 1754SOL     OW16720   4.262   0.175   6.775 -0.0715 -0.3398 -0.1625
 1754SOL    HW116721   4.233   0.259   6.810  3.5156  0.3754  1.0596
 1754SOL    HW216722   4.340   0.164   6.830  0.9946  1.6149 -1.2856
 1755SOL     OW16723   1.901   1.147   2.441  0.4224  0.8348 -0.5276
 1755SOL    HW116724   1.894   1.221   2.381  2.1688  0.6547 -0.9281
 1755SOL    HW216725   1.969   1.099   2.394  0.5759  1.3240 -0.8043
 1756SOL     OW16726   3.940   3.951  11.115  0.3441  0.3090 -0.1242
 1756SOL    HW116727   3.984   3.869  11.091  1.2287  0.7428  0.0170
 1756SOL    HW216728   3.915   3.993  11.033  1.2819  0.6311 -0.2485
 1757SOL     OW16729   4.648   4.180   2.069 -0.7721 -0.0790  0.2836
 1757SOL    HW116730   4.633   4.098   2.021 -0.5818 -1.0573  1.8915
 1757SOL    HW216731   4.636   4.160   2.162 -0.5694  1.4228  0.6262
 1758SOL     OW16732   2.547   0.431   8.906  0.3918  0.0108 -0.3167
 1758SOL    HW116733   2.474   0.414   8.847 -0.0823  1.7582 -0.2123
 1758SOL    HW216734   2.596   0.349   8.901 -0.6397 -0.8030  3.1116
 1759SOL     OW16735   1.331   0.277   1.553  0.2551  0.4049 -0.3108
 1759SOL    HW116736   1.345   0.285   1.458  1.4317  0.0363 -0.1660
 1759SOL    HW216737   1.261   0.341   1.565 -1.3840 -1.8217  2.0169
 1760SOL     OW16738   2.196   4.162  12.458 -0.2259 -0.2866 -0.0161
 1760SOL    HW116739   2.176   4.137  12.368  0.0304  4.4763 -1.3921
 1760SOL    HW216740   2.290   4.176  12.457 -0.1330 -1.0348 -3.2093
 1761SOL     OW16741   1.838   0.003   4.564 -0.5120  0.3647  0.0609
 1761SOL    HW116742   1.781   4.694   4.495  0.0361  0.9828 -0.6862
 1761SOL    HW216743   1.785   0.082   4.569  0.7420  1.1292  1.1533
 1762SOL     OW16744   4.112   3.939   0.164 -0.2544 -0.5644 -0.2520
 1762SOL    HW116745   4.024   3.924   0.130  0.1234 -3.2809 -0.0523
 1762SOL    HW216746   4.130   4.031   0.144  0.8463 -0.8127 -0.4058
 1763SOL     OW16747   0.235   3.671   3.478 -0.1757  0.5031  0.1193
 1763SOL    HW116748   0.260   3.614   3.406 -2.7481 -1.7397  1.0169
 1763SOL    HW216749   0.325   3.672   3.513 -0.0748 -1.5325 -0.1199
 1764SOL     OW16750   2.851   1.868  10.676 -0.4912 -0.1221  0.8584
 1764SOL    HW116751   2.795   1.816  10.733 -0.1617 -0.8783  0.4872
 1764SOL    HW216752   2.900   1.800  10.631  1.8900  1.1537  1.5147
 1765SOL     OW16753   2.787   3.482   7.075  0.0569 -0.3871  0.3195
 1765SOL    HW116754   2.874   3.496   7.037 -0.4677  1.3752 -0.2285
 1765SOL    HW216755   2.811   3.394   7.104  2.5132 -0.0522 -0.6109
 1766SOL     OW16756   3.166   2.354   7.038  0.1635 -0.2467 -0.0848
 1766SOL    HW116757   3.245   2.318   7.078  0.7265  0.0683 -0.9124
 1766SOL    HW216758   3.191   2.411   6.965 -1.4432 -0.1860 -0.5984
 1767SOL     OW16759   2.804   4.443  12.734  0.5165  0.1082  0.4818
 1767SOL    HW116760   2.870   4.513  12.734  1.5240 -0.8462  1.5080
 1767SOL    HW216761   2.744   4.467  12.663  0.7910  0.0302  0.2199
 1768SOL     OW16762   3.182   2.725  17.242  0.2679  0.3293  0.0379
 1768SOL    HW116763   3.133   2.663  17.188  0.4313 -0.3701  0.6817
 1768SOL    HW216764   3.141   2.717  17.328 -0.4546  1.2584 -0.2292
 1769SOL     OW16765   3.559   0.477   2.080 -0.6877  0.3457  0.5219
 1769SOL    HW116766   3.525   0.448   1.995  0.0167  3.4580 -0.8088
 1769SOL    HW216767   3.583   0.566   2.054 -0.6623 -0.2763 -1.6294
 1770SOL     OW16768   1.020   2.916   3.038 -0.0650  0.0709 -0.0364
 1770SOL    HW116769   1.057   2.954   3.118 -0.0733 -0.6267  0.2982
 1770SOL    HW216770   0.935   2.960   3.033  0.0537  0.1975 -0.9763
 1771SOL     OW16771   1.799   2.996  16.379 -0.0529 -0.5821 -0.2545
 1771SOL    HW116772   1.827   3.005  16.470  0.3743  0.4274 -0.4807
 1771SOL    HW216773   1.720   2.947  16.397 -0.4280 -0.2955 -1.1234
 1772SOL     OW16774   0.463   0.500  16.595  0.2199  0.1950  0.2956
 1772SOL    HW116775   0.464   0.432  16.662  0.6418  0.0966  0.1841
 1772SOL    HW216776   0.490   0.452  16.516  1.5315  1.1889  0.1386
 1773SOL     OW16777   3.680   4.483   0.303  0.4260 -0.4438 -0.4673
 1773SOL    HW116778   3.656   4.571   0.273  0.3175 -1.0288 -2.0907
 1773SOL    HW216779   3.762   4.507   0.346  0.4072 -1.7674  0.2917
 1774SOL     OW16780   3.747   4.370   1.635 -0.3736 -0.5701 -0.1754
 1774SOL    HW116781   3.822   4.392   1.691  0.2160 -0.5413 -0.9709
 1774SOL    HW216782   3.797   4.375   1.553 -0.7721  0.0508 -0.3869
 1775SOL     OW16783   2.822   0.607   7.679 -0.2524 -0.3467  0.2100
 1775SOL    HW116784   2.861   0.544   7.619  1.6849  1.7030 -0.6819
 1775SOL    HW216785   2.890   0.622   7.745 -0.5572  4.2914 -0.4969
 1776SOL     OW16786   1.682   2.862   6.308 -0.5757  0.1407 -0.2780
 1776SOL    HW116787   1.603   2.812   6.326 -0.5244  1.0146  2.4478
 1776SOL    HW216788   1.742   2.792   6.287 -1.4491 -0.3938 -0.9718
 1777SOL     OW16789   2.074   2.485   1.476 -0.2018  0.5376 -0.0378
 1777SOL    HW116790   2.071   2.401   1.431 -3.0305  0.8982 -0.5131
 1777SOL    HW216791   2.075   2.551   1.407 -2.0862 -0.5671 -1.1145
 1778SOL     OW16792   0.501   4.014   0.244  0.3645 -0.4118 -0.3596
 1778SOL    HW116793   0.580   3.959   0.246  2.1711  2.2579  1.0640
 1778SOL    HW216794   0.521   4.052   0.158 -1.5528 -3.3732 -2.1359
 1779SOL     OW16795   0.451   1.222   3.461 -0.6540  0.2096 -0.9644
 1779SOL    HW116796   0.478   1.265   3.380  2.3200 -0.1090 -0.1311
 1779SOL    HW216797   0.432   1.293   3.522 -1.8648 -0.1531 -0.9160
 1780SOL     OW16798   4.165   1.546   6.326  0.2199  0.3748  0.0664
 1780SOL    HW116799   4.182   1.453   6.341  1.6248  0.5636 -0.3320
 1780SOL    HW216800   4.233   1.576   6.266 -0.3136  2.4198  0.4775
 1781SOL     OW16801   3.272   1.568   5.939  0.3078 -0.1139 -0.7642
 1781SOL    HW116802   3.233   1.625   6.006  1.2500 -0.0778 -0.2375
 1781SOL    HW216803   3.233   1.486   5.969  0.7082  0.0219  0.1172
 1782SOL     OW16804   0.582   3.601   3.151  0.3637  0.3827  0.0943
 1782SOL    HW116805   0.601   3.563   3.066 -1.7417 -1.6998  0.5562
 1782SOL    HW216806   0.568   3.521   3.202  1.0102  0.4065  0.3015
 1783SOL     OW16807   0.859   3.911   7.963 -0.7400  0.1889  0.2235
 1783SOL    HW116808   0.938   3.939   8.009 -0.3078  0.6947 -0.8162
 1783SOL    HW216809   0.898   3.847   7.904  1.8339  0.3003  1.8171
 1784SOL     OW16810   1.812   4.081   8.237 -0.1535  0.6089  0.3114
 1784SOL    HW116811   1.818   4.033   8.319  0.2361 -0.0749 -0.1168
 1784SOL    HW216812   1.748   4.029   8.188  1.8998 -0.6302 -1.0168
 1785SOL     OW16813   2.581   2.377   8.111 -0.3915 -0.5032 -0.3685
 1785SOL    HW116814   2.510   2.330   8.068 -1.8033 -0.1334  1.6012
 1785SOL    HW216815   2.538   2.430   8.178  0.4010  1.8377 -1.6759
 1786SOL     OW16816   1.681   1.708   4.644 -0.1837 -0.3262 -0.3306
 1786SOL    HW116817   1.745   1.658   4.594  0.6321  1.9295 -1.5355
 1786SOL    HW216818   1.712   1.797   4.630  1.4215 -1.0796 -1.4816
 1787SOL     OW16819   0.686   3.755  14.920 -0.3837  0.1241  0.2328
 1787SOL    HW116820   0.742   3.811  14.974 -0.4787  3.2356 -2.9485
 1787SOL    HW216821   0.712   3.667  14.950 -1.4697 -0.9884 -2.0587
 1788SOL     OW16822   1.644   0.871   5.820  0.0693  0.0284 -0.3163
 1788SOL    HW116823   1.678   0.960   5.823 -0.5476  0.3332 -2.5339
 1788SOL    HW216824   1.678   0.841   5.905 -0.3246  2.6599  0.7663
 1789SOL     OW16825   1.631   1.769   1.437 -0.5096 -0.1498 -0.1559
 1789SOL    HW116826   1.542   1.757   1.470  0.0845 -1.0315  1.1447
 1789SOL    HW216827   1.687   1.723   1.500  1.2706  1.7722 -0.3164
 1790SOL     OW16828   3.830   4.165  15.200 -0.7061 -0.4829 -0.0950
 1790SOL    HW116829   3.835   4.188  15.293  1.3914  1.0761 -0.6120
 1790SOL    HW216830   3.881   4.238  15.167  2.1245 -2.6730 -0.5254
 1791SOL     OW16831   2.851   0.120  11.494 -0.8688 -0.0351 -0.6611
 1791SOL    HW116832   2.802   0.090  11.417  1.5118 -0.3060 -2.0826
 1791SOL    HW216833   2.821   0.073  11.572  0.0291  0.1297 -0.2152
 1792SOL     OW16834   0.006   3.186  12.447 -0.0112  0.1126  0.2443
 1792SOL    HW116835   0.058   3.180  12.367  0.4214 -2.0050  0.6669
 1792SOL    HW216836   0.047   3.113  12.494  1.0567  1.0490  0.7607
 1793SOL     OW16837   2.382   0.474   5.643  0.2711  0.1702  0.1794
 1793SOL    HW116838   2.458   0.462   5.699 -0.2260  1.5330  1.1277
 1793SOL    HW216839   2.360   0.386   5.612  1.4596  0.4330 -1.3999
 1794SOL     OW16840   4.432   0.613   1.314  0.3683 -0.0004  0.1926
 1794SOL    HW116841   4.428   0.643   1.224  0.8125  2.4999  0.9947
 1794SOL    HW216842   4.404   0.694   1.358  0.6245  0.0504  0.2598
 1795SOL     OW16843   1.007   3.984   1.040  0.1718 -0.3307  0.2705
 1795SOL    HW116844   1.085   4.002   1.093  0.6437  0.7404 -0.7589
 1795SOL    HW216845   0.960   4.057   1.080  1.7408  1.2246 -0.6846
 1796SOL     OW16846   2.249   0.784   0.256  0.6468  0.3471  0.0064
 1796SOL    HW116847   2.285   0.725   0.322 -2.3133 -0.0950  1.2224
 1796SOL    HW216848   2.233   0.855   0.319  1.0743  1.1377 -0.7721
 1797SOL     OW16849   2.077   3.094  17.464  0.2500 -0.1357  0.0933
 1797SOL    HW116850   2.117   3.048  17.390  0.1438 -0.6117  0.3325
 1797SOL    HW216851   2.129   3.054  17.533  2.1854 -0.2684 -1.4489
 1798SOL     OW16852   2.706   1.446   7.382 -0.3448  0.4060 -0.8033
 1798SOL    HW116853   2.710   1.467   7.475  2.9299 -0.2606 -0.8146
 1798SOL    HW216854   2.716   1.351   7.392  1.0932  0.4894 -1.4865
 1799SOL     OW16855   0.778   3.321   8.679  0.6315 -0.8142 -0.1214
 1799SOL    HW116856   0.730   3.384   8.733  0.9137  0.3419 -1.2245
 1799SOL    HW216857   0.760   3.235   8.715 -1.0827 -0.4741 -0.2027
 1800SOL     OW16858   3.466   1.730   9.090  0.2546  0.3074 -0.3199
 1800SOL    HW116859   3.497   1.820   9.100 -0.6836  0.4297  1.5307
 1800SOL    HW216860   3.550   1.685   9.095  0.9850  1.6277 -0.5259
 1801SOL     OW16861   1.676   3.604   5.105  0.2987 -0.2206 -0.0316
 1801SOL    HW116862   1.747   3.658   5.071 -0.2397 -0.2945 -1.2691
 1801SOL    HW216863   1.719   3.541   5.163 -3.0380 -3.5045 -1.1208
 1802SOL     OW16864   4.608   3.409   3.839 -0.2617 -0.4689  0.2858
 1802SOL    HW116865   4.576   3.484   3.890 -0.0620  1.4364 -2.4292
 1802SOL    HW216866   4.649   3.356   3.908 -0.6591 -0.6225  0.4087
 1803SOL     OW16867   1.742   0.714   5.066 -0.2274  0.2059  0.4744
 1803SOL    HW116868   1.755   0.767   4.987  0.7025 -0.1263  0.4082
 1803SOL    HW216869   1.801   0.643   5.043  0.0715  0.1929  1.2674
 1804SOL     OW16870   2.716   3.480   3.910 -0.2050 -0.0904  0.0124
 1804SOL    HW116871   2.740   3.569   3.884 -0.0192 -0.6485 -1.7420
 1804SOL    HW216872   2.715   3.436   3.825  0.3961  0.4270 -0.2614
 1805SOL     OW16873   2.695   3.411  14.629  0.1677  0.1041 -0.3761
 1805SOL    HW116874   2.696   3.497  14.672 -1.9742 -0.6823  1.2828
 1805SOL    HW216875   2.755   3.367  14.689 -0.0519  1.8233  1.1187
 1806SOL     OW16876   3.015   1.173   7.050 -0.5518  0.0010  0.4786
 1806SOL    HW116877   3.053   1.113   7.114  2.3841  0.8525 -0.5092
 1806SOL    HW216878   3.085   1.239   7.052 -1.2721  0.7566  1.1541
 1807SOL     OW16879   3.083   2.142   5.730 -0.6931  0.2737 -0.3066
 1807SOL    HW116880   3.084   2.235   5.709  2.9946  0.1685 -0.6713
 1807SOL    HW216881   3.150   2.107   5.672 -0.1869  1.4741 -0.4492
 1808SOL     OW16882   2.549   0.491   6.885  0.0072  0.4240  0.5902
 1808SOL    HW116883   2.548   0.396   6.878 -0.6812  0.4146  0.7666
 1808SOL    HW216884   2.464   0.526   6.857  0.7042  2.9687  1.6464
 1809SOL     OW16885   4.162   0.602   1.601  0.6895  0.4875  0.1499
 1809SOL    HW116886   4.216   0.585   1.679  0.5364  0.9488  0.3528
 1809SOL    HW216887   4.189   0.528   1.546 -0.9934 -0.1022  0.1322
 1810SOL     OW16888   2.482   2.535   7.504 -0.4784 -0.1474 -0.0439
 1810SOL    HW116889   2.432   2.507   7.581 -0.2403  0.5041  0.3527
 1810SOL    HW216890   2.571   2.518   7.535 -0.1933  0.8890 -0.2999
 1811SOL     OW16891   4.523   0.206   1.876  0.1270 -0.6692 -0.2560
 1811SOL    HW116892   4.570   0.187   1.795 -1.2849 -1.2672 -0.9291
 1811SOL    HW216893   4.539   0.300   1.889  1.8032 -1.1465  1.1326
 1812SOL     OW16894   0.438   0.108   5.776  0.5890 -0.3464 -0.2771
 1812SOL    HW116895   0.390   0.185   5.806 -0.6941 -0.2080 -2.6227
 1812SOL    HW216896   0.510   0.102   5.838 -0.0274  0.5486  0.5251
 1813SOL     OW16897   2.469   1.424   4.953 -0.7383  0.7052  0.5478
 1813SOL    HW116898   2.429   1.498   4.907 -0.5284 -1.7959 -3.7442
 1813SOL    HW216899   2.427   1.433   5.038 -0.4705  0.3804  0.7141
 1814SOL     OW16900   0.166   3.265   3.388 -0.3048  0.1173 -0.7759
 1814SOL    HW116901   0.222   3.193   3.419  1.2277  1.9549  0.7101
 1814SOL    HW216902   0.097   3.245   3.451 -0.1492 -1.7086 -1.1713
 1815SOL     OW16903   2.834   2.150   8.699 -0.0473 -0.1338  0.0439
 1815SOL    HW116904   2.797   2.237   8.682  2.1824  0.7369 -0.3151
 1815SOL    HW216905   2.773   2.110   8.761 -0.1598  0.1073  0.0881
 1816SOL     OW16906   3.380   1.501   4.230 -0.3674 -0.2049  0.4754
 1816SOL    HW116907   3.431   1.433   4.185 -0.9991 -0.1656 -0.2981
 1816SOL    HW216908   3.391   1.575   4.170 -0.2912 -1.3426 -0.9298
 1817SOL     OW16909   3.965   0.400   2.310 -0.1330  0.2866 -0.0828
 1817SOL    HW116910   4.020   0.476   2.290 -0.1108  0.4151  0.4646
 1817SOL    HW216911   3.907   0.393   2.234 -1.6418 -0.4556  1.1321
 1818SOL     OW16912   0.630   3.945  12.293 -0.0260  0.1911 -0.0557
 1818SOL    HW116913   0.564   3.877  12.304 -0.3903  0.1791 -2.2587
 1818SOL    HW216914   0.692   3.900  12.235 -0.8915 -1.5611  0.3803
 1819SOL     OW16915   1.405   3.803   5.580  0.1277 -0.1599  0.5029
 1819SOL    HW116916   1.356   3.765   5.652  0.8925 -0.1112  1.0388
 1819SOL    HW216917   1.333   3.798   5.516  2.0150 -1.5093 -1.5110
 1820SOL     OW16918   2.583   4.411   6.712  0.3098  0.3554  0.0563
 1820SOL    HW116919   2.579   4.502   6.684  1.1491 -0.4065 -2.4707
 1820SOL    HW216920   2.651   4.422   6.779  1.2875  0.5038 -0.9738
 1821SOL     OW16921   2.408   1.238   4.750  0.7116 -0.4662 -0.4297
 1821SOL    HW116922   2.319   1.258   4.719  0.4122 -1.3354 -0.1456
 1821SOL    HW216923   2.418   1.297   4.825 -0.8706  0.4323 -0.9165
 1822SOL     OW16924   2.733   1.379  13.245 -0.4976 -0.2636 -0.2323
 1822SOL    HW116925   2.669   1.370  13.174  0.0487  0.6686 -0.8425
 1822SOL    HW216926   2.715   1.467  13.277 -2.2796 -0.6599 -0.1168
 1823SOL     OW16927   3.593   1.366   7.901 -0.2966  0.8300 -0.3099
 1823SOL    HW116928   3.615   1.275   7.881  1.1239  1.0148  0.4499
 1823SOL    HW216929   3.621   1.370   7.992  2.0556  2.5321 -1.1391
 1824SOL     OW16930   1.116   4.503   4.050  0.4485  0.1591 -0.1796
 1824SOL    HW116931   1.051   4.515   4.119 -0.7861  0.3376 -1.3724
 1824SOL    HW216932   1.062   4.471   3.978  1.9376 -1.9663 -0.3539
 1825SOL     OW16933   4.155   3.643   6.275 -0.6246 -0.7379 -0.2266
 1825SOL    HW116934   4.176   3.713   6.213  3.8005 -1.6229  0.2426
 1825SOL    HW216935   4.186   3.565   6.228  0.2928 -0.4169 -0.1610
 1826SOL     OW16936   3.032   2.351   2.866 -0.0497 -0.0196 -0.0375
 1826SOL    HW116937   2.999   2.357   2.776  0.7196  2.3716 -0.1592
 1826SOL    HW216938   3.055   2.259   2.878 -0.7514 -0.1677  0.1455
 1827SOL     OW16939   3.149   2.802  11.242  0.5297  0.3860  0.2143
 1827SOL    HW116940   3.213   2.733  11.258  0.7562  0.7176  0.7463
 1827SOL    HW216941   3.202   2.875  11.209  0.1792  1.1335  1.2922
 1828SOL     OW16942   1.805   0.550  12.257 -0.1824 -0.2214  0.2498
 1828SOL    HW116943   1.865   0.511  12.194 -0.1870  3.5004 -2.0633
 1828SOL    HW216944   1.799   0.640  12.224  0.7361  0.1049  0.9843
 1829SOL     OW16945   4.524   0.801   2.863 -0.1949 -0.1019 -0.0780
 1829SOL    HW116946   4.430   0.801   2.878 -0.0664  0.3793  0.7323
 1829SOL    HW216947   4.560   0.868   2.922  1.6691 -1.3951  0.2301
 1830SOL     OW16948   4.390   4.463   6.302  0.1740  0.7935  0.1374
 1830SOL    HW116949   4.407   4.370   6.315 -0.9163  0.5567 -0.1061
 1830SOL    HW216950   4.425   4.499   6.384  2.3359  1.9705 -1.3075
 1831SOL     OW16951   0.660   1.923  16.651 -0.2155 -0.5354  0.2210
 1831SOL    HW116952   0.566   1.915  16.669 -0.8179 -0.6829 -3.0741
 1831SOL    HW216953   0.686   1.972  16.729  1.6613 -1.3832  0.1288
 1832SOL     OW16954   3.427   2.220   3.699  0.4750 -0.6645  0.0137
 1832SOL    HW116955   3.398   2.143   3.748 -1.4101  0.7355  1.0885
 1832SOL    HW216956   3.520   2.196   3.699 -0.0514 -2.6956 -1.1509
 1833SOL     OW16957   1.963   1.728   6.137 -0.0799 -0.1125 -0.2524
 1833SOL    HW116958   1.913   1.737   6.056 -3.2347 -0.5524  1.6323
 1833SOL    HW216959   1.903   1.732   6.212  2.0266 -0.6257  1.4584
 1834SOL     OW16960   0.251   3.379  10.524  0.2824  0.2927 -0.1426
 1834SOL    HW116961   0.317   3.323  10.566 -1.7465 -1.4505  0.7048
 1834SOL    HW216962   0.282   3.469  10.535  1.3300 -0.2274  1.1553
 1835SOL     OW16963   0.156   4.397   0.123  0.0068 -0.4574 -0.5038
 1835SOL    HW116964   0.158   4.373   0.216 -0.0372 -0.0006 -0.3851
 1835SOL    HW216965   0.244   4.427   0.101  0.1130  0.7785  1.6399
 1836SOL     OW16966   3.343   3.716  16.196  0.4491  0.4346  0.1141
 1836SOL    HW116967   3.322   3.623  16.181  0.5159  0.8518 -2.6539
 1836SOL    HW216968   3.328   3.747  16.106  2.7801  0.8269 -0.1290
 1837SOL     OW16969   0.221   3.195   9.856 -0.8388 -0.7944 -0.8170
 1837SOL    HW116970   0.211   3.102   9.878  2.8556 -0.8466  0.5854
 1837SOL    HW216971   0.131   3.221   9.873 -0.2631  0.7718 -0.2243
 1838SOL     OW16972   3.202   4.062   1.740  0.0410 -0.6922  0.6083
 1838SOL    HW116973   3.146   4.137   1.720  1.4759  0.1631 -0.1301
 1838SOL    HW216974   3.149   4.005   1.797 -2.2430  0.7914 -0.0079
 1839SOL     OW16975   1.881   4.166  16.804  0.2628  0.0669 -0.0781
 1839SOL    HW116976   1.806   4.214  16.770 -0.3435 -0.4587  0.5077
 1839SOL    HW216977   1.948   4.234  16.790  0.9987 -1.1811 -2.4445
 1840SOL     OW16978   0.680   2.423   2.998 -0.1462  0.0597 -0.4573
 1840SOL    HW116979   0.626   2.390   3.070  0.6357  0.8274  0.4725
 1840SOL    HW216980   0.637   2.508   2.997  0.4894  0.3879  1.9731
 1841SOL     OW16981   2.594   1.458   2.315  0.4109  0.0772 -0.1414
 1841SOL    HW116982   2.631   1.399   2.249  2.0037  1.0384 -0.0871
 1841SOL    HW216983   2.640   1.540   2.298 -0.9474  0.3432 -2.4580
 1842SOL     OW16984   3.787   0.148  11.656  0.4584  0.8372  0.0629
 1842SOL    HW116985   3.708   0.119  11.610 -0.4761  1.0574  1.5353
 1842SOL    HW216986   3.823   0.195  11.581  0.0028  0.2910 -0.5072
 1843SOL     OW16987   1.850   3.418  15.245 -0.3359 -0.3146 -0.5176
 1843SOL    HW116988   1.782   3.481  15.221  0.0018 -0.3670 -1.6327
 1843SOL    HW216989   1.850   3.430  15.340 -0.4674  1.2108 -0.7090
 1844SOL     OW16990   1.712   0.975  14.113 -0.1962 -0.2728  0.4185
 1844SOL    HW116991   1.700   0.882  14.092 -0.9839 -0.3041  0.9876
 1844SOL    HW216992   1.736   0.974  14.205 -1.5235 -3.8808  0.7316
 1845SOL     OW16993   3.250   1.942   7.090 -0.7303 -0.2205  0.1552
 1845SOL    HW116994   3.187   1.902   7.150 -2.2577  0.5039 -0.9664
 1845SOL    HW216995   3.305   1.865   7.074 -0.2906 -0.1276  1.2030
 1846SOL     OW16996   0.048   4.481   6.473  0.2448 -0.5208  0.0207
 1846SOL    HW116997   0.087   4.428   6.403  0.8303 -0.0827  0.0123
 1846SOL    HW216998   0.005   4.554   6.427  0.5517 -0.0984  0.4046
 1847SOL     OW16999   0.067   0.374   8.448 -0.2072 -0.1090  0.0682
 1847SOL    HW117000   0.059   0.295   8.502  0.8126 -0.7448 -0.7261
 1847SOL    HW217001   0.073   0.442   8.516 -0.8825  0.0179  0.0048
 1848SOL     OW17002   1.547   3.988  13.134  0.5946 -0.5806 -0.9944
 1848SOL    HW117003   1.643   3.985  13.134  0.6339  0.7874 -1.5699
 1848SOL    HW217004   1.529   3.906  13.087  0.2477 -0.5934 -0.8371
 1849SOL     OW17005   1.431   1.425   8.604 -0.3934 -0.0791 -0.0612
 1849SOL    HW117006   1.456   1.363   8.536  1.2303  0.0064  0.4435
 1849SOL    HW217007   1.508   1.479   8.624 -0.5493  0.2695 -0.4220
 1850SOL     OW17008   3.797   1.017  11.411 -0.0410 -0.7007  0.3675
 1850SOL    HW117009   3.872   1.072  11.389 -1.5794  1.3235  0.2183
 1850SOL    HW217010   3.725   1.068  11.448 -0.5244 -2.6789  2.1480
 1851SOL     OW17011   3.626   1.872   5.917  0.4659  0.4110  0.2612
 1851SOL    HW117012   3.590   1.863   5.829  0.4934  0.7204  0.2181
 1851SOL    HW217013   3.668   1.792   5.947 -0.7223 -0.3723 -0.2026
 1852SOL     OW17014   3.118   1.098   3.123  0.4477 -0.2278  0.2621
 1852SOL    HW117015   3.108   1.006   3.148 -0.7447 -0.4969 -1.2100
 1852SOL    HW217016   3.165   1.132   3.199  1.0199  1.0424 -0.6581
 1853SOL     OW17017   3.102   2.922   8.770 -0.0275 -0.0972 -0.2431
 1853SOL    HW117018   3.037   2.959   8.830  0.7714 -0.2360  0.7251
 1853SOL    HW217019   3.144   2.860   8.830 -2.2633 -2.0996 -0.7869
 1854SOL     OW17020   3.409   4.552   7.931 -0.4066 -0.4344  0.1883
 1854SOL    HW117021   3.321   4.585   7.916 -0.5404 -1.2720 -0.8175
 1854SOL    HW217022   3.432   4.588   8.017 -3.0055  1.1639  0.2113
 1855SOL     OW17023   1.040   0.604   8.671 -0.0455 -0.0865  0.7465
 1855SOL    HW117024   1.038   0.574   8.762  0.6859 -1.5706  0.2642
 1855SOL    HW217025   1.114   0.554   8.639  0.0123  0.6636 -0.2879
 1856SOL     OW17026   4.063   0.318   6.310 -0.2867  0.1329 -0.7783
 1856SOL    HW117027   3.979   0.343   6.272 -0.5870  0.6373  0.2077
 1856SOL    HW217028   4.045   0.318   6.404  0.1869 -2.1684 -0.6988
 1857SOL     OW17029   1.355   3.991  16.243  0.6806  0.0425  0.4076
 1857SOL    HW117030   1.269   4.027  16.262  0.3337 -0.8189  0.4649
 1857SOL    HW217031   1.350   3.924  16.311 -2.0576 -0.0893  0.0570
 1858SOL     OW17032   4.218   2.437  16.963  0.1242 -0.0682 -0.2847
 1858SOL    HW117033   4.191   2.516  17.009 -2.0898 -1.4919  0.8516
 1858SOL    HW217034   4.314   2.441  16.962  0.1231 -0.3360 -1.4544
 1859SOL     OW17035   1.953   0.437  14.135 -0.2986  0.1411 -0.3533
 1859SOL    HW117036   1.899   0.468  14.208  0.4092 -1.5552  0.8840
 1859SOL    HW217037   1.912   0.357  14.103  0.3658 -0.2001 -0.3533
 1860SOL     OW17038   3.912   4.530   9.319 -0.4191 -0.1554 -0.2234
 1860SOL    HW117039   3.911   4.585   9.240 -0.0499  0.8483  0.4747
 1860SOL    HW217040   4.007   4.523   9.322 -0.2798  1.1258 -1.6103
 1861SOL     OW17041   1.492   3.011   3.465 -0.4843  0.0617 -0.6602
 1861SOL    HW117042   1.485   2.917   3.448 -1.5373 -0.4515  2.6168
 1861SOL    HW217043   1.577   3.032   3.428  0.3761 -2.2470 -0.0172
 1862SOL     OW17044   2.708   3.057  13.380 -0.1087 -0.3340 -0.0097
 1862SOL    HW117045   2.677   3.077  13.469 -1.1814  1.6751 -0.8538
 1862SOL    HW217046   2.723   3.137  13.330  2.0731 -0.8685 -0.2031
 1863SOL     OW17047   3.155   4.229   5.989  0.5249  0.3428  0.2381
 1863SOL    HW117048   3.234   4.283   5.979  0.3829  0.6377  0.7387
 1863SOL    HW217049   3.154   4.201   5.897 -0.0391  0.7032  0.1390
 1864SOL     OW17050   2.261   0.259   8.560  0.3912 -0.0702 -0.4897
 1864SOL    HW117051   2.292   0.187   8.614 -1.4301 -0.6960 -0.2572
 1864SOL    HW217052   2.273   0.222   8.472 -1.1867  1.0512 -1.1808
 1865SOL     OW17053   3.211   2.955   4.090  0.0267 -0.3448  0.2723
 1865SOL    HW117054   3.212   2.885   4.156  1.8637 -1.3131 -0.7724
 1865SOL    HW217055   3.157   2.922   4.018 -1.1470  1.7526  0.2011
 1866SOL     OW17056   4.065   3.171   1.125  0.2319  0.1380  0.2769
 1866SOL    HW117057   4.130   3.235   1.096 -0.3309  0.5671 -0.0351
 1866SOL    HW217058   4.063   3.105   1.056  0.4617  2.4667 -1.9440
 1867SOL     OW17059   1.231   3.850   5.092 -0.7627 -0.2119  0.2685
 1867SOL    HW117060   1.256   3.835   5.183  1.7914  0.8050 -0.2832
 1867SOL    HW217061   1.296   3.790   5.055 -1.1698 -0.9248  0.6908
 1868SOL     OW17062   4.628   0.879   2.020 -0.2630  0.2133 -0.1551
 1868SOL    HW117063   4.722   0.872   2.004 -0.0842 -0.6011  1.2337
 1868SOL    HW217064   4.603   0.960   1.975 -3.4733 -0.8927 -0.3488
 1869SOL     OW17065   4.065   2.777   4.816  0.1079  0.0954  0.3017
 1869SOL    HW117066   4.068   2.739   4.904 -1.2613  0.3382  0.4491
 1869SOL    HW217067   3.972   2.784   4.794  0.3383 -0.9353 -0.9532
 1870SOL     OW17068   1.912   0.732   5.923  0.2329 -0.6253  0.4590
 1870SOL    HW117069   1.850   0.770   5.984 -0.3240  0.0823 -0.5464
 1870SOL    HW217070   1.893   0.640   5.938 -0.7274 -0.3473  0.9117
 1871SOL     OW17071   2.937   4.271   1.670 -0.4361  0.2054 -0.4399
 1871SOL    HW117072   3.008   4.306   1.615 -0.1132  2.0634  1.1714
 1871SOL    HW217073   2.911   4.344   1.726 -0.7884 -1.6716  1.8583
 1872SOL     OW17074   3.450   0.635   6.672  0.4846 -0.2942  0.1817
 1872SOL    HW117075   3.380   0.570   6.666 -0.3206  0.5143  0.8363
 1872SOL    HW217076   3.399   0.716   6.663  0.6924 -0.0040  1.7578
 1873SOL     OW17077   4.447   3.944  13.908  0.8103  0.6931 -0.0353
 1873SOL    HW117078   4.404   3.987  13.982 -0.2780  0.3771 -0.4856
 1873SOL    HW217079   4.397   3.863  13.895 -0.8403  1.5678  0.7201
 1874SOL     OW17080   4.682   1.266   6.171  0.3934 -0.3243  0.6769
 1874SOL    HW117081   0.008   1.283   6.091 -0.7317  3.0451  0.6794
 1874SOL    HW217082   4.598   1.239   6.133 -0.4615  0.5700  1.9377
 1875SOL     OW17083   0.481   2.645   2.038 -0.1708  0.0793  0.2320
 1875SOL    HW117084   0.558   2.678   2.084 -0.7815  2.2808 -0.2734
 1875SOL    HW217085   0.521   2.580   1.981 -1.5869  0.7405 -1.5112
 1876SOL     OW17086   0.518   2.123   8.026  0.1856  0.5417  0.7163
 1876SOL    HW117087   0.594   2.125   8.085 -0.1558 -1.6920  1.2251
 1876SOL    HW217088   0.453   2.091   8.089 -0.3632 -0.8610 -0.5758
 1877SOL     OW17089   3.953   1.003   5.108 -0.8197  0.0717 -0.2381
 1877SOL    HW117090   3.882   1.063   5.131 -1.6616 -0.6662 -0.8538
 1877SOL    HW217091   3.968   0.961   5.192 -0.0154  0.8955  0.0237
 1878SOL     OW17092   2.975   0.482  15.366 -0.1504  0.4871  0.3099
 1878SOL    HW117093   2.987   0.555  15.306  0.7673  0.7724  0.8517
 1878SOL    HW217094   2.920   0.521  15.434  0.8052  2.8756 -0.2821
 1879SOL     OW17095   3.579   1.859   7.687 -0.1819  0.2261 -0.1258
 1879SOL    HW117096   3.650   1.858   7.622  1.0107 -0.0600  1.1865
 1879SOL    HW217097   3.566   1.766   7.703 -1.4304  0.2360 -0.9963
 1880SOL     OW17098   4.626   3.396   7.419  0.3722  0.3863 -0.1493
 1880SOL    HW117099   4.689   3.339   7.463 -0.8657 -0.4781  0.5254
 1880SOL    HW217100   4.580   3.329   7.367  0.1874  0.9639 -0.7206
 1881SOL     OW17101   1.103   1.775   3.161 -0.1982  0.1687 -0.3216
 1881SOL    HW117102   1.070   1.697   3.117 -1.6302 -0.0694  1.2020
 1881SOL    HW217103   1.024   1.829   3.162  0.0400  0.5223 -0.4107
 1882SOL     OW17104   0.012   4.033   1.688 -0.1079  0.0618 -0.1664
 1882SOL    HW117105   4.701   3.990   1.765 -1.0387  0.4198 -0.4054
 1882SOL    HW217106   0.070   3.964   1.657 -1.6446 -1.5383  0.5172
 1883SOL     OW17107   2.366   1.849  15.638 -0.1998 -0.1792 -0.2113
 1883SOL    HW117108   2.371   1.781  15.704 -2.5738 -2.1702 -2.0857
 1883SOL    HW217109   2.429   1.905  15.683 -2.0404 -0.1594  2.3241
 1884SOL     OW17110   0.187   4.450  17.213 -0.6640  0.3043  0.2129
 1884SOL    HW117111   0.151   4.361  17.218 -1.3556  0.3254 -3.7189
 1884SOL    HW217112   0.246   4.460  17.138 -0.8738  0.4351  0.0610
 1885SOL     OW17113   0.814   4.696  11.998  0.2605 -0.2453  0.1340
 1885SOL    HW117114   0.769   0.015  11.927 -2.5955  0.7899  2.5573
 1885SOL    HW217115   0.799   0.023  12.077  0.2340  2.6039 -1.7479
 1886SOL     OW17116   2.464   4.430   7.194 -0.0681 -0.4093  0.5228
 1886SOL    HW117117   2.380   4.449   7.235 -0.4472  1.1879 -0.9772
 1886SOL    HW217118   2.467   4.498   7.126  0.1121 -0.9247  0.0177
 1887SOL     OW17119   3.390   2.120   7.917 -0.6158 -0.3731 -0.0865
 1887SOL    HW117120   3.369   2.191   7.977  0.8237 -1.2861  1.5065
 1887SOL    HW217121   3.462   2.072   7.958  0.3199  1.3443  0.2777
 1888SOL     OW17122   3.606   4.428   5.988 -0.6162  0.1140 -0.5995
 1888SOL    HW117123   3.614   4.482   5.909  0.1023  1.6646  0.5419
 1888SOL    HW217124   3.640   4.347   5.950 -1.6918 -0.1403 -1.0484
 1889SOL     OW17125   4.551   2.269   3.310  0.5987  0.1348 -0.0889
 1889SOL    HW117126   4.470   2.226   3.284  0.5638 -1.3268  2.4865
 1889SOL    HW217127   4.547   2.352   3.261 -3.3291  0.8877  1.5330
 1890SOL     OW17128   0.230   1.167  13.188 -0.8770  0.3552 -0.0515
 1890SOL    HW117129   0.266   1.090  13.144  2.4447  1.7436  0.2251
 1890SOL    HW217130   0.215   1.220  13.109  0.6625 -0.3791 -0.8426
 1891SOL     OW17131   2.277   0.850   5.259 -0.6520  0.1280  0.0181
 1891SOL    HW117132   2.263   0.756   5.257 -0.3409  0.0824  0.1116
 1891SOL    HW217133   2.370   0.859   5.242 -0.9004  0.7923 -1.0166
 1892SOL     OW17134   3.460   0.217   7.697 -0.8561  0.5823  0.1218
 1892SOL    HW117135   3.518   0.217   7.773 -0.4852 -0.1742 -0.1660
 1892SOL    HW217136   3.503   0.149   7.646 -0.2832  1.0669 -0.0391
 1893SOL     OW17137   0.049   4.155  14.086  0.0383 -0.3420 -0.1239
 1893SOL    HW117138   0.092   4.227  14.039  2.6679 -1.0383  1.2002
 1893SOL    HW217139   0.044   4.191  14.175  0.3415 -1.8952  0.5152
 1894SOL     OW17140   0.532   0.180   8.917  0.5276 -0.0358 -0.5933
 1894SOL    HW117141   0.473   0.111   8.885  3.1109 -1.6486 -1.8715
 1894SOL    HW217142   0.556   0.220   8.834 -0.0190 -2.8038 -2.0949
 1895SOL     OW17143   2.784   4.574   6.535  0.1959  0.1380 -0.3043
 1895SOL    HW117144   2.854   4.534   6.586  0.6623  0.6610 -0.5450
 1895SOL    HW217145   2.827   4.656   6.513 -1.6685  0.7323 -1.7930
 1896SOL     OW17146   1.123   3.014   5.639 -0.1882 -0.1783  0.2291
 1896SOL    HW117147   1.070   2.986   5.713  0.4725  0.0561  0.7976
 1896SOL    HW217148   1.181   2.938   5.633 -1.1780 -0.9411  0.4108
 1897SOL     OW17149   2.658   4.023   6.078  0.0392  0.9288 -0.7510
 1897SOL    HW117150   2.630   4.000   5.989  0.8003 -2.9869 -0.0034
 1897SOL    HW217151   2.639   3.938   6.118  2.5848  1.7007  2.1237
 1898SOL     OW17152   1.724   4.423   7.483 -0.3331 -0.0646  0.8134
 1898SOL    HW117153   1.712   4.410   7.577  0.6867  1.1055  1.1036
 1898SOL    HW217154   1.755   4.512   7.470 -1.3179  0.2127  0.3526
 1899SOL     OW17155   3.179   2.738   7.063  0.0173  0.0959  0.6269
 1899SOL    HW117156   3.120   2.676   7.020  0.8504  0.8553 -1.6584
 1899SOL    HW217157   3.176   2.703   7.152  0.0995 -0.2482  0.4916
 1900SOL     OW17158   0.737   3.102   4.552 -0.4955 -0.2585 -0.1616
 1900SOL    HW117159   0.684   3.174   4.518 -1.1332 -0.2452  0.8547
 1900SOL    HW217160   0.676   3.071   4.619  0.3825  0.6657  1.0522
 1901SOL     OW17161   4.560   3.711  10.162  0.1183 -0.0866  0.0450
 1901SOL    HW117162   4.516   3.633  10.195  0.2063  0.5543  1.6948
 1901SOL    HW217163   4.568   3.759  10.244 -0.6512 -0.6133  0.4305
 1902SOL     OW17164   4.685   2.362   7.000 -0.0051 -0.1837 -0.3502
 1902SOL    HW117165   0.027   2.425   6.974  2.3483 -2.4199  0.2643
 1902SOL    HW217166   4.720   2.342   7.087 -0.1530  0.7463 -0.0804
 1903SOL     OW17167   4.521   0.424   1.574 -0.2190 -0.1591  0.4292
 1903SOL    HW117168   4.546   0.465   1.657  3.8215 -1.3518 -0.1773
 1903SOL    HW217169   4.601   0.373   1.560  1.3736  2.2363  0.6130
 1904SOL     OW17170   1.331   0.302   7.972 -0.5518 -0.1678  0.1263
 1904SOL    HW117171   1.267   0.369   7.997 -1.5735 -1.6620  1.5447
 1904SOL    HW217172   1.402   0.315   8.035  0.7164  1.9454 -1.7642
 1905SOL     OW17173   3.142   2.509   7.585  0.6498 -0.5262 -0.1870
 1905SOL    HW117174   3.072   2.470   7.638  1.5584 -1.2812  0.4626
 1905SOL    HW217175   3.175   2.573   7.648  0.0389 -1.3877  1.0222
 1906SOL     OW17176   4.013   1.196   4.445 -0.5337  0.1839  0.1992
 1906SOL    HW117177   3.998   1.159   4.358 -0.3372 -0.9282  0.6404
 1906SOL    HW217178   4.105   1.173   4.455  0.7941  3.9025 -3.5895
 1907SOL     OW17179   0.105   4.106   6.384  0.3264 -0.2233 -0.5992
 1907SOL    HW117180   0.101   4.042   6.312 -0.2260  0.5397 -1.2496
 1907SOL    HW217181   0.127   4.061   6.465 -1.7587 -1.6699 -0.8610
 1908SOL     OW17182   2.466   1.952   4.025  0.7900  0.5437  0.3458
 1908SOL    HW117183   2.420   1.928   3.944  2.0676  0.2899 -0.3014
 1908SOL    HW217184   2.475   1.869   4.071  0.2497 -0.3340 -1.1062
 1909SOL     OW17185   1.830   3.455  11.124 -0.1201  0.3161  0.2706
 1909SOL    HW117186   1.848   3.543  11.092 -1.0326 -0.1758 -1.6562
 1909SOL    HW217187   1.838   3.465  11.218  0.0168  0.2630  0.2647
 1910SOL     OW17188   4.648   3.222   4.395  0.2338  0.6679  0.0400
 1910SOL    HW117189   4.589   3.202   4.468 -0.1386  4.6040  0.8352
 1910SOL    HW217190   4.723   3.235   4.453  0.3679 -1.5257  0.3652
 1911SOL     OW17191   3.426   3.074   5.409  0.4611  0.0172 -0.3294
 1911SOL    HW117192   3.501   3.026   5.444  1.4365  0.9275 -1.1874
 1911SOL    HW217193   3.359   3.005   5.414  0.1508  0.2705 -1.0931
 1912SOL     OW17194   2.816   0.992   3.435 -0.4386 -0.1356 -0.4019
 1912SOL    HW117195   2.741   0.992   3.375 -0.4051 -0.2913 -0.4459
 1912SOL    HW217196   2.861   0.913   3.404 -1.4327 -0.8906  0.0610
 1913SOL     OW17197   1.128   0.962   3.770 -0.0909 -0.4741 -0.6796
 1913SOL    HW117198   1.183   0.955   3.847 -0.1149 -1.5128 -0.7566
 1913SOL    HW217199   1.057   0.899   3.781  1.1899 -1.7097  0.3797
 1914SOL     OW17200   2.378   2.950  15.169 -0.0241  0.2622 -0.0228
 1914SOL    HW117201   2.286   2.973  15.183  0.0546  1.3510 -1.2794
 1914SOL    HW217202   2.425   3.031  15.186  1.3440 -0.5056 -0.1755
 1915SOL     OW17203   0.534   0.451   5.261  0.1437  0.0357  0.0292
 1915SOL    HW117204   0.543   0.384   5.329 -0.1445 -0.0504 -0.0168
 1915SOL    HW217205   0.625   0.459   5.234 -0.0772 -1.9556 -1.2618
 1916SOL     OW17206   0.068   3.195   6.500  0.0074  0.4035 -0.0246
 1916SOL    HW117207   4.716   3.196   6.558 -0.7909 -0.8990 -1.0511
 1916SOL    HW217208   0.134   3.148   6.550 -0.8055  0.4151  1.0527
 1917SOL     OW17209   2.758   0.405  10.658  0.0574  0.3126  0.9796
 1917SOL    HW117210   2.786   0.320  10.692 -0.9687 -0.4343 -0.0375
 1917SOL    HW217211   2.846   0.443  10.658 -0.1630  0.8159  0.0050
 1918SOL     OW17212   2.056   2.594   3.215  0.4480 -0.5980  0.3767
 1918SOL    HW117213   2.103   2.536   3.155  0.0678  0.0805 -0.5973
 1918SOL    HW217214   2.061   2.544   3.296 -1.5102  1.0092  1.5041
 1919SOL     OW17215   4.059   2.795  14.553  0.1250  0.2429  0.2129
 1919SOL    HW117216   4.129   2.858  14.534  0.5320 -0.8644 -2.0308
 1919SOL    HW217217   4.043   2.824  14.643 -0.2530  1.2449 -0.1790
 1920SOL     OW17218   4.231   0.202  12.619 -0.0359 -0.1034 -0.1875
 1920SOL    HW117219   4.292   0.259  12.666  0.6382 -0.2290 -0.9082
 1920SOL    HW217220   4.296   0.173  12.556 -0.9895 -0.0440 -1.1919
 1921SOL     OW17221   1.053   2.962  13.137 -0.1948 -0.3402 -0.4566
 1921SOL    HW117222   1.013   2.973  13.051  0.2334 -2.6021 -0.9205
 1921SOL    HW217223   1.086   3.052  13.147 -1.3814  0.0933 -0.3934
 1922SOL     OW17224   0.103   0.346  14.357  0.6001 -0.3092  0.2403
 1922SOL    HW117225   0.140   0.258  14.367 -1.1008 -1.1765 -1.1613
 1922SOL    HW217226   0.116   0.375  14.447 -0.2448 -0.8417  0.5321
 1923SOL     OW17227   1.689   1.271  12.010 -0.1053  0.4474 -0.0261
 1923SOL    HW117228   1.667   1.231  12.095 -1.7149 -3.1225 -2.0945
 1923SOL    HW217229   1.781   1.295  12.023  0.0191 -0.4808  0.8665
 1924SOL     OW17230   4.004   0.340   0.468  0.3579 -0.0059 -0.1307
 1924SOL    HW117231   3.945   0.316   0.540  0.4715  1.5303  0.4676
 1924SOL    HW217232   3.939   0.332   0.399  0.1332  0.4690  0.0273
 1925SOL     OW17233   3.081   3.551   5.751  0.3221 -0.2312  0.0174
 1925SOL    HW117234   3.169   3.544   5.714 -0.0528  0.2712 -0.9765
 1925SOL    HW217235   3.063   3.458   5.740  1.4131 -0.5644  1.0742
 1926SOL     OW17236   4.112   0.362   4.372  0.0479  0.5168  0.1774
 1926SOL    HW117237   4.172   0.344   4.299 -1.8034  2.8053 -1.9163
 1926SOL    HW217238   4.126   0.456   4.383  1.0926  0.3985 -0.1591
 1927SOL     OW17239   0.489   4.053   5.451 -0.4849 -0.7292  0.1482
 1927SOL    HW117240   0.504   4.144   5.425 -0.2843 -0.8954 -0.3250
 1927SOL    HW217241   0.522   3.996   5.382 -1.7728 -0.7906 -0.4163
 1928SOL     OW17242   1.864   3.288  13.754  0.2108 -0.1175  0.3141
 1928SOL    HW117243   1.901   3.331  13.676  2.3980 -1.0749  0.8283
 1928SOL    HW217244   1.770   3.282  13.737  0.2968 -2.0314  0.5181
 1929SOL     OW17245   1.116   1.894   6.492 -0.0730 -0.5209 -0.1387
 1929SOL    HW117246   1.071   1.979   6.496  1.6795  0.4402 -0.7269
 1929SOL    HW217247   1.145   1.882   6.582  3.1648 -0.3582 -1.1705
 1930SOL     OW17248   3.443   3.902   2.285 -0.5494 -0.3662 -0.5839
 1930SOL    HW117249   3.526   3.865   2.316 -0.1092  0.8837 -0.2791
 1930SOL    HW217250   3.475   3.985   2.251  1.9538 -0.4056  1.6281
 1931SOL     OW17251   0.055   1.940   6.611 -0.5553  0.3843 -0.4015
 1931SOL    HW117252   0.090   1.882   6.680 -0.6249 -0.4491 -1.0636
 1931SOL    HW217253   4.720   1.974   6.677 -0.8589  0.4886 -0.7333
 1932SOL     OW17254   2.421   0.682   3.797 -0.1162 -0.0922 -0.2683
 1932SOL    HW117255   2.476   0.754   3.766 -1.2657  0.6463 -0.5639
 1932SOL    HW217256   2.336   0.709   3.763  1.4401  1.6542 -2.7779
 1933SOL     OW17257   4.701   0.246   2.108 -0.7124 -0.8085 -0.3183
 1933SOL    HW117258   4.663   0.207   2.029  1.4238 -1.2568 -1.1299
 1933SOL    HW217259   0.068   0.239   2.081  0.3959 -0.9741  3.5528
 1934SOL     OW17260   1.239   2.130   8.908  0.0506 -0.6105  0.0774
 1934SOL    HW117261   1.153   2.121   8.868  0.6074  2.3258 -1.7629
 1934SOL    HW217262   1.288   2.079   8.843  0.0726 -0.7799  0.2261
 1935SOL     OW17263   4.279   3.855  11.098  0.7542  0.0738  0.3774
 1935SOL    HW117264   4.249   3.855  11.189  2.2382  0.7830  0.8778
 1935SOL    HW217265   4.202   3.829  11.049  1.7366 -1.4843 -0.3489
 1936SOL     OW17266   3.519   2.010  10.063 -0.0305 -0.4479  0.6604
 1936SOL    HW117267   3.455   1.942  10.085 -0.8009 -0.2795 -1.1325
 1936SOL    HW217268   3.479   2.078  10.117 -1.2415  0.4923 -1.4481
 1937SOL     OW17269   3.463   1.542   2.142  0.2222  0.2924 -0.0877
 1937SOL    HW117270   3.443   1.575   2.054 -0.8479  1.8677  0.7423
 1937SOL    HW217271   3.462   1.625   2.191  1.6880 -0.6548  1.5182
 1938SOL     OW17272   4.540   0.707   5.928 -0.2420  0.1918  0.0263
 1938SOL    HW117273   4.506   0.677   5.844 -4.9564  1.8794  1.3644
 1938SOL    HW217274   4.539   0.623   5.975  0.7109  0.5926  0.7751
 1939SOL     OW17275   2.053   3.860   1.183 -0.0326 -0.2313  0.6356
 1939SOL    HW117276   2.071   3.945   1.143 -1.3044  0.8564  2.3165
 1939SOL    HW217277   1.977   3.828   1.134 -0.9158  0.4513  1.5247
 1940SOL     OW17278   1.202   3.689   0.450 -0.4487  0.4367 -0.6855
 1940SOL    HW117279   1.164   3.751   0.389  0.8484 -1.7994 -3.7697
 1940SOL    HW217280   1.150   3.610   0.442 -1.0133  0.5811  1.3856
 1941SOL     OW17281   1.979   2.245   2.384  0.1661  0.1917 -0.1634
 1941SOL    HW117282   2.025   2.319   2.344  2.6588 -0.7562  1.0075
 1941SOL    HW217283   2.028   2.165   2.367 -0.2967 -0.7025  2.6717
 1942SOL     OW17284   0.653   2.378   0.098  0.3746  0.4951  0.3321
 1942SOL    HW117285   0.740   2.393   0.137 -0.1935  2.0708  0.9966
 1942SOL    HW217286   0.608   2.451   0.141 -1.0736 -0.6815  0.7967
 1943SOL     OW17287   3.585   4.477   9.621  0.1077 -0.2804 -0.5654
 1943SOL    HW117288   3.494   4.502   9.603  0.2515  2.0313  1.8890
 1943SOL    HW217289   3.603   4.524   9.703 -0.9588  0.5809 -0.8238
 1944SOL     OW17290   1.321   3.021  11.247 -0.4197  0.5601  0.3215
 1944SOL    HW117291   1.233   3.036  11.282  0.6968  0.6539  3.0750
 1944SOL    HW217292   1.305   2.936  11.207 -0.8990  0.5582  0.5230
 1945SOL     OW17293   3.344   1.045   9.243  0.2699 -0.5099  0.2555
 1945SOL    HW117294   3.368   1.118   9.186 -1.8590 -0.6827 -0.8673
 1945SOL    HW217295   3.280   1.077   9.306  0.6858  1.3848 -0.2948
 1946SOL     OW17296   1.888   1.082  16.630  0.0005  0.1541 -0.4285
 1946SOL    HW117297   1.940   1.161  16.615 -1.4409  0.4838 -3.8325
 1946SOL    HW217298   1.913   1.037  16.549  0.3851 -0.4066 -0.0038
 1947SOL     OW17299   2.374   0.326  12.331  0.7296 -0.1769 -0.1192
 1947SOL    HW117300   2.314   0.270  12.381 -0.9132  1.5806 -0.1162
 1947SOL    HW217301   2.455   0.274  12.333  0.4923 -0.5256  0.4840
 1948SOL     OW17302   3.879   1.521   2.092 -0.1853  0.0617  0.2184
 1948SOL    HW117303   3.907   1.469   2.167 -0.1203  1.4206  1.1380
 1948SOL    HW217304   3.892   1.458   2.022  1.9966  1.6108 -0.7775
 1949SOL     OW17305   3.650   0.938   5.377 -0.1166 -0.1397  0.0832
 1949SOL    HW117306   3.571   0.968   5.421  1.1358 -0.1080  2.3100
 1949SOL    HW217307   3.715   0.968   5.441  1.5657 -2.2405 -0.6663
 1950SOL     OW17308   1.642   0.913   7.274  0.2239 -0.1044 -0.7980
 1950SOL    HW117309   1.682   0.845   7.221  0.5008 -0.4171 -0.1888
 1950SOL    HW217310   1.647   0.876   7.362  2.2378 -1.1734 -1.3652
 1951SOL     OW17311   3.319   1.336   9.268 -0.0793  0.3138  0.2222
 1951SOL    HW117312   3.224   1.348   9.266 -0.1196 -0.2203 -0.8472
 1951SOL    HW217313   3.347   1.420   9.304  0.7802 -0.0868  0.5138
 1952SOL     OW17314   2.456   4.315   2.953  0.1698 -0.5458  1.2786
 1952SOL    HW117315   2.518   4.244   2.969  1.2210  0.0332 -0.2750
 1952SOL    HW217316   2.378   4.267   2.924  0.9183 -0.7396 -0.4331
 1953SOL     OW17317   3.119   0.214   6.909 -0.1905  0.2064  0.0060
 1953SOL    HW117318   3.099   0.163   6.831  0.9875 -0.9594  0.4626
 1953SOL    HW217319   3.194   0.265   6.878 -0.0648 -0.1289 -0.2394
 1954SOL     OW17320   3.862   4.692   1.500  0.3655 -0.2807 -0.6572
 1954SOL    HW117321   3.796   0.036   1.485  0.4495  0.3509  1.7241
 1954SOL    HW217322   3.940   0.023   1.510 -0.9204  1.6431 -1.3420
 1955SOL     OW17323   3.350   3.846  13.297  0.0725 -0.1984  0.0572
 1955SOL    HW117324   3.444   3.827  13.307  0.2284  0.7037  0.2454
 1955SOL    HW217325   3.303   3.799  13.366 -0.7003  0.2376 -0.1778
 1956SOL     OW17326   3.783   2.781   2.462 -0.5216 -0.7007 -0.1600
 1956SOL    HW117327   3.773   2.857   2.519 -1.1896 -1.8291  1.2184
 1956SOL    HW217328   3.720   2.721   2.501 -0.8177 -1.2729 -1.4947
 1957SOL     OW17329   2.290   0.760   6.601  0.0773  0.0072 -0.0472
 1957SOL    HW117330   2.208   0.714   6.584  2.4623 -4.6821  0.9229
 1957SOL    HW217331   2.316   0.729   6.688 -0.5438  0.0658  0.1579
 1958SOL     OW17332   3.548   4.554  14.624  0.2874  0.6884 -0.0898
 1958SOL    HW117333   3.524   4.494  14.695 -2.7687 -0.2017 -1.8678
 1958SOL    HW217334   3.548   4.641  14.665 -1.3166 -0.4727  2.3730
 1959SOL     OW17335   0.783   4.170  12.259  0.2817  0.0738 -0.5504
 1959SOL    HW117336   0.701   4.122  12.270 -0.5940  1.9958  1.2100
 1959SOL    HW217337   0.834   4.098  12.222  1.2188  1.0668 -1.2058
 1960SOL     OW17338   2.718   3.765   5.452 -0.4637  0.1182  0.4344
 1960SOL    HW117339   2.802   3.807   5.471  0.0911 -0.4819 -0.7043
 1960SOL    HW217340   2.657   3.839   5.456 -0.7845 -0.1027 -0.2561
 1961SOL     OW17341   2.148   3.761  13.395  0.6982  0.0371 -0.3674
 1961SOL    HW117342   2.172   3.676  13.357 -0.3026 -0.3026 -0.2477
 1961SOL    HW217343   2.056   3.764  13.367  0.5128 -0.4193  0.1836
 1962SOL     OW17344   2.848   2.642  10.564  0.9002 -0.4001 -0.6871
 1962SOL    HW117345   2.866   2.646  10.658  0.2666  1.1659 -0.6351
 1962SOL    HW217346   2.931   2.605  10.534  0.6999 -0.7627 -0.7858
 1963SOL     OW17347   3.585   4.236  17.264 -0.3377 -0.0800  0.2656
 1963SOL    HW117348   3.659   4.273  17.311 -0.3314  0.1769  0.0490
 1963SOL    HW217349   3.529   4.197  17.332  1.2710 -1.4164  0.8069
 1964SOL     OW17350   4.552   0.304   5.210  0.0642 -0.1482  0.1327
 1964SOL    HW117351   4.581   0.391   5.183  0.0619 -0.5868 -1.2689
 1964SOL    HW217352   4.458   0.314   5.230 -0.5349 -0.8626 -2.3064
 1965SOL     OW17353   3.273   2.521   5.966  0.0167 -0.1317  0.0381
 1965SOL    HW117354   3.313   2.490   6.048 -2.2038  0.8645  1.4974
 1965SOL    HW217355   3.271   2.616   5.982 -1.0394 -0.2091  0.3821
 1966SOL     OW17356   3.712   2.682   2.011  0.1540 -0.2318  0.5513
 1966SOL    HW117357   3.617   2.691   2.015  0.2738  0.1319  2.7637
 1966SOL    HW217358   3.715   2.623   1.936  3.5318  2.8563 -1.7747
 1967SOL     OW17359   0.643   2.735  17.109  0.2077  0.1043  0.3989
 1967SOL    HW117360   0.678   2.820  17.135 -2.8349  0.7725  2.2958
 1967SOL    HW217361   0.681   2.683  17.180 -0.8097 -0.7357  0.3430
 1968SOL     OW17362   1.517   4.669   6.789  0.7945 -0.4696  0.7701
 1968SOL    HW117363   1.590   4.629   6.742 -0.6357 -0.5578 -1.4015
 1968SOL    HW217364   1.510   4.619   6.870  1.7005  0.0747  1.1873
 1969SOL     OW17365   0.289   0.558   7.189  0.2701 -0.0313  0.2148
 1969SOL    HW117366   0.237   0.582   7.112  2.9501  0.1019 -1.5669
 1969SOL    HW217367   0.377   0.588   7.165  0.8856 -0.3242  2.1486
 1970SOL     OW17368   1.624   0.578   6.114 -0.0322 -0.0302 -0.6532
 1970SOL    HW117369   1.588   0.547   6.031 -3.8770  2.8894 -0.0336
 1970SOL    HW217370   1.677   0.508   6.154 -0.4313 -0.1721 -0.3781
 1971SOL     OW17371   1.551   0.537   7.184 -0.2499 -0.1372  0.2718
 1971SOL    HW117372   1.612   0.600   7.148  0.4046 -0.5368  0.6757
 1971SOL    HW217373   1.521   0.587   7.260 -1.9731 -1.5963  0.5503
 1972SOL     OW17374   0.246   2.333   7.349 -0.0030 -0.5002 -0.1051
 1972SOL    HW117375   0.262   2.407   7.408 -0.9072 -0.8623  0.5975
 1972SOL    HW217376   0.333   2.316   7.314  0.9433 -0.2812  2.1298
 1973SOL     OW17377   3.715   2.959  10.829  0.0460 -0.4322  0.3042
 1973SOL    HW117378   3.632   2.919  10.857  0.4757  0.0743  2.2804
 1973SOL    HW217379   3.750   2.905  10.758 -0.1894  0.7312 -0.6914
 1974SOL     OW17380   3.672   4.713   9.394 -0.1270  0.1999  0.3955
 1974SOL    HW117381   3.727   0.057   9.357  0.6044 -1.3632 -1.4244
 1974SOL    HW217382   3.675   0.016   9.485 -2.7409 -0.8315  0.7960
 1975SOL     OW17383   3.746   1.601   6.228 -0.0409 -0.2067 -0.0724
 1975SOL    HW117384   3.738   1.693   6.254 -0.7283  0.9358 -4.2499
 1975SOL    HW217385   3.695   1.562   6.299  1.2952 -1.5010  0.1726
 1976SOL     OW17386   0.122   3.337   0.090  0.0758  0.4558 -0.1629
 1976SOL    HW117387   0.172   3.270   0.137 -0.6176 -0.7704 -1.1658
 1976SOL    HW217388   0.089   3.399   0.156 -0.2738 -1.6432  1.6539
 1977SOL     OW17389   1.681   2.464   8.591 -0.0232  0.4498  0.2131
 1977SOL    HW117390   1.685   2.556   8.568  2.7513 -0.2385 -1.9231
 1977SOL    HW217391   1.642   2.477   8.678 -1.1366 -0.1219 -0.2023
 1978SOL     OW17392   0.536   4.456   8.317 -0.2171 -0.3077 -0.2315
 1978SOL    HW117393   0.447   4.446   8.285 -0.3379  0.3312 -0.1105
 1978SOL    HW217394   0.554   4.380   8.371  2.3399 -0.0020 -0.6369
 1979SOL     OW17395   2.272   3.744   4.017  0.0463 -0.7231  0.5265
 1979SOL    HW117396   2.298   3.835   4.001 -0.4132 -0.5053  1.0026
 1979SOL    HW217397   2.267   3.713   3.926 -2.7304  0.6213  0.2202
 1980SOL     OW17398   0.462   0.579   4.370 -0.4286 -0.1645  0.0914
 1980SOL    HW117399   0.524   0.595   4.440 -0.7000  0.7537  0.1186
 1980SOL    HW217400   0.387   0.624   4.408 -1.5144 -0.1706 -2.0474
 1981SOL     OW17401   2.042   1.953  10.221 -0.2614 -0.5611  0.2479
 1981SOL    HW117402   1.993   1.988  10.147  0.2459  1.8361  1.0354
 1981SOL    HW217403   1.972   1.955  10.287 -1.9364  1.4964 -1.5784
 1982SOL     OW17404   1.058   3.083   3.283  0.2186 -0.1518 -0.3970
 1982SOL    HW117405   1.135   3.117   3.329 -0.4202  0.2494  0.3709
 1982SOL    HW217406   1.019   3.024   3.347 -2.0964  0.2197 -1.4866
 1983SOL     OW17407   0.973   4.483   1.197  0.1633  0.1673 -1.1345
 1983SOL    HW117408   0.926   4.410   1.156 -2.5388  2.5220 -2.1779
 1983SOL    HW217409   1.057   4.487   1.151  0.6491 -0.2747 -0.2938
 1984SOL     OW17410   0.530   4.222   1.807 -0.0672 -1.0144 -0.2897
 1984SOL    HW117411   0.595   4.237   1.875 -1.5773 -0.0621  0.9590
 1984SOL    HW217412   0.460   4.268   1.855  1.5932  0.0434  1.1246
 1985SOL     OW17413   0.803   0.711   6.800 -0.1312 -0.7716 -0.0107
 1985SOL    HW117414   0.753   0.640   6.839 -2.4600  0.1468 -1.3475
 1985SOL    HW217415   0.730   0.765   6.771  0.1596  0.1086  0.9106
 1986SOL     OW17416   1.453   0.490   2.378 -0.4929 -0.2218  0.4178
 1986SOL    HW117417   1.537   0.460   2.344 -0.8558 -1.2340  0.4200
 1986SOL    HW217418   1.488   0.552   2.442 -2.0429  0.8891  0.1877
 1987SOL     OW17419   4.472   1.067   4.013  0.1658  0.0514  0.1434
 1987SOL    HW117420   4.413   1.076   3.938  1.6570 -0.5326 -1.0906
 1987SOL    HW217421   4.422   1.011   4.073  2.0872  0.2063  1.8725
 1988SOL     OW17422   2.639   3.344  13.486  0.4161  0.5841  0.3163
 1988SOL    HW117423   2.578   3.417  13.494  0.5604  0.4114  2.8655
 1988SOL    HW217424   2.594   3.273  13.532  1.4037 -0.0462  0.3196
 1989SOL     OW17425   0.480   0.228   3.553 -0.3808  0.2378  0.1336
 1989SOL    HW117426   0.509   0.223   3.645  1.6670 -2.5914 -0.6743
 1989SOL    HW217427   0.461   0.322   3.546 -1.6548 -0.0983 -0.8917
 1990SOL     OW17428   3.964   2.201   2.304 -0.1451  0.0000  0.0070
 1990SOL    HW117429   3.888   2.154   2.268 -0.3851 -0.0018  0.5146
 1990SOL    HW217430   4.014   2.217   2.224 -1.0034  1.9338 -0.1552
 1991SOL     OW17431   1.157   0.376   7.138  0.1218  0.0246 -0.0132
 1991SOL    HW117432   1.084   0.315   7.126 -0.9738  1.1196  0.8863
 1991SOL    HW217433   1.215   0.335   7.075 -0.3795  1.0562 -1.1536
 1992SOL     OW17434   2.139   2.724   9.241 -0.0386  0.2625 -0.4243
 1992SOL    HW117435   2.128   2.629   9.254  0.5146  0.0807 -1.2503
 1992SOL    HW217436   2.107   2.739   9.152 -0.4854  1.1692 -0.1111
 1993SOL     OW17437   3.212   1.643  16.776  0.3218 -0.2751 -0.0111
 1993SOL    HW117438   3.124   1.681  16.780  0.0964 -0.6449 -1.5504
 1993SOL    HW217439   3.186   1.554  16.798 -2.7765  0.7942  0.6158
 1994SOL     OW17440   0.823   3.040   7.138 -0.0516  0.9886 -0.8163
 1994SOL    HW117441   0.866   3.024   7.222 -0.4102  1.7763 -0.4808
 1994SOL    HW217442   0.847   3.131   7.123 -0.7257  1.4434  0.8657
 1995SOL     OW17443   4.178   4.235   2.965 -0.4053 -0.0344 -0.0857
 1995SOL    HW117444   4.157   4.254   3.056 -0.6259 -0.8198  0.0278
 1995SOL    HW217445   4.271   4.254   2.956 -0.5690  1.5234  1.4387
 1996SOL     OW17446   3.460   0.051  16.777  0.0943  0.0930 -0.3616
 1996SOL    HW117447   3.506   4.711  16.831 -1.6449 -1.1020 -0.2985
 1996SOL    HW217448   3.448   0.121  16.842  0.6002  1.6619 -1.9812
 1997SOL     OW17449   0.879   4.431  11.616  0.3548  0.6217  0.0210
 1997SOL    HW117450   0.941   4.488  11.662  0.6790 -0.8309  1.3949
 1997SOL    HW217451   0.837   4.490  11.554  0.1672 -0.5366 -0.9407
 1998SOL     OW17452   2.568   0.578   0.226 -0.0538  0.5744  0.3786
 1998SOL    HW117453   2.523   0.584   0.311  0.6457  0.1194  0.7809
 1998SOL    HW217454   2.655   0.606   0.252 -1.3439  1.7917  3.4282
 1999SOL     OW17455   3.303   3.737   2.104  0.5335  0.2930  0.6493
 1999SOL    HW117456   3.361   3.793   2.155  1.0436  0.6798 -0.3420
 1999SOL    HW217457   3.360   3.681   2.052 -1.3079 -2.7039  1.8840
 2000SOL     OW17458   0.516   2.088  10.767  0.2170  0.1781 -0.3811
 2000SOL    HW117459   0.539   2.179  10.785  0.0674  0.3409 -1.0278
 2000SOL    HW217460   0.422   2.089  10.786  0.4271  0.7573  0.5934
 2001SOL     OW17461   3.922   3.625  10.638 -0.0133  0.1849 -0.2284
 2001SOL    HW117462   3.931   3.537  10.603 -1.0607 -0.1110  0.2514
 2001SOL    HW217463   3.993   3.631  10.703  1.4939 -0.6218 -1.8075
 2002SOL     OW17464   0.428   2.113   3.697 -0.3069  0.5537 -0.7672
 2002SOL    HW117465   0.389   2.078   3.616  0.4228  1.6857 -1.6064
 2002SOL    HW217466   0.518   2.082   3.687 -0.9220 -2.0128  1.5547
 2003SOL     OW17467   1.582   4.261  11.524  0.2869 -0.7154  0.3538
 2003SOL    HW117468   1.558   4.317  11.451  5.0754  0.2230 -0.5563
 2003SOL    HW217469   1.665   4.221  11.498  0.1417 -1.1190  0.5047
 2004SOL     OW17470   4.320   0.446   8.496 -0.3164 -0.0061  0.2667
 2004SOL    HW117471   4.289   0.535   8.477  1.5374  0.3964 -0.9494
 2004SOL    HW217472   4.405   0.474   8.531  0.7796 -2.2010 -0.6381
 2005SOL     OW17473   1.545   1.818  17.669  0.4919 -0.0343  0.7622
 2005SOL    HW117474   1.578   1.728  17.670 -0.7371 -0.4910  0.3553
 2005SOL    HW217475   1.619   1.859   0.014  1.5145 -0.7376 -0.2896
 2006SOL     OW17476   4.425   0.120   8.528  0.3727 -0.1735 -0.0095
 2006SOL    HW117477   4.383   0.042   8.564 -0.4448  0.7938  1.1428
 2006SOL    HW217478   4.405   0.114   8.434  0.8773 -2.7821  0.0378
 2007SOL     OW17479   0.486   4.565   4.012 -0.5324  0.4042 -0.1840
 2007SOL    HW117480   0.473   4.492   4.072  0.0811  1.5880  1.3980
 2007SOL    HW217481   0.491   4.516   3.930  0.0884  0.8916 -0.4421
 2008SOL     OW17482   1.833   3.939  17.587 -0.2538 -0.5475 -0.1010
 2008SOL    HW117483   1.782   3.867  17.550 -0.1859  0.4443 -2.0990
 2008SOL    HW217484   1.870   3.977  17.507 -0.3680 -1.5030 -0.6134
 2009SOL     OW17485   4.189   0.496   3.273 -0.7350 -0.0284  0.1125
 2009SOL    HW117486   4.214   0.542   3.193 -0.5424  1.3547  0.9555
 2009SOL    HW217487   4.094   0.509   3.282 -0.9074  1.0426 -3.4838
 2010SOL     OW17488   3.868   1.509   8.143 -0.1319 -0.4931 -0.0045
 2010SOL    HW117489   3.943   1.538   8.092  1.1143 -1.5074  1.2238
 2010SOL    HW217490   3.907   1.499   8.230  0.4481 -3.2855 -0.5553
 2011SOL     OW17491   4.526   0.993   4.848  0.2387  0.3906 -0.2623
 2011SOL    HW117492   4.593   0.973   4.783 -0.7113  0.9510 -1.4159
 2011SOL    HW217493   4.443   1.010   4.803 -1.0269 -1.5822  1.3173
 2012SOL     OW17494   2.385   2.788   2.866  0.1051  0.1993 -0.3651
 2012SOL    HW117495   2.334   2.866   2.887  1.6984  1.0226  0.4092
 2012SOL    HW217496   2.343   2.764   2.783 -1.1225 -2.9303  1.1787
 2013SOL     OW17497   1.127   1.806  15.730 -0.2302 -0.3169  0.1045
 2013SOL    HW117498   1.121   1.724  15.681 -2.1206  1.1666 -2.1314
 2013SOL    HW217499   1.037   1.836  15.721 -0.5368 -0.6776  2.0442
 2014SOL     OW17500   3.240   3.655   3.417  0.1468 -0.5603  0.2622
 2014SOL    HW117501   3.267   3.564   3.432  2.2877 -0.0575 -0.5891
 2014SOL    HW217502   3.276   3.702   3.493 -0.7088  0.6843 -0.1113
 2015SOL     OW17503   1.252   2.928   8.203  1.3940 -0.0439 -0.2174
 2015SOL    HW117504   1.256   3.014   8.245  1.2958  0.3325 -0.9750
 2015SOL    HW217505   1.200   2.882   8.269 -2.0542 -0.5045 -3.2630
 2016SOL     OW17506   1.566   2.667   1.565 -0.1316  0.2462  0.4007
 2016SOL    HW117507   1.490   2.619   1.600 -0.6056  1.2063  0.6855
 2016SOL    HW217508   1.621   2.684   1.642  0.1120 -0.8735  0.4774
 2017SOL     OW17509   3.178   0.238   3.031 -0.1989 -0.2773  0.6310
 2017SOL    HW117510   3.227   0.156   3.029 -1.0807 -0.8139  1.4578
 2017SOL    HW217511   3.243   0.295   3.072  0.3899  0.8921 -1.9353
 2018SOL     OW17512   1.381   3.614  16.760  0.4479  0.2347 -0.1471
 2018SOL    HW117513   1.411   3.524  16.746  1.7686  0.4386  1.3108
 2018SOL    HW217514   1.452   3.661  16.716 -1.5513  1.3326 -2.1838
 2019SOL     OW17515   1.147   2.003   4.435  0.7194 -0.5164 -0.0546
 2019SOL    HW117516   1.240   1.985   4.445  0.6144 -0.4870  1.0151
 2019SOL    HW217517   1.144   2.098   4.425 -1.4603 -0.6637 -0.7713
 2020SOL     OW17518   2.566   1.956   7.830  0.8302  0.0404 -0.7493
 2020SOL    HW117519   2.593   1.912   7.749  1.4737 -0.4549 -0.2597
 2020SOL    HW217520   2.494   1.897   7.849  0.7772  0.7071  1.0596
 2021SOL     OW17521   1.457   1.645   0.264 -0.3882 -0.0881 -0.2836
 2021SOL    HW117522   1.376   1.647   0.213 -0.8214 -1.1248  0.3793
 2021SOL    HW217523   1.523   1.621   0.199 -0.4292 -0.0728 -0.3303
 2022SOL     OW17524   1.007   3.704   5.039  0.8283 -0.0686 -0.1305
 2022SOL    HW117525   1.071   3.769   5.069  0.1310  0.0046  1.2073
 2022SOL    HW217526   1.067   3.640   5.000 -1.4407 -0.4520 -3.0060
 2023SOL     OW17527   3.345   1.887   4.131  0.2790 -0.2882  0.1780
 2023SOL    HW117528   3.384   1.900   4.217  0.0858  3.5616 -0.2952
 2023SOL    HW217529   3.368   1.974   4.097  1.1136  0.0606  1.6236
 2024SOL     OW17530   4.643   0.396   1.289  0.6198  0.2924  0.3923
 2024SOL    HW117531   4.671   0.471   1.237  1.0798  0.3959  0.7870
 2024SOL    HW217532   4.684   0.318   1.250 -1.9074 -0.4272 -0.7889
 2025SOL     OW17533   2.584   4.604   6.981  0.5860  0.0554 -0.1620
 2025SOL    HW117534   2.641   4.660   7.033 -1.4272 -0.2717  2.4072
 2025SOL    HW217535   2.638   4.528   6.959 -1.0169 -1.1590  0.0846
 2026SOL     OW17536   3.002   1.169   8.051 -0.2393  0.1123  0.0610
 2026SOL    HW117537   3.046   1.113   8.114  2.4227  0.4911 -1.4699
 2026SOL    HW217538   2.988   1.243   8.110 -1.4687 -0.0702  0.0058
 2027SOL     OW17539   4.261   4.228   6.558  0.1455  0.4093 -0.7771
 2027SOL    HW117540   4.345   4.185   6.541 -0.5606 -1.1865 -0.2491
 2027SOL    HW217541   4.230   4.221   6.467 -0.4421  0.8349 -0.6069
 2028SOL     OW17542   3.827   2.918  15.955 -0.1877 -0.0773  0.1134
 2028SOL    HW117543   3.841   3.013  15.955  0.5694 -0.1882 -1.8308
 2028SOL    HW217544   3.908   2.886  15.993  0.0355  3.9349  3.0184
 2029SOL     OW17545   4.037   4.589   3.004 -0.5086 -0.2186 -0.0994
 2029SOL    HW117546   3.959   4.638   2.979  0.1286  0.1313 -1.4133
 2029SOL    HW217547   4.009   4.500   2.980 -0.1952 -0.6627  1.2039
 2030SOL     OW17548   2.540   3.426   1.437  0.6334  0.2955 -0.4584
 2030SOL    HW117549   2.494   3.442   1.519  0.5957 -1.0799 -0.1996
 2030SOL    HW217550   2.473   3.370   1.398 -0.0561  2.3522 -2.2244
 2031SOL     OW17551   1.293   4.020   7.240 -0.2533 -0.4236 -0.2933
 2031SOL    HW117552   1.202   4.039   7.216  0.7111  0.0739 -3.5501
 2031SOL    HW217553   1.293   3.924   7.241 -1.5067 -0.4251 -0.3809
 2032SOL     OW17554   2.038   1.367  12.570  0.2419  0.1836 -0.3857
 2032SOL    HW117555   1.977   1.381  12.498  1.2182  3.3165 -0.6117
 2032SOL    HW217556   2.100   1.304  12.533  1.3578  1.5446 -0.8543
 2033SOL     OW17557   4.039   0.973   3.719 -0.1674 -0.1124 -0.3073
 2033SOL    HW117558   4.009   1.062   3.702  0.7516  0.5250  1.4515
 2033SOL    HW217559   3.983   0.924   3.658 -1.8996 -1.1486  2.1045
 2034SOL     OW17560   2.748   0.348   7.529  0.1877 -0.0226  0.3359
 2034SOL    HW117561   2.764   0.255   7.509 -2.3471 -0.2754 -0.5790
 2034SOL    HW217562   2.701   0.335   7.611  1.2332  2.3411  1.2815
 2035SOL     OW17563   2.146   4.074  16.189 -0.4445 -0.0580  0.2974
 2035SOL    HW117564   2.052   4.062  16.202 -1.0399  1.9332 -2.1358
 2035SOL    HW217565   2.173   3.984  16.175 -1.7352 -0.4286  0.1827
 2036SOL     OW17566   0.506   3.361   1.621 -0.3041 -0.0817  0.7735
 2036SOL    HW117567   0.529   3.446   1.582  0.1082 -1.8648 -2.9572
 2036SOL    HW217568   0.479   3.384   1.709 -1.5976 -2.3263  0.9495
 2037SOL     OW17569   0.612   3.423   0.245  0.4421  0.1203  0.2280
 2037SOL    HW117570   0.533   3.408   0.193  2.0158 -0.2243 -2.1155
 2037SOL    HW217571   0.580   3.414   0.334 -0.1199 -1.0760 -0.0880
 2038SOL     OW17572   2.422   2.916   8.063  0.0479  0.6823 -0.1623
 2038SOL    HW117573   2.383   3.000   8.042 -1.3202  0.0231 -0.2187
 2038SOL    HW217574   2.475   2.929   8.142  1.1560  1.1305 -0.9720
 2039SOL     OW17575   3.368   2.056  15.821  0.7995 -0.6724 -0.4840
 2039SOL    HW117576   3.396   2.146  15.803  1.1939 -1.1163 -2.1804
 2039SOL    HW217577   3.437   2.030  15.882 -0.3391 -2.9687 -0.1904
 2040SOL     OW17578   1.938   3.257   8.197 -0.3159  0.5260  0.5032
 2040SOL    HW117579   1.853   3.267   8.238 -0.6286 -0.8977  0.2272
 2040SOL    HW217580   1.991   3.315   8.251  0.7277 -0.1221  0.1794
 2041SOL     OW17581   0.020   0.147   8.623  0.0332 -0.2443 -0.2478
 2041SOL    HW117582   4.685   0.192   8.683 -1.5480 -0.3506 -1.7110
 2041SOL    HW217583   0.092   0.147   8.686 -1.8083  1.2569  1.8494
 2042SOL     OW17584   1.288   2.343   6.168 -0.4542 -0.7030  0.1378
 2042SOL    HW117585   1.374   2.384   6.175 -0.6327 -0.5386  1.2858
 2042SOL    HW217586   1.309   2.250   6.162  1.2906 -0.3462  0.6674
 2043SOL     OW17587   0.550   1.684   9.094 -0.1893 -0.2009 -0.4888
 2043SOL    HW117588   0.637   1.678   9.054  0.1809  0.4265  0.2327
 2043SOL    HW217589   0.507   1.739   9.027 -0.2002 -0.7458 -0.9288
 2044SOL     OW17590   3.106   2.282  13.794  0.0174  0.4388 -0.1292
 2044SOL    HW117591   3.198   2.302  13.777 -0.5248  2.3620 -0.7042
 2044SOL    HW217592   3.102   2.194  13.755 -1.1229 -1.2835  3.8391
 2045SOL     OW17593   1.924   0.196   5.894  0.0460 -0.0971  0.0080
 2045SOL    HW117594   1.895   0.109   5.923  0.6424 -1.5711 -3.7964
 2045SOL    HW217595   2.017   0.175   5.889  0.2939  1.5471 -2.5171
 2046SOL     OW17596   0.081   1.053   9.958  0.2636  0.5346 -0.4412
 2046SOL    HW117597   0.048   1.072  10.045 -0.9311 -2.0791 -0.3142
 2046SOL    HW217598   0.143   0.983   9.979 -0.8340  0.1887  1.5890
 2047SOL     OW17599   2.908   4.340   4.784 -0.2274 -0.1844 -0.0440
 2047SOL    HW117600   2.989   4.379   4.749  0.9928 -2.1317  0.6044
 2047SOL    HW217601   2.871   4.293   4.710  1.7445 -0.4633 -0.8672
 2048SOL     OW17602   2.577   1.661   4.095  0.9745 -0.1853 -0.1067
 2048SOL    HW117603   2.598   1.638   4.004 -3.2381 -1.2660 -0.7797
 2048SOL    HW217604   2.644   1.611   4.142 -0.7343 -1.1123  1.3166
 2049SOL     OW17605   4.388   4.464   3.888 -0.1733  0.1227  0.1531
 2049SOL    HW117606   4.404   4.456   3.981  1.2647 -2.1914 -0.3241
 2049SOL    HW217607   4.410   4.381   3.847  2.6356  0.8258  0.2503
 2050SOL     OW17608   3.624   1.454   5.509 -0.2278  0.0726  0.2352
 2050SOL    HW117609   3.694   1.518   5.505  0.8763 -1.1690 -0.1576
 2050SOL    HW217610   3.605   1.468   5.602 -2.4576  1.1522 -0.3724
 2051SOL     OW17611   4.132   1.812   8.300  0.1056  0.4993  0.3255
 2051SOL    HW117612   4.053   1.817   8.355  0.1115 -0.8142  0.4500
 2051SOL    HW217613   4.098   1.866   8.229 -0.7459  0.1910  0.4929
 2052SOL     OW17614   4.366   0.813   1.481  0.0060  0.1937  0.3512
 2052SOL    HW117615   4.403   0.901   1.476  1.7801 -0.7195 -1.9797
 2052SOL    HW217616   4.294   0.828   1.544 -0.6775  0.4601 -0.4906
 2053SOL     OW17617   4.116   2.167   8.522 -0.2961  0.3105 -0.0914
 2053SOL    HW117618   4.048   2.112   8.560  0.5282 -0.4684  0.2565
 2053SOL    HW217619   4.075   2.208   8.446  0.7936  1.5859 -0.0030
 2054SOL     OW17620   2.101   4.173   1.928  0.1271  0.2611 -0.2987
 2054SOL    HW117621   2.165   4.215   1.870 -0.5055 -0.2299 -1.3467
 2054SOL    HW217622   2.142   4.191   2.013 -0.4680  1.8483 -0.3655
 2055SOL     OW17623   3.315   1.637  16.474  0.6231 -0.0649 -0.1329
 2055SOL    HW117624   3.290   1.585  16.550  0.2550 -0.0916 -0.2729
 2055SOL    HW217625   3.231   1.640  16.429 -0.1780  2.9397  1.6512
 2056SOL     OW17626   3.735   0.976  15.035  0.5558 -0.4612 -0.1645
 2056SOL    HW117627   3.786   0.933  15.104 -1.8383 -1.7625  0.8348
 2056SOL    HW217628   3.757   0.940  14.950  2.1516  0.0018  0.0642
 2057SOL     OW17629   3.704   0.150   5.307 -0.2695  0.4683 -0.2187
 2057SOL    HW117630   3.764   0.211   5.264 -0.7754  1.9494  1.1884
 2057SOL    HW217631   3.655   0.107   5.236  0.4137  0.0865 -0.4585
 2058SOL     OW17632   4.150   4.039   8.375  0.3092 -0.2587 -0.1800
 2058SOL    HW117633   4.083   4.061   8.440 -1.5148 -0.7523 -1.8762
 2058SOL    HW217634   4.105   4.011   8.295 -1.5587  0.5907  0.5668
 2059SOL     OW17635   3.064   2.990  14.487  0.1384 -0.8390  0.3766
 2059SOL    HW117636   3.020   3.044  14.420  2.7681 -0.7253 -1.2638
 2059SOL    HW217637   3.126   2.933  14.442 -0.0364  0.3113 -1.3291
 2060SOL     OW17638   1.983   4.048   7.908  0.1993 -0.0629  0.0005
 2060SOL    HW117639   2.052   4.002   7.957 -1.3934  0.0381  2.3523
 2060SOL    HW217640   1.963   4.125   7.962  0.5704 -0.6400  0.9665
 2061SOL     OW17641   2.149   4.209   6.935  0.6726 -0.4494  0.1408
 2061SOL    HW117642   2.193   4.167   6.861  0.8770  1.6576 -0.9230
 2061SOL    HW217643   2.171   4.300   6.915  1.8235 -0.6147  0.6421
 2062SOL     OW17644   1.668   1.552   0.093 -0.7338 -0.3573 -0.3465
 2062SOL    HW117645   1.741   1.498   0.064 -0.8638 -0.5983 -0.2199
 2062SOL    HW217646   1.722   1.622   0.131  1.0824 -1.6986 -0.4828
 2063SOL     OW17647   3.560   1.855  10.327 -0.5089  0.0897  0.0952
 2063SOL    HW117648   3.608   1.936  10.307  0.6550 -0.7539 -0.5433
 2063SOL    HW217649   3.615   1.824  10.399  0.1710  1.0122 -0.0277
 2064SOL     OW17650   3.110   1.379   4.250  0.6907 -0.1850  0.1532
 2064SOL    HW117651   3.057   1.458   4.258 -1.2714 -1.2761 -2.3052
 2064SOL    HW217652   3.199   1.413   4.253  0.6456  0.0959 -1.7909
 2065SOL     OW17653   0.007   3.808   5.874 -0.2928 -0.4446  0.6154
 2065SOL    HW117654   4.693   3.783   5.790  1.6505 -2.5286  0.3438
 2065SOL    HW217655   0.087   3.854   5.850  0.3711 -1.2534  1.2968
 2066SOL     OW17656   0.568   1.566   4.089  0.0982 -0.4012  0.3365
 2066SOL    HW117657   0.532   1.483   4.058  2.4919 -1.4202  0.3270
 2066SOL    HW217658   0.514   1.623   4.034 -2.3678 -3.0793 -0.0075
 2067SOL     OW17659   1.556   3.516   9.858  0.1151  0.5305  0.2995
 2067SOL    HW117660   1.570   3.421   9.861 -2.7349  0.1291  1.6496
 2067SOL    HW217661   1.518   3.529   9.771  1.5654 -0.0920 -0.4097
 2068SOL     OW17662   3.565   3.108  16.008  0.1148  0.1497 -0.0649
 2068SOL    HW117663   3.594   3.181  16.062 -0.1958  0.6055 -0.5144
 2068SOL    HW217664   3.628   3.118  15.936 -1.5533  0.2734 -1.5086
 2069SOL     OW17665   4.240   0.942   6.781 -0.0572  0.2950  0.0621
 2069SOL    HW117666   4.309   1.008   6.783  0.7825 -0.5255 -2.0100
 2069SOL    HW217667   4.211   0.929   6.690  0.1576 -2.5592  0.4086
 2070SOL     OW17668   1.878   2.951  11.497 -0.1428  0.2553 -0.2014
 2070SOL    HW117669   1.814   2.975  11.563 -0.5582  0.9542 -0.8592
 2070SOL    HW217670   1.855   2.862  11.471  1.1017 -0.5835  1.6079
 2071SOL     OW17671   2.315   3.324   6.167  0.1372  0.2580 -0.4268
 2071SOL    HW117672   2.405   3.333   6.200 -0.2529  0.8762  0.4827
 2071SOL    HW217673   2.264   3.389   6.216  1.0101 -2.4334  4.1355
 2072SOL     OW17674   2.435   0.876   1.581 -0.5595  0.2230 -0.2711
 2072SOL    HW117675   2.459   0.784   1.571  0.1763  0.4991 -1.0417
 2072SOL    HW217676   2.474   0.912   1.501  2.3981  1.0962  1.5233
 2073SOL     OW17677   4.612   4.148   7.746 -0.1840  0.4686 -0.0057
 2073SOL    HW117678   4.519   4.154   7.725 -0.4827  0.2611  1.2686
 2073SOL    HW217679   4.648   4.237   7.754 -0.9393  0.8585 -0.8870
 2074SOL     OW17680   0.949   2.499  10.231 -0.2606  0.4013  0.1570
 2074SOL    HW117681   0.904   2.531  10.309  0.3566  0.9982  0.2683
 2074SOL    HW217682   1.004   2.575  10.214 -0.2217  0.6036  1.1959
 2075SOL     OW17683   3.077   0.914  13.401 -0.1096 -0.0309 -0.2985
 2075SOL    HW117684   3.143   0.927  13.469  0.5256 -0.0909 -0.9092
 2075SOL    HW217685   3.114   0.981  13.344 -0.4767  0.1371 -0.3372
 2076SOL     OW17686   3.432   4.326   5.612 -0.0125 -0.5828 -0.5829
 2076SOL    HW117687   3.376   4.401   5.634  1.1959  0.1002  0.1511
 2076SOL    HW217688   3.515   4.360   5.644 -0.6200 -0.9689  1.3925
 2077SOL     OW17689   4.027   1.084  15.962  0.1794 -0.1885  0.5765
 2077SOL    HW117690   4.110   1.068  16.007 -0.5541 -3.7422  0.6906
 2077SOL    HW217691   3.972   1.108  16.037  1.1815  1.9678  0.6148
 2078SOL     OW17692   0.971   0.507  16.529  0.2612  0.9622  0.0969
 2078SOL    HW117693   0.891   0.539  16.570  1.1828  0.9083  1.9174
 2078SOL    HW217694   0.978   0.543  16.440 -0.6947  1.8297  0.3775
 2079SOL     OW17695   3.372   3.090  12.548 -0.1088  0.3675  0.0288
 2079SOL    HW117696   3.443   3.154  12.541 -0.1096  0.3027 -0.5646
 2079SOL    HW217697   3.333   3.101  12.461  0.0148  2.4109  0.2241
 2080SOL     OW17698   3.273   2.466  14.000 -0.1731 -0.4323  0.4619
 2080SOL    HW117699   3.254   2.500  13.912 -0.5785 -1.0456  0.3126
 2080SOL    HW217700   3.334   2.532  14.033  0.9877 -1.0923 -0.3959
 2081SOL     OW17701   1.302   3.579  11.592  0.2609 -1.0220  0.0795
 2081SOL    HW117702   1.398   3.582  11.598  0.0085  1.3725  2.9396
 2081SOL    HW217703   1.290   3.656  11.536 -0.7993 -1.4738 -0.3051
 2082SOL     OW17704   1.698   2.645  10.638  0.2740 -0.5321 -0.1013
 2082SOL    HW117705   1.619   2.612  10.595  1.4155 -2.8720 -0.3902
 2082SOL    HW217706   1.756   2.681  10.572 -2.0996 -0.3597 -2.1012
 2083SOL     OW17707   1.659   1.975   5.823  0.2563 -0.3253  0.1531
 2083SOL    HW117708   1.607   1.900   5.851 -1.2949  0.6714 -0.0697
 2083SOL    HW217709   1.722   1.937   5.762 -0.8028 -0.0921 -1.0789
 2084SOL     OW17710   3.327   1.897   7.605  0.2230  0.4990 -0.1005
 2084SOL    HW117711   3.347   1.953   7.531  0.9548 -2.3055 -2.0271
 2084SOL    HW217712   3.411   1.884   7.648  0.8429 -0.4297 -1.5907
 2085SOL     OW17713   0.085   1.002  14.233 -0.1695 -0.3747  0.2419
 2085SOL    HW117714   0.094   1.039  14.321 -0.1418 -2.5789  1.1569
 2085SOL    HW217715   0.049   0.916  14.251  2.8508 -1.6445  0.2851
 2086SOL     OW17716   0.693   2.906   0.522 -0.6044 -0.5975  0.0115
 2086SOL    HW117717   0.729   2.850   0.591  1.1224  1.5751  0.8788
 2086SOL    HW217718   0.599   2.896   0.537 -1.0557  0.7568 -1.9587
 2087SOL     OW17719   0.857   4.504   5.229 -0.5805 -0.0829 -0.2370
 2087SOL    HW117720   0.870   4.585   5.181  2.5622 -1.0716 -1.0577
 2087SOL    HW217721   0.902   4.432   5.184 -2.2974 -1.1737 -0.2252
 2088SOL     OW17722   0.819   3.845   4.602  0.5496  0.5315 -0.1061
 2088SOL    HW117723   0.856   3.777   4.659 -1.8763  0.0696  0.9224
 2088SOL    HW217724   0.901   3.876   4.565 -1.2959  1.0297 -3.8421
 2089SOL     OW17725   0.360   3.951   8.571  0.1541 -0.4302 -0.1091
 2089SOL    HW117726   0.447   3.912   8.578  0.6039  0.6590  0.5806
 2089SOL    HW217727   0.338   3.961   8.479 -1.1809  2.1240  0.4919
 2090SOL     OW17728   0.104   4.637   4.413 -0.2828 -0.5967 -0.2745
 2090SOL    HW117729   0.103   4.721   4.367 -1.2349 -0.8163 -0.6580
 2090SOL    HW217730   0.089   4.666   4.502 -0.9531 -0.4126 -0.4495
 2091SOL     OW17731   0.532   0.554   6.822 -0.4010  0.0969  0.5699
 2091SOL    HW117732   0.445   0.590   6.801 -0.3092 -0.5189 -0.8706
 2091SOL    HW217733   0.535   0.473   6.773  2.9225 -0.3713  1.5886
 2092SOL     OW17734   3.544   0.949   9.453 -0.3332  0.2541 -0.3839
 2092SOL    HW117735   3.501   0.979   9.373 -0.9469 -1.8102 -0.8327
 2092SOL    HW217736   3.549   0.855   9.438  1.6319  0.3876 -0.5202
 2093SOL     OW17737   2.338   1.434   8.032  0.3033 -0.9636  0.4287
 2093SOL    HW117738   2.327   1.369   8.102  0.1486  1.2728  2.4758
 2093SOL    HW217739   2.327   1.515   8.082  1.0645 -0.1546 -0.7301
 2094SOL     OW17740   3.983   2.752   1.960  0.2851  0.3231 -0.4525
 2094SOL    HW117741   3.904   2.734   2.011  0.3576  0.6553 -0.2233
 2094SOL    HW217742   4.031   2.670   1.970 -0.5359 -0.7427 -5.5289
 2095SOL     OW17743   3.781   1.801   9.553 -0.3210 -0.5031  0.5093
 2095SOL    HW117744   3.859   1.816   9.500  0.0383  0.8253  1.3927
 2095SOL    HW217745   3.774   1.707   9.538  0.9531 -0.4373 -0.4977
 2096SOL     OW17746   4.620   0.516   1.816  0.3383  0.0208 -0.0068
 2096SOL    HW117747   4.554   0.584   1.802  0.0342 -0.7764 -2.3859
 2096SOL    HW217748   4.675   0.568   1.875 -1.6046  0.3181  1.5407
 2097SOL     OW17749   4.213   2.048   5.299  0.3833 -0.5852  0.4203
 2097SOL    HW117750   4.168   1.964   5.286  0.7213 -0.4834 -1.4137
 2097SOL    HW217751   4.302   2.033   5.266 -0.3512 -0.4495 -1.5773
 2098SOL     OW17752   4.387   4.310  16.039 -0.2223  1.0651  0.3068
 2098SOL    HW117753   4.341   4.354  16.110 -1.4582  0.5544 -0.1720
 2098SOL    HW217754   4.451   4.375  16.009 -0.4355  2.4737  2.9082
 2099SOL     OW17755   4.492   2.529   3.538  0.1054 -0.2602  0.0227
 2099SOL    HW117756   4.444   2.448   3.557  0.5125  0.4562  4.1799
 2099SOL    HW217757   4.447   2.561   3.460 -1.4643  0.0990  1.0720
 2100SOL     OW17758   2.395   2.670   5.927  0.0082  0.0005  0.9787
 2100SOL    HW117759   2.308   2.699   5.955 -0.1243  0.0910  0.4783
 2100SOL    HW217760   2.409   2.594   5.984  0.7421  0.3489  1.2599
 2101SOL     OW17761   3.759   2.203   8.892 -0.0125  0.1810  0.3829
 2101SOL    HW117762   3.670   2.191   8.922  0.0178  0.9734  0.7902
 2101SOL    HW217763   3.810   2.147   8.950  0.7920  0.6885  0.1774
 2102SOL     OW17764   2.804   0.987  13.052 -0.2503  0.1329  0.0861
 2102SOL    HW117765   2.860   1.043  12.998 -1.5903  0.1664 -1.2941
 2102SOL    HW217766   2.835   1.005  13.141 -0.7738 -1.6177  0.6232
 2103SOL     OW17767   1.640   2.117   0.039  0.0102 -0.0578 -0.1765
 2103SOL    HW117768   1.581   2.121   0.115  1.2478  0.3512  0.7683
 2103SOL    HW217769   1.695   2.040   0.056 -1.8334 -1.2817  0.2839
 2104SOL     OW17770   2.147   2.489   3.448  0.0886  1.0123  0.2989
 2104SOL    HW117771   2.239   2.514   3.439 -0.2490  1.7906 -1.0681
 2104SOL    HW217772   2.151   2.409   3.500 -0.0963 -0.8103 -2.4979
 2105SOL     OW17773   1.144   3.561   3.680 -0.0368 -0.1734 -0.3743
 2105SOL    HW117774   1.101   3.610   3.611  1.5925  1.2835 -0.3659
 2105SOL    HW217775   1.193   3.496   3.629 -1.6875 -2.9166  1.5531
 2106SOL     OW17776   1.286   4.629   0.589  0.8468 -0.2405  0.0134
 2106SOL    HW117777   1.249   4.631   0.501 -0.0524  3.2691  0.4796
 2106SOL    HW217778   1.218   4.590   0.642  1.3341 -1.6492 -0.4006
 2107SOL     OW17779   2.070   0.903  12.447 -0.3200  0.2938 -0.3961
 2107SOL    HW117780   2.034   0.959  12.515  0.0993  1.8096 -1.4238
 2107SOL    HW217781   2.124   0.972  12.409  1.0935 -0.2157  0.6976
 2108SOL     OW17782   3.067   0.908   7.779  0.1644  0.5234 -0.1066
 2108SOL    HW117783   3.136   0.930   7.841  0.6174 -0.7853 -0.1579
 2108SOL    HW217784   3.001   0.897   7.847 -0.7643 -0.9066 -1.2413
 2109SOL     OW17785   2.718   0.881  14.751  0.3183  0.0877 -0.0357
 2109SOL    HW117786   2.701   0.833  14.670 -2.3553  2.5948 -0.9394
 2109SOL    HW217787   2.783   0.941  14.715 -1.8812  2.0161 -0.7940
 2110SOL     OW17788   0.830   3.006   7.618 -0.3349 -0.1030 -0.1400
 2110SOL    HW117789   0.899   3.060   7.656 -1.5908  1.5737 -0.2227
 2110SOL    HW217790   0.752   3.062   7.623 -0.9401 -0.8869 -0.7343
 2111SOL     OW17791   2.362   0.953   7.766 -0.3328  0.5622 -0.3211
 2111SOL    HW117792   2.358   0.879   7.826 -1.5173  0.2342 -0.7991
 2111SOL    HW217793   2.292   0.932   7.704  0.5921 -0.5911 -0.9724
 2112SOL     OW17794   0.352   2.965   7.194  0.3962  0.0979 -0.0385
 2112SOL    HW117795   0.301   2.975   7.274 -0.1521  3.4592 -0.8009
 2112SOL    HW217796   0.344   3.051   7.153 -0.5090  0.1797  0.3104
 2113SOL     OW17797   0.798   0.488   7.666 -0.1040  0.3993 -0.5855
 2113SOL    HW117798   0.726   0.425   7.671 -0.0999  0.2861 -1.7439
 2113SOL    HW217799   0.843   0.445   7.593 -0.2183  0.2654 -0.5779
 2114SOL     OW17800   0.904   0.011   7.370 -0.2656 -0.9941  0.4568
 2114SOL    HW117801   0.918   4.649   7.408 -0.6562 -2.8532 -3.6366
 2114SOL    HW217802   0.811   0.012   7.348 -0.1071  1.1656 -0.0950
 2115SOL     OW17803   1.651   0.484   5.446 -0.1251  0.3372 -0.1407
 2115SOL    HW117804   1.605   0.517   5.523 -1.7386  1.3515 -1.5388
 2115SOL    HW217805   1.708   0.556   5.420  0.7365  0.0500  0.9610
 2116SOL     OW17806   1.227   2.885   7.164  0.1595  1.0248  0.3062
 2116SOL    HW117807   1.193   2.841   7.086  0.6659 -1.5986  1.5721
 2116SOL    HW217808   1.319   2.858   7.165 -0.4904 -1.1633  1.0552
 2117SOL     OW17809   0.426   1.326   7.578 -0.5624  0.4222 -0.3285
 2117SOL    HW117810   0.411   1.334   7.673 -0.4878 -1.3036 -0.1671
 2117SOL    HW217811   0.435   1.414   7.543  2.8400 -0.0970 -0.7570
 2118SOL     OW17812   2.628   1.831   8.750  0.0538  0.2557  0.4234
 2118SOL    HW117813   2.665   1.897   8.810  1.5018  0.8846 -1.1606
 2118SOL    HW217814   2.705   1.820   8.695 -0.5176  0.0833 -0.3446
 2119SOL     OW17815   3.930   3.732   4.293 -0.0418 -0.2374  0.1026
 2119SOL    HW117816   3.952   3.645   4.324 -0.6683 -0.7099 -0.7816
 2119SOL    HW217817   4.007   3.759   4.242  1.2726 -2.5428  0.9208
 2120SOL     OW17818   4.363   4.526  16.496 -0.1468  0.3020 -0.5681
 2120SOL    HW117819   4.328   4.614  16.511 -1.9422 -0.3530 -0.9200
 2120SOL    HW217820   4.433   4.539  16.433 -0.0611 -1.6374 -0.8798
 2121SOL     OW17821   0.303   4.606   5.685 -0.2992  0.0424  0.4678
 2121SOL    HW117822   0.362   4.532   5.700  2.8007  2.8714  2.2808
 2121SOL    HW217823   0.355   4.670   5.733  0.8676  0.8324 -1.8922
 2122SOL     OW17824   3.238   1.718   2.244  0.1779  0.0159 -0.4237
 2122SOL    HW117825   3.185   1.648   2.205 -1.7660  1.7735 -0.9226
 2122SOL    HW217826   3.188   1.798   2.229  1.2500  1.4201  3.7287
 2123SOL     OW17827   4.166   1.392   4.706 -0.3022  0.1938  0.0459
 2123SOL    HW117828   4.186   1.415   4.616 -0.8482  0.0863 -0.1006
 2123SOL    HW217829   4.220   1.448   4.762  2.2464 -0.7900 -1.4356
 2124SOL     OW17830   4.687   2.025  16.901  0.7838  0.4679 -0.5894
 2124SOL    HW117831   4.624   2.095  16.920  2.1134  0.9161  2.0971
 2124SOL    HW217832   4.715   2.000  16.989 -0.2814  0.6645 -0.1956
 2125SOL     OW17833   4.390   3.752   5.814  0.5950  0.6782  0.1465
 2125SOL    HW117834   4.347   3.726   5.732 -1.5054  0.7781  1.2248
 2125SOL    HW217835   4.415   3.844   5.801 -0.4605  0.7685 -1.3266
 2126SOL     OW17836   4.280   3.986   5.026  0.2946 -0.5242 -0.2706
 2126SOL    HW117837   4.279   4.042   5.103 -0.1681 -0.4363 -0.3372
 2126SOL    HW217838   4.276   4.051   4.956 -0.1073 -0.1477  0.0998
 2127SOL     OW17839   2.163   2.469   8.061  0.1876 -0.1213  0.1977
 2127SOL    HW117840   2.248   2.490   8.098  1.2300 -0.9045 -1.7851
 2127SOL    HW217841   2.140   2.389   8.109  2.0803 -1.1232 -0.5776
 2128SOL     OW17842   2.848   1.544  16.137  0.8361  0.7203  0.0521
 2128SOL    HW117843   2.900   1.623  16.119  2.2041  0.0467  1.0614
 2128SOL    HW217844   2.825   1.526  16.046 -0.4329 -1.6461  0.8596
 2129SOL     OW17845   3.614   3.322   2.218 -0.4022  0.4434 -0.1756
 2129SOL    HW117846   3.677   3.339   2.148 -0.7763  1.4788 -0.2712
 2129SOL    HW217847   3.650   3.257   2.277  0.8428  0.1700 -1.2360
 2130SOL     OW17848   3.064   1.838   6.781 -0.2776  0.2564 -0.2481
 2130SOL    HW117849   3.123   1.767   6.806 -0.0846  1.0502  1.5375
 2130SOL    HW217850   3.002   1.790   6.725  1.1048 -3.6854  1.6212
 2131SOL     OW17851   0.644   0.210   2.436  0.0691 -0.1111 -0.2204
 2131SOL    HW117852   0.636   0.306   2.438 -0.2758 -0.1118 -1.4672
 2131SOL    HW217853   0.730   0.198   2.395 -1.0249 -2.0115 -1.9408
 2132SOL     OW17854   1.074   1.377   8.361 -0.0208  0.3309  0.0319
 2132SOL    HW117855   1.023   1.451   8.393 -0.8204  0.1078 -0.7134
 2132SOL    HW217856   1.009   1.334   8.305 -0.7904 -0.2384  1.3696
 2133SOL     OW17857   2.414   1.279   2.821  0.9041  0.1022 -0.1450
 2133SOL    HW117858   2.507   1.259   2.810  1.1910  1.1179  0.5039
 2133SOL    HW217859   2.415   1.351   2.883  0.6208 -0.4762  0.5366
 2134SOL     OW17860   4.702   3.041   8.965  0.2153 -0.3909  0.0325
 2134SOL    HW117861   0.029   3.105   9.014  0.0304 -0.2121 -0.0106
 2134SOL    HW217862   0.011   3.050   8.876  0.0081 -2.0282 -0.2144
 2135SOL     OW17863   4.688   0.505   3.870  0.6206 -0.3698 -0.4527
 2135SOL    HW117864   4.710   0.542   3.785  1.3083  2.1611  0.8367
 2135SOL    HW217865   4.633   0.443   3.821 -1.0842  1.0074 -0.2618
 2136SOL     OW17866   2.685   2.378   0.086 -0.0932 -0.6775 -0.6618
 2136SOL    HW117867   2.740   2.455   0.072 -0.6999 -0.3348 -1.1257
 2136SOL    HW217868   2.605   2.414   0.049  0.4681 -0.3470 -1.5538
 2137SOL     OW17869   1.307   0.952   2.604  0.3181 -0.3877 -0.3153
 2137SOL    HW117870   1.254   0.889   2.555  1.1730 -1.9192  0.7344
 2137SOL    HW217871   1.326   1.015   2.535 -0.1280 -0.6297 -0.6563
 2138SOL     OW17872   4.469   0.391   3.248 -0.1169 -0.2854  0.2708
 2138SOL    HW117873   4.404   0.322   3.238 -0.4406  0.2421 -1.2391
 2138SOL    HW217874   4.467   0.416   3.155  1.1653 -0.1971  0.2560
 2139SOL     OW17875   2.368   1.452  10.409 -0.1274  0.9198 -0.1336
 2139SOL    HW117876   2.335   1.392  10.476  1.4535 -1.8141 -1.7549
 2139SOL    HW217877   2.445   1.490  10.450  0.3868 -1.2151  0.9042
 2140SOL     OW17878   3.913   0.137   8.624 -0.3818 -0.2908  0.6647
 2140SOL    HW117879   3.831   0.104   8.588  0.5161 -4.3330  2.3300
 2140SOL    HW217880   3.881   0.191   8.697 -1.4980  1.2903 -1.0066
 2141SOL     OW17881   4.320   3.057   6.320  0.2263  0.2849  0.8524
 2141SOL    HW117882   4.340   3.089   6.233 -3.2488 -2.7320 -1.0487
 2141SOL    HW217883   4.400   3.014   6.349 -0.0980 -0.1486  1.1159
 2142SOL     OW17884   1.321   4.218   8.486  0.0679 -0.0075 -0.1102
 2142SOL    HW117885   1.245   4.178   8.444 -0.0722  0.6047 -0.4408
 2142SOL    HW217886   1.385   4.203   8.417  0.4492 -0.5980  0.3739
 2143SOL     OW17887   4.536   4.048   5.347 -0.0280  0.2108  0.2734
 2143SOL    HW117888   4.600   4.068   5.279  0.4754  2.5982  1.4802
 2143SOL    HW217889   4.555   4.106   5.421  1.0607 -1.5570  1.3774
 2144SOL     OW17890   4.049   3.424   6.048 -0.1517  0.2014  0.0451
 2144SOL    HW117891   3.976   3.435   6.110 -1.9279  0.9904 -2.2134
 2144SOL    HW217892   4.122   3.382   6.095 -0.1778 -1.3410 -1.3292
 2145SOL     OW17893   1.820   0.368   5.054  0.2069  0.8313  0.4692
 2145SOL    HW117894   1.893   0.430   5.043  0.6495  0.4666  1.3096
 2145SOL    HW217895   1.768   0.390   4.977 -1.2990  0.0227  1.2718
 2146SOL     OW17896   4.384   0.737   2.130  0.4217  0.2928 -0.3076
 2146SOL    HW117897   4.469   0.774   2.153  0.0227  1.2411 -0.3456
 2146SOL    HW217898   4.344   0.812   2.086  0.9366  1.1193  0.6131
 2147SOL     OW17899   2.883   3.504   6.172  0.4890  0.7672 -0.0385
 2147SOL    HW117900   2.908   3.564   6.242  0.9342 -2.0859  2.2169
 2147SOL    HW217901   2.963   3.454   6.153 -0.4630 -1.2735  1.4614
 2148SOL     OW17902   4.230   0.107   4.532 -0.1975  0.4376  0.1781
 2148SOL    HW117903   4.320   0.093   4.504 -0.5602 -2.0085  0.2909
 2148SOL    HW217904   4.178   0.029   4.514  0.4475  0.1545 -0.4688
 2149SOL     OW17905   3.749   3.085   3.837  0.1304  0.2849  0.3603
 2149SOL    HW117906   3.835   3.117   3.811  0.3400 -2.1316 -1.9379
 2149SOL    HW217907   3.746   2.995   3.805 -0.5790  0.5246 -0.2217
 2150SOL     OW17908   0.265   0.732   7.620  0.0266  0.0056  0.0766
 2150SOL    HW117909   0.217   0.668   7.567 -0.9582 -0.2298  1.2672
 2150SOL    HW217910   0.286   0.800   7.556 -1.1434 -1.8556 -2.2854
 2151SOL     OW17911   0.189   2.943   7.800 -0.0486 -0.2133 -0.0823
 2151SOL    HW117912   0.108   2.992   7.782  1.0413  1.2640 -0.9784
 2151SOL    HW217913   0.212   2.973   7.888  0.3893  1.2328 -0.6961
 2152SOL     OW17914   1.509   0.919   5.091 -0.4202  0.6592  0.0563
 2152SOL    HW117915   1.556   0.936   5.173 -1.6051 -1.7827  1.2491
 2152SOL    HW217916   1.584   0.915   5.031  0.6921  2.6237  1.3090
 2153SOL     OW17917   3.268   0.888   6.403 -0.1489  0.5980  0.7232
 2153SOL    HW117918   3.338   0.871   6.340  0.4427  1.8312  1.0564
 2153SOL    HW217919   3.198   0.872   6.340 -1.7045  3.5371  1.7427
 2154SOL     OW17920   3.121   1.320   7.820 -0.2836  0.1424  0.4233
 2154SOL    HW117921   3.161   1.248   7.773  0.2689  0.7481 -0.0278
 2154SOL    HW217922   3.076   1.262   7.881 -0.7887 -2.5555 -2.5125
 2155SOL     OW17923   2.889   1.745   0.174  0.9072  0.2976 -0.6399
 2155SOL    HW117924   2.809   1.772   0.220  0.5436 -0.9492 -0.5242
 2155SOL    HW217925   2.920   1.821   0.126  1.6390  0.8978  0.8094
 2156SOL     OW17926   1.746   0.428   2.359 -0.3209 -0.6648  0.5413
 2156SOL    HW117927   1.782   0.386   2.437  2.3888  2.0707  0.7738
 2156SOL    HW217928   1.791   0.380   2.288  0.4776  1.1435 -0.1736
 2157SOL     OW17929   2.344   0.721   3.389  0.0326  0.6078  0.5513
 2157SOL    HW117930   2.318   0.663   3.461  0.4749 -0.3198 -0.0398
 2157SOL    HW217931   2.310   0.805   3.418  0.0983  1.2454 -1.2179
 2158SOL     OW17932   2.674   2.212   3.934  0.3224  0.0058 -0.2943
 2158SOL    HW117933   2.662   2.289   3.989  1.0099 -0.9376  1.2007
 2158SOL    HW217934   2.616   2.144   3.968  1.1553  0.2485  1.6148
 2159SOL     OW17935   1.393   0.224   4.149  0.3639 -0.2840 -0.2706
 2159SOL    HW117936   1.379   0.139   4.191  0.0071 -0.1687 -0.1499
 2159SOL    HW217937   1.407   0.289   4.218  1.0390  0.9197 -1.5366
 2160SOL     OW17938   4.210   1.261   7.817  0.0850  0.4691  0.7451
 2160SOL    HW117939   4.156   1.225   7.747  1.1907  0.6777 -0.2183
 2160SOL    HW217940   4.296   1.221   7.805  0.1381  0.7046  0.3594
 2161SOL     OW17941   2.421   3.109  14.527 -0.6175  0.0903 -0.1129
 2161SOL    HW117942   2.394   3.018  14.535  0.2575 -0.2764 -1.2928
 2161SOL    HW217943   2.395   3.128  14.437 -1.3817  2.3744  0.5863
 2162SOL     OW17944   2.044   4.256   1.492 -0.5025  0.2689  0.4239
 2162SOL    HW117945   2.005   4.169   1.502 -4.5363  1.9975 -0.1827
 2162SOL    HW217946   2.135   4.237   1.513 -0.4174  0.2636  0.0501
 2163SOL     OW17947   1.353   1.739   7.149  0.6081  0.5548  0.3347
 2163SOL    HW117948   1.352   1.742   7.053 -0.6390 -2.4181  0.2606
 2163SOL    HW217949   1.445   1.759   7.166  0.2959  1.9544  0.4079
 2164SOL     OW17950   1.833   0.409   2.995  0.0697  0.0174 -0.3771
 2164SOL    HW117951   1.890   0.369   3.061  0.6616  2.2643  0.4709
 2164SOL    HW217952   1.896   0.477   2.972 -1.9663  2.2978  0.7634
 2165SOL     OW17953   4.488   2.747   5.845 -0.0742  0.3005  0.0151
 2165SOL    HW117954   4.439   2.676   5.803  2.8615 -2.6030  1.5290
 2165SOL    HW217955   4.533   2.692   5.909 -0.6259 -1.8072 -1.3931
 2166SOL     OW17956   2.654   3.750   4.830  0.6008  0.5434  0.0097
 2166SOL    HW117957   2.640   3.721   4.739  1.2691  2.5413 -0.7302
 2166SOL    HW217958   2.725   3.692   4.859 -0.5221 -0.6233  0.4475
 2167SOL     OW17959   0.698   0.996   4.205 -0.0885  0.0642  0.3137
 2167SOL    HW117960   0.656   1.068   4.251  0.5923  0.4950  0.2670
 2167SOL    HW217961   0.635   0.987   4.133 -0.8184  1.5930  0.7430
 2168SOL     OW17962   1.621   1.598   2.365 -0.6117  0.3068  0.0657
 2168SOL    HW117963   1.550   1.583   2.303  1.0089  0.3632 -1.8035
 2168SOL    HW217964   1.679   1.663   2.327  0.0878 -0.9886 -1.0798
 2169SOL     OW17965   3.877   0.665  15.337  0.0315 -0.3221 -0.1550
 2169SOL    HW117966   3.940   0.595  15.348  0.2584 -0.5269 -2.8364
 2169SOL    HW217967   3.878   0.675  15.242  3.2927 -1.7924 -0.2721
 2170SOL     OW17968   3.545   2.095   0.623  0.2679 -0.1917  0.2646
 2170SOL    HW117969   3.594   2.104   0.705 -0.9993 -3.2727  1.3737
 2170SOL    HW217970   3.501   2.009   0.623  0.3696 -0.2454  1.5494
 2171SOL     OW17971   3.734   3.902   7.766 -0.1355  0.5821  0.3899
 2171SOL    HW117972   3.723   3.808   7.777  1.0234  0.7741  3.0098
 2171SOL    HW217973   3.751   3.900   7.671  3.4623 -1.1357  1.0881
 2172SOL     OW17974   2.854   2.697   8.163 -0.9114  0.5247 -1.2199
 2172SOL    HW117975   2.787   2.678   8.229  1.5044 -2.5130  0.3973
 2172SOL    HW217976   2.842   2.637   8.089 -0.2252 -0.6780 -0.3656
 2173SOL     OW17977   0.168   1.200   2.764 -0.3085  0.3887 -0.7577
 2173SOL    HW117978   0.239   1.176   2.704  0.3399  0.3103  0.0529
 2173SOL    HW217979   0.101   1.239   2.708 -0.0762  1.4268 -0.3086
 2174SOL     OW17980   1.584   2.989   4.848  0.4547  0.4423 -0.1189
 2174SOL    HW117981   1.679   2.982   4.833  0.6624  2.4442  0.3361
 2174SOL    HW217982   1.544   2.996   4.761 -0.0871  0.5022  0.1407
 2175SOL     OW17983   2.504   1.611   0.994 -0.5432  0.2857 -0.1057
 2175SOL    HW117984   2.550   1.695   1.002  0.9220 -0.7621  2.4886
 2175SOL    HW217985   2.502   1.566   1.078 -1.8259 -1.5531 -1.1105
 2176SOL     OW17986   0.165   1.496  12.279 -0.3919  0.2263  0.3273
 2176SOL    HW117987   0.103   1.557  12.239 -0.4040  0.9569  1.4665
 2176SOL    HW217988   0.119   1.453  12.351 -0.0253 -1.8020 -0.6530
 2177SOL     OW17989   4.573   3.005   2.999 -0.6990 -0.2772  0.7023
 2177SOL    HW117990   4.552   3.097   3.014 -0.1422 -0.1481  0.6980
 2177SOL    HW217991   4.618   2.984   3.081  1.4001 -0.2174 -0.4390
 2178SOL     OW17992   4.215   2.164  10.551 -0.0952 -0.1838  0.1930
 2178SOL    HW117993   4.254   2.193  10.633 -0.8297  0.9854  0.1263
 2178SOL    HW217994   4.136   2.124  10.586  0.9360 -2.1978  0.2287
 2179SOL     OW17995   1.150   0.054   3.927  0.4777  0.4155 -0.0966
 2179SOL    HW117996   1.133   4.705   3.986  3.5982 -1.1087 -1.1294
 2179SOL    HW217997   1.086   0.023   3.863  1.2455 -2.6620  0.6480
 2180SOL     OW17998   3.179   0.013   4.493 -0.5979  0.4199 -0.5148
 2180SOL    HW117999   3.259   4.697   4.461 -0.0942 -0.1500  1.4767
 2180SOL    HW218000   3.212   0.097   4.524  2.2581 -1.0331  0.2865
 2181SOL     OW18001   4.204   3.061   5.739  0.1170  0.5639  0.2765
 2181SOL    HW118002   4.287   3.108   5.737  1.1074 -1.1749  0.3656
 2181SOL    HW218003   4.146   3.132   5.765 -0.0929 -0.4883  2.7137
 2182SOL     OW18004   4.104   0.956  13.429  0.2593 -0.1766  0.0021
 2182SOL    HW118005   4.164   1.023  13.396 -1.8936  2.6241  1.7796
 2182SOL    HW218006   4.155   0.910  13.496  2.3929 -0.4376 -1.7811
 2183SOL     OW18007   1.624   4.186   6.140  0.2056 -0.5548  0.2455
 2183SOL    HW118008   1.581   4.188   6.054  1.5261 -0.9392 -0.4138
 2183SOL    HW218009   1.715   4.181   6.112  0.0186  2.6540 -1.0448
 2184SOL     OW18010   4.220   1.434   2.370 -0.3518 -0.1862 -0.0478
 2184SOL    HW118011   4.298   1.423   2.424 -1.7412  1.2414  2.2994
 2184SOL    HW218012   4.174   1.350   2.363 -0.1814 -0.2496 -0.3682
 2185SOL     OW18013   2.174   0.090   5.932  0.3481 -0.3826 -0.5492
 2185SOL    HW118014   2.163   4.720   5.940 -2.3857  0.0298  0.7204
 2185SOL    HW218015   2.269   0.087   5.936  0.3022 -2.4191 -0.7691
 2186SOL     OW18016   3.737   1.825  11.031  0.2000 -0.4220  0.6351
 2186SOL    HW118017   3.720   1.754  10.970 -1.4880 -0.1394  0.7842
 2186SOL    HW218018   3.814   1.866  10.991 -0.5957 -1.1681 -1.6848
 2187SOL     OW18019   0.866   1.570   5.231  0.2964  0.4118  0.0107
 2187SOL    HW118020   0.833   1.639   5.173  0.0495 -0.0798 -0.4236
 2187SOL    HW218021   0.809   1.495   5.216 -2.9365  2.5861  1.4163
 2188SOL     OW18022   2.259   1.878   9.515 -0.6781 -0.1101  0.1628
 2188SOL    HW118023   2.267   1.857   9.422 -1.7971  0.1993 -0.0083
 2188SOL    HW218024   2.201   1.954   9.510 -0.7092 -0.0036  1.9998
 2189SOL     OW18025   2.225   3.947   2.551 -0.2535 -0.3995  0.0907
 2189SOL    HW118026   2.299   3.913   2.601 -0.1399 -0.3108 -0.0177
 2189SOL    HW218027   2.216   3.883   2.479 -2.0094 -0.3679  0.2755
 2190SOL     OW18028   0.407   0.482   4.663  0.9686  0.1441 -0.4723
 2190SOL    HW118029   0.465   0.557   4.665 -0.6993  1.4448 -0.6931
 2190SOL    HW218030   0.367   0.493   4.576  0.5426  1.1648 -0.1483
 2191SOL     OW18031   2.338   3.875   1.440  0.0919 -0.2431  0.6117
 2191SOL    HW118032   2.431   3.897   1.431 -0.2095  1.6097  2.0684
 2191SOL    HW218033   2.323   3.856   1.533 -0.1956 -3.2402 -0.0620
 2192SOL     OW18034   0.782   1.484   3.623  0.1978 -0.1142  0.0612
 2192SOL    HW118035   0.849   1.425   3.657  0.4443  0.3713  0.4021
 2192SOL    HW218036   0.805   1.465   3.532 -0.1670  1.2295 -0.3116
 2193SOL     OW18037   1.659   4.425   5.068  0.3241 -0.6085 -0.8643
 2193SOL    HW118038   1.698   4.377   5.141 -2.8549 -0.3938  0.9750
 2193SOL    HW218039   1.600   4.358   5.032 -1.2874  0.8246 -0.9002
 2194SOL     OW18040   1.633   3.943   0.763  0.7450  0.6118 -0.0511
 2194SOL    HW118041   1.700   3.876   0.759 -0.5089 -0.5015 -2.3358
 2194SOL    HW218042   1.570   3.907   0.701  0.9757 -0.5068  0.3607
 2195SOL     OW18043   0.505   2.382  16.932  0.3586 -0.1669  0.1642
 2195SOL    HW118044   0.540   2.403  16.845 -1.1858 -0.7829 -0.6090
 2195SOL    HW218045   0.454   2.460  16.953 -2.1626 -2.1289  1.3117
 2196SOL     OW18046   3.888   1.265  11.692  0.0318  0.0535 -0.0493
 2196SOL    HW118047   3.947   1.341  11.687 -1.9820  1.6113  0.0483
 2196SOL    HW218048   3.805   1.306  11.669  0.7607 -0.1308 -3.0266
 2197SOL     OW18049   2.121   4.164  13.542 -0.9257 -0.0236  0.4842
 2197SOL    HW118050   2.214   4.177  13.560 -0.9710  1.7865 -0.6769
 2197SOL    HW218051   2.087   4.236  13.489 -0.8013  1.4277  2.4299
 2198SOL     OW18052   3.307   4.720   3.060 -0.7134  0.2600  0.0263
 2198SOL    HW118053   3.390   0.038   3.040 -1.4339  1.1343 -1.0912
 2198SOL    HW218054   3.313   4.716   3.156 -1.8785  0.6637  0.1217
 2199SOL     OW18055   3.219   3.700   0.476  0.2415 -0.1698 -0.6703
 2199SOL    HW118056   3.307   3.665   0.461 -0.6962 -1.3780 -3.2898
 2199SOL    HW218057   3.169   3.657   0.408  1.3995  0.5010 -1.9498
 2200SOL     OW18058   0.849   3.143   1.546 -0.2569  0.4206  0.5660
 2200SOL    HW118059   0.840   3.160   1.640 -1.4000 -0.1720  0.5549
 2200SOL    HW218060   0.899   3.061   1.556  0.2778  0.5686 -0.9173
 2201SOL     OW18061   0.882   1.545   6.946  0.6099 -0.2712  0.2335
 2201SOL    HW118062   0.920   1.605   7.011 -1.5047  1.3315  0.0013
 2201SOL    HW218063   0.873   1.472   7.007  0.9219 -0.3299  0.2094
 2202SOL     OW18064   3.596   3.497   1.197  0.5799 -0.3307 -0.1233
 2202SOL    HW118065   3.672   3.439   1.203 -0.7969 -2.1848 -0.7563
 2202SOL    HW218066   3.543   3.442   1.140 -2.2452  1.0991  1.0960
 2203SOL     OW18067   3.631   3.241   9.988  0.4098  0.3338 -0.1793
 2203SOL    HW118068   3.660   3.166  10.040  1.9662  1.0622  0.0129
 2203SOL    HW218069   3.540   3.216  10.001  0.2231  1.2602  0.2996
 2204SOL     OW18070   2.423   2.492  14.252  0.4611 -0.2581 -0.3181
 2204SOL    HW118071   2.345   2.456  14.295 -0.1809  2.0344  0.4333
 2204SOL    HW218072   2.391   2.578  14.225  0.9582  0.4912  1.5081
 2205SOL     OW18073   2.713   2.917   8.849 -0.1016 -0.1602 -0.2903
 2205SOL    HW118074   2.716   2.875   8.935 -0.7073 -0.7308 -0.5431
 2205SOL    HW218075   2.642   2.980   8.861 -1.1942 -1.8813  2.2254
 2206SOL     OW18076   4.489   0.528   9.011 -0.4618  0.0908 -0.1913
 2206SOL    HW118077   4.499   0.434   9.024  1.4764  0.5979  1.8580
 2206SOL    HW218078   4.575   0.559   8.984 -0.1705 -0.6915 -0.1507
 2207SOL     OW18079   3.513   1.074   7.891 -0.4695  0.1869 -0.0062
 2207SOL    HW118080   3.499   0.979   7.890  2.2182 -0.1947  0.3678
 2207SOL    HW218081   3.552   1.071   7.804 -0.0679  0.8843  0.1522
 2208SOL     OW18082   1.327   4.015  12.318 -0.0873  0.3447  1.5557
 2208SOL    HW118083   1.410   4.045  12.283 -0.6193  1.5549  1.3220
 2208SOL    HW218084   1.329   4.080  12.389 -2.1336  0.0087  1.9381
 2209SOL     OW18085   0.177   1.082   3.495 -0.1005  0.1179 -0.3775
 2209SOL    HW118086   0.197   1.175   3.506  0.5113  0.1180 -1.4244
 2209SOL    HW218087   0.264   1.043   3.497 -0.4056 -0.5416  0.1612
 2210SOL     OW18088   3.924   3.677  14.204  0.2227 -0.2045 -0.3036
 2210SOL    HW118089   3.848   3.646  14.155 -0.3175  1.7210 -0.6921
 2210SOL    HW218090   4.007   3.640  14.172  0.4049 -0.9912  1.0812
 2211SOL     OW18091   0.302   0.164   5.311  0.3560  0.0751  0.5117
 2211SOL    HW118092   0.252   0.243   5.330  0.3314  0.2027 -0.0772
 2211SOL    HW218093   0.229   0.102   5.308  1.8596 -1.7903  1.7777
 2212SOL     OW18094   3.382   3.095   4.837 -0.1675 -0.5955 -0.9495
 2212SOL    HW118095   3.435   3.018   4.857  1.7788  1.1814  0.7639
 2212SOL    HW218096   3.396   3.090   4.743 -0.0889 -0.7768 -0.9276
 2213SOL     OW18097   3.640   4.198   7.601 -0.2827 -0.1785 -0.1051
 2213SOL    HW118098   3.694   4.224   7.675  0.4631  0.6939 -0.9617
 2213SOL    HW218099   3.704   4.186   7.531 -0.8323  1.0850 -0.8107
 2214SOL     OW18100   3.098   3.930   1.966  0.6267 -0.2092  0.0180
 2214SOL    HW118101   3.015   3.977   1.960  1.2323  0.6548 -1.4530
 2214SOL    HW218102   3.114   3.919   2.060  1.0252  1.4691  0.1470
 2215SOL     OW18103   0.486   3.294  14.214 -0.5322 -0.0890  0.3032
 2215SOL    HW118104   0.518   3.384  14.205 -0.8840 -0.2584 -2.8213
 2215SOL    HW218105   0.418   3.280  14.148 -0.1002 -1.5447  0.1631
 2216SOL     OW18106   2.302   1.764  14.290 -0.3759  0.5649 -0.3846
 2216SOL    HW118107   2.216   1.761  14.247 -0.3840  0.6929 -0.3779
 2216SOL    HW218108   2.330   1.850  14.259 -0.9870  0.0134 -2.4799
 2217SOL     OW18109   0.700   2.129  11.201  0.6422  0.1641  0.2320
 2217SOL    HW118110   0.773   2.163  11.151  1.0303  0.4525  0.9886
 2217SOL    HW218111   0.654   2.071  11.140 -1.0336  0.3642  1.3062
 2218SOL     OW18112   4.137   0.150   2.991 -0.6740  0.0433 -0.3153
 2218SOL    HW118113   4.110   0.157   2.900 -0.1239  0.9585 -0.4072
 2218SOL    HW218114   4.099   0.065   3.014 -0.3045  0.1764  0.7836
 2219SOL     OW18115   2.821   0.377  11.079  0.7678 -0.3063 -0.0521
 2219SOL    HW118116   2.746   0.424  11.042 -0.2630 -2.8652 -1.2043
 2219SOL    HW218117   2.800   0.373  11.172  0.9209 -1.8180 -0.0948
 2220SOL     OW18118   1.803   1.520  16.261  0.0914  0.3915 -0.7531
 2220SOL    HW118119   1.875   1.569  16.301  0.6878 -1.8513  0.9444
 2220SOL    HW218120   1.837   1.430  16.254  0.7720  0.8044 -2.8254
 2221SOL     OW18121   0.818   4.537   1.892 -0.3598 -0.5558 -0.4119
 2221SOL    HW118122   0.765   4.579   1.960  0.6717  2.3449 -1.4045
 2221SOL    HW218123   0.768   4.567   1.816 -0.5378  0.4616  0.1115
 2222SOL     OW18124   0.547   1.244   5.814  0.2331 -0.0727  0.3368
 2222SOL    HW118125   0.595   1.316   5.774  0.7764  0.7309  2.3919
 2222SOL    HW218126   0.486   1.226   5.743  1.8445  0.1213 -1.0948
 2223SOL     OW18127   3.042   4.187   1.067 -0.4354  0.7910 -0.5385
 2223SOL    HW118128   3.067   4.215   0.979 -2.4845  0.4786 -1.2318
 2223SOL    HW218129   3.081   4.100   1.068  0.0461  1.0110 -0.5104
 2224SOL     OW18130   3.443   0.788   0.847  0.0390  0.1336 -0.0015
 2224SOL    HW118131   3.430   0.874   0.887  1.5056 -0.0793  0.9205
 2224SOL    HW218132   3.360   0.748   0.876  0.8228 -2.8988 -1.9902
 2225SOL     OW18133   0.904   3.669   8.555 -0.2426  0.3063 -0.3570
 2225SOL    HW118134   0.943   3.718   8.628 -0.6106 -1.0548  0.7567
 2225SOL    HW218135   0.860   3.598   8.602 -0.6587  0.0466 -1.1532
 2226SOL     OW18136   1.767   0.117  15.134  0.9137 -0.1264 -0.8214
 2226SOL    HW118137   1.782   0.075  15.049  1.8134 -0.0541 -0.6916
 2226SOL    HW218138   1.842   0.175  15.125  0.9441  0.2274  1.7797
 2227SOL     OW18139   2.817   4.394   2.079  0.1475  0.3341 -0.0114
 2227SOL    HW118140   2.831   4.327   2.147 -1.5025 -0.2813 -0.2886
 2227SOL    HW218141   2.881   4.456   2.114  1.6821  0.6589 -3.4046
 2228SOL     OW18142   3.711   2.586   3.678  0.7138  0.1354  0.0351
 2228SOL    HW118143   3.796   2.555   3.648  0.5549  1.0070 -1.2971
 2228SOL    HW218144   3.701   2.656   3.613 -1.8621 -2.2661 -2.1989
 2229SOL     OW18145   1.858   3.721   3.147 -0.5182  0.0184  0.2999
 2229SOL    HW118146   1.778   3.680   3.180 -0.7470  1.4120  1.4591
 2229SOL    HW218147   1.832   3.745   3.058 -0.8435 -0.7623  0.1787
 2230SOL     OW18148   4.633   1.282   6.862 -0.2291 -0.2971  0.2274
 2230SOL    HW118149   4.612   1.338   6.937  1.2974 -1.5656  1.6185
 2230SOL    HW218150   4.715   1.324   6.836  0.9308 -2.2230  0.8151
 2231SOL     OW18151   1.108   2.983   4.097  1.1920  0.3161 -0.6034
 2231SOL    HW118152   1.050   3.047   4.138  0.1728 -1.0271  0.0530
 2231SOL    HW218153   1.191   3.029   4.083  0.0196  2.5779 -0.1373
 2232SOL     OW18154   0.105   0.691  12.965  0.2601  0.2862  0.0157
 2232SOL    HW118155   0.047   0.763  12.991 -2.0046 -2.0461  1.4576
 2232SOL    HW218156   0.051   0.615  12.942 -1.4444  1.6066 -0.3245
 2233SOL     OW18157   1.289   0.347   0.875 -0.5882 -0.0287 -0.2759
 2233SOL    HW118158   1.371   0.384   0.908 -0.7015  0.1269 -0.1664
 2233SOL    HW218159   1.323   0.273   0.825 -2.2583 -1.1287  0.2248
 2234SOL     OW18160   3.614   3.337   7.116  0.1074  0.3381  0.4422
 2234SOL    HW118161   3.629   3.243   7.116  0.3862  0.3793  0.8298
 2234SOL    HW218162   3.632   3.353   7.209 -0.9969 -0.2358  0.7613
 2235SOL     OW18163   0.289   2.576   9.473 -0.1067  0.0211 -0.0439
 2235SOL    HW118164   0.295   2.665   9.508  1.4624 -0.4533  0.8854
 2235SOL    HW218165   0.276   2.526   9.553 -3.1553 -0.5146 -0.8961
 2236SOL     OW18166   0.206   4.198   5.482 -0.1524  0.3295 -0.1716
 2236SOL    HW118167   0.263   4.197   5.405 -0.8530 -1.1381 -0.6598
 2236SOL    HW218168   0.186   4.291   5.465 -0.6611  0.6004  1.9744
 2237SOL     OW18169   4.386   1.569   4.856 -0.1998  0.6120  0.1851
 2237SOL    HW118170   4.348   1.642   4.904  0.3765 -0.1482  1.7864
 2237SOL    HW218171   4.427   1.619   4.784  0.6188  0.0048  0.2242
 2238SOL     OW18172   4.700   0.976   1.650  0.4434 -0.0665 -0.3827
 2238SOL    HW118173   4.615   1.001   1.686  1.7798 -0.5383  3.0757
 2238SOL    HW218174   0.010   1.062   1.629  0.4736  0.1746  0.6414
 2239SOL     OW18175   3.988   0.464   8.577 -0.0021  0.0213 -0.0292
 2239SOL    HW118176   3.900   0.456   8.614 -0.4370 -0.3849 -1.1431
 2239SOL    HW218177   4.039   0.499   8.649  1.2444 -0.0102 -0.9001
 2240SOL     OW18178   1.991   0.789   6.825 -0.1575  0.2024  0.1276
 2240SOL    HW118179   1.998   0.723   6.894 -1.3297 -0.4836 -0.4148
 2240SOL    HW218180   1.902   0.783   6.790 -0.4578  0.8264  0.7889
 2241SOL     OW18181   0.965   4.633   0.062 -0.5369  0.2090 -0.5274
 2241SOL    HW118182   0.898   4.568   0.082 -1.4489  1.1244 -0.5868
 2241SOL    HW218183   0.954   4.689   0.139  0.1396 -1.0256  0.4731
 2242SOL     OW18184   0.370   1.490   9.874 -0.3102  0.5649 -0.3170
 2242SOL    HW118185   0.335   1.401   9.879  2.6087 -0.3929  3.7889
 2242SOL    HW218186   0.412   1.506   9.959  2.2218  0.7917 -1.6279
 2243SOL     OW18187   1.070   3.699   6.961  0.3583 -0.7520  0.0270
 2243SOL    HW118188   1.036   3.723   6.875 -1.0106 -2.8034 -0.0048
 2243SOL    HW218189   1.028   3.613   6.970  0.8299 -0.9433  0.3720
 2244SOL     OW18190   1.693   2.274   5.741 -0.0659  0.2083 -0.6126
 2244SOL    HW118191   1.782   2.259   5.710  0.6605  1.0651  1.0987
 2244SOL    HW218192   1.674   2.193   5.788  0.4933 -0.9136 -2.3009
 2245SOL     OW18193   3.065   3.353   7.426  0.2676 -0.3392 -0.3659
 2245SOL    HW118194   3.037   3.368   7.516 -1.1461 -1.1787 -0.6745
 2245SOL    HW218195   3.082   3.443   7.396  0.3253  0.1081  1.0152
 2246SOL     OW18196   2.332   0.812  14.586 -0.2442  0.0595  0.1028
 2246SOL    HW118197   2.266   0.873  14.552 -0.4907  0.2041  0.8310
 2246SOL    HW218198   2.405   0.843  14.533 -0.5843 -2.0763 -1.5786
 2247SOL     OW18199   0.076   3.441   6.315 -0.2470 -0.0270  0.6331
 2247SOL    HW118200   0.120   3.513   6.359 -2.2059  0.3956  1.9297
 2247SOL    HW218201   0.059   3.376   6.383 -1.2582 -1.8218 -1.3074
 2248SOL     OW18202   2.360   0.932   2.721  0.1735  0.0042  0.1246
 2248SOL    HW118203   2.293   0.997   2.743  0.6016  1.3180 -2.4342
 2248SOL    HW218204   2.407   0.971   2.648 -0.1466  0.4570  0.1560
 2249SOL     OW18205   0.579   1.378   4.982  0.6504 -0.6626  0.2660
 2249SOL    HW118206   0.527   1.390   5.062  0.6928  0.2286  0.1568
 2249SOL    HW218207   0.512   1.321   4.943 -0.1698  0.0623  0.5969
 2250SOL     OW18208   0.247   1.227   1.024  0.2555  0.1271 -0.9756
 2250SOL    HW118209   0.312   1.230   0.953 -0.4624 -0.4665 -1.6535
 2250SOL    HW218210   0.172   1.186   0.982  0.3035 -0.7672 -0.1753
 2251SOL     OW18211   4.629   4.501   8.238 -0.4856 -0.2331 -0.1123
 2251SOL    HW118212   4.580   4.529   8.315 -0.8702  0.1639 -0.5017
 2251SOL    HW218213   4.722   4.497   8.263 -0.4308 -0.7103 -0.3995
 2252SOL     OW18214   1.179   0.443  16.765 -0.3354  0.2085  0.2204
 2252SOL    HW118215   1.158   0.420  16.856  0.1718 -2.1250 -0.2559
 2252SOL    HW218216   1.094   0.472  16.732  0.2426  1.6233 -0.0052
 2253SOL     OW18217   0.090   2.069  15.686 -0.1527  0.5871  0.5923
 2253SOL    HW118218   0.038   2.150  15.684 -1.6390 -0.4116 -1.7147
 2253SOL    HW218219   0.069   2.027  15.603  2.9429  2.6943 -1.2445
 2254SOL     OW18220   0.599   2.838  11.919 -0.0367 -0.4332  0.2267
 2254SOL    HW118221   0.523   2.894  11.906  0.8388 -0.0640 -3.2902
 2254SOL    HW218222   0.666   2.892  11.877 -0.4574  0.7086  1.0287
 2255SOL     OW18223   0.507   4.159   9.076 -0.5164  0.5328  0.5844
 2255SOL    HW118224   0.450   4.146   9.151 -3.7459 -0.7933 -2.0759
 2255SOL    HW218225   0.564   4.231   9.102  1.4183 -0.5676 -0.6550
 2256SOL     OW18226   2.522   3.912   7.394  0.1988  0.1416  0.4290
 2256SOL    HW118227   2.490   3.843   7.336  0.1925 -2.2302  3.2504
 2256SOL    HW218228   2.472   3.987   7.363 -0.3325 -0.1372  0.6022
 2257SOL     OW18229   3.971   2.164   3.359 -0.7730 -0.5577  0.2995
 2257SOL    HW118230   4.017   2.160   3.275 -0.1087  4.1853  0.4344
 2257SOL    HW218231   3.904   2.230   3.341  0.8324  1.4246  1.6526
 2258SOL     OW18232   0.928   0.104   8.305 -0.3796  0.0958 -0.5116
 2258SOL    HW118233   0.841   0.065   8.297 -0.3006  0.0182 -1.0637
 2258SOL    HW218234   0.952   0.055   8.384  1.7008 -0.0029 -1.1885
 2259SOL     OW18235   1.374   1.735   2.560  0.0365 -0.1120  0.3437
 2259SOL    HW118236   1.390   1.784   2.479  2.3867 -2.6829 -0.7740
 2259SOL    HW218237   1.316   1.666   2.528 -0.3129 -0.1099  0.9865
 2260SOL     OW18238   0.967   2.191  11.852  0.5910 -0.0221  0.0548
 2260SOL    HW118239   0.943   2.283  11.858  0.0360 -0.3068  2.5304
 2260SOL    HW218240   0.988   2.194  11.759 -1.2460  2.7231 -0.2841
 2261SOL     OW18241   4.256   0.236   3.224 -0.0941  0.0177  0.5639
 2261SOL    HW118242   4.217   0.323   3.236  1.1975  0.7248 -0.4494
 2261SOL    HW218243   4.208   0.212   3.145 -0.1529  2.1490 -0.0406
 2262SOL     OW18244   1.733   1.441   6.342  0.1799  0.2506  0.3828
 2262SOL    HW118245   1.794   1.377   6.306 -0.8979  0.9790 -2.6940
 2262SOL    HW218246   1.650   1.395   6.325  1.5069 -1.4454 -1.4283
 2263SOL     OW18247   3.033   3.445   6.963  0.5067  0.6497  0.0211
 2263SOL    HW118248   3.030   3.476   6.873 -1.3682  3.5163  1.0862
 2263SOL    HW218249   3.121   3.466   6.995 -0.0926  2.3254  0.5561
 2264SOL     OW18250   1.450   2.200   5.018 -0.3714 -0.2443 -0.0223
 2264SOL    HW118251   1.395   2.141   5.070 -0.5339  0.6424  0.8084
 2264SOL    HW218252   1.413   2.281   5.053 -0.8409 -2.4752  4.5503
 2265SOL     OW18253   3.955   0.082  17.221  0.0707 -0.4362 -0.7048
 2265SOL    HW118254   3.919   0.096  17.308  1.8446  1.1923 -0.2493
 2265SOL    HW218255   4.019   0.152  17.233  0.7998 -1.3689  0.8332
 2266SOL     OW18256   0.274   1.234   2.337  0.5374 -0.2847  0.7168
 2266SOL    HW118257   0.299   1.162   2.279 -0.9542 -0.1208 -0.1265
 2266SOL    HW218258   0.304   1.304   2.279  0.4584  0.5806  1.7134
 2267SOL     OW18259   2.369   0.325   4.815 -0.4493  0.1944  0.2730
 2267SOL    HW118260   2.417   0.302   4.735 -1.1809  2.5877 -0.8633
 2267SOL    HW218261   2.286   0.277   4.810  0.0676 -0.6967  0.2554
 2268SOL     OW18262   4.148   1.976   5.972  0.2649 -0.2398 -0.0517
 2268SOL    HW118263   4.192   1.984   6.057  0.1168 -1.7401  0.1755
 2268SOL    HW218264   4.059   2.005   5.987  0.1452 -0.3061 -0.6560
 2269SOL     OW18265   0.208   0.656   8.386  0.0656  0.6701 -0.0436
 2269SOL    HW118266   0.290   0.644   8.338  0.6096 -0.0682  1.0793
 2269SOL    HW218267   0.225   0.733   8.439 -1.1251  2.7615 -2.6689
 2270SOL     OW18268   0.997   0.802   5.086  0.0732 -0.0024 -0.2861
 2270SOL    HW118269   1.016   0.764   5.172 -0.6528 -1.3195 -0.7087
 2270SOL    HW218270   1.088   0.816   5.060 -0.3345  1.4076 -0.9738
 2271SOL     OW18271   2.360   0.222   0.008  0.5038 -0.2760 -0.1782
 2271SOL    HW118272   2.452   0.204  17.690  1.2195  2.2192  0.9269
 2271SOL    HW218273   2.358   0.316   0.023 -0.8000 -0.4451  0.7609
 2272SOL     OW18274   4.173   0.906  10.399 -0.2232 -0.4974 -0.4255
 2272SOL    HW118275   4.099   0.871  10.450 -1.7397  0.9315 -1.6492
 2272SOL    HW218276   4.124   0.954  10.332  1.7067 -1.0905 -2.2414
 2273SOL     OW18277   0.949   2.122   0.278 -0.1864 -0.2795  0.5490
 2273SOL    HW118278   1.013   2.082   0.221  0.5880  0.2264  1.0690
 2273SOL    HW218279   0.954   2.215   0.254 -0.7260  0.1019  1.8638
 2274SOL     OW18280   2.174   2.956   8.631 -0.0784 -0.0103 -0.1993
 2274SOL    HW118281   2.258   2.943   8.676  0.1352  2.5705  0.1168
 2274SOL    HW218282   2.191   3.031   8.574 -2.1120  1.6437  1.3878
 2275SOL     OW18283   1.524   4.491   1.350 -0.3686  0.3975  0.5921
 2275SOL    HW118284   1.598   4.477   1.410  1.6010 -0.9786 -2.1825
 2275SOL    HW218285   1.471   4.415   1.375  2.7554 -1.7180  0.7720
 2276SOL     OW18286   3.900   2.230   5.198 -0.2711 -0.2357 -0.1768
 2276SOL    HW118287   3.887   2.317   5.236 -1.2226  0.5141 -2.1887
 2276SOL    HW218288   3.812   2.214   5.163 -0.7192  1.7739  0.0035
 2277SOL     OW18289   2.415   2.056   7.174  0.3428  0.0303 -0.8105
 2277SOL    HW118290   2.370   2.070   7.091 -2.4641  0.4867  0.7829
 2277SOL    HW218291   2.452   2.144   7.179  1.3707 -0.2733 -3.1806
 2278SOL     OW18292   1.904   2.347  10.532  0.2504  0.3113  0.5004
 2278SOL    HW118293   1.948   2.411  10.476  0.7596  1.3913  2.1430
 2278SOL    HW218294   1.980   2.313  10.579 -0.4673 -2.0500 -0.0614
 2279SOL     OW18295   0.079   4.336   4.961  0.5175 -0.1629  0.5075
 2279SOL    HW118296   0.072   4.331   4.865 -0.7539 -0.9518  0.6385
 2279SOL    HW218297   0.062   4.430   4.973  0.4954  0.0399 -1.1222
 2280SOL     OW18298   0.243   1.780   9.783 -0.0136  0.2199 -0.4837
 2280SOL    HW118299   0.245   1.788   9.879 -1.2214 -2.1625 -0.2781
 2280SOL    HW218300   0.307   1.711   9.767  1.2547  0.8906  1.6585
 2281SOL     OW18301   1.560   3.474  17.116 -0.1916 -0.4880 -0.4593
 2281SOL    HW118302   1.596   3.386  17.124 -1.5863 -0.8529  1.8243
 2281SOL    HW218303   1.637   3.513  17.076 -1.3032  1.6965 -0.4615
 2282SOL     OW18304   3.829   1.632   7.629  0.3540 -0.1371 -0.1682
 2282SOL    HW118305   3.741   1.601   7.650  1.2367 -2.0070  0.7548
 2282SOL    HW218306   3.834   1.712   7.682  3.7521  0.6347 -1.6276
 2283SOL     OW18307   3.429   2.999  11.877 -0.2546 -0.4608  0.4504
 2283SOL    HW118308   3.400   2.958  11.958 -0.8449 -0.3047  0.3183
 2283SOL    HW218309   3.444   2.930  11.812  0.4026 -0.3263  0.4593
 2284SOL     OW18310   1.045   2.203   8.568 -0.2933  0.4270 -0.5614
 2284SOL    HW118311   1.008   2.153   8.641 -1.0788  0.0741 -1.1962
 2284SOL    HW218312   0.982   2.274   8.561 -0.3930  0.1010 -2.9928
 2285SOL     OW18313   4.672   2.078   2.554  0.4231 -0.2963 -0.0888
 2285SOL    HW118314   4.589   2.090   2.508 -0.5616  1.4465  2.1178
 2285SOL    HW218315   4.672   2.168   2.588 -0.9498  0.0443 -1.0344
 2286SOL     OW18316   4.019   1.188   3.147 -0.5781  0.0818  0.0738
 2286SOL    HW118317   3.967   1.108   3.147 -0.9058  0.3013  1.2711
 2286SOL    HW218318   3.966   1.239   3.086 -1.1728  0.5616  0.9951
 2287SOL     OW18319   0.462   4.618   4.628  0.2568  0.3166  0.6503
 2287SOL    HW118320   0.389   4.579   4.675 -0.6389  0.0219 -0.9959
 2287SOL    HW218321   0.416   4.699   4.606  1.2498  0.7226  0.0681
 2288SOL     OW18322   1.854   0.532   1.627 -0.0281  0.8904  0.1014
 2288SOL    HW118323   1.759   0.527   1.635  0.1086  1.4968  2.1178
 2288SOL    HW218324   1.879   0.447   1.591  1.7513  1.9409 -1.1395
 2289SOL     OW18325   4.677   4.073   3.867  0.1080  0.4262  0.0523
 2289SOL    HW118326   0.031   4.030   3.834 -0.0117  0.7437 -0.6443
 2289SOL    HW218327   4.709   4.129   3.937  0.5197  2.8779 -2.0820
 2290SOL     OW18328   2.597   0.434   3.300  0.1913  0.6115 -0.1076
 2290SOL    HW118329   2.602   0.505   3.363 -1.5447  0.6137  0.0400
 2290SOL    HW218330   2.610   0.473   3.213 -0.0669  0.0681 -0.3923
 2291SOL     OW18331   1.774   3.632  14.861 -0.0774 -0.2655 -0.1010
 2291SOL    HW118332   1.740   3.634  14.771  2.9241 -1.6084 -1.2407
 2291SOL    HW218333   1.707   3.590  14.915 -0.5895 -0.5472 -0.9581
 2292SOL     OW18334   1.946   1.805   5.085  0.1098 -0.0761  0.0060
 2292SOL    HW118335   1.939   1.755   5.004 -0.0417 -1.5106  0.8831
 2292SOL    HW218336   2.036   1.787   5.113 -0.6569 -2.1883  1.1942
 2293SOL     OW18337   1.624   4.516   0.811  0.2803 -0.2171 -0.2466
 2293SOL    HW118338   1.594   4.513   0.720 -1.6759 -0.5034  0.4102
 2293SOL    HW218339   1.662   4.429   0.824 -0.8774 -0.6817  0.0519
 2294SOL     OW18340   4.708   3.537  10.653 -0.2539  0.2594  1.1875
 2294SOL    HW118341   0.030   3.619  10.641 -1.3845  0.4194 -2.2605
 2294SOL    HW218342   0.008   3.524  10.744 -0.4494 -0.2887  1.1688
 2295SOL     OW18343   4.558   1.073   3.574 -0.5497  0.1702 -0.6114
 2295SOL    HW118344   4.487   1.010   3.584 -0.1909 -0.0247  0.7213
 2295SOL    HW218345   4.618   1.013   3.531  0.2254  0.0863  0.5999
 2296SOL     OW18346   3.200   2.128   4.771  0.0652 -0.3476  0.4909
 2296SOL    HW118347   3.206   2.058   4.836  0.2352 -1.8046 -1.0917
 2296SOL    HW218348   3.260   2.094   4.704 -0.4644 -0.3581  0.0218
 2297SOL     OW18349   2.495   3.540  16.120 -0.2048  0.1526 -0.3679
 2297SOL    HW118350   2.574   3.517  16.169  0.2214  0.5359 -0.8858
 2297SOL    HW218351   2.477   3.633  16.131 -2.1176 -0.3389  0.6952
 2298SOL     OW18352   3.487   1.341   7.050 -0.7227 -0.5149  0.3395
 2298SOL    HW118353   3.505   1.259   7.095 -0.2841  0.8363  2.6528
 2298SOL    HW218354   3.429   1.302   6.985 -0.9729 -0.0240  0.2642
 2299SOL     OW18355   1.418   4.649   4.833  0.6419  0.0798  0.2404
 2299SOL    HW118356   1.429   0.018   4.818 -0.1626 -0.0243 -0.9509
 2299SOL    HW218357   1.497   4.604   4.801  0.6676  1.5566 -1.7788
 2300SOL     OW18358   0.599   2.225  16.205  0.1092 -0.9365  0.7941
 2300SOL    HW118359   0.652   2.164  16.255  3.1695  0.0848 -1.2353
 2300SOL    HW218360   0.523   2.239  16.261  1.0407 -1.8748  2.2679
 2301SOL     OW18361   2.681   4.127   8.761 -0.4811  0.1534  0.2386
 2301SOL    HW118362   2.648   4.043   8.728 -0.0249  0.1016 -0.0819
 2301SOL    HW218363   2.705   4.090   8.846  4.0613 -2.0093 -2.0148
 2302SOL     OW18364   2.171   0.905   7.481  0.1064 -0.8708  0.0295
 2302SOL    HW118365   2.223   0.954   7.418  0.0507 -0.4961  0.2737
 2302SOL    HW218366   2.183   0.814   7.453  2.5619 -1.0110  1.6379
 2303SOL     OW18367   0.594   0.354   9.130 -0.2293 -0.4636  0.3149
 2303SOL    HW118368   0.575   0.286   9.065 -2.0470  0.3935 -0.0349
 2303SOL    HW218369   0.514   0.347   9.181 -0.4711  0.9232  0.1005
 2304SOL     OW18370   2.623   0.143   8.017 -0.5685 -0.1436 -0.7597
 2304SOL    HW118371   2.651   0.057   8.048  1.9665  0.6714 -0.8203
 2304SOL    HW218372   2.570   0.165   8.093  0.1145  0.1348 -0.3697
 2305SOL     OW18373   3.897   3.010   9.123 -0.1813  0.0213 -0.1648
 2305SOL    HW118374   3.990   3.025   9.104  0.5088 -2.0032  1.6323
 2305SOL    HW218375   3.874   3.096   9.158  2.8709  0.8777 -0.2467
 2306SOL     OW18376   4.140   0.354   0.739  0.1963 -0.1165  0.7179
 2306SOL    HW118377   4.102   0.339   0.653  2.0911 -0.8543  0.0119
 2306SOL    HW218378   4.063   0.367   0.794 -1.7859  0.4051 -2.1775
 2307SOL     OW18379   1.640   3.062   9.038 -0.1735  0.0513  0.0343
 2307SOL    HW118380   1.668   3.059   8.947 -0.1002 -0.3493  0.0719
 2307SOL    HW218381   1.548   3.049   9.014 -0.1866 -1.2084  0.7785
 2308SOL     OW18382   0.109   2.630   3.303 -0.2797 -0.2867  0.4686
 2308SOL    HW118383   0.164   2.677   3.366 -1.9332  0.0357  1.6859
 2308SOL    HW218384   0.028   2.629   3.354  0.1692  0.9382  1.2206
 2309SOL     OW18385   0.018   3.915   6.145 -0.8447  0.3333  0.1608
 2309SOL    HW118386   0.009   3.887   6.054  1.2676  1.8779 -0.5321
 2309SOL    HW218387   0.019   4.010   6.133  1.9413 -0.0050 -2.2444
 2310SOL     OW18388   0.365   0.780  10.147 -0.2576 -0.1289  0.4383
 2310SOL    HW118389   0.412   0.727  10.212 -0.5087  0.7279  1.3150
 2310SOL    HW218390   0.384   0.869  10.175  0.6794  0.3919 -1.8787
 2311SOL     OW18391   1.620   0.871   1.732  0.1102 -0.1734 -0.3616
 2311SOL    HW118392   1.544   0.824   1.766 -0.6563  0.6612 -0.9116
 2311SOL    HW218393   1.645   0.830   1.649  0.3287 -1.8954  0.5448
 2312SOL     OW18394   2.261   2.400   3.979  0.3143  0.0085 -0.1480
 2312SOL    HW118395   2.252   2.320   4.031  0.7912 -0.6860 -1.1233
 2312SOL    HW218396   2.316   2.371   3.906  0.8619  0.1519  0.2089
 2313SOL     OW18397   2.578   3.951   7.646  0.1921  0.2774  0.1619
 2313SOL    HW118398   2.560   3.934   7.554  0.0675  2.5116 -0.2321
 2313SOL    HW218399   2.592   3.863   7.681  0.8070  0.0406 -0.7051
 2314SOL     OW18400   0.417   0.181  11.325  0.1417  0.5399  0.2004
 2314SOL    HW118401   0.381   0.156  11.410 -0.9395 -2.0654 -1.0185
 2314SOL    HW218402   0.341   0.226  11.287  0.4953 -0.1370 -1.3045
 2315SOL     OW18403   2.416   2.084  12.407  0.0861  0.4209 -0.0872
 2315SOL    HW118404   2.442   1.992  12.408 -0.2846  0.3013 -1.1752
 2315SOL    HW218405   2.402   2.091  12.313 -2.0598 -0.0339  0.1896
 2316SOL     OW18406   0.340   0.452   3.703  0.4543  0.4527  0.1436
 2316SOL    HW118407   0.308   0.456   3.793  2.1467  1.4735  0.6952
 2316SOL    HW218408   0.331   0.544   3.678  0.6176  0.1746 -0.9573
 2317SOL     OW18409   2.877   0.281   8.009  0.3178 -0.4832  0.3044
 2317SOL    HW118410   2.784   0.265   8.028 -0.5448  0.5047 -2.8968
 2317SOL    HW218411   2.892   0.198   7.965 -1.4789  0.2129 -1.6473
 2318SOL     OW18412   4.219   0.110   4.963 -0.0637 -0.1262  0.4557
 2318SOL    HW118413   4.155   0.141   5.026 -1.1304 -1.9646  0.2690
 2318SOL    HW218414   4.178   0.035   4.921 -2.2055  0.5399  1.3767
 2319SOL     OW18415   2.887   4.398   8.967 -0.0640  0.5131  0.0955
 2319SOL    HW118416   2.819   4.381   9.032 -0.0303  0.6064  0.1543
 2319SOL    HW218417   2.944   4.322   8.981  0.0672  0.8200  1.2491
 2320SOL     OW18418   0.403   3.685  13.268  0.4029 -1.1403 -0.1312
 2320SOL    HW118419   0.380   3.709  13.178  0.0489 -1.5039 -0.1388
 2320SOL    HW218420   0.347   3.610  13.291 -0.2682 -0.1457  1.4897
 2321SOL     OW18421   0.186   1.610   6.834 -0.0888 -0.3583  0.2493
 2321SOL    HW118422   0.212   1.529   6.790 -1.5328 -0.9867  0.5686
 2321SOL    HW218423   0.115   1.596   6.896 -1.2341 -0.0060 -0.9856
 2322SOL     OW18424   1.537   3.867  10.116  0.1945 -0.0903 -0.2068
 2322SOL    HW118425   1.523   3.931  10.047 -0.5277 -0.0387 -0.0120
 2322SOL    HW218426   1.632   3.871  10.118  0.2068 -0.5317  0.0990
 2323SOL     OW18427   0.835   1.386   4.047 -0.0482 -0.5796  0.1028
 2323SOL    HW118428   0.862   1.430   4.128 -2.1975  2.7860 -1.0326
 2323SOL    HW218429   0.746   1.419   4.055  0.3626  0.0528  2.1546
 2324SOL     OW18430   4.649   0.276  17.514  0.0009  0.2070 -0.0803
 2324SOL    HW118431   4.577   0.291  17.575 -0.7479 -0.2806 -0.8483
 2324SOL    HW218432   4.699   0.358  17.519  1.2703 -0.4958 -1.1477
 2325SOL     OW18433   0.054   0.302  14.965 -0.4312 -0.1277 -0.5742
 2325SOL    HW118434   0.014   0.310  14.879 -1.4768 -0.7620 -0.1526
 2325SOL    HW218435   0.063   0.207  14.978 -0.8183 -0.1755 -0.6606
 2326SOL     OW18436   1.774   1.987   0.878  0.0022  0.6065  0.7818
 2326SOL    HW118437   1.690   1.964   0.917 -0.7736  0.4740 -0.9782
 2326SOL    HW218438   1.808   1.897   0.876 -0.3045  0.5009  0.3651
 2327SOL     OW18439   3.844   0.136   3.173  0.7750 -0.0381 -0.1391
 2327SOL    HW118440   3.835   0.090   3.090 -0.6721 -0.6249  0.3248
 2327SOL    HW218441   3.880   0.062   3.221 -2.6408 -2.3059 -1.0450
 2328SOL     OW18442   3.989   3.706   2.786 -0.0971  0.0032 -0.1239
 2328SOL    HW118443   4.026   3.624   2.818 -0.0801 -0.9687 -2.6860
 2328SOL    HW218444   4.016   3.716   2.694 -0.3923  1.6304 -0.0305
 2329SOL     OW18445   3.633   3.813   6.750 -0.2283 -0.1843  0.6263
 2329SOL    HW118446   3.669   3.856   6.672 -1.4919 -1.4064 -0.6280
 2329SOL    HW218447   3.710   3.809   6.808  1.0012  1.0749 -0.9158
 2330SOL     OW18448   0.660   3.710   6.245 -0.2089  0.0073 -0.0821
 2330SOL    HW118449   0.670   3.655   6.322  2.0559  0.8213  0.2312
 2330SOL    HW218450   0.611   3.655   6.185  0.0384 -0.8888  0.5419
 2331SOL     OW18451   4.351   0.319   0.409  0.5423  0.4191 -0.2708
 2331SOL    HW118452   4.380   0.395   0.357  0.1519  1.4366  0.9873
 2331SOL    HW218453   4.279   0.288   0.355  0.7682 -0.7102  0.0941
 2332SOL     OW18454   1.239   0.894   2.267 -0.2482 -0.2376 -0.1751
 2332SOL    HW118455   1.174   0.837   2.308 -2.3403  1.1962 -1.5055
 2332SOL    HW218456   1.201   0.980   2.285  0.7955  0.0289  0.7749
 2333SOL     OW18457   2.522   3.597   5.990 -0.0134 -0.1252  0.1131
 2333SOL    HW118458   2.613   3.571   6.006 -0.0545  1.1912  2.4764
 2333SOL    HW218459   2.488   3.512   5.963 -0.4817  0.6230 -1.6283
 2334SOL     OW18460   1.669   1.793  11.324 -0.4907 -0.1850 -0.1472
 2334SOL    HW118461   1.593   1.786  11.265  0.7261 -0.9860 -1.6086
 2334SOL    HW218462   1.725   1.732  11.276 -2.4007 -1.3130 -0.9445
 2335SOL     OW18463   0.452   3.183   9.780  0.4896  0.5996 -0.7405
 2335SOL    HW118464   0.362   3.199   9.809  0.0777 -0.1486 -1.6006
 2335SOL    HW218465   0.469   3.094   9.810 -0.2037  0.2352 -1.4309
 2336SOL     OW18466   2.554   4.290   8.009 -0.1490 -0.3286 -0.2682
 2336SOL    HW118467   2.649   4.280   8.018 -0.1226 -1.0352 -1.3772
 2336SOL    HW218468   2.521   4.207   7.976 -0.3433 -0.1023 -0.6440
 2337SOL     OW18469   0.182   4.601  10.716  0.3791  0.8035 -0.8112
 2337SOL    HW118470   0.193   4.524  10.772 -0.9189  0.7497 -0.6166
 2337SOL    HW218471   0.274   4.620  10.701  0.9765 -1.0016  0.5725
 2338SOL     OW18472   3.816   4.309   8.950  0.9985  0.5360  0.0046
 2338SOL    HW118473   3.836   4.216   8.967  0.0672  0.2260 -0.6008
 2338SOL    HW218474   3.757   4.324   9.024 -0.2583 -2.8493 -0.2703
 2339SOL     OW18475   3.368   2.902  16.374  0.3233 -0.7786 -0.3595
 2339SOL    HW118476   3.434   2.874  16.310  2.1984 -2.0281  2.1122
 2339SOL    HW218477   3.282   2.906  16.332 -1.1312 -1.6460  2.5234
 2340SOL     OW18478   1.294   3.055   6.444  0.1233 -0.2974 -0.4874
 2340SOL    HW118479   1.364   3.045   6.509 -1.7031  0.1750  1.5308
 2340SOL    HW218480   1.241   2.979   6.467  0.6646  0.1828  2.2870
 2341SOL     OW18481   1.022   3.855  13.767  0.0698  0.3553  0.1231
 2341SOL    HW118482   1.096   3.914  13.776 -0.0757  0.3765  1.1061
 2341SOL    HW218483   1.006   3.810  13.850  1.3962  0.5921  0.5024
 2342SOL     OW18484   1.634   1.226   4.943 -0.3162 -0.5481  0.1790
 2342SOL    HW118485   1.615   1.306   4.992  0.5092 -0.6965  0.7389
 2342SOL    HW218486   1.699   1.181   4.998  0.1030  1.9916  1.7619
 2343SOL     OW18487   3.202   3.197   8.470  0.4038  0.0437 -0.4568
 2343SOL    HW118488   3.276   3.194   8.410  0.5840 -1.6547 -0.1421
 2343SOL    HW218489   3.127   3.220   8.415 -0.2166 -1.5442 -0.2575
 2344SOL     OW18490   3.298   3.273   0.325 -0.3626  0.1646  0.1561
 2344SOL    HW118491   3.305   3.249   0.417  2.1232  1.5301  0.3305
 2344SOL    HW218492   3.221   3.223   0.297 -0.4839  1.0424 -1.0491
 2345SOL     OW18493   1.969   3.033   6.631  0.0656  0.1918  0.6568
 2345SOL    HW118494   1.972   3.045   6.726  4.0937  0.3248  0.5345
 2345SOL    HW218495   1.889   3.077   6.604  0.5633  1.2534  0.9050
 2346SOL     OW18496   2.542   0.540   4.698  0.3285  0.3941  0.3478
 2346SOL    HW118497   2.474   0.608   4.695 -0.2163 -0.0839  1.7887
 2346SOL    HW218498   2.486   0.463   4.685 -2.0663  2.1529  0.2161
 2347SOL     OW18499   1.523   4.690  13.405  0.6100 -0.3405  0.2986
 2347SOL    HW118500   1.460   0.035  13.427  0.7395 -0.1843  0.1684
 2347SOL    HW218501   1.507   4.629  13.477  1.7467 -0.1723  0.6858
 2348SOL     OW18502   1.007   2.554   6.111  0.0409 -0.4428  0.0676
 2348SOL    HW118503   0.927   2.520   6.072  0.6875 -1.7373 -0.1308
 2348SOL    HW218504   0.976   2.629   6.161  1.0841 -0.6411  1.0291
 2349SOL     OW18505   3.943   4.037  16.805 -0.0936  0.0024 -0.3036
 2349SOL    HW118506   4.007   4.088  16.855  2.2771 -0.5380 -2.7999
 2349SOL    HW218507   4.005   4.000  16.741 -0.7369  2.3665 -2.3141
 2350SOL     OW18508   0.199   3.836   2.233  0.4028  0.1574  0.5872
 2350SOL    HW118509   0.216   3.930   2.236 -0.9599  0.3979  1.1179
 2350SOL    HW218510   0.230   3.823   2.143  0.1443  1.5430  0.2926
 2351SOL     OW18511   3.184   2.163  11.530  0.6624  0.4301 -0.2413
 2351SOL    HW118512   3.181   2.157  11.625 -2.2999  3.7340 -0.1157
 2351SOL    HW218513   3.276   2.187  11.524  1.6059 -2.7474  1.6038
 2352SOL     OW18514   0.857   1.953   6.264  0.3199  0.1045 -0.3929
 2352SOL    HW118515   0.844   2.027   6.323 -2.5666 -0.4752 -0.3047
 2352SOL    HW218516   0.931   1.904   6.300  0.5952  0.3511 -0.6343
 2353SOL     OW18517   1.379   4.580   4.148  0.5312 -0.1703  0.7145
 2353SOL    HW118518   1.323   4.504   4.130  1.1361 -0.4510  0.0204
 2353SOL    HW218519   1.404   4.602   4.059  0.3042 -0.6725  0.5239
 2354SOL     OW18520   4.002   4.604   4.540  0.4173  0.0072 -0.3078
 2354SOL    HW118521   3.999   4.662   4.463  1.7664  0.2743 -0.1677
 2354SOL    HW218522   3.943   4.535   4.510  1.0031  0.1173 -1.7369
 2355SOL     OW18523   2.740   1.946   2.649 -0.5860  0.8035 -0.3492
 2355SOL    HW118524   2.792   1.899   2.584 -1.5316  0.6787 -1.0187
 2355SOL    HW218525   2.677   1.882   2.682 -1.3342  0.6297 -2.0932
 2356SOL     OW18526   2.168   2.313  10.628  0.0833 -0.0782 -0.3066
 2356SOL    HW118527   2.237   2.350  10.572  2.0973 -0.8588  1.6577
 2356SOL    HW218528   2.182   2.361  10.710 -1.4744  1.2162 -0.7880
 2357SOL     OW18529   1.293   2.257   8.022  0.1498 -0.1771 -0.0825
 2357SOL    HW118530   1.262   2.347   8.026 -2.1143 -0.9576  0.0686
 2357SOL    HW218531   1.216   2.202   8.004  1.8923 -1.4895 -3.6424
 2358SOL     OW18532   3.247   0.903   2.484 -0.2007  0.4668  0.1178
 2358SOL    HW118533   3.255   0.998   2.471 -0.0719  0.4878  0.3522
 2358SOL    HW218534   3.294   0.867   2.409  0.2006  0.9606  0.1337
 2359SOL     OW18535   2.604   2.965   8.259  0.2561  0.2258 -0.1932
 2359SOL    HW118536   2.680   2.976   8.317  2.2754 -0.9862 -2.6162
 2359SOL    HW218537   2.582   3.056   8.241 -0.1075  0.1201 -0.2673
 2360SOL     OW18538   0.683   3.918   7.284  0.1920 -0.6092  0.0871
 2360SOL    HW118539   0.750   3.852   7.266  0.5859 -0.1550 -0.1100
 2360SOL    HW218540   0.692   3.930   7.379  0.3295 -0.3606  0.0398
 2361SOL     OW18541   1.273   3.298   7.621 -0.0483  0.4791  0.0585
 2361SOL    HW118542   1.352   3.313   7.672 -2.1478  2.8577  2.6006
 2361SOL    HW218543   1.239   3.386   7.604 -0.2267  0.2765 -0.6651
 2362SOL     OW18544   0.234   0.041   2.725  0.3818  0.0216 -0.2751
 2362SOL    HW118545   0.154   0.089   2.745  0.8223  0.9081 -0.6254
 2362SOL    HW218546   0.299   0.106   2.752  1.7833 -0.4785 -2.3999
 2363SOL     OW18547   4.298   1.668   7.868 -0.4188 -0.3337 -0.0067
 2363SOL    HW118548   4.240   1.607   7.913 -0.0472  0.4443  1.5318
 2363SOL    HW218549   4.342   1.609   7.807 -1.1116  0.5329 -1.3521
 2364SOL     OW18550   2.849   0.052   8.424  0.7643  0.1836 -0.4121
 2364SOL    HW118551   2.803   4.703   8.464 -1.5203  1.6229 -0.4376
 2364SOL    HW218552   2.815   0.035   8.336 -1.7303  2.0344  0.1986
 2365SOL     OW18553   2.084   3.530   3.158 -0.3710 -0.4827  0.0987
 2365SOL    HW118554   2.068   3.491   3.244  2.0130 -0.9263  0.3478
 2365SOL    HW218555   2.007   3.584   3.144  1.7827  1.1595 -5.3867
 2366SOL     OW18556   2.245   3.245   2.059 -0.5339 -0.1133 -0.2562
 2366SOL    HW118557   2.155   3.245   2.027 -0.0682  0.9272 -1.5894
 2366SOL    HW218558   2.253   3.158   2.098  0.9339 -0.2582 -0.9146
 2367SOL     OW18559   4.128   0.531   4.134  0.1035 -0.8010 -0.1490
 2367SOL    HW118560   4.149   0.439   4.121 -0.7347 -0.4902 -3.6986
 2367SOL    HW218561   4.089   0.544   4.048  0.4534 -0.8399 -0.3154
 2368SOL     OW18562   0.914   1.939   3.255 -0.2895  0.2004 -0.4446
 2368SOL    HW118563   0.903   1.994   3.332  0.3489 -1.2448  0.6688
 2368SOL    HW218564   0.923   2.013   3.194  3.1986 -0.2237 -0.4512
 2369SOL     OW18565   0.830   0.222   4.110 -0.5354 -0.2905  0.2343
 2369SOL    HW118566   0.856   0.271   4.033 -0.2770 -0.9385 -0.0920
 2369SOL    HW218567   0.777   0.288   4.155 -0.3137 -0.5216  0.8395
 2370SOL     OW18568   2.025   3.204  16.322  0.5669  0.2714 -0.2260
 2370SOL    HW118569   1.979   3.215  16.406  0.1556 -1.2012 -0.2549
 2370SOL    HW218570   1.982   3.123  16.295  0.8620 -0.2361  0.8426
 2371SOL     OW18571   1.016   0.947   8.714 -0.0371  0.2279 -0.2703
 2371SOL    HW118572   0.925   0.944   8.682 -0.1165  0.8612 -0.1084
 2371SOL    HW218573   1.036   1.040   8.702 -0.9607  0.1195 -2.7769
 2372SOL     OW18574   3.584   2.498   3.253 -0.2174  0.0235  0.4507
 2372SOL    HW118575   3.497   2.502   3.213  0.1528 -0.5845 -0.4330
 2372SOL    HW218576   3.630   2.555   3.191  1.1010 -1.2299  0.2782
 2373SOL     OW18577   1.036   3.962   0.760 -0.7090  0.1755  0.0285
 2373SOL    HW118578   1.078   4.047   0.748 -1.0360  0.6900  2.5577
 2373SOL    HW218579   1.011   3.970   0.852  3.3005 -1.5998  1.2899
 2374SOL     OW18580   4.494   3.525   8.555  0.0124  0.1313  0.1406
 2374SOL    HW118581   4.464   3.466   8.624 -0.9817 -1.8354 -1.9602
 2374SOL    HW218582   4.416   3.581   8.553  1.0546  1.5863  0.2439
 2375SOL     OW18583   3.435   2.375   8.861 -0.2174  0.2368 -0.3517
 2375SOL    HW118584   3.344   2.375   8.891 -0.0999 -0.6572 -0.0045
 2375SOL    HW218585   3.467   2.296   8.904 -1.7737 -0.7005 -0.9243
 2376SOL     OW18586   1.605   3.911   7.506  0.3319 -0.0353  0.2958
 2376SOL    HW118587   1.573   3.977   7.444 -0.3716  1.3433  2.1373
 2376SOL    HW218588   1.700   3.919   7.497  0.3414 -0.0436  0.3946
 2377SOL     OW18589   3.988   4.063   7.844  0.2670 -0.2697 -0.0978
 2377SOL    HW118590   4.041   4.019   7.777  1.3374 -1.1168  1.3035
 2377SOL    HW218591   3.899   4.036   7.823 -0.1082  1.0523 -0.2020
 2378SOL     OW18592   0.627   0.545   1.790  0.0988  0.2506  0.5614
 2378SOL    HW118593   0.566   0.478   1.822  2.1907 -3.2070 -2.6555
 2378SOL    HW218594   0.605   0.555   1.697 -1.4900  2.3813  1.1676
 2379SOL     OW18595   1.045   1.160  10.659  0.6173 -0.1885  0.0495
 2379SOL    HW118596   1.067   1.214  10.735 -2.2876 -2.0105  2.1951
 2379SOL    HW218597   1.035   1.219  10.584 -0.3003 -0.0414  0.2894
 2380SOL     OW18598   2.516   1.495  15.995  0.2939 -0.2313  0.4811
 2380SOL    HW118599   2.544   1.413  15.954 -1.0553 -0.0756 -0.7249
 2380SOL    HW218600   2.505   1.474  16.088 -0.7150 -2.4094 -0.1280
 2381SOL     OW18601   1.122   0.788   8.465 -0.8426 -0.3574  0.3270
 2381SOL    HW118602   1.117   0.882   8.452  1.8119 -0.4064 -0.9175
 2381SOL    HW218603   1.059   0.776   8.537 -1.6566  3.8144  0.2650
 2382SOL     OW18604   0.159   2.410  10.859  0.0490  0.1519 -0.2558
 2382SOL    HW118605   0.174   2.504  10.867  0.7116  0.0310 -0.0867
 2382SOL    HW218606   0.225   2.376  10.920 -0.0050 -0.8308 -0.7389
 2383SOL     OW18607   1.370   2.072   3.144  0.0098  0.3109  0.4552
 2383SOL    HW118608   1.292   2.065   3.089 -0.6051 -0.8764  1.4667
 2383SOL    HW218609   1.370   1.984   3.182 -1.0549 -0.9550 -2.5141
 2384SOL     OW18610   2.424   0.462   3.952  0.0058 -0.1872 -0.8860
 2384SOL    HW118611   2.515   0.460   3.980  0.0781  1.6419 -0.9744
 2384SOL    HW218612   2.433   0.550   3.915 -0.3003  0.4903  0.6567
 2385SOL     OW18613   4.239   2.612   2.760 -0.7554  0.2149 -0.2032
 2385SOL    HW118614   4.173   2.654   2.705  1.0058  1.1898 -1.5619
 2385SOL    HW218615   4.284   2.689   2.794 -0.0468 -0.1911 -0.2093
 2386SOL     OW18616   3.949   2.377   6.662  0.3144  0.1183 -0.0781
 2386SOL    HW118617   3.970   2.422   6.580  0.2703  0.8896  0.3346
 2386SOL    HW218618   4.010   2.303   6.654 -0.6651 -0.9515  2.3714
 2387SOL     OW18619   1.949   2.255   3.844 -0.5579 -0.5957 -0.0326
 2387SOL    HW118620   1.876   2.222   3.896 -0.3680  2.7079  2.2877
 2387SOL    HW218621   2.022   2.199   3.872 -2.2989 -3.0422 -0.3413
 2388SOL     OW18622   0.918   3.625   5.543  0.1682 -0.0137 -0.0515
 2388SOL    HW118623   0.849   3.567   5.573 -0.3306  0.1638 -0.8445
 2388SOL    HW218624   0.930   3.597   5.452 -0.1157 -0.1471 -0.0495
 2389SOL     OW18625   2.212   0.677   5.534 -0.3395  0.4696 -0.4756
 2389SOL    HW118626   2.266   0.601   5.557  0.1553  0.7700 -0.6592
 2389SOL    HW218627   2.128   0.652   5.573 -0.3873 -0.1665 -0.9861
 2390SOL     OW18628   4.548   1.810   6.203 -0.0864  0.1468 -0.0157
 2390SOL    HW118629   4.543   1.801   6.298 -1.7570  0.0913 -0.1141
 2390SOL    HW218630   4.496   1.735   6.178  0.3977  0.3997 -1.7453
 2391SOL     OW18631   0.559   2.089   0.846  0.1048  0.2036 -0.3154
 2391SOL    HW118632   0.488   2.146   0.873 -0.3481  0.2376 -1.5966
 2391SOL    HW218633   0.540   1.998   0.871  1.3691  0.0860  0.2353
 2392SOL     OW18634   1.720   2.824   7.436  0.1447 -0.2874 -0.5026
 2392SOL    HW118635   1.743   2.738   7.471  0.3805 -0.5222 -1.2239
 2392SOL    HW218636   1.797   2.874   7.461  1.2776 -3.1731  1.7587
 2393SOL     OW18637   0.793   4.666   7.746 -0.0780  0.1453  0.3579
 2393SOL    HW118638   0.765   0.007   7.683 -3.0835 -1.0658  0.4011
 2393SOL    HW218639   0.868   4.711   7.785  1.6162 -2.7856  0.4827
 2394SOL     OW18640   0.369   0.967   6.779 -0.2052  0.2754  0.1332
 2394SOL    HW118641   0.432   1.022   6.826 -2.2455  2.3090  0.4862
 2394SOL    HW218642   0.288   0.976   6.829 -0.3603  0.0530 -0.0794
 2395SOL     OW18643   1.889   2.043   9.989 -0.1854 -0.3871  0.4527
 2395SOL    HW118644   1.916   1.955   9.962 -3.6817 -1.0335 -0.9951
 2395SOL    HW218645   1.816   2.062   9.930 -1.0333  0.0968  1.6572
 2396SOL     OW18646   0.100   3.162   0.702  0.0959 -0.2147 -0.4940
 2396SOL    HW118647   0.177   3.128   0.657 -0.5732 -1.8173 -0.4504
 2396SOL    HW218648   0.117   3.255   0.712 -0.7029  0.0052 -1.1725
 2397SOL     OW18649   0.250   0.234   4.877  0.1461  0.1836  0.1269
 2397SOL    HW118650   0.176   0.290   4.855  0.1657  1.4747  3.3831
 2397SOL    HW218651   0.294   0.284   4.945  1.0790  0.7372 -0.8770
 2398SOL     OW18652   3.309   3.725   6.296 -0.3207 -1.0570  0.0387
 2398SOL    HW118653   3.309   3.668   6.219  1.0021 -0.7405 -0.1908
 2398SOL    HW218654   3.397   3.718   6.333 -0.0770  2.0099  0.0010
 2399SOL     OW18655   3.347   2.770   6.380  0.1880  0.1196  0.0460
 2399SOL    HW118656   3.253   2.761   6.366  0.3049 -0.4020 -0.3999
 2399SOL    HW218657   3.373   2.692   6.430 -0.1061 -0.1365 -0.2002
 2400SOL     OW18658   2.422   2.485   8.581  0.7339  0.1255 -0.2985
 2400SOL    HW118659   2.385   2.398   8.592 -0.6481  0.7377 -0.1245
 2400SOL    HW218660   2.348   2.540   8.555  0.1160 -1.1391 -1.1796
 2401SOL     OW18661   1.527   1.524  12.975  0.1903  0.1328  0.3369
 2401SOL    HW118662   1.612   1.504  12.937  0.6218 -0.0591  1.3926
 2401SOL    HW218663   1.531   1.481  13.061 -0.6053 -1.0798 -0.2379
 2402SOL     OW18664   1.815   1.108  15.177  0.1608 -0.3294 -0.6776
 2402SOL    HW118665   1.722   1.098  15.158  0.2589 -1.6804 -0.4229
 2402SOL    HW218666   1.809   1.106  15.272  0.2324 -0.5293 -0.6779
 2403SOL     OW18667   3.352   0.196   4.981  0.2825 -0.2787  0.2247
 2403SOL    HW118668   3.383   0.270   4.930  1.4776 -2.4683 -2.2246
 2403SOL    HW218669   3.261   0.189   4.951  0.6015 -1.0916 -0.5489
 2404SOL     OW18670   2.268   0.520   3.560  0.3080 -0.0243  0.1399
 2404SOL    HW118671   2.336   0.467   3.602 -1.2692 -0.3351  2.2694
 2404SOL    HW218672   2.230   0.558   3.639 -0.6724 -1.9526  0.6051
 2405SOL     OW18673   3.654   0.263  17.347 -0.3299 -0.9189  0.8568
 2405SOL    HW118674   3.743   0.249  17.381 -0.4894  1.4823  2.2872
 2405SOL    HW218675   3.610   0.298  17.424 -0.5204 -0.6719  0.6378
 2406SOL     OW18676   3.067   1.439   3.851 -0.0186  0.0964  0.3454
 2406SOL    HW118677   3.019   1.501   3.796 -0.7061  0.6578  1.5593
 2406SOL    HW218678   3.129   1.492   3.901  2.2112  0.0734 -2.4162
 2407SOL     OW18679   2.283   0.791  12.729 -0.2951  0.5081 -0.3891
 2407SOL    HW118680   2.260   0.884  12.735 -2.3327 -0.0904  1.1146
 2407SOL    HW218681   2.232   0.763  12.653 -0.2751 -0.3296 -0.0932
 2408SOL     OW18682   2.148   0.132   6.933 -0.5435 -0.1404 -0.3663
 2408SOL    HW118683   2.101   0.051   6.953  0.3699 -0.6260 -0.2098
 2408SOL    HW218684   2.153   0.121   6.839  0.2741  1.0898 -0.4715
 2409SOL     OW18685   3.922   3.006   7.895  0.5066  0.2613 -0.5052
 2409SOL    HW118686   3.861   3.056   7.949 -0.6472 -1.7410  0.0402
 2409SOL    HW218687   3.923   2.927   7.948  1.3391  1.5522  1.3662
 2410SOL     OW18688   2.524   2.294   3.538  0.2160 -0.6300 -0.0291
 2410SOL    HW118689   2.522   2.274   3.445 -1.2326 -1.2214  0.1244
 2410SOL    HW218690   2.559   2.213   3.576 -2.0203 -1.0337  1.1791
 2411SOL     OW18691   0.639   0.422  16.120 -0.0823  0.3884 -0.0255
 2411SOL    HW118692   0.650   0.387  16.032 -2.7276  0.8777 -0.5401
 2411SOL    HW218693   0.716   0.380  16.158  0.1675  0.1568 -0.7904
 2412SOL     OW18694   1.509   0.220  12.537  0.1279  0.1289  0.4822
 2412SOL    HW118695   1.587   0.174  12.567  0.4842  1.4819  1.6508
 2412SOL    HW218696   1.548   0.276  12.470  2.8468 -0.2066  1.7842
 2413SOL     OW18697   1.667   2.240   9.358 -0.3226  0.4075  0.2629
 2413SOL    HW118698   1.691   2.176   9.292  0.7792  1.9606 -0.8613
 2413SOL    HW218699   1.756   2.261   9.386  0.0498 -0.7215 -0.0969
 2414SOL     OW18700   1.510   1.169  14.087 -0.3407  0.1727  0.4334
 2414SOL    HW118701   1.494   1.216  14.169  2.0657  0.9460  0.4768
 2414SOL    HW218702   1.586   1.116  14.109  0.7033  2.1674  1.6286
 2415SOL     OW18703   3.849   0.719   7.689  0.0073 -0.1754  0.4844
 2415SOL    HW118704   3.812   0.643   7.735 -1.3981  0.0503 -0.2567
 2415SOL    HW218705   3.942   0.695   7.687  0.3903  1.1465  2.8579
 2416SOL     OW18706   4.431   3.454  13.846 -1.1022 -0.1782  0.4157
 2416SOL    HW118707   4.473   3.496  13.921  0.3762  0.0762 -0.5470
 2416SOL    HW218708   4.405   3.370  13.883 -1.0714 -0.4877 -0.2716
 2417SOL     OW18709   3.977   0.309  11.539  0.0301 -0.2045  0.0774
 2417SOL    HW118710   4.004   0.271  11.455 -0.2972  0.3406 -0.2673
 2417SOL    HW218711   4.056   0.315  11.593  0.1319 -0.6928 -0.0152
 2418SOL     OW18712   4.675   1.559   3.640  0.1531 -0.0166 -0.2266
 2418SOL    HW118713   4.722   1.525   3.716  0.1809 -0.0933 -0.2778
 2418SOL    HW218714   4.640   1.473   3.617  1.3400 -0.2928 -1.0389
 2419SOL     OW18715   3.037   2.141   7.232 -0.0033 -0.3225 -0.0058
 2419SOL    HW118716   3.052   2.142   7.137  4.0345 -1.5164  0.6079
 2419SOL    HW218717   3.105   2.203   7.261 -0.8471  0.6853 -0.1984
 2420SOL     OW18718   2.359   4.275   9.892 -0.2476  0.3774  0.2406
 2420SOL    HW118719   2.394   4.277   9.803  0.2926  1.3377  0.4798
 2420SOL    HW218720   2.310   4.357   9.892 -0.3043  0.3377 -1.0786
 2421SOL     OW18721   0.990   0.260   2.714 -0.5173 -0.0813  0.1495
 2421SOL    HW118722   1.023   0.325   2.776 -1.0210  0.1103  0.2210
 2421SOL    HW218723   1.018   0.173   2.742 -0.8403  0.0970  1.0513
 2422SOL     OW18724   4.681   2.612   4.460 -0.0819 -0.1890  0.1991
 2422SOL    HW118725   4.594   2.636   4.493  0.0415 -0.6952  0.8887
 2422SOL    HW218726   4.723   2.573   4.536 -0.5120  0.8822  0.9953
 2423SOL     OW18727   2.713   3.007  15.032 -0.1286  0.1021  0.3381
 2423SOL    HW118728   2.643   3.062  14.997 -0.4329 -0.8375 -0.5331
 2423SOL    HW218729   2.692   3.017  15.125 -0.5449  1.8047  0.0565
 2424SOL     OW18730   2.592   0.836  13.153 -0.1789  0.2642 -0.0106
 2424SOL    HW118731   2.519   0.878  13.108  0.7128  1.1452 -0.6611
 2424SOL    HW218732   2.668   0.885  13.121 -1.1851  1.4780 -0.5182
 2425SOL     OW18733   3.121   4.047   6.206 -0.1781  0.1553 -0.1433
 2425SOL    HW118734   3.189   4.094   6.255 -0.1412  0.0032 -0.0482
 2425SOL    HW218735   3.129   4.093   6.122 -1.2035  1.0639  0.2610
 2426SOL     OW18736   1.625   1.735  10.310  0.0493  0.0627 -0.2824
 2426SOL    HW118737   1.695   1.728  10.375  2.7256  1.2613 -3.0111
 2426SOL    HW218738   1.563   1.795  10.350  0.2055  0.4751 -0.6614
 2427SOL     OW18739   0.209   2.119   5.562  0.2407  0.5222  0.5762
 2427SOL    HW118740   0.189   2.137   5.654  3.3392  1.1542  1.1316
 2427SOL    HW218741   0.217   2.023   5.561 -0.6685  0.4697 -0.4876
 2428SOL     OW18742   0.113   2.601   4.899  0.1546 -0.6389  0.5053
 2428SOL    HW118743   0.138   2.556   4.980 -0.2127 -0.1203  0.9143
 2428SOL    HW218744   0.041   2.661   4.920  0.1769 -0.7947  1.0390
 2429SOL     OW18745   2.851   3.321   2.974 -0.3330  0.8228 -0.4185
 2429SOL    HW118746   2.782   3.299   2.911  0.1563  2.9909 -1.7172
 2429SOL    HW218747   2.929   3.309   2.921 -1.3747 -1.9344 -1.3322
 2430SOL     OW18748   1.299   4.706  17.020  0.1826  0.5512  0.0348
 2430SOL    HW118749   1.314   0.009  16.929  0.3678  0.1831 -0.0437
 2430SOL    HW218750   1.241   0.050  17.054  0.5912 -0.2099  2.2837
 2431SOL     OW18751   1.351   4.609   6.272 -0.4178 -0.0412  0.4557
 2431SOL    HW118752   1.346   4.538   6.209 -2.2832 -0.1920  0.7901
 2431SOL    HW218753   1.442   4.605   6.303 -0.0150 -1.9371 -0.9809
 2432SOL     OW18754   4.089   2.102   1.149 -0.2374  0.5163 -0.0013
 2432SOL    HW118755   4.004   2.147   1.143 -0.7558 -0.1796  2.4299
 2432SOL    HW218756   4.094   2.086   1.243 -0.3777  1.7129  0.2078
 2433SOL     OW18757   2.950   0.149   3.152  0.3262  0.3922 -0.3363
 2433SOL    HW118758   2.889   0.218   3.125  0.6326  0.2636 -1.3602
 2433SOL    HW218759   3.036   0.177   3.120  0.8881  0.0886  0.9234
 2434SOL     OW18760   2.800   1.930   9.672 -0.0558  0.2487 -0.0271
 2434SOL    HW118761   2.846   1.982   9.738  2.2270 -1.0309 -0.6169
 2434SOL    HW218762   2.727   1.989   9.652  0.5845  0.4225 -1.7904
 2435SOL     OW18763   0.844   3.350   5.959 -0.2628 -1.0719 -0.2089
 2435SOL    HW118764   0.781   3.280   5.941 -1.2255 -0.1930 -0.3100
 2435SOL    HW218765   0.921   3.300   5.985  0.2095  0.7497  1.8811
 2436SOL     OW18766   0.786   1.835   2.869  0.2946 -0.0796 -0.6703
 2436SOL    HW118767   0.690   1.840   2.871  0.3306  0.0603  0.5099
 2436SOL    HW218768   0.794   1.926   2.841  1.2998  0.2459  0.7551
 2437SOL     OW18769   1.873   1.192   8.508 -0.5109 -0.0886  0.3039
 2437SOL    HW118770   1.786   1.159   8.528 -0.5464  0.9956  1.9756
 2437SOL    HW218771   1.886   1.160   8.419  0.5488 -0.3599  0.5598
 2438SOL     OW18772   0.709   3.626   9.108  0.8006  0.5402 -0.0487
 2438SOL    HW118773   0.695   3.617   9.203 -0.3838 -1.0948 -0.3771
 2438SOL    HW218774   0.741   3.539   9.085 -0.4757  0.0182  0.1714
 2439SOL     OW18775   1.174   4.218   6.128 -0.3303  0.2429  0.2043
 2439SOL    HW118776   1.218   4.134   6.118  1.4084  1.0654  0.8716
 2439SOL    HW218777   1.116   4.191   6.199  0.1778 -0.4552  0.3480
 2440SOL     OW18778   1.675   1.611   8.634 -0.2763 -0.1455 -0.2245
 2440SOL    HW118779   1.711   1.656   8.711 -1.6537  2.2919 -0.9957
 2440SOL    HW218780   1.757   1.591   8.589  0.1274  2.2933 -0.5634
 2441SOL     OW18781   4.329   4.137  10.832  0.2017  0.5089 -0.2905
 2441SOL    HW118782   4.396   4.121  10.766 -1.6518 -0.4136 -1.9612
 2441SOL    HW218783   4.271   4.062  10.819 -0.8879  1.3435 -0.2997
 2442SOL     OW18784   3.315   0.615  14.302  0.3646 -0.1405 -0.2137
 2442SOL    HW118785   3.306   0.591  14.395 -2.0998 -2.2274 -0.9806
 2442SOL    HW218786   3.287   0.532  14.264 -0.7167  1.0659 -1.9924
 2443SOL     OW18787   1.044   4.160   2.704 -0.0982 -0.9534  0.5100
 2443SOL    HW118788   0.965   4.111   2.727 -0.8803  0.1700  0.2489
 2443SOL    HW218789   1.080   4.113   2.629  0.9323  0.3232  0.2070
 2444SOL     OW18790   1.173   1.977   2.454  0.0863 -0.1231  0.2541
 2444SOL    HW118791   1.248   2.005   2.402  1.1902 -3.4977  0.0311
 2444SOL    HW218792   1.174   1.882   2.449 -0.3710 -0.2775  2.9890
 2445SOL     OW18793   3.952   2.867   3.130 -0.4033  0.2870  0.2568
 2445SOL    HW118794   3.970   2.938   3.068 -1.2915  0.4197  0.1417
 2445SOL    HW218795   3.979   2.903   3.214 -2.0034 -1.1552  1.3756
 2446SOL     OW18796   2.753   3.592  11.413 -0.3344  0.3344  0.4949
 2446SOL    HW118797   2.708   3.508  11.427 -2.7754  1.5095 -0.4296
 2446SOL    HW218798   2.846   3.567  11.416 -0.5488 -0.4994  0.2103
 2447SOL     OW18799   0.838   0.994  11.022 -0.4960  0.3987 -0.0052
 2447SOL    HW118800   0.819   0.901  11.032  0.0255  0.1471 -1.3649
 2447SOL    HW218801   0.887   0.992  10.940  2.6341 -3.6268  1.9958
 2448SOL     OW18802   4.248   1.874   2.199 -1.2620 -0.1625 -0.0449
 2448SOL    HW118803   4.284   1.940   2.140 -0.2668  0.2317  1.0263
 2448SOL    HW218804   4.228   1.936   2.269  0.6907 -0.5904  0.8822
 2449SOL     OW18805   3.595   1.503   9.373 -0.3673 -0.0509 -0.0614
 2449SOL    HW118806   3.604   1.428   9.431  1.0273  0.1627  0.0158
 2449SOL    HW218807   3.628   1.467   9.290 -2.3159 -1.0433 -0.3913
 2450SOL     OW18808   1.726   0.580   6.420  0.1021  0.8155 -0.0197
 2450SOL    HW118809   1.743   0.486   6.427 -1.5910  0.3964 -1.5657
 2450SOL    HW218810   1.630   0.581   6.426  0.1747  0.6801  1.1441
 2451SOL     OW18811   4.295   0.579   3.845  0.2320  0.7227  0.2995
 2451SOL    HW118812   4.353   0.503   3.844  0.3263  0.8197 -0.8615
 2451SOL    HW218813   4.211   0.536   3.864  0.2644  1.3493  1.8717
 2452SOL     OW18814   2.838   3.969   4.022 -0.3200 -0.2531 -0.6217
 2452SOL    HW118815   2.813   3.878   4.006 -3.0246  0.6798 -1.6727
 2452SOL    HW218816   2.786   3.979   4.102 -0.2371 -0.4764 -0.5386
 2453SOL     OW18817   4.659   3.355   9.296 -0.3910 -0.1144 -0.1071
 2453SOL    HW118818   4.571   3.388   9.312  0.6344  3.0695 -1.0448
 2453SOL    HW218819   4.704   3.435   9.324  0.6856 -0.4566 -0.8771
 2454SOL     OW18820   0.783   4.005   4.886 -0.2434  0.1983  0.0535
 2454SOL    HW118821   0.788   3.989   4.792  1.8597  3.5073 -0.3804
 2454SOL    HW218822   0.696   4.045   4.897 -1.7014 -2.2925 -2.4960
 2455SOL     OW18823   2.072   3.438   8.385 -0.5852  0.7297  0.1996
 2455SOL    HW118824   2.002   3.464   8.445 -0.3403 -1.4193  1.4368
 2455SOL    HW218825   2.136   3.497   8.424  1.8507 -0.7651 -1.5123
 2456SOL     OW18826   1.546   1.068  10.507  0.1829 -0.0986 -0.0333
 2456SOL    HW118827   1.584   1.054  10.594  1.3362 -1.2717 -0.7169
 2456SOL    HW218828   1.544   0.981  10.467  2.6211 -0.2473  0.1652
 2457SOL     OW18829   1.236   3.311   3.930 -0.3391  0.4106  0.6720
 2457SOL    HW118830   1.261   3.280   4.017 -0.7336  0.4467  0.7945
 2457SOL    HW218831   1.224   3.405   3.947  0.3280  1.0133 -2.0816
 2458SOL     OW18832   2.506   1.578   4.470  0.1425  0.0731  0.2659
 2458SOL    HW118833   2.470   1.492   4.451  1.0862 -0.6150  1.6054
 2458SOL    HW218834   2.456   1.631   4.407 -0.7723  0.1482  1.0527
 2459SOL     OW18835   2.946   1.607   7.413 -0.4681  0.1299  0.9278
 2459SOL    HW118836   3.014   1.617   7.480  1.4907  1.2211 -1.2633
 2459SOL    HW218837   2.931   1.515   7.435 -2.3381 -0.4881 -2.9995
 2460SOL     OW18838   1.676   3.262   5.583 -0.2652 -0.0018  0.0374
 2460SOL    HW118839   1.748   3.203   5.561 -0.3181  0.5514 -1.5703
 2460SOL    HW218840   1.708   3.285   5.671 -1.7548  1.1128  0.2979
 2461SOL     OW18841   3.894   2.236   7.644  0.1091 -0.5045  0.2074
 2461SOL    HW118842   3.952   2.190   7.583  1.7440  1.3585  0.3362
 2461SOL    HW218843   3.851   2.298   7.585  1.2777 -1.6154 -1.8218
 2462SOL     OW18844   3.936   2.506  12.228 -0.1486 -0.1621  0.2088
 2462SOL    HW118845   3.979   2.588  12.206 -0.4696  0.2660  1.1888
 2462SOL    HW218846   3.916   2.534  12.317  2.0169 -0.0396  0.6552
 2463SOL     OW18847   4.341   2.627   6.239  0.4521 -0.5400  0.5303
 2463SOL    HW118848   4.390   2.709   6.246 -0.0533 -0.0845 -1.3041
 2463SOL    HW218849   4.400   2.557   6.265  1.9716 -0.1554 -1.9387
 2464SOL     OW18850   1.488   1.281   0.951 -0.0587 -0.1786 -0.0731
 2464SOL    HW118851   1.505   1.367   0.912 -0.0071 -0.6713 -1.1181
 2464SOL    HW218852   1.536   1.232   0.884  0.3302  1.2209 -0.8189
 2465SOL     OW18853   0.566   0.168   8.623  0.2211  0.0004  0.6348
 2465SOL    HW118854   0.490   0.218   8.594 -0.5659 -1.3207  0.4299
 2465SOL    HW218855   0.537   0.078   8.607 -1.2286  0.1883  2.2833
 2466SOL     OW18856   3.970   1.543   7.875 -0.0998 -0.0609 -0.2373
 2466SOL    HW118857   3.983   1.548   7.780 -0.4843  1.3584 -0.2095
 2466SOL    HW218858   3.964   1.448   7.881 -0.4293 -0.0592 -0.5552
 2467SOL     OW18859   1.996   3.087   3.952  0.8013  0.0784  0.4341
 2467SOL    HW118860   1.972   3.027   4.022 -0.0425 -0.0405  0.0329
 2467SOL    HW218861   2.030   3.028   3.886 -1.6284 -0.2202 -0.5239
 2468SOL     OW18862   0.669   0.278   4.543  0.0652  0.1393 -0.6164
 2468SOL    HW118863   0.726   0.315   4.610  0.4472 -0.3150 -0.6917
 2468SOL    HW218864   0.700   0.187   4.543  1.3149  0.5682  0.4803
 2469SOL     OW18865   2.169   4.160   4.848 -0.1822 -0.0417  0.7228
 2469SOL    HW118866   2.226   4.185   4.922 -1.3122  0.9652  1.2555
 2469SOL    HW218867   2.090   4.143   4.899 -0.5887 -0.5560 -0.0957
 2470SOL     OW18868   0.429   0.979   3.589 -0.2469 -0.1345 -0.0885
 2470SOL    HW118869   0.463   1.041   3.525  0.0492  2.5419  2.6203
 2470SOL    HW218870   0.512   0.962   3.634 -0.5385  0.5266  0.7174
 2471SOL     OW18871   2.012   4.300   1.222 -0.2951 -0.4224 -0.3123
 2471SOL    HW118872   2.000   4.289   1.316  1.5853  1.2108  0.1165
 2471SOL    HW218873   1.964   4.382   1.212  0.4892  0.1529  0.6810
 2472SOL     OW18874   2.312   0.539   1.731 -0.1323  0.4141  0.0286
 2472SOL    HW118875   2.236   0.597   1.718 -0.6373 -0.5823 -1.4335
 2472SOL    HW218876   2.366   0.559   1.654  0.5816  0.4386  0.5361
 2473SOL     OW18877   2.329   4.332   7.612  0.2431  0.1904  0.8440
 2473SOL    HW118878   2.314   4.417   7.652 -1.7017  0.4190 -0.3998
 2473SOL    HW218879   2.416   4.350   7.575 -0.2067  1.7465  0.5653
 2474SOL     OW18880   0.892   2.268   4.686  0.3209  0.3155 -0.1460
 2474SOL    HW118881   0.799   2.247   4.688  0.5763 -0.7629  0.2364
 2474SOL    HW218882   0.898   2.363   4.675  0.7683  0.1160 -1.6133
 2475SOL     OW18883   3.325   0.874  17.620  0.2278 -0.1704  0.0234
 2475SOL    HW118884   3.297   0.786  17.593 -1.0423  0.5112 -0.9144
 2475SOL    HW218885   3.413   0.882  17.584  1.5380  0.2738  3.4027
 2476SOL     OW18886   1.498   3.805   4.830 -0.0767 -0.1702 -0.1245
 2476SOL    HW118887   1.555   3.844   4.897 -2.0226  1.7832  0.3921
 2476SOL    HW218888   1.448   3.741   4.881 -0.5049  0.5665  0.3835
 2477SOL     OW18889   2.217   3.734   3.042  0.2809  0.2814 -0.4160
 2477SOL    HW118890   2.282   3.704   2.979  2.1129  0.2953  1.4769
 2477SOL    HW218891   2.204   3.658   3.099 -2.2681 -0.6758 -2.2804
 2478SOL     OW18892   1.454   3.512  15.486 -0.4050  0.8507 -0.5740
 2478SOL    HW118893   1.501   3.595  15.476  1.4099 -0.1374 -0.2226
 2478SOL    HW218894   1.441   3.483  15.396 -0.0248 -1.2408  0.0328
 2479SOL     OW18895   2.835   3.118   8.670  0.3320  0.2294 -0.1464
 2479SOL    HW118896   2.775   3.050   8.701  0.2806 -1.4908 -4.0233
 2479SOL    HW218897   2.820   3.104   8.576 -0.1760  1.9605 -0.3354
 2480SOL     OW18898   0.131   4.144   1.206 -0.2047 -0.3586  0.0259
 2480SOL    HW118899   0.065   4.200   1.164  0.2664  0.6069  0.5761
 2480SOL    HW218900   0.092   4.057   1.196 -0.0632 -0.4428  0.2086
 2481SOL     OW18901   3.353   0.682   4.310 -0.2136  0.1415  0.1157
 2481SOL    HW118902   3.419   0.747   4.333  0.8755 -2.0933  3.2220
 2481SOL    HW218903   3.382   0.599   4.347  0.8007  0.4275 -0.0581
 2482SOL     OW18904   2.565   4.244   4.792 -0.5273  0.7561  0.2051
 2482SOL    HW118905   2.558   4.265   4.885 -0.7452 -0.4154  0.4473
 2482SOL    HW218906   2.586   4.151   4.799 -0.9878  0.6135 -0.3333
 2483SOL     OW18907   0.860   3.052   0.675 -0.0285  0.2071 -0.0325
 2483SOL    HW118908   0.830   3.113   0.743  1.3227  0.9387 -0.0844
 2483SOL    HW218909   0.778   3.015   0.643  0.5203 -0.7967 -0.2641
 2484SOL     OW18910   3.236   3.829  17.098  0.2050 -0.0331  1.1058
 2484SOL    HW118911   3.232   3.925  17.098  0.5851 -0.0194  2.3075
 2484SOL    HW218912   3.281   3.818  17.182  2.2638 -0.2049 -0.0127
 2485SOL     OW18913   2.587   1.850  13.064 -0.2898 -0.0828 -0.3146
 2485SOL    HW118914   2.671   1.892  13.046  0.3140 -1.6985 -1.3050
 2485SOL    HW218915   2.564   1.823  12.975  1.7004  1.6053 -1.3178
 2486SOL     OW18916   4.012   2.019   6.238 -0.0264 -0.0899  0.0200
 2486SOL    HW118917   3.993   1.968   6.316 -1.5766 -1.6405 -1.3787
 2486SOL    HW218918   4.107   2.025   6.249 -0.2148  3.4743 -0.1863
 2487SOL     OW18919   4.494   4.414   7.137 -0.3022 -0.3513 -0.3733
 2487SOL    HW118920   4.455   4.332   7.107 -0.4747  0.1623 -1.5558
 2487SOL    HW218921   4.551   4.438   7.063  0.5755 -0.0043  0.4098
 2488SOL     OW18922   3.231   3.462  12.406 -0.1457 -0.6511 -0.9424
 2488SOL    HW118923   3.187   3.482  12.489  2.3864  1.6670 -0.1428
 2488SOL    HW218924   3.207   3.370  12.409  0.5212 -0.7539  1.4072
 2489SOL     OW18925   1.188   4.028   7.694 -0.1551  0.4826 -0.3241
 2489SOL    HW118926   1.201   3.951   7.639 -1.4650 -0.1568  0.2445
 2489SOL    HW218927   1.242   4.000   7.767 -2.0010 -0.4075  0.6974
 2490SOL     OW18928   2.390   3.885   4.455 -0.2214  0.0778  1.1348
 2490SOL    HW118929   2.376   3.876   4.360 -0.2831  0.2009  1.1336
 2490SOL    HW218930   2.367   3.794   4.478  0.0761 -0.2307  0.2180
 2491SOL     OW18931   3.208   4.231   7.304 -0.1779 -0.2583 -0.1876
 2491SOL    HW118932   3.120   4.259   7.278  0.7359  1.6379 -1.2602
 2491SOL    HW218933   3.193   4.137   7.308  1.2944 -0.5268 -1.1527
 2492SOL     OW18934   1.513   4.213  12.912 -0.2753  0.8161  0.1351
 2492SOL    HW118935   1.558   4.129  12.925  0.4035  1.0806 -0.4945
 2492SOL    HW218936   1.428   4.183  12.944 -0.9699 -0.4235 -2.9118
 2493SOL     OW18937   0.876   2.821   4.633  0.7180  0.5314  0.5319
 2493SOL    HW118938   0.937   2.866   4.693  2.6558 -0.6828 -0.5212
 2493SOL    HW218939   0.899   2.870   4.554  0.1334 -0.5226 -0.2769
 2494SOL     OW18940   2.749   2.779   2.338  0.0311 -0.5212 -0.3611
 2494SOL    HW118941   2.707   2.697   2.313  0.2578  0.0058 -2.4905
 2494SOL    HW218942   2.737   2.829   2.257 -0.4133  1.1403  0.7222
 2495SOL     OW18943   4.219   3.197   6.552  0.2722 -0.3113  0.5301
 2495SOL    HW118944   4.254   3.172   6.466  1.7769  0.0981  1.0377
 2495SOL    HW218945   4.276   3.144   6.608  0.7563 -0.0221  0.3102
 2496SOL     OW18946   2.990   4.568   2.250 -0.0941 -0.6286 -0.1380
 2496SOL    HW118947   2.930   4.627   2.295  0.0713 -1.5987  1.3566
 2496SOL    HW218948   3.060   4.556   2.315  0.6117  2.6645 -0.3014
 2497SOL     OW18949   2.648   2.088   4.486 -0.5927 -0.3396  0.5622
 2497SOL    HW118950   2.626   2.137   4.406  0.2241  0.9494  1.1270
 2497SOL    HW218951   2.726   2.047   4.449 -1.7370 -1.0706 -1.0841
 2498SOL     OW18952   3.983   4.581   2.346 -0.2658  0.1373  0.5793
 2498SOL    HW118953   4.044   4.579   2.273 -1.0939  2.8346 -0.2170
 2498SOL    HW218954   3.915   4.637   2.307  0.1621 -0.1456 -0.5673
 2499SOL     OW18955   1.540   2.460   6.195  0.2031 -0.2545  0.0952
 2499SOL    HW118956   1.521   2.531   6.134  0.2509 -1.2513 -1.0572
 2499SOL    HW218957   1.609   2.401   6.165 -1.2963 -0.7299 -2.4087
 2500SOL     OW18958   2.416   2.720  10.129 -0.0850 -0.2029  0.1696
 2500SOL    HW118959   2.394   2.786  10.064  0.9917 -0.5216 -0.5336
 2500SOL    HW218960   2.332   2.720  10.174 -0.6903 -0.9573 -0.9689
 2501SOL     OW18961   0.725   3.577   8.272  0.4587  0.6012  0.9357
 2501SOL    HW118962   0.640   3.621   8.268 -0.9011 -2.0102  1.0708
 2501SOL    HW218963   0.713   3.483   8.288 -1.7750  0.7774  0.3200
 2502SOL     OW18964   1.038   1.879   5.363  0.0545 -0.1987  0.6159
 2502SOL    HW118965   0.966   1.906   5.306 -0.9732 -0.7973  1.6279
 2502SOL    HW218966   1.024   1.942   5.434 -0.7587 -0.6749  0.8747
 2503SOL     OW18967   2.688   2.325   4.345 -0.0464  0.1248 -0.0320
 2503SOL    HW118968   2.677   2.412   4.308 -0.6417 -0.3703 -1.0307
 2503SOL    HW218969   2.749   2.330   4.419  2.0920 -2.1962 -1.6649
 2504SOL     OW18970   3.124   3.752  12.091 -0.4216 -0.8584  0.1992
 2504SOL    HW118971   3.199   3.704  12.127  0.0927  0.9155  1.4880
 2504SOL    HW218972   3.158   3.802  12.017 -0.7928 -1.4116 -0.3443
 2505SOL     OW18973   4.149   2.219   6.601  0.5631  0.4033  0.5533
 2505SOL    HW118974   4.224   2.279   6.604 -0.2549  1.3373  2.1628
 2505SOL    HW218975   4.187   2.131   6.608 -1.1326 -0.4139 -0.5554
 2506SOL     OW18976   0.408   4.327   3.770  0.0510 -0.3413 -0.3326
 2506SOL    HW118977   0.441   4.327   3.680 -0.8590  0.1180 -0.6609
 2506SOL    HW218978   0.455   4.251   3.806 -1.3014 -0.1424  1.8524
 2507SOL     OW18979   1.879   2.586   5.481  0.7673  0.9533 -0.1779
 2507SOL    HW118980   1.841   2.514   5.432  1.2365 -0.7101  1.9176
 2507SOL    HW218981   1.973   2.569   5.473  0.4009 -0.4450 -1.4342
 2508SOL     OW18982   1.893   3.958   7.509  0.0158 -0.3296 -0.5996
 2508SOL    HW118983   1.933   4.035   7.550 -0.1350 -0.5375 -0.0602
 2508SOL    HW218984   1.901   3.976   7.416  2.9539  2.7589  0.2363
 2509SOL     OW18985   4.142   1.561   8.162 -0.1016  0.2671 -0.0908
 2509SOL    HW118986   4.116   1.619   8.233  0.6704 -0.5083  0.8236
 2509SOL    HW218987   4.141   1.621   8.088 -0.0202 -0.3582 -0.5960
 2510SOL     OW18988   1.789   1.453  12.906  0.0812  0.0538 -0.1012
 2510SOL    HW118989   1.851   1.433  12.976 -1.1312 -2.0252  0.3684
 2510SOL    HW218990   1.854   1.504  12.858 -0.7696  1.9080  0.7308
 2511SOL     OW18991   0.581   1.968   3.993 -0.4399  0.2874 -0.2942
 2511SOL    HW118992   0.570   1.975   4.088 -2.3550  1.3030 -0.5801
 2511SOL    HW218993   0.603   2.054   3.958  3.3522 -0.2156  0.9166
 2512SOL     OW18994   0.297   0.661   9.722 -0.3363  0.2968  0.3031
 2512SOL    HW118995   0.393   0.657   9.722 -0.3854 -0.7429  0.9773
 2512SOL    HW218996   0.273   0.715   9.798  3.9044  1.2532  0.9561
 2513SOL     OW18997   4.220   1.138  16.346  0.6383  0.0327  0.1949
 2513SOL    HW118998   4.187   1.065  16.398  1.7367 -1.6463 -1.4507
 2513SOL    HW218999   4.289   1.185  16.392  1.3806  1.1268 -2.0516
 2514SOL     OW19000   1.409   2.025   4.426  0.3277  0.0237  0.5151
 2514SOL    HW119001   1.447   2.105   4.462  1.7376 -0.0880 -0.7308
 2514SOL    HW219002   1.452   2.023   4.341 -2.1572  0.8031 -0.7398
 2515SOL     OW19003   1.974   2.126   2.118  0.7098  0.0989  0.8834
 2515SOL    HW119004   1.928   2.042   2.117  1.0410 -0.0838  0.4801
 2515SOL    HW219005   2.053   2.105   2.068 -0.5723  0.2011 -1.2217
 2516SOL     OW19006   2.193   3.787  12.458 -0.7859 -0.1366 -0.7602
 2516SOL    HW119007   2.158   3.698  12.465  2.6365 -1.3888  0.2440
 2516SOL    HW219008   2.164   3.815  12.371 -4.2981  2.1694  1.1421
 2517SOL     OW19009   2.200   0.776   5.974 -0.0648  0.6511  0.1425
 2517SOL    HW119010   2.236   0.861   5.948 -2.0093  0.6599 -2.5627
 2517SOL    HW219011   2.107   0.798   5.975 -0.5977 -1.5641 -1.8954
 2518SOL     OW19012   1.558   3.206   7.458  0.1511 -0.1788  0.8617
 2518SOL    HW119013   1.543   3.174   7.547 -1.3276 -1.6059  0.0816
 2518SOL    HW219014   1.636   3.259   7.477  0.1269 -0.4416  1.6813
 2519SOL     OW19015   4.251   1.146   5.592  0.1184  0.1391 -0.4177
 2519SOL    HW119016   4.183   1.100   5.641 -0.2053  2.7145  1.5946
 2519SOL    HW219017   4.234   1.113   5.504 -0.4280 -1.4977  0.2976
 2520SOL     OW19018   0.907   1.119   6.772 -0.3764  0.6020  0.2255
 2520SOL    HW119019   0.922   1.069   6.852  0.1941 -0.3314 -0.4579
 2520SOL    HW219020   0.814   1.131   6.756 -0.5737 -0.5293  0.5335
 2521SOL     OW19021   2.843   3.865  14.526 -0.6588 -0.6702  0.1364
 2521SOL    HW119022   2.869   3.934  14.586  1.7892 -1.2673 -0.2158
 2521SOL    HW219023   2.791   3.806  14.580 -1.7526 -0.1478 -0.3459
 2522SOL     OW19024   2.954   1.632   4.236 -0.1952  0.6464 -0.3002
 2522SOL    HW119025   2.977   1.711   4.187  1.5152 -0.1704 -0.7979
 2522SOL    HW219026   2.939   1.672   4.322  0.0419 -0.7187  0.3781
 2523SOL     OW19027   1.234   1.875   2.767  0.1393 -0.2319 -0.5901
 2523SOL    HW119028   1.256   1.872   2.674  0.7138 -0.4684 -0.4417
 2523SOL    HW219029   1.164   1.810   2.765 -2.0319  2.0458  0.7138
 2524SOL     OW19030   0.349   0.183   1.392  0.8809 -0.0199  0.7284
 2524SOL    HW119031   0.304   0.174   1.308  0.2708  1.0139  0.9433
 2524SOL    HW219032   0.414   0.249   1.369 -0.3901  0.5822 -1.1086
 2525SOL     OW19033   0.803   2.951   6.889 -0.3812  0.3783  0.6771
 2525SOL    HW119034   0.818   2.974   6.980  1.2614 -1.6338  0.9051
 2525SOL    HW219035   0.794   3.033   6.841  2.2923 -0.5027 -1.3259
 2526SOL     OW19036   2.939   0.568   5.824 -0.0382 -0.1366 -0.5213
 2526SOL    HW119037   2.900   0.602   5.743 -2.2112  0.8493  0.9682
 2526SOL    HW219038   2.880   0.499   5.853  0.6427 -0.3662  0.3370
 2527SOL     OW19039   2.157   2.278  14.975  0.4302 -0.0934 -0.4215
 2527SOL    HW119040   2.114   2.218  15.037  1.3266 -0.1318  0.1652
 2527SOL    HW219041   2.137   2.253  14.884 -0.4831 -0.5235 -0.1080
 2528SOL     OW19042   4.656   4.462   5.391  0.0333 -0.5040 -0.9134
 2528SOL    HW119043   4.622   4.382   5.431 -1.0233 -0.3274 -1.4746
 2528SOL    HW219044   4.585   4.472   5.328 -1.3865  0.2640  0.8101
 2529SOL     OW19045   0.351   2.362   4.479  0.5536  0.1627 -0.4333
 2529SOL    HW119046   0.405   2.433   4.513  0.4377  0.9176 -1.8086
 2529SOL    HW219047   0.381   2.355   4.388 -1.1749 -2.1120 -0.8291
 2530SOL     OW19048   0.167   4.409   6.952 -0.2143 -0.1193  0.1954
 2530SOL    HW119049   0.185   4.401   6.858 -0.1822 -0.4730  0.2299
 2530SOL    HW219050   0.086   4.459   6.951  0.2914  0.6902 -0.7307
 2531SOL     OW19051   4.276   4.193   4.856 -0.1552 -0.4390  0.2223
 2531SOL    HW119052   4.353   4.202   4.800  1.3262 -1.2613  2.1552
 2531SOL    HW219053   4.220   4.256   4.810  0.4517  0.5795  0.8833
 2532SOL     OW19054   0.353   3.859  11.959 -0.4131  0.4752 -0.4915
 2532SOL    HW119055   0.361   3.830  11.868  1.2723 -1.8472  0.4284
 2532SOL    HW219056   0.280   3.921  11.961  0.0937  1.0872 -0.8560
 2533SOL     OW19057   1.350   4.002   7.939 -0.5436 -0.4608  0.2438
 2533SOL    HW119058   1.441   4.020   7.913 -0.8624 -0.1064 -0.6524
 2533SOL    HW219059   1.337   4.045   8.023  0.9331 -2.3975  1.4597
 2534SOL     OW19060   3.755   1.071  10.433 -0.6474  0.2645 -0.5175
 2534SOL    HW119061   3.730   0.981  10.411  0.6091  0.1894 -1.6243
 2534SOL    HW219062   3.724   1.117  10.355  0.7619  1.1217 -0.5645
 2535SOL     OW19063   4.225   3.090   2.817  0.4973 -0.1242  0.0646
 2535SOL    HW119064   4.159   3.133   2.763 -2.1834 -1.8348  1.9458
 2535SOL    HW219065   4.302   3.138   2.787  0.4384  0.9347  1.6000
 2536SOL     OW19066   1.302   2.475   2.250  0.6933  0.1589 -0.3419
 2536SOL    HW119067   1.280   2.434   2.166 -0.3051 -1.5542  0.7521
 2536SOL    HW219068   1.243   2.551   2.250  0.2093 -0.2046 -2.1015
 2537SOL     OW19069   3.523   0.364   5.147 -0.5065  0.4026  0.4410
 2537SOL    HW119070   3.473   0.407   5.216 -1.7088 -2.6702  1.4954
 2537SOL    HW219071   3.453   0.327   5.093  0.8724 -0.3633 -0.8135
 2538SOL     OW19072   2.934   2.134   4.784 -0.3590 -0.0014 -0.2933
 2538SOL    HW119073   2.892   2.049   4.803  0.5883 -0.0259  1.7659
 2538SOL    HW219074   3.028   2.116   4.780 -0.3770 -0.0677 -0.4161
 2539SOL     OW19075   4.168   3.619   9.071  0.5976 -0.9781  0.4073
 2539SOL    HW119076   4.162   3.548   9.008  1.1797 -1.9860  1.4890
 2539SOL    HW219077   4.158   3.575   9.155 -1.3806  0.2919  0.8550
 2540SOL     OW19078   0.694   3.089   5.907  0.0580  0.0509 -0.2664
 2540SOL    HW119079   0.657   3.067   5.993 -0.3760  0.5829 -0.3144
 2540SOL    HW219080   0.622   3.053   5.855 -1.3398  0.1355  1.6205
 2541SOL     OW19081   3.923   0.325   5.192  0.0460 -0.6298  0.1496
 2541SOL    HW119082   3.958   0.349   5.278  0.6800 -2.7823  0.4814
 2541SOL    HW219083   3.977   0.248   5.176 -0.1741 -0.6411 -0.5248
 2542SOL     OW19084   4.410   3.317   8.144  0.2423 -0.9182  0.3236
 2542SOL    HW119085   4.364   3.401   8.147  1.8724  0.0266 -1.0754
 2542SOL    HW219086   4.461   3.319   8.225  0.1781 -1.5718  0.3828
 2543SOL     OW19087   0.988   3.775   8.786  0.0066  0.2693 -0.1577
 2543SOL    HW119088   0.978   3.851   8.843 -1.1464 -0.1660  0.2051
 2543SOL    HW219089   1.065   3.736   8.827 -0.7236  1.0181  1.9034
 2544SOL     OW19090   1.477   3.380  16.693 -0.4879 -0.2115  0.1720
 2544SOL    HW119091   1.504   3.314  16.758 -2.8194 -1.8699 -0.5669
 2544SOL    HW219092   1.452   3.324  16.620  2.7621  1.3708 -2.1745
 2545SOL     OW19093   3.595   0.224   7.053 -0.2403 -0.1767  0.2083
 2545SOL    HW119094   3.634   0.299   7.009  0.2479  0.4917  1.8121
 2545SOL    HW219095   3.628   0.226   7.142  0.3298  0.7819 -0.0282
 2546SOL     OW19096   1.741   4.297   0.890 -0.0861  0.5076 -0.0041
 2546SOL    HW119097   1.712   4.297   0.981  0.7675 -1.9609  0.2490
 2546SOL    HW219098   1.837   4.294   0.893 -0.0958  2.2301  2.5574
 2547SOL     OW19099   2.875   0.975   4.970  0.6229 -0.6987 -0.5985
 2547SOL    HW119100   2.914   0.905   5.023 -1.5646 -0.1055  1.8146
 2547SOL    HW219101   2.799   0.925   4.942 -1.1785  0.2379  2.5813
 2548SOL     OW19102   2.968   1.188   2.214  0.1149 -0.1424  0.0172
 2548SOL    HW119103   3.063   1.201   2.215  0.1382 -0.3711  1.9651
 2548SOL    HW219104   2.958   1.125   2.285 -0.7963 -1.6774 -1.4682
 2549SOL     OW19105   2.028   1.423   3.416 -0.4600  0.5853 -0.1403
 2549SOL    HW119106   1.943   1.380   3.410  0.3976 -1.4045  1.7272
 2549SOL    HW219107   2.011   1.497   3.359 -0.8345 -0.0218 -0.8129
 2550SOL     OW19108   0.392   2.881   6.773  0.0956  0.5905 -0.2168
 2550SOL    HW119109   0.481   2.906   6.750 -0.3489 -0.8394 -3.5244
 2550SOL    HW219110   0.392   2.791   6.741  0.3586  0.5491 -0.0953
 2551SOL     OW19111   4.223   4.475  16.203 -0.1770  0.4330  0.6460
 2551SOL    HW119112   4.176   4.558  16.190  0.3252  0.8074  1.2270
 2551SOL    HW219113   4.195   4.453  16.291 -1.8977 -2.8746 -0.7405
 2552SOL     OW19114   3.240   3.783   7.639 -0.2130  0.2437  0.2547
 2552SOL    HW119115   3.290   3.859   7.608  0.0623  0.2252  0.6625
 2552SOL    HW219116   3.184   3.765   7.564 -0.7256  2.1884  0.1549
 2553SOL     OW19117   4.067   4.582   7.781  0.0608 -0.2730  0.0217
 2553SOL    HW119118   4.086   4.545   7.867  1.5181  2.3520  0.8348
 2553SOL    HW219119   4.130   4.532   7.730 -0.1291 -0.2087 -0.2779
 2554SOL     OW19120   2.302   4.474   4.197 -0.0876  0.2317  0.1309
 2554SOL    HW119121   2.336   4.385   4.189 -2.5094 -0.6957  0.0439
 2554SOL    HW219122   2.287   4.481   4.102 -0.6698 -0.7337  0.1570
 2555SOL     OW19123   4.187   2.580   4.658 -0.3616  0.2196 -0.7133
 2555SOL    HW119124   4.243   2.519   4.706 -0.9361 -1.9324 -2.7301
 2555SOL    HW219125   4.157   2.630   4.734  0.6132  0.6254 -0.5997
 2556SOL     OW19126   1.870   1.134   5.091 -0.2915 -0.0175 -0.0170
 2556SOL    HW119127   1.922   1.057   5.069  1.0110  0.0934  2.7175
 2556SOL    HW219128   1.875   1.125   5.186  0.2473 -1.3536 -0.1729
 2557SOL     OW19129   3.769   2.803   6.017  0.3203 -0.0927 -0.4247
 2557SOL    HW119130   3.743   2.736   6.081 -0.9931  1.5104  0.7214
 2557SOL    HW219131   3.688   2.805   5.966 -0.3814  0.4241  0.7083
 2558SOL     OW19132   4.382   1.728  12.705  0.3770  0.1139  0.0453
 2558SOL    HW119133   4.376   1.637  12.677 -0.0420  0.6853 -1.7826
 2558SOL    HW219134   4.379   1.768  12.617  1.7445 -0.6760 -0.3642
 2559SOL     OW19135   0.926   4.172   1.935 -0.2808 -0.1441 -0.0158
 2559SOL    HW119136   0.983   4.246   1.915  1.3241 -0.5190  3.0738
 2559SOL    HW219137   0.926   4.175   2.031  2.7869 -2.5566  0.0820
 2560SOL     OW19138   3.132   0.561   6.982  0.5370  0.1043 -0.1180
 2560SOL    HW119139   3.103   0.578   6.892  3.0370  2.8386 -0.4154
 2560SOL    HW219140   3.220   0.527   6.965  0.0152 -1.4983  0.4057
 2561SOL     OW19141   2.277   2.726  11.969  0.3285  0.0964 -0.0011
 2561SOL    HW119142   2.197   2.746  12.018  0.1930 -1.0486  0.2471
 2561SOL    HW219143   2.307   2.645  12.012 -0.0239 -0.3876 -0.6737
 2562SOL     OW19144   4.417   0.095   3.460  0.1328 -0.3176 -0.1148
 2562SOL    HW119145   4.456   0.179   3.485  2.3502 -0.1839 -3.9722
 2562SOL    HW219146   4.329   0.122   3.432 -0.1863 -0.2651  0.9383
 2563SOL     OW19147   0.345   0.659   3.907  0.8074  0.2989  0.2186
 2563SOL    HW119148   0.299   0.727   3.857 -1.6014 -0.9849  0.6942
 2563SOL    HW219149   0.351   0.709   3.988  0.2456  1.8815 -0.7266
 2564SOL     OW19150   2.748   1.180   0.680  0.1646  0.1082 -0.4620
 2564SOL    HW119151   2.762   1.212   0.769 -1.5542 -0.6664  0.0965
 2564SOL    HW219152   2.782   1.258   0.637  1.0372 -0.8528 -1.5033
 2565SOL     OW19153   4.711   4.669   1.815  0.3943 -0.0538 -0.4421
 2565SOL    HW119154   0.029   4.617   1.746  1.7428  1.0070 -0.4002
 2565SOL    HW219155   4.682   0.022   1.767 -0.2685 -0.6951 -1.0882
 2566SOL     OW19156   4.002   1.766  13.446  0.1860  0.6849 -0.1857
 2566SOL    HW119157   4.059   1.835  13.481  0.4669  0.1666  0.3780
 2566SOL    HW219158   4.056   1.716  13.384  2.6394  1.7527  1.1074
 2567SOL     OW19159   3.016   0.965   2.775 -0.2058 -0.2727 -0.2998
 2567SOL    HW119160   3.013   0.884   2.724  0.3148  0.7052 -1.8853
 2567SOL    HW219161   3.074   0.925   2.840 -1.8064  1.1327  1.9410
 2568SOL     OW19162   3.934   1.498   9.590  0.2527  1.0038  0.5776
 2568SOL    HW119163   3.940   1.463   9.678  3.1218  0.2414  0.0904
 2568SOL    HW219164   3.927   1.413   9.548 -0.7118  0.1593  2.4842
 2569SOL     OW19165   4.497   0.645  16.138 -0.0106  0.2366 -0.0614
 2569SOL    HW119166   4.530   0.651  16.228 -1.9031 -1.9895  0.7671
 2569SOL    HW219167   4.573   0.607  16.094 -0.9343 -1.7808  0.0816
 2570SOL     OW19168   2.305   1.944  11.806  0.0779  0.0551 -0.5628
 2570SOL    HW119169   2.311   1.927  11.900  0.5365  0.1010 -0.5821
 2570SOL    HW219170   2.289   1.853  11.780 -1.0413  0.1773 -0.2847
 2571SOL     OW19171   4.210   0.744   6.308 -0.2311 -0.1047 -0.1481
 2571SOL    HW119172   4.187   0.714   6.220  0.5112  3.7271 -1.6275
 2571SOL    HW219173   4.305   0.746   6.297 -0.3330 -0.7268 -1.1833
 2572SOL     OW19174   1.454   1.671  13.615  0.2981  0.4965 -0.0207
 2572SOL    HW119175   1.447   1.680  13.520 -2.5647 -0.7565  0.0726
 2572SOL    HW219176   1.435   1.578  13.627 -1.1547  1.0651  1.9343
 2573SOL     OW19177   2.595   1.471   5.794  0.2566 -0.2550  0.0477
 2573SOL    HW119178   2.593   1.424   5.877  0.4694 -0.3488 -0.0002
 2573SOL    HW219179   2.525   1.535   5.806  0.3189 -0.2165  0.2041
 2574SOL     OW19180   2.125   1.027  13.785  0.3566 -0.7203  0.5841
 2574SOL    HW119181   2.083   1.030  13.871  0.4663  1.4017  0.5711
 2574SOL    HW219182   2.213   1.055  13.811  0.3064  1.5635 -1.6869
 2575SOL     OW19183   3.870   4.325   9.563  0.4280 -0.1339 -0.1101
 2575SOL    HW119184   3.887   4.231   9.564  0.7629 -0.1000 -2.4000
 2575SOL    HW219185   3.934   4.358   9.627 -0.1908 -1.4550  1.1992
 2576SOL     OW19186   0.369   0.939   6.197  0.6653 -0.7737 -0.0874
 2576SOL    HW119187   0.395   0.981   6.115  1.1647 -1.4003 -0.2565
 2576SOL    HW219188   0.437   0.983   6.248  1.0732 -0.9950 -0.4401
 2577SOL     OW19189   3.214   0.127   2.700 -0.3608 -0.0367 -0.0182
 2577SOL    HW119190   3.181   0.038   2.689  2.0001 -0.9948  0.6200
 2577SOL    HW219191   3.300   0.121   2.659 -0.6849 -1.4201 -0.4915
 2578SOL     OW19192   0.565   3.238  14.936  0.1799 -1.0443  0.7342
 2578SOL    HW119193   0.642   3.181  14.933  0.2044 -0.9735 -0.0645
 2578SOL    HW219194   0.598   3.319  14.973 -0.4854  0.4045 -1.8612
 2579SOL     OW19195   3.636   1.442   5.815  0.4756  0.1892 -0.6068
 2579SOL    HW119196   3.692   1.510   5.854  0.5600 -0.0682 -0.2821
 2579SOL    HW219197   3.573   1.436   5.887  0.7986 -3.6614 -0.6484
 2580SOL     OW19198   3.244   1.785   8.510  0.6422 -0.7255 -0.3153
 2580SOL    HW119199   3.166   1.831   8.481 -0.0132 -0.9548  1.0839
 2580SOL    HW219200   3.219   1.752   8.597  2.0543  1.5049  0.9452
 2581SOL     OW19201   3.335   2.297   2.683 -0.3498 -0.2287  0.0282
 2581SOL    HW119202   3.357   2.366   2.621  0.0464 -0.9045 -0.5755
 2581SOL    HW219203   3.331   2.347   2.765  2.1735  0.9809 -0.5913
 2582SOL     OW19204   2.934   3.699   2.192  0.3048 -0.3315  0.4100
 2582SOL    HW119205   3.009   3.757   2.202 -0.5957  1.1317 -1.4678
 2582SOL    HW219206   2.891   3.690   2.277 -1.5737 -2.3489 -0.7754
 2583SOL     OW19207   2.264   2.991   8.942  0.6274 -0.2551  0.2532
 2583SOL    HW119208   2.349   3.035   8.946  0.2628  0.6124 -1.4976
 2583SOL    HW219209   2.283   2.916   8.998  0.8733  1.0553  1.8901
 2584SOL     OW19210   4.149   4.420   1.960  0.2609 -0.1446  0.2416
 2584SOL    HW119211   4.143   4.499   2.014 -2.7807  0.9535 -1.6931
 2584SOL    HW219212   4.242   4.436   1.943  0.1612  1.2534  1.0669
 2585SOL     OW19213   1.325   3.272   3.684  0.3348  0.2684  0.6587
 2585SOL    HW119214   1.338   3.181   3.708  1.0125 -0.0444 -0.8970
 2585SOL    HW219215   1.300   3.299   3.772  1.3893 -0.9731  1.3310
 2586SOL     OW19216   0.777   2.018  10.503 -0.2363  0.0132  0.0919
 2586SOL    HW119217   0.779   2.112  10.490 -2.4173  0.0974  0.4030
 2586SOL    HW219218   0.861   2.010  10.547 -1.6123 -1.5175  2.4822
 2587SOL     OW19219   3.068   1.524   3.116  0.6276  0.5459 -0.0080
 2587SOL    HW119220   2.995   1.583   3.131 -0.1086 -0.8073  1.7760
 2587SOL    HW219221   3.147   1.576   3.101  0.5930  0.7481  0.5405
 2588SOL     OW19222   3.940   0.238  15.399 -0.1042 -0.6526  0.1409
 2588SOL    HW119223   3.954   0.211  15.490 -1.4405  0.8890  0.7978
 2588SOL    HW219224   3.862   0.288  15.420  0.8634  1.2225 -0.7237
 2589SOL     OW19225   1.088   0.429   1.564  0.5334  0.4646  0.3913
 2589SOL    HW119226   1.032   0.428   1.486 -0.4546  1.8038  1.0923
 2589SOL    HW219227   1.031   0.409   1.639  2.0830  1.8798  1.9348
 2590SOL     OW19228   2.060   0.623  14.417  0.6973 -0.8623 -0.0947
 2590SOL    HW119229   2.118   0.618  14.494  0.0370 -2.8304  0.2646
 2590SOL    HW219230   1.983   0.578  14.451 -0.2375  2.0338  1.6854
 2591SOL     OW19231   1.424   0.227   5.061  0.0636  0.3675  0.1050
 2591SOL    HW119232   1.435   0.142   5.104 -0.4878 -0.0203 -0.5222
 2591SOL    HW219233   1.422   0.289   5.134  3.3213  0.1948  0.3035
 2592SOL     OW19234   3.535   3.450   3.339 -0.0513  0.1059 -0.2480
 2592SOL    HW119235   3.456   3.408   3.375  0.0857 -0.0731 -0.1531
 2592SOL    HW219236   3.586   3.488   3.410  0.5020 -0.1332 -0.5165
 2593SOL     OW19237   1.175   0.798   3.153  0.0840 -0.1118 -0.2621
 2593SOL    HW119238   1.121   0.808   3.231 -2.3538 -0.8530 -1.8598
 2593SOL    HW219239   1.266   0.793   3.182 -1.4401 -0.8229  4.4097
 2594SOL     OW19240   2.471   2.501   4.557  0.3263 -0.2559  0.4549
 2594SOL    HW119241   2.550   2.547   4.587  1.5294  0.5566 -4.0081
 2594SOL    HW219242   2.521   2.421   4.540 -0.7463 -1.1894  1.6827
 2595SOL     OW19243   4.702   1.367  16.514  0.2666 -0.0232  0.2761
 2595SOL    HW119244   4.705   1.385  16.608  0.8721  1.9333 -0.1187
 2595SOL    HW219245   4.620   1.318  16.514  0.7524 -0.8256  1.7819
 2596SOL     OW19246   0.378   2.552   6.049 -0.3111  0.1426  0.6004
 2596SOL    HW119247   0.373   2.483   5.983  2.9588 -0.1670  0.6760
 2596SOL    HW219248   0.384   2.635   6.001 -1.0137 -0.2752 -0.2242
 2597SOL     OW19249   0.081   0.893   0.539  0.6139 -0.1296 -0.2879
 2597SOL    HW119250   0.086   0.900   0.444  0.3276  2.7439 -0.0858
 2597SOL    HW219251   0.077   0.799   0.558  0.4438 -0.2969 -1.1589
 2598SOL     OW19252   2.839   3.022   8.411 -0.4172 -0.0553  0.1824
 2598SOL    HW119253   2.907   2.977   8.361 -0.7528  0.4526 -0.7255
 2598SOL    HW219254   2.860   3.108   8.375 -1.2831  0.1322  0.1424
 2599SOL     OW19255   2.229   2.665   1.628 -0.1516 -0.0589 -0.7599
 2599SOL    HW119256   2.287   2.615   1.686 -0.0006  0.0180 -0.8450
 2599SOL    HW219257   2.174   2.598   1.588 -1.0491  1.1989 -1.5882
 2600SOL     OW19258   4.288   2.921   2.040  0.6691  0.1347  0.3526
 2600SOL    HW119259   4.317   2.892   2.127 -0.3361  0.0528  0.6556
 2600SOL    HW219260   4.195   2.941   2.045  1.2892  3.1241 -0.1608
 2601SOL     OW19261   4.658   3.309   6.978  0.2479  0.2613 -0.5771
 2601SOL    HW119262   0.020   3.349   6.979 -0.2162  1.2992 -0.9829
 2601SOL    HW219263   4.649   3.263   7.061  1.6703  1.7402  0.3939
 2602SOL     OW19264   0.332   2.983   8.987  0.0333  0.6232  0.0309
 2602SOL    HW119265   0.376   3.064   9.012  0.6325  0.8559 -1.8006
 2602SOL    HW219266   0.320   2.937   9.070  1.1412 -1.5927 -1.0629
 2603SOL     OW19267   4.219   1.054   5.272  0.6481  0.4347  0.4523
 2603SOL    HW119268   4.263   1.109   5.206  2.3350 -0.9952  0.3955
 2603SOL    HW219269   4.137   1.102   5.286  0.3164  0.2249 -0.7582
 2604SOL     OW19270   1.899   2.969   9.134  0.7005 -0.7223  0.0325
 2604SOL    HW119271   1.813   3.005   9.115  0.9262 -0.3075 -0.1926
 2604SOL    HW219272   1.931   2.950   9.045 -1.6753 -0.0537 -0.9817
 2605SOL     OW19273   3.662   0.291   6.721 -0.4886  0.4172 -0.4495
 2605SOL    HW119274   3.700   0.377   6.704 -1.6220  0.7094 -1.5292
 2605SOL    HW219275   3.741   0.246   6.751 -1.3628 -1.0461 -0.3108
 2606SOL     OW19276   1.934   4.599   8.112 -0.1915 -0.2424  0.0504
 2606SOL    HW119277   1.944   4.620   8.019 -0.4787 -1.6122 -0.2903
 2606SOL    HW219278   1.999   4.655   8.155 -0.3582 -0.7529  0.9809
 2607SOL     OW19279   2.413   4.232   3.707 -0.3095 -0.0711 -0.1760
 2607SOL    HW119280   2.477   4.182   3.758  0.3112 -1.2781 -2.1019
 2607SOL    HW219281   2.374   4.167   3.649  2.9606 -2.3213  0.1588
 2608SOL     OW19282   0.644   2.072   2.486 -0.2613 -0.1452  0.8954
 2608SOL    HW119283   0.702   1.996   2.478 -2.1121 -1.5131  0.4765
 2608SOL    HW219284   0.557   2.034   2.500 -0.2500 -1.0584 -1.5613
 2609SOL     OW19285   0.940   1.034   7.773  0.0912 -0.0721  0.2263
 2609SOL    HW119286   0.988   1.094   7.715  1.2726 -0.4871  0.7648
 2609SOL    HW219287   0.902   1.096   7.834 -0.0222  1.7090 -1.6551
 2610SOL     OW19288   3.803   1.501   0.173  0.2916  0.6709 -0.2273
 2610SOL    HW119289   3.783   1.595   0.171 -0.6462  0.4711 -0.2737
 2610SOL    HW219290   3.888   1.497   0.216  0.6827  0.9570 -0.9687
 2611SOL     OW19291   4.344   0.802  16.419  0.4502 -0.5500  0.5258
 2611SOL    HW119292   4.331   0.723  16.367 -0.1410  0.2747 -0.5806
 2611SOL    HW219293   4.403   0.855  16.365 -0.5343 -0.0211 -0.0242
 2612SOL     OW19294   1.225   4.449   7.157  0.1767  0.0786 -0.0019
 2612SOL    HW119295   1.276   4.394   7.098  1.3595  0.9512  0.2041
 2612SOL    HW219296   1.198   4.380   7.217 -3.0619  0.6249 -0.8189
 2613SOL     OW19297   2.668   0.426  12.672 -0.6192  0.2157  0.1421
 2613SOL    HW119298   2.627   0.354  12.720  0.1987 -0.5203 -0.2619
 2613SOL    HW219299   2.589   0.446  12.621 -1.3056  0.9028  1.4689
 2614SOL     OW19300   4.032   4.083   4.503  0.0004 -0.0709 -0.6737
 2614SOL    HW119301   4.116   4.118   4.475  0.0225 -0.0081 -0.5308
 2614SOL    HW219302   4.030   3.991   4.475 -1.2486 -0.2397 -0.0665
 2615SOL     OW19303   2.102   4.156  15.698  0.7406  0.0872  0.1610
 2615SOL    HW119304   2.187   4.116  15.678 -0.0352 -0.3683 -2.2458
 2615SOL    HW219305   2.055   4.164  15.615  1.7288  0.3002 -0.3777
 2616SOL     OW19306   0.504   1.318  13.199 -0.6676  0.1845  0.3922
 2616SOL    HW119307   0.438   1.259  13.163 -2.2860  1.4326  1.2898
 2616SOL    HW219308   0.516   1.290  13.290 -1.3927 -1.5113 -0.0397
 2617SOL     OW19309   0.522   0.523  12.038 -0.2124  0.2666  0.1699
 2617SOL    HW119310   0.603   0.472  12.042 -1.1447 -1.5658 -4.1060
 2617SOL    HW219311   0.513   0.564  11.952 -0.2395  0.4706  0.2683
 2618SOL     OW19312   4.191   3.422   4.584 -0.3565 -0.2287 -0.4927
 2618SOL    HW119313   4.207   3.426   4.679  0.7101  1.3457 -0.7354
 2618SOL    HW219314   4.274   3.458   4.551 -1.0635 -0.6301 -2.6920
 2619SOL     OW19315   1.286   3.951   8.237  0.0229  0.2897 -0.0409
 2619SOL    HW119316   1.357   4.011   8.257  0.0475 -0.3980  1.9378
 2619SOL    HW219317   1.259   3.909   8.319  2.2457 -0.6891  0.2068
 2620SOL     OW19318   0.453   0.521   8.787 -0.4130  0.1858 -0.1510
 2620SOL    HW119319   0.476   0.443   8.838  0.9000  1.7385  1.6393
 2620SOL    HW219320   0.476   0.586   8.853  0.4574  0.8218 -1.0832
 2621SOL     OW19321   0.395   4.022   2.656 -0.3802  0.5803 -0.1610
 2621SOL    HW119322   0.371   4.038   2.565 -1.4563  2.1140  0.3967
 2621SOL    HW219323   0.358   4.102   2.693 -0.5732  0.3883  0.0722
 2622SOL     OW19324   3.776   4.372   7.738 -0.1915  0.2092 -0.2740
 2622SOL    HW119325   3.732   4.457   7.747 -0.0483  0.2349  0.2331
 2622SOL    HW219326   3.847   4.397   7.680 -1.0672  2.3106 -0.4278
 2623SOL     OW19327   1.114   1.109   5.489 -0.1360 -0.2052  0.0769
 2623SOL    HW119328   1.165   1.060   5.424 -0.3742 -1.2021  0.6337
 2623SOL    HW219329   1.133   1.201   5.471  2.1545 -0.9238 -1.1711
 2624SOL     OW19330   2.507   3.032   4.753  0.1661  0.3782 -0.1311
 2624SOL    HW119331   2.498   3.039   4.848  2.4850  0.0682  0.1022
 2624SOL    HW219332   2.494   2.938   4.746 -0.4115  0.4608 -0.2047
 2625SOL     OW19333   3.686   0.552  14.998 -0.4019  0.0815  0.5244
 2625SOL    HW119334   3.740   0.510  15.066 -0.0644 -3.1535 -1.7302
 2625SOL    HW219335   3.742   0.628  14.986  0.4111 -0.9616 -2.4030
 2626SOL     OW19336   3.311   2.671   4.652 -0.3854 -0.1677  0.3814
 2626SOL    HW119337   3.231   2.619   4.644  0.6994 -1.2899 -2.8950
 2626SOL    HW219338   3.318   2.686   4.747  0.2692  0.2893  0.2600
 2627SOL     OW19339   3.643   1.895  11.719  0.1188 -0.1882 -0.0980
 2627SOL    HW119340   3.735   1.919  11.730 -0.3068  1.6733 -0.6637
 2627SOL    HW219341   3.603   1.946  11.789 -1.6470 -0.9941 -0.5368
 2628SOL     OW19342   0.427   0.349   6.659 -0.2226  0.2066  0.3212
 2628SOL    HW119343   0.496   0.300   6.614 -2.2023 -0.5418 -1.8846
 2628SOL    HW219344   0.374   0.398   6.597  1.3540  0.4876 -0.8070
 2629SOL     OW19345   2.662   3.962   1.763  0.2036 -0.1314 -0.3861
 2629SOL    HW119346   2.657   3.943   1.857  0.9730 -1.2368 -0.5713
 2629SOL    HW219347   2.653   4.057   1.757  2.8941  0.2086  1.1839
 2630SOL     OW19348   3.898   3.284   3.436  0.3912  0.6929 -0.4030
 2630SOL    HW119349   3.920   3.296   3.528  0.4012 -2.5948  0.0321
 2630SOL    HW219350   3.906   3.374   3.406 -0.1422  1.4111  1.6331
 2631SOL     OW19351   2.282   0.542   4.950 -0.0144 -0.0014  0.2983
 2631SOL    HW119352   2.238   0.583   4.877  1.9662 -0.1117 -0.9573
 2631SOL    HW219353   2.321   0.464   4.910 -1.7859  0.4192 -2.1723
 2632SOL     OW19354   1.023   0.292   9.430  0.6038 -0.3994 -0.3687
 2632SOL    HW119355   0.941   0.289   9.380  0.8244 -1.2141 -0.6865
 2632SOL    HW219356   1.090   0.258   9.370  2.3461  0.8242  0.8838
 2633SOL     OW19357   0.632   2.221  13.527  0.2961  0.4551 -0.0123
 2633SOL    HW119358   0.642   2.273  13.608 -3.6723 -1.0251  1.4057
 2633SOL    HW219359   0.639   2.135  13.568  0.4151  0.7925  0.6913
 2634SOL     OW19360   3.192   3.489   4.685 -0.2232  0.1531  0.0848
 2634SOL    HW119361   3.166   3.410   4.732 -0.1793 -0.2273 -0.5343
 2634SOL    HW219362   3.113   3.503   4.632  0.4006  1.4632 -0.5068
 2635SOL     OW19363   2.091   2.315   7.232  0.2139 -0.1041 -0.3189
 2635SOL    HW119364   2.003   2.322   7.269 -0.5215 -0.7693 -1.9159
 2635SOL    HW219365   2.078   2.300   7.138 -0.6158  0.9884 -0.3816
 2636SOL     OW19366   0.614   0.172   2.707  0.4965 -0.2840 -0.2691
 2636SOL    HW119367   0.632   0.213   2.623  3.6593  1.0206  1.0443
 2636SOL    HW219368   0.672   0.096   2.707 -0.1504 -0.7744  1.3939
 2637SOL     OW19369   2.266   1.688  11.743  0.2886 -0.4739 -0.1190
 2637SOL    HW119370   2.190   1.632  11.763  1.4150 -1.9659  0.0232
 2637SOL    HW219371   2.335   1.647  11.796 -0.9110 -1.3505  0.7772
 2638SOL     OW19372   3.157   4.652   7.875 -0.0886  0.4973  0.0118
 2638SOL    HW119373   3.062   4.652   7.886 -0.4028  1.3925 -2.7783
 2638SOL    HW219374   3.170   4.711   7.801  1.4730  0.2588  0.1066
 2639SOL     OW19375   1.046   3.637   6.446 -0.0015  0.2400  0.0055
 2639SOL    HW119376   1.069   3.560   6.393  3.2378 -0.1694  1.9835
 2639SOL    HW219377   1.011   3.695   6.378  1.0817 -1.1293 -1.7421
 2640SOL     OW19378   2.782   2.582   7.517  0.4376  0.8307 -0.0435
 2640SOL    HW119379   2.827   2.518   7.572 -1.2792 -1.4698 -1.3187
 2640SOL    HW219380   2.756   2.648   7.582 -0.0138 -0.1267  0.7509
 2641SOL     OW19381   0.009   3.428  13.856 -0.1186  0.1318 -0.1509
 2641SOL    HW119382   0.064   3.447  13.779  0.5517  1.6064  0.6922
 2641SOL    HW219383   4.648   3.426  13.814  1.4791 -1.8163 -3.3217
 2642SOL     OW19384   3.049   1.506   2.436  0.1321  0.3879 -0.3823
 2642SOL    HW119385   3.141   1.506   2.460  0.0812  2.3036 -0.1327
 2642SOL    HW219386   3.054   1.474   2.346 -1.4847 -0.8625 -0.0249
 2643SOL     OW19387   1.366   3.071   1.488  0.0785 -0.0646 -0.1536
 2643SOL    HW119388   1.393   3.062   1.397  0.2094  0.2748 -0.1485
 2643SOL    HW219389   1.273   3.070   1.466 -0.5505 -1.0681  2.5217
 2644SOL     OW19390   0.042   1.719   9.049  0.0109 -0.2069  0.2926
 2644SOL    HW119391   4.672   1.736   9.042  0.5234  3.1215  1.3185
 2644SOL    HW219392   0.052   1.649   9.113  0.9214 -1.2475 -0.9766
 2645SOL     OW19393   1.697   3.380   3.419 -0.0058  0.0807  0.3030
 2645SOL    HW119394   1.723   3.338   3.502  0.0100 -0.5417 -0.0161
 2645SOL    HW219395   1.764   3.356   3.356  1.6663  1.2372  1.6496
 2646SOL     OW19396   3.651   2.037   8.541 -0.4721  0.1952 -0.3429
 2646SOL    HW119397   3.660   1.952   8.497  1.9772 -1.5936  3.6555
 2646SOL    HW219398   3.558   2.057   8.545 -0.1528  1.3527  1.1239
 2647SOL     OW19399   2.683   2.875   9.386 -0.0979  0.7441 -0.1634
 2647SOL    HW119400   2.757   2.821   9.412 -0.5613  0.2598  0.1555
 2647SOL    HW219401   2.702   2.886   9.293 -1.8256  1.2164 -0.4562
 2648SOL     OW19402   1.431   1.165  16.121  0.6382  0.2626  0.1587
 2648SOL    HW119403   1.523   1.182  16.099  0.1096  1.3892 -1.1322
 2648SOL    HW219404   1.397   1.200  16.039  1.4134 -2.3055 -1.2432
 2649SOL     OW19405   3.827   0.094   5.529  0.4697  0.1143  0.0020
 2649SOL    HW119406   3.896   0.029   5.522  1.5145  0.9801  2.3985
 2649SOL    HW219407   3.781   0.074   5.448 -2.3093  0.8359  1.3878
 2650SOL     OW19408   3.351   3.346   8.004  0.3507  0.0939 -0.2413
 2650SOL    HW119409   3.306   3.262   8.009  0.1456  0.0318 -3.1206
 2650SOL    HW219410   3.441   3.328   7.975  0.1421  1.3250 -1.6083
 2651SOL     OW19411   0.307   0.832  15.106 -0.5148 -0.2568  0.4305
 2651SOL    HW119412   0.238   0.877  15.058  0.1356 -1.9089 -2.1036
 2651SOL    HW219413   0.257   0.815  15.186 -0.5208  0.8323  0.6545
 2652SOL     OW19414   3.261   0.118  11.518  0.1620 -0.0657  0.7284
 2652SOL    HW119415   3.243   0.147  11.607  0.1741  1.2290  0.3025
 2652SOL    HW219416   3.355   0.112  11.537  0.1829 -1.7018  0.1493
 2653SOL     OW19417   0.592   0.872   2.334 -0.9322 -0.0841  0.1937
 2653SOL    HW119418   0.652   0.939   2.301 -0.0451 -1.2236 -0.5120
 2653SOL    HW219419   0.657   0.824   2.386  1.7388  3.5589  0.1973
 2654SOL     OW19420   1.341   1.454   7.189 -0.1146  0.4312 -0.2666
 2654SOL    HW119421   1.319   1.547   7.191  0.5344  0.5708  0.3292
 2654SOL    HW219422   1.436   1.456   7.177  0.2153 -2.6225  1.7872
 2655SOL     OW19423   0.908   2.585   3.548 -0.4137 -0.0483  0.1273
 2655SOL    HW119424   0.870   2.571   3.462  0.7588  0.7577 -0.5138
 2655SOL    HW219425   0.834   2.576   3.608 -1.9577  0.7737 -1.6539
 2656SOL     OW19426   1.063   4.121   9.760  0.4133  0.5621 -0.1630
 2656SOL    HW119427   0.981   4.087   9.793  1.5445 -2.1180 -0.1489
 2656SOL    HW219428   1.066   4.211   9.792 -0.0169  1.0225 -1.4060
 2657SOL     OW19429   4.441   0.715   1.773 -0.5754  0.2848  0.2126
 2657SOL    HW119430   4.438   0.795   1.826 -1.5018  0.2261  0.2443
 2657SOL    HW219431   4.439   0.742   1.682 -1.5731 -0.3029  0.0703
 2658SOL     OW19432   2.501   2.715   4.777 -0.0459  0.0527  0.1505
 2658SOL    HW119433   2.416   2.674   4.791 -0.5603  0.3334 -2.1062
 2658SOL    HW219434   2.560   2.640   4.767 -1.5051 -1.4171  2.6565
 2659SOL     OW19435   1.253   4.445   7.801  0.5948 -0.0869  0.3493
 2659SOL    HW119436   1.186   4.389   7.762  1.2308  1.4107 -2.8835
 2659SOL    HW219437   1.271   4.514   7.737 -0.5832 -2.4703 -2.5274
 2660SOL     OW19438   2.595   0.460   2.884  0.3908 -0.1598  0.2663
 2660SOL    HW119439   2.557   0.534   2.837 -0.0179 -0.4917  0.0815
 2660SOL    HW219440   2.648   0.430   2.810 -1.1909  1.0202 -1.3310
 2661SOL     OW19441   1.329   0.986  13.682  0.3877 -0.0135  0.4113
 2661SOL    HW119442   1.251   1.007  13.631  0.6772 -2.2081 -0.9487
 2661SOL    HW219443   1.395   1.038  13.636 -0.2749  1.7428  1.4437
 2662SOL     OW19444   1.389   4.270   2.429 -0.5537 -0.4694 -0.1989
 2662SOL    HW119445   1.384   4.339   2.363 -0.9039  1.1671  1.5376
 2662SOL    HW219446   1.299   4.240   2.442 -0.2187 -0.0902  2.9298
 2663SOL     OW19447   0.296   4.147   4.869 -0.1890  0.4612  0.0136
 2663SOL    HW119448   0.348   4.210   4.818  1.4013  0.5963  1.8383
 2663SOL    HW219449   0.214   4.192   4.890 -1.2415 -1.0724 -0.8159
 2664SOL     OW19450   2.558   2.475   0.721 -0.4112  0.6813  0.3325
 2664SOL    HW119451   2.496   2.498   0.653 -0.0783 -0.9910 -0.5123
 2664SOL    HW219452   2.624   2.420   0.680  1.2409  1.2665  2.1723
 2665SOL     OW19453   2.491   3.663  14.188 -0.5651 -0.5502 -0.3039
 2665SOL    HW119454   2.405   3.689  14.155 -1.2583  1.2997  2.9316
 2665SOL    HW219455   2.545   3.715  14.128 -0.0903 -0.0725  0.5455
 2666SOL     OW19456   0.834   1.308  14.656  0.4435 -0.4228  0.6247
 2666SOL    HW119457   0.850   1.393  14.616 -0.6841 -0.3145  0.4036
 2666SOL    HW219458   0.764   1.268  14.604 -0.2489  1.1048  0.3973
 2667SOL     OW19459   2.516   3.120   7.166 -0.4292 -0.5752 -0.3524
 2667SOL    HW119460   2.564   3.143   7.246 -0.8024 -1.8382  0.2386
 2667SOL    HW219461   2.590   3.098   7.108 -0.6695 -0.6060 -0.6442
 2668SOL     OW19462   4.502   0.547   6.791  0.3166  0.3626  0.3380
 2668SOL    HW119463   4.532   0.581   6.875  1.3953  0.3663 -0.0489
 2668SOL    HW219464   4.527   0.624   6.740 -1.8500  1.7029  1.3048
 2669SOL     OW19465   0.015   1.632   5.672  0.1402  0.4041  0.4334
 2669SOL    HW119466   4.689   1.552   5.655  0.0245  0.3448  1.0383
 2669SOL    HW219467   0.100   1.604   5.640  0.0257 -0.5115  0.9406
 2670SOL     OW19468   0.428   4.318   6.177  0.0685 -0.3412  0.1667
 2670SOL    HW119469   0.498   4.358   6.228 -1.0025  1.0737  0.5064
 2670SOL    HW219470   0.466   4.338   6.091 -0.6232 -0.6268 -0.2071
 2671SOL     OW19471   2.801   3.018   3.535 -0.4369  0.5830 -0.2363
 2671SOL    HW119472   2.756   2.946   3.492 -1.7879  1.4702 -0.2974
 2671SOL    HW219473   2.880   3.036   3.482 -0.1497 -0.5577 -0.1926
 2672SOL     OW19474   4.675   2.239   1.272  0.7076  0.4098  0.0128
 2672SOL    HW119475   4.590   2.278   1.251  1.3818  1.2093 -1.2867
 2672SOL    HW219476   4.708   2.313   1.322  3.3333  0.3174 -1.5752
 2673SOL     OW19477   2.550   2.156   3.299 -0.0312  0.6488  0.6136
 2673SOL    HW119478   2.543   2.064   3.327  0.3618  0.3746 -0.2149
 2673SOL    HW219479   2.516   2.153   3.210  0.4269 -3.1623  0.5618
 2674SOL     OW19480   1.604   3.231   9.901  0.3228 -0.0255 -0.0751
 2674SOL    HW119481   1.688   3.263   9.934 -0.6507 -0.5365  2.8437
 2674SOL    HW219482   1.648   3.152   9.868  0.0586  0.9756 -2.7800
 2675SOL     OW19483   4.419   1.080   7.763 -0.6247 -0.3391  0.5633
 2675SOL    HW119484   4.441   0.989   7.782  1.6516 -0.1230 -1.0419
 2675SOL    HW219485   4.411   1.075   7.668 -0.2562 -2.5369  0.6440
 2676SOL     OW19486   4.089   2.088   7.262 -0.3934  0.2604  0.1607
 2676SOL    HW119487   4.051   2.067   7.347  0.3500 -1.0681  0.1475
 2676SOL    HW219488   4.128   2.172   7.289  0.5901 -1.2401  3.4088
 2677SOL     OW19489   4.162   0.623   4.565 -0.5698  0.1523 -0.1053
 2677SOL    HW119490   4.189   0.535   4.592 -0.7145 -0.5139 -2.1800
 2677SOL    HW219491   4.095   0.645   4.629 -2.1312  0.2831 -1.8004
 2678SOL     OW19492   2.544   4.723  16.893 -0.2036 -0.2222  0.1699
 2678SOL    HW119493   2.588   4.696  16.973 -2.3451 -2.2735  0.6491
 2678SOL    HW219494   2.548   4.633  16.861  0.3331  0.1543 -0.8217
 2679SOL     OW19495   3.925   2.373  14.480  0.1472  0.4199 -0.3806
 2679SOL    HW119496   3.899   2.390  14.390 -0.9662  1.6845  0.1789
 2679SOL    HW219497   3.992   2.441  14.484 -0.3507  0.9095 -0.5318
 2680SOL     OW19498   1.654   1.135   3.824 -0.0370 -0.3160  0.1601
 2680SOL    HW119499   1.614   1.079   3.757 -0.7719  0.2072  0.1623
 2680SOL    HW219500   1.598   1.212   3.814  1.2152  0.6219  0.3380
 2681SOL     OW19501   2.174   4.043   5.123 -0.3808  0.3378  0.6773
 2681SOL    HW119502   2.267   4.032   5.145 -0.0378 -0.0250 -0.9547
 2681SOL    HW219503   2.130   4.005   5.198  1.3526 -1.7118  0.6563
 2682SOL     OW19504   2.669   4.257   1.809  0.2675  0.4888 -0.2578
 2682SOL    HW119505   2.699   4.341   1.842  1.7528 -0.1587  0.0832
 2682SOL    HW219506   2.602   4.239   1.874 -0.3645 -1.7802 -1.5442
 2683SOL     OW19507   3.119   3.835  16.008  0.4547  0.4206  0.6786
 2683SOL    HW119508   3.144   3.781  15.932 -0.9085  1.0225 -0.1941
 2683SOL    HW219509   3.062   3.771  16.052 -1.0944  0.8065 -0.7603
 2684SOL     OW19510   3.601   1.705   7.237  0.5310 -0.3325  0.0383
 2684SOL    HW119511   3.652   1.624   7.238  0.4642 -0.3786 -0.3371
 2684SOL    HW219512   3.667   1.772   7.217  0.8036 -0.9622 -1.1864
 2685SOL     OW19513   2.137   3.934  13.166  0.2567  0.2090 -0.4828
 2685SOL    HW119514   2.168   4.024  13.175 -1.5958  0.9486 -1.4748
 2685SOL    HW219515   2.161   3.889  13.247 -0.4321 -1.3630 -1.1406
 2686SOL     OW19516   4.277   0.481   5.033 -0.3027  0.5006  0.1441
 2686SOL    HW119517   4.289   0.401   4.983 -0.9570  0.2818  0.3434
 2686SOL    HW219518   4.350   0.532   4.998  0.7623 -1.6698 -0.8155
 2687SOL     OW19519   1.606   0.639   2.570  0.3559 -0.8494  0.1898
 2687SOL    HW119520   1.683   0.586   2.550  0.6334  0.5068 -2.3738
 2687SOL    HW219521   1.647   0.721   2.596 -2.2555  1.0418 -1.5924
 2688SOL     OW19522   2.507   3.069  13.872 -0.0657 -0.3016 -0.0475
 2688SOL    HW119523   2.428   3.028  13.837  0.9567 -3.0627  0.8331
 2688SOL    HW219524   2.500   3.042  13.963 -1.4462  0.8810  0.1869
 2689SOL     OW19525   4.257   2.045   0.229 -0.4539  0.2848 -0.1082
 2689SOL    HW119526   4.323   2.009   0.289 -0.8010  3.8527  2.4252
 2689SOL    HW219527   4.189   1.981   0.249 -0.2089  0.0818  0.0835
 2690SOL     OW19528   1.456   1.850   9.008  0.2969  0.7981  0.1175
 2690SOL    HW119529   1.380   1.809   9.047  1.6764 -0.9075  1.0118
 2690SOL    HW219530   1.439   1.847   8.914  1.0361 -1.2647  0.0404
 2691SOL     OW19531   0.190   1.487  12.769 -0.5485 -0.5955 -0.1834
 2691SOL    HW119532   0.135   1.466  12.695 -0.8717 -2.3599  0.5663
 2691SOL    HW219533   0.268   1.509  12.718 -0.5634 -1.0400 -0.3976
 2692SOL     OW19534   3.370   2.989  14.398  0.4186 -0.0754 -0.5448
 2692SOL    HW119535   3.402   3.076  14.374  2.4926 -0.3150  1.3069
 2692SOL    HW219536   3.303   2.967  14.334  0.8654  2.3613 -1.8583
 2693SOL     OW19537   0.510   3.207   6.442  0.4593 -0.4609 -0.7995
 2693SOL    HW119538   0.446   3.273   6.469  0.6489  0.3924 -2.3970
 2693SOL    HW219539   0.571   3.209   6.515 -0.7774  1.5533  0.2101
 2694SOL     OW19540   4.049   0.753  12.491  0.5559  0.3236  0.3435
 2694SOL    HW119541   4.028   0.846  12.482 -0.3711  0.0810  0.0365
 2694SOL    HW219542   4.047   0.734  12.398  2.0105 -1.2185  0.6114
 2695SOL     OW19543   2.541   0.446  17.490  0.1188  0.2474  0.1882
 2695SOL    HW119544   2.620   0.490  17.522  1.0395 -0.4764 -1.0504
 2695SOL    HW219545   2.475   0.458  17.558 -0.6563  2.3229 -0.9298
 2696SOL     OW19546   2.268   3.589  12.694  0.0736  0.0550  0.1405
 2696SOL    HW119547   2.211   3.563  12.622  2.1283 -1.5950 -0.9037
 2696SOL    HW219548   2.212   3.561  12.766  1.0510 -2.0057  0.1142
 2697SOL     OW19549   4.141   2.971   5.991  0.1870  0.0730 -0.1243
 2697SOL    HW119550   4.148   2.963   5.896  0.1708  0.5177 -0.1653
 2697SOL    HW219551   4.051   2.998   6.007  0.2709 -0.4259  1.2034
 2698SOL     OW19552   4.600   2.319   7.488  0.0539  0.1345  0.2631
 2698SOL    HW119553   4.588   2.269   7.568  2.7667  4.0540  3.1601
 2698SOL    HW219554   4.651   2.393   7.523  0.4576 -0.2466  0.4723
 2699SOL     OW19555   0.196   3.722   4.792 -0.0380 -0.5563  0.5586
 2699SOL    HW119556   0.275   3.693   4.837  0.4111  2.2285  1.5803
 2699SOL    HW219557   0.164   3.647   4.742  0.6308  0.3985 -1.3025
 2700SOL     OW19558   0.123   3.942   3.475 -0.0244 -0.1491 -0.3764
 2700SOL    HW119559   0.157   3.854   3.488 -1.3143 -0.5394  0.3914
 2700SOL    HW219560   0.119   3.934   3.379 -1.0046  1.9582 -0.5275
 2701SOL     OW19561   3.852   4.675   7.927  0.4713 -0.1447 -0.6587
 2701SOL    HW119562   3.926   4.645   7.875 -0.0750 -2.4627 -0.0782
 2701SOL    HW219563   3.782   4.658   7.864 -2.2058  0.7928  2.0607
 2702SOL     OW19564   3.026   1.410  16.330  0.2635 -0.4488 -0.2709
 2702SOL    HW119565   3.048   1.432  16.240  0.0345 -0.6454 -0.3770
 2702SOL    HW219566   2.937   1.444  16.332  0.3009 -0.3716  0.1615
 2703SOL     OW19567   2.710   3.859   7.134  0.4767 -0.0827 -0.6015
 2703SOL    HW119568   2.630   3.910   7.126  0.6355  0.4153  0.9856
 2703SOL    HW219569   2.736   3.855   7.042 -2.7842  0.3958 -1.5517
 2704SOL     OW19570   1.162   4.663   4.935 -0.2541  0.2951 -0.1938
 2704SOL    HW119571   1.248   4.656   4.894  0.0970 -2.3813  1.0013
 2704SOL    HW219572   1.121   0.013   4.891 -1.2498 -0.3585 -0.3646
 2705SOL     OW19573   2.074   2.032   9.032 -0.6151  0.2172  0.1447
 2705SOL    HW119574   1.998   1.974   9.039  1.0795 -1.1398  6.5672
 2705SOL    HW219575   2.058   2.093   9.104  0.3532  2.0593 -1.1763
 2706SOL     OW19576   0.378   0.232  17.309 -0.3494  0.0339 -0.3687
 2706SOL    HW119577   0.289   0.264  17.320 -0.4951 -0.9512  1.3687
 2706SOL    HW219578   0.374   0.158  17.370 -1.5426 -1.3927 -2.2055
 2707SOL     OW19579   2.818   2.189   5.787 -0.0995 -0.2115 -0.1048
 2707SOL    HW119580   2.784   2.241   5.714 -1.0522 -3.1210 -1.7196
 2707SOL    HW219581   2.908   2.181   5.754  0.0507  0.1278  0.2203
 2708SOL     OW19582   2.339   4.564   7.734 -0.4227  0.5305  0.0733
 2708SOL    HW119583   2.372   4.559   7.823  1.9152  0.7678 -0.7710
 2708SOL    HW219584   2.391   4.640   7.705 -1.3887  0.9925 -0.4702
 2709SOL     OW19585   2.523   4.561   7.944 -0.0961 -0.2117  0.2414
 2709SOL    HW119586   2.610   4.562   7.903 -0.7471 -1.4920 -1.1394
 2709SOL    HW219587   2.539   4.493   8.009  0.4048  0.1304  0.4794
 2710SOL     OW19588   4.287   3.013   6.727 -1.0068  0.1528  0.1051
 2710SOL    HW119589   4.299   2.930   6.682 -0.9032  0.5967 -0.6952
 2710SOL    HW219590   4.211   2.994   6.781  0.3768  1.0024  2.3544
 2711SOL     OW19591   2.470   3.391   8.984  0.0057 -0.0468 -0.5314
 2711SOL    HW119592   2.475   3.469   9.040 -2.9039 -0.4886  0.2931
 2711SOL    HW219593   2.375   3.389   8.975 -0.0445 -0.5802  0.1465
 2712SOL     OW19594   4.599   2.685   8.325  0.4308 -1.0260  0.0709
 2712SOL    HW119595   4.635   2.682   8.236 -0.4319 -0.7216 -0.2863
 2712SOL    HW219596   4.520   2.639   8.297 -0.4552 -0.2544  1.3474
 2713SOL     OW19597   3.585   1.857   4.737 -0.5009 -0.0845 -0.4478
 2713SOL    HW119598   3.613   1.783   4.790 -1.3614  1.6145  2.4049
 2713SOL    HW219599   3.612   1.820   4.654  0.0499 -2.1630  0.6665
 2714SOL     OW19600   1.065   1.789  11.569  0.1990 -0.1288 -0.0830
 2714SOL    HW119601   1.011   1.867  11.558  0.3851 -0.0901 -0.7368
 2714SOL    HW219602   1.019   1.742  11.639 -2.7843 -0.1304 -2.0357
 2715SOL     OW19603   0.211   3.886   0.450 -0.0964 -0.2388  0.5846
 2715SOL    HW119604   0.163   3.956   0.406 -0.7515 -0.3093  1.1945
 2715SOL    HW219605   0.298   3.923   0.466 -0.1194  0.5294 -1.0712
 2716SOL     OW19606   4.265   0.864   2.891  0.1794  0.2196  0.2628
 2716SOL    HW119607   4.281   0.952   2.925  1.8072  0.2186 -0.4824
 2716SOL    HW219608   4.222   0.878   2.806  0.7572 -1.3291 -0.2861
 2717SOL     OW19609   0.956   0.022   1.269 -0.2898 -0.5309  0.3592
 2717SOL    HW119610   0.956   4.652   1.254  0.2644  0.1292 -3.7339
 2717SOL    HW219611   1.030   0.033   1.329 -0.2969 -0.1899  0.3044
 2718SOL     OW19612   1.285   2.817   0.054 -0.3337  0.0754 -0.0039
 2718SOL    HW119613   1.377   2.821   0.077  0.2350  0.1783 -2.2840
 2718SOL    HW219614   1.279   2.870  17.674 -0.0619  0.2950  0.1239
 2719SOL     OW19615   0.332   3.668   0.750 -0.3498 -0.1034 -0.1196
 2719SOL    HW119616   0.413   3.663   0.800  0.6001  1.0592 -1.5598
 2719SOL    HW219617   0.291   3.753   0.762  3.9671  1.8640  0.5416
 2720SOL     OW19618   0.414   0.281   4.450  0.1788 -0.5552  0.3476
 2720SOL    HW119619   0.414   0.296   4.355  0.1897  1.5750  0.6906
 2720SOL    HW219620   0.507   0.297   4.467 -0.2471  4.0308 -1.4562
 2721SOL     OW19621   1.871   1.980   7.199 -0.3964  0.5923  0.2961
 2721SOL    HW119622   1.944   1.920   7.200  1.0911  2.3959  0.6990
 2721SOL    HW219623   1.884   2.019   7.286  2.2614  1.6256 -0.5737
 2722SOL     OW19624   1.594   1.664   4.920  0.2703  0.7500 -0.2728
 2722SOL    HW119625   1.639   1.732   4.970  0.4813 -0.8983  1.7948
 2722SOL    HW219626   1.617   1.690   4.831  1.9850  3.2387  0.8858
 2723SOL     OW19627   3.754   2.492   0.853 -0.1862 -0.6084  0.1170
 2723SOL    HW119628   3.718   2.521   0.769 -1.4899 -0.2986  0.7737
 2723SOL    HW219629   3.848   2.486   0.837 -0.2404  3.1988 -1.5944
 2724SOL     OW19630   3.445   1.564   8.507 -0.2234  0.2336 -0.3441
 2724SOL    HW119631   3.397   1.497   8.458  0.1217 -0.2548 -0.0141
 2724SOL    HW219632   3.382   1.635   8.524  1.8533  2.5266 -2.1893
 2725SOL     OW19633   3.734   4.206   5.919 -0.0455  0.0390 -0.3873
 2725SOL    HW119634   3.713   4.133   5.978 -0.6967  0.4511 -0.1100
 2725SOL    HW219635   3.810   4.247   5.959 -1.3452  0.6601  1.4651
 2726SOL     OW19636   2.351   3.023   3.425 -0.2038  0.5221 -0.0871
 2726SOL    HW119637   2.302   2.941   3.416  2.8480 -1.4876  1.6370
 2726SOL    HW219638   2.440   2.992   3.437 -0.5695 -1.4880 -2.6378
 2727SOL     OW19639   3.531   4.499   6.847  0.1296  0.3034  0.0392
 2727SOL    HW119640   3.596   4.439   6.882 -0.7925 -0.4959  0.3738
 2727SOL    HW219641   3.559   4.582   6.887  0.1570  0.6520 -0.7010
 2728SOL     OW19642   2.958   0.717   8.663 -0.5452 -0.6851  0.2464
 2728SOL    HW119643   3.012   0.780   8.710  1.7487 -1.6706 -1.0391
 2728SOL    HW219644   3.007   0.637   8.680  0.2352 -0.0711  0.9068
 2729SOL     OW19645   1.457   2.321  13.801  0.2307 -0.4907 -0.0176
 2729SOL    HW119646   1.546   2.321  13.837  0.3860 -0.3541 -0.3943
 2729SOL    HW219647   1.407   2.249  13.840  0.7310 -0.4755  0.6484
 2730SOL     OW19648   1.948   3.338   3.335  0.1925 -0.7076 -0.4552
 2730SOL    HW119649   1.998   3.311   3.412  1.3162  0.9147 -0.6085
 2730SOL    HW219650   1.962   3.263   3.277  0.8872 -1.2833  0.4357
 2731SOL     OW19651   1.899   0.212   9.080  0.1961  0.0960  0.4080
 2731SOL    HW119652   1.982   0.210   9.033  0.3884  1.4687  0.7067
 2731SOL    HW219653   1.840   0.240   9.010 -0.1252 -3.9741 -0.9440
 2732SOL     OW19654   4.647   0.156   1.645 -0.1006  0.1523  0.3419
 2732SOL    HW119655   0.016   0.162   1.625 -1.0255  1.6494 -3.4787
 2732SOL    HW219656   4.610   0.118   1.566  0.1618  0.6084 -0.0010
 2733SOL     OW19657   1.911   4.049   1.574 -0.3349  0.1863 -0.0406
 2733SOL    HW119658   1.933   4.045   1.667  0.5174  1.6620 -0.1924
 2733SOL    HW219659   1.932   3.962   1.540  1.0917  1.4004 -2.2724
 2734SOL     OW19660   3.433   3.568   7.657 -0.3237  0.3109 -0.1032
 2734SOL    HW119661   3.369   3.637   7.671 -0.6224  0.0713 -0.2932
 2734SOL    HW219662   3.394   3.484   7.682 -1.1889  0.6887 -0.1801
 2735SOL     OW19663   2.503   3.418  11.029 -0.5711  0.1171  0.2696
 2735SOL    HW119664   2.486   3.344  10.971  2.1737 -0.9005  0.7683
 2735SOL    HW219665   2.504   3.372  11.113 -1.2483 -1.2284 -0.4506
 2736SOL     OW19666   2.588   1.920   8.120 -0.8332  0.2252  0.2830
 2736SOL    HW119667   2.510   1.976   8.115 -0.4259  0.7297 -0.2885
 2736SOL    HW219668   2.631   1.916   8.035 -1.7532 -0.6989 -0.1447
 2737SOL     OW19669   2.364   1.557   5.915  0.5301  0.3465 -0.1204
 2737SOL    HW119670   2.339   1.522   6.001  0.0613  0.9177 -0.0248
 2737SOL    HW219671   2.329   1.644   5.935 -3.4014 -0.7078 -2.3796
 2738SOL     OW19672   3.874   4.057   2.264  0.0897 -0.2327  0.0796
 2738SOL    HW119673   3.951   4.083   2.314  0.1085 -0.8980  0.3964
 2738SOL    HW219674   3.919   4.044   2.180  0.3059 -2.2822  0.5277
 2739SOL     OW19675   0.115   2.148   1.554 -0.1251 -0.1335  0.3609
 2739SOL    HW119676   0.103   2.073   1.496 -0.0301  1.6037 -1.8877
 2739SOL    HW219677   0.026   2.183   1.561 -0.4373 -1.0371  1.0258
 2740SOL     OW19678   2.913   3.961   4.777 -0.3482 -0.0788 -0.3609
 2740SOL    HW119679   2.989   3.997   4.732 -0.2247  1.1131  0.8057
 2740SOL    HW219680   2.915   3.878   4.730 -2.0739  0.7106 -1.8581
 2741SOL     OW19681   3.140   2.797   0.211  0.0285 -0.5099  0.2901
 2741SOL    HW119682   3.208   2.770   0.149 -1.0416  0.2300 -1.2067
 2741SOL    HW219683   3.058   2.797   0.162  0.1170 -1.6255  0.1549
 2742SOL     OW19684   1.277   2.362  11.728 -0.4076 -0.0592  0.1197
 2742SOL    HW119685   1.223   2.410  11.665  1.2448 -0.4345 -1.5755
 2742SOL    HW219686   1.321   2.289  11.685  2.7369  1.5611  0.6126
 2743SOL     OW19687   2.635   1.165   5.474 -0.2239  0.6194 -0.2898
 2743SOL    HW119688   2.553   1.138   5.514 -0.0644  0.3375 -0.1528
 2743SOL    HW219689   2.677   1.084   5.445 -0.2071 -0.4024  2.6056
 2744SOL     OW19690   0.879   0.235   5.465 -0.3730 -0.3889  0.1198
 2744SOL    HW119691   0.899   0.146   5.436  1.0753  0.1777 -0.5957
 2744SOL    HW219692   0.963   0.267   5.495 -0.7828  0.9256 -0.1151
 2745SOL     OW19693   4.113   2.788   6.173  0.2774  0.0004 -0.5513
 2745SOL    HW119694   4.119   2.864   6.114 -0.6714 -0.7995 -1.6638
 2745SOL    HW219695   4.206   2.764   6.176  0.0421 -0.6879  0.8998
 2746SOL     OW19696   1.543   2.255   1.660 -0.0218 -0.0077 -0.1791
 2746SOL    HW119697   1.447   2.251   1.664  0.0723 -1.1222  1.0833
 2746SOL    HW219698   1.567   2.343   1.688 -1.7497  1.2591 -2.6818
 2747SOL     OW19699   2.987   1.605   9.497  0.3959  0.3926  0.0759
 2747SOL    HW119700   3.027   1.672   9.552  1.3254  0.1732 -0.3403
 2747SOL    HW219701   2.894   1.615   9.519  0.2242 -0.4086 -0.2752
 2748SOL     OW19702   2.856   2.923  14.789  0.1065 -0.6818 -0.0454
 2748SOL    HW119703   2.808   2.943  14.870 -0.6361 -1.7171 -0.2244
 2748SOL    HW219704   2.852   2.829  14.773  1.3862 -0.8428  0.5600
 2749SOL     OW19705   3.758   1.901  10.079 -0.4084  0.0802  0.1745
 2749SOL    HW119706   3.743   1.952  10.159 -1.3967  2.3454 -1.4433
 2749SOL    HW219707   3.671   1.902  10.040 -0.8020 -0.0133  1.0377
 2750SOL     OW19708   3.812   1.891   7.208  0.1181 -0.6595 -0.4414
 2750SOL    HW119709   3.884   1.829   7.220 -1.6562 -2.2743  1.9003
 2750SOL    HW219710   3.855   1.975   7.193 -0.2188 -0.7280 -1.7416
 2751SOL     OW19711   1.084   2.716  10.186 -0.2295  0.1550  0.0551
 2751SOL    HW119712   1.083   2.797  10.238 -0.8500 -0.2425  0.6729
 2751SOL    HW219713   1.169   2.717  10.144 -0.1350 -0.9547  0.2276
 2752SOL     OW19714   0.806   1.735   8.987 -0.4899  1.0003  0.0475
 2752SOL    HW119715   0.897   1.761   9.006 -0.3062 -0.2632  0.9080
 2752SOL    HW219716   0.764   1.821   8.986  1.1879  1.8593  1.8245
 2753SOL     OW19717   2.532   3.106   8.920 -0.0651 -0.5617 -0.5362
 2753SOL    HW119718   2.514   3.132   8.830 -1.7125  1.1210  0.2855
 2753SOL    HW219719   2.507   3.187   8.965  0.3656 -0.0065 -1.2983
 2754SOL     OW19720   3.681   0.467   8.271  0.1637 -0.0522  0.8355
 2754SOL    HW119721   3.613   0.413   8.310 -2.3496  1.4095 -1.5797
 2754SOL    HW219722   3.763   0.432   8.307  1.1617  1.2478 -0.1478
 2755SOL     OW19723   0.588   1.656   1.764  0.1317 -0.5755  0.0578
 2755SOL    HW119724   0.669   1.656   1.815  0.8924  0.1849 -1.1683
 2755SOL    HW219725   0.611   1.599   1.691 -0.8441 -0.1307 -0.5898
 2756SOL     OW19726   0.970   2.294   1.216 -0.0003  0.0861 -0.0598
 2756SOL    HW119727   0.971   2.210   1.169 -0.5547 -0.7877  1.4998
 2756SOL    HW219728   0.899   2.284   1.280 -0.5973 -0.9647 -0.8891
 2757SOL     OW19729   0.958   3.114  10.540  0.2222 -0.0903 -0.5039
 2757SOL    HW119730   1.011   3.190  10.516  0.4622 -0.7005 -1.9091
 2757SOL    HW219731   1.018   3.051  10.580 -1.1801  0.5612  2.6659
 2758SOL     OW19732   2.332   0.141   2.554  0.0463  0.2833 -0.2830
 2758SOL    HW119733   2.283   0.059   2.562 -0.4864  0.5814 -0.4690
 2758SOL    HW219734   2.264   0.203   2.527 -0.0889  0.2043 -0.1272
 2759SOL     OW19735   3.962   2.556   2.285 -0.5502  0.0959  0.1599
 2759SOL    HW119736   3.967   2.651   2.275  0.4047 -0.4941 -4.7019
 2759SOL    HW219737   4.003   2.527   2.203  0.2225 -0.3926  0.7181
 2760SOL     OW19738   0.187   1.297  11.906 -0.4482  0.5411  0.0539
 2760SOL    HW119739   0.248   1.360  11.942 -2.1407  2.2251 -0.0238
 2760SOL    HW219740   0.142   1.280  11.989  0.7477  2.8697  1.1798
 2761SOL     OW19741   3.671   3.458  11.769 -0.2226 -0.2663  0.1916
 2761SOL    HW119742   3.618   3.379  11.780 -0.2053 -0.7339 -3.2143
 2761SOL    HW219743   3.746   3.424  11.722 -0.2152  0.5645 -0.4031
 2762SOL     OW19744   2.042   3.444  12.855 -0.1602 -0.3865  0.2838
 2762SOL    HW119745   1.974   3.447  12.787  0.2340 -2.2237 -0.2155
 2762SOL    HW219746   2.039   3.527  12.902  0.3121  1.5198 -3.0369
 2763SOL     OW19747   1.242   1.740   5.572 -0.5955 -0.0896 -0.3189
 2763SOL    HW119748   1.303   1.772   5.506 -0.4878 -1.0853 -0.6983
 2763SOL    HW219749   1.214   1.826   5.602 -0.8342 -0.4784  0.5884
 2764SOL     OW19750   4.143   1.961  11.149 -0.6252  0.4128  0.2385
 2764SOL    HW119751   4.100   2.044  11.131  0.9909  0.7627 -1.9383
 2764SOL    HW219752   4.094   1.914  11.081 -0.2726  0.7181 -0.2229
 2765SOL     OW19753   3.605   4.561   8.376 -0.2043  0.7261 -0.5731
 2765SOL    HW119754   3.671   4.555   8.307  0.2108  0.0074 -0.1151
 2765SOL    HW219755   3.585   4.471   8.401 -1.8567  0.9065 -1.2149
 2766SOL     OW19756   3.050   1.552   4.889 -0.8604  0.0365  0.1849
 2766SOL    HW119757   3.025   1.476   4.942 -0.1102 -0.4113 -0.0936
 2766SOL    HW219758   3.064   1.504   4.808  1.1489 -1.2946  1.3084
 2767SOL     OW19759   2.080   3.223   7.367 -0.2756  0.3209  0.3320
 2767SOL    HW119760   2.174   3.221   7.383 -0.0027 -1.7262 -1.5743
 2767SOL    HW219761   2.078   3.301   7.311 -0.4851 -1.1295 -1.6867
 2768SOL     OW19762   0.189   0.457   3.241 -0.0104 -0.1343  0.3475
 2768SOL    HW119763   0.154   0.409   3.316  1.3633 -1.3201  0.2281
 2768SOL    HW219764   0.156   0.410   3.165 -1.2811 -1.0160  1.4525
 2769SOL     OW19765   4.682   0.358   7.554  0.3078 -0.4803 -0.0229
 2769SOL    HW119766   4.666   0.381   7.462  1.4629 -0.3071 -0.1758
 2769SOL    HW219767   4.611   0.401   7.603  2.4190  1.5539  1.2409
 2770SOL     OW19768   2.026   1.285   6.894  0.4200 -0.4520  0.2944
 2770SOL    HW119769   2.115   1.314   6.915 -0.6012  0.7721  3.0501
 2770SOL    HW219770   2.041   1.215   6.830 -1.3430 -0.1932 -0.4100
 2771SOL     OW19771   0.571   0.099   6.572 -0.8641  0.3015  0.0265
 2771SOL    HW119772   0.540   0.012   6.549  0.4575 -0.2469  0.3582
 2771SOL    HW219773   0.639   0.105   6.506  0.6261 -0.8711  1.4389
 2772SOL     OW19774   1.378   4.539  14.361 -0.4445 -0.2770 -0.4207
 2772SOL    HW119775   1.305   4.477  14.354  1.1033 -2.0123 -1.2661
 2772SOL    HW219776   1.427   4.518  14.282  1.2876  0.7678  0.3797
 2773SOL     OW19777   2.716   2.213  13.802 -0.2405 -0.5055 -0.8137
 2773SOL    HW119778   2.690   2.303  13.824 -1.0724 -0.9465  0.0505
 2773SOL    HW219779   2.743   2.218  13.711 -2.6402 -2.9015 -1.6605
 2774SOL     OW19780   4.577   1.941   9.796 -0.3860 -0.1343  0.2030
 2774SOL    HW119781   4.534   2.021   9.826 -1.1881 -0.6240  0.3410
 2774SOL    HW219782   4.544   1.882   9.864 -0.0740 -2.3176 -1.5222
 2775SOL     OW19783   2.112   2.731   6.816  0.3894  0.2030  0.3240
 2775SOL    HW119784   2.104   2.684   6.733 -1.6372  0.5283  0.3449
 2775SOL    HW219785   2.152   2.814   6.791 -1.0975  0.2598 -1.8883
 2776SOL     OW19786   2.894   4.200  17.136 -0.2285  0.6197 -0.4746
 2776SOL    HW119787   2.961   4.250  17.088  2.4511 -0.9912  1.5620
 2776SOL    HW219788   2.898   4.245  17.220  0.1345  0.0930 -0.2047
 2777SOL     OW19789   1.650   1.962  12.903 -0.4779  0.2352  0.6769
 2777SOL    HW119790   1.630   1.916  12.821  1.9024 -1.6231  1.1437
 2777SOL    HW219791   1.645   2.053  12.873  0.2831  0.0122 -0.1312
 2778SOL     OW19792   2.166   2.571   6.487 -0.6564  0.2677 -0.1306
 2778SOL    HW119793   2.076   2.580   6.518 -0.0639  4.3195  0.4122
 2778SOL    HW219794   2.166   2.542   6.396  2.6885 -2.6475  0.7776
 2779SOL     OW19795   3.437   4.009   7.597  0.4135  0.1689 -0.5208
 2779SOL    HW119796   3.511   4.069   7.610  0.6383 -0.2665  0.2011
 2779SOL    HW219797   3.417   3.999   7.690 -1.1621  1.6168 -0.7003
 2780SOL     OW19798   1.843   1.699   2.231 -0.4102 -0.1261  0.1730
 2780SOL    HW119799   1.936   1.680   2.217 -0.2467  0.6963  0.1537
 2780SOL    HW219800   1.825   1.760   2.160 -1.8966 -0.7609  0.0222
 2781SOL     OW19801   3.059   1.787   6.024 -0.5200 -0.4578 -0.0839
 2781SOL    HW119802   3.111   1.818   6.098  0.7677 -0.5682 -0.9327
 2781SOL    HW219803   2.982   1.842   6.037 -0.7176 -1.0415  1.1750
 2782SOL     OW19804   0.708   4.319  16.316 -0.8754 -0.8512 -0.7027
 2782SOL    HW119805   0.692   4.344  16.407 -0.4145  0.2988 -0.9478
 2782SOL    HW219806   0.641   4.251  16.312 -0.4953 -1.6983  6.2012
 2783SOL     OW19807   3.386   2.342  15.827 -0.2677  0.2551 -0.5791
 2783SOL    HW119808   3.478   2.366  15.825 -0.0491 -0.5737 -0.1961
 2783SOL    HW219809   3.347   2.429  15.841  2.2167  1.2997 -0.1800
 2784SOL     OW19810   2.058   3.206   5.620 -0.0634  0.3637  0.3024
 2784SOL    HW119811   2.058   3.229   5.713 -1.0267  5.3387 -0.9535
 2784SOL    HW219812   2.140   3.157   5.612  0.8705  1.7365  1.5323
 2785SOL     OW19813   4.244   2.953   8.489 -0.1429 -0.5260  0.0299
 2785SOL    HW119814   4.324   2.908   8.516 -0.1793 -0.7576 -0.2546
 2785SOL    HW219815   4.279   3.042   8.494 -1.1022 -0.0439 -2.0562
 2786SOL     OW19816   3.243   3.184   2.566  0.1094  0.7475 -0.1648
 2786SOL    HW119817   3.261   3.181   2.472 -0.1244  0.6890 -0.2070
 2786SOL    HW219818   3.334   3.190   2.596  0.3342 -2.1488 -0.3126
 2787SOL     OW19819   0.035   0.263  12.431  0.2835  0.2912 -0.6235
 2787SOL    HW119820   0.030   0.168  12.426  0.6967  0.1917  0.9105
 2787SOL    HW219821   0.021   0.292  12.341  0.9386 -2.1491 -1.5135
 2788SOL     OW19822   0.426   4.572  10.445 -0.1161 -0.4901 -0.3097
 2788SOL    HW119823   0.335   4.593  10.425  0.5680  0.1878 -2.7157
 2788SOL    HW219824   0.477   4.646  10.411 -0.8960 -1.0649 -2.7532
 2789SOL     OW19825   2.406   2.273  16.298 -0.2906 -0.1125 -0.1500
 2789SOL    HW119826   2.413   2.180  16.277  0.2667  0.7655 -3.8420
 2789SOL    HW219827   2.496   2.297  16.276 -0.7089  0.2347 -1.4956
 2790SOL     OW19828   3.773   4.355   5.376  0.1947 -0.0940  0.2793
 2790SOL    HW119829   3.787   4.298   5.452 -1.3597  0.0019  0.6406
 2790SOL    HW219830   3.732   4.295   5.313  1.3335 -0.2655 -0.2886
 2791SOL     OW19831   0.554   4.663   0.854 -0.6190 -0.1522 -0.1631
 2791SOL    HW119832   0.485   0.004   0.856 -1.4612 -1.0414  0.1032
 2791SOL    HW219833   0.509   4.596   0.801  3.0239 -0.6162 -2.7009
 2792SOL     OW19834   1.641   3.113   0.294 -0.3471  0.3993 -0.2889
 2792SOL    HW119835   1.594   3.188   0.258 -1.7641  0.8569  2.4997
 2792SOL    HW219836   1.718   3.134   0.242  0.5286 -0.2511  0.7551
 2793SOL     OW19837   1.459   2.521   3.824  0.5414  0.3769  0.1056
 2793SOL    HW119838   1.425   2.432   3.816 -2.5667  1.3933  1.9527
 2793SOL    HW219839   1.415   2.560   3.900  0.2770  0.8460 -0.2931
 2794SOL     OW19840   1.062   3.003  15.802  0.3183  0.2414 -0.2016
 2794SOL    HW119841   0.981   3.045  15.776  1.5107  1.4003 -2.0331
 2794SOL    HW219842   1.023   2.923  15.836 -0.1050 -1.2371 -4.2221
 2795SOL     OW19843   4.281   2.043   6.297  0.4314 -0.2791  0.0190
 2795SOL    HW119844   4.275   1.996   6.380  0.3911  0.4294  0.4165
 2795SOL    HW219845   4.364   2.014   6.257 -0.0931 -0.2986 -1.0489
 2796SOL     OW19846   1.915   4.624  11.370  0.1679  0.0014  0.3147
 2796SOL    HW119847   1.933   4.582  11.286  1.5863  3.3121 -1.0230
 2796SOL    HW219848   1.819   4.615  11.372  0.0325  1.8414  1.8636
 2797SOL     OW19849   1.698   3.045   2.665 -0.1397  0.5886 -0.0724
 2797SOL    HW119850   1.683   2.951   2.673  2.6090  0.2442  0.9372
 2797SOL    HW219851   1.722   3.073   2.753 -2.0022 -0.6410  0.8197
 2798SOL     OW19852   2.742   3.595   0.433  0.3402  0.3966 -0.8127
 2798SOL    HW119853   2.723   3.534   0.504 -0.5424  0.4114 -1.0247
 2798SOL    HW219854   2.701   3.546   0.361 -0.8390 -0.2253  0.2780
 2799SOL     OW19855   1.952   2.158   4.741 -0.1281  0.3979  0.0687
 2799SOL    HW119856   2.032   2.132   4.695 -0.3238  0.4936 -0.3315
 2799SOL    HW219857   1.979   2.168   4.832 -1.1141 -0.5970  0.4670
 2800SOL     OW19858   4.341   0.322  10.509  0.1247 -0.6080  0.0137
 2800SOL    HW119859   4.293   0.241  10.495 -2.2088  0.4852  1.6256
 2800SOL    HW219860   4.391   0.308  10.589  1.3071 -4.6887 -1.4716
 2801SOL     OW19861   0.364   1.420   3.635  0.1432  0.0276  0.7138
 2801SOL    HW119862   0.368   1.505   3.591  0.6901 -0.1233  0.4615
 2801SOL    HW219863   0.407   1.441   3.718 -0.2631  0.6867  0.7549
 2802SOL     OW19864   1.211   3.659   6.110 -0.2096  0.1580  0.0584
 2802SOL    HW119865   1.279   3.645   6.176 -1.4736 -0.3886  1.2279
 2802SOL    HW219866   1.171   3.573   6.120  1.1296 -0.3751  0.8418
 2803SOL     OW19867   4.510   1.640   0.294 -0.3400  0.4696  0.1775
 2803SOL    HW119868   4.526   1.734   0.298  1.6629  0.1814 -1.2554
 2803SOL    HW219869   4.415   1.638   0.277 -0.4451 -0.1302  0.8563
 2804SOL     OW19870   2.906   4.692   8.910  0.1008  0.5691 -0.0676
 2804SOL    HW119871   2.982   4.671   8.855 -0.3704  1.1413 -0.9340
 2804SOL    HW219872   2.895   4.613   8.962  0.4483 -0.1305 -1.0790
 2805SOL     OW19873   1.425   3.581   4.514 -0.2132  0.1428  0.2332
 2805SOL    HW119874   1.505   3.629   4.494  0.9556 -2.1027 -0.4587
 2805SOL    HW219875   1.367   3.644   4.558  0.1195  0.2778  0.4805
 2806SOL     OW19876   0.599   1.921  11.045 -0.0617  0.1415  0.7126
 2806SOL    HW119877   0.574   1.882  10.962  1.0808  0.8339  0.0381
 2806SOL    HW219878   0.510   1.941  11.075 -0.4484 -0.0631 -0.3139
 2807SOL     OW19879   4.041   1.570  14.922 -0.6172 -0.2295  0.0723
 2807SOL    HW119880   4.120   1.625  14.922 -0.3515 -0.6253  3.0329
 2807SOL    HW219881   3.969   1.625  14.953 -0.0864  1.1583 -1.1072
 2808SOL     OW19882   2.278   1.828   8.939  0.8045 -0.4239 -0.3549
 2808SOL    HW119883   2.329   1.811   9.018  0.4906 -0.9058 -0.2572
 2808SOL    HW219884   2.224   1.901   8.969 -0.9849 -2.7413  1.9518
 2809SOL     OW19885   2.405   1.159   1.932  0.1643 -0.2576  0.1383
 2809SOL    HW119886   2.330   1.107   1.902 -0.8205  1.5502 -0.5304
 2809SOL    HW219887   2.477   1.115   1.888  0.1451 -0.1872  0.0359
 2810SOL     OW19888   1.614   2.483  10.861  0.9521  0.1274 -0.0424
 2810SOL    HW119889   1.619   2.515  10.771 -0.2915 -0.6341 -0.3775
 2810SOL    HW219890   1.700   2.513  10.891  1.6192 -2.3209  0.5123
 2811SOL     OW19891   2.928   2.317   5.330 -0.6044 -0.0670 -0.0559
 2811SOL    HW119892   3.014   2.277   5.319 -1.0967 -0.6128 -1.9247
 2811SOL    HW219893   2.927   2.366   5.248  0.0233  0.9399  0.5383
 2812SOL     OW19894   0.770   4.170   4.427 -0.0144 -0.2302  0.4606
 2812SOL    HW119895   0.769   4.263   4.448  0.7728 -0.3332  0.9387
 2812SOL    HW219896   0.697   4.137   4.478 -1.1879 -1.8895 -2.2529
 2813SOL     OW19897   2.338   4.242  13.677  0.1426 -0.1615  0.4914
 2813SOL    HW119898   2.329   4.335  13.698 -1.7086 -0.5166  1.2918
 2813SOL    HW219899   2.374   4.203  13.757 -0.6004  1.4912  1.6275
 2814SOL     OW19900   3.877   3.007  13.448 -0.7882 -0.1546  0.3617
 2814SOL    HW119901   3.795   3.029  13.493 -1.4239 -0.6608 -0.5596
 2814SOL    HW219902   3.863   3.055  13.367  2.5956 -0.3508 -0.3131
 2815SOL     OW19903   3.386   4.237  10.711  0.2754 -0.8910 -0.1269
 2815SOL    HW119904   3.294   4.249  10.736  0.2613 -0.0053 -0.6004
 2815SOL    HW219905   3.430   4.300  10.768 -1.9093  0.0736  0.4852
 2816SOL     OW19906   3.844   0.293   4.481 -0.9864  0.0520  0.2201
 2816SOL    HW119907   3.923   0.315   4.430 -0.1059 -0.3462  1.4316
 2816SOL    HW219908   3.871   0.252   4.563  0.6172 -0.0989 -0.3867
 2817SOL     OW19909   2.857   0.271   7.041  0.7426  0.1964 -0.6047
 2817SOL    HW119910   2.947   0.253   7.016  0.7562 -1.9482  1.0434
 2817SOL    HW219911   2.854   0.367   7.045  1.2952  0.2783 -2.0258
 2818SOL     OW19912   1.601   1.918  14.230 -0.1185 -0.0267  0.4110
 2818SOL    HW119913   1.650   1.858  14.174 -1.0936 -0.4306 -0.0120
 2818SOL    HW219914   1.663   1.989  14.213 -1.8052  1.7952  1.8855
 2819SOL     OW19915   4.116   4.596   4.853  0.1263  0.7339  0.2524
 2819SOL    HW119916   4.111   4.534   4.781  1.1132 -0.4998  1.2496
 2819SOL    HW219917   4.110   4.535   4.926 -0.4330 -0.0458 -0.4387
 2820SOL     OW19918   1.557   2.870   0.123  0.0301  0.4534 -0.2574
 2820SOL    HW119919   1.588   2.936   0.185  0.9780  1.0690 -1.3898
 2820SOL    HW219920   1.632   2.810   0.118 -0.4076  0.0153 -1.5981
 2821SOL     OW19921   0.305   3.210   2.372 -0.4823  0.0673  0.2203
 2821SOL    HW119922   0.320   3.118   2.349  0.2630 -0.1935  1.7611
 2821SOL    HW219923   0.221   3.202   2.418 -0.7421 -0.9920 -0.4226
 2822SOL     OW19924   0.154   2.936   9.959 -0.0557 -0.2048 -0.2270
 2822SOL    HW119925   0.142   2.858   9.906  0.2470  0.6909 -1.5970
 2822SOL    HW219926   0.121   2.891  10.037 -0.4535  0.1043 -0.2131
 2823SOL     OW19927   2.480   2.687   5.670  0.3051 -0.7238  0.0039
 2823SOL    HW119928   2.505   2.601   5.636 -2.7371 -1.3337 -0.7017
 2823SOL    HW219929   2.443   2.663   5.756 -0.7579  2.1222  0.3456
 2824SOL     OW19930   1.340   2.803   2.826  0.3121  0.3641  0.0487
 2824SOL    HW119931   1.261   2.787   2.775  0.5197 -1.1029  0.1941
 2824SOL    HW219932   1.343   2.898   2.837 -1.5004  0.2724  1.3207
 2825SOL     OW19933   0.191   1.394  14.287 -0.4701 -0.4429 -0.2262
 2825SOL    HW119934   0.263   1.354  14.239 -0.5995 -0.3631 -0.4907
 2825SOL    HW219935   0.165   1.463  14.225 -0.9457 -0.9506 -0.6039
 2826SOL     OW19936   1.775   0.325   8.536  0.2327  0.5920 -0.3718
 2826SOL    HW119937   1.704   0.387   8.515  0.2588  0.6848 -0.1880
 2826SOL    HW219938   1.846   0.386   8.513 -0.2090  1.0435 -0.5365
 2827SOL     OW19939   2.225   3.317   5.905  0.1740 -0.1098  0.0990
 2827SOL    HW119940   2.251   3.341   5.994  1.9583 -1.9127  0.0733
 2827SOL    HW219941   2.275   3.238   5.883 -1.9784 -1.7508  1.1085
 2828SOL     OW19942   2.753   4.639   4.164 -0.0920 -0.2385 -0.2428
 2828SOL    HW119943   2.824   4.598   4.213 -1.0765  0.5249  1.7813
 2828SOL    HW219944   2.682   4.606   4.220 -0.0174 -0.1133 -0.0783
 2829SOL     OW19945   2.301   2.331   5.784 -0.2190  0.3916  1.1620
 2829SOL    HW119946   2.244   2.407   5.779 -1.9985 -0.7935  3.4781
 2829SOL    HW219947   2.250   2.257   5.818 -2.3329  1.6575  0.7337
 2830SOL     OW19948   3.663   3.298  16.177  0.8578 -0.5623  0.2535
 2830SOL    HW119949   3.685   3.295  16.270  1.1906  0.3785  0.2080
 2830SOL    HW219950   3.736   3.353  16.148  0.4295 -1.5890 -2.7941
 2831SOL     OW19951   3.933   2.028   3.006 -0.2272  0.3800  0.1020
 2831SOL    HW119952   3.872   1.963   3.041  1.2256 -0.4318  1.1451
 2831SOL    HW219953   3.875   2.086   2.956  0.6886  1.0017 -0.2474
 2832SOL     OW19954   1.743   4.552   6.698  0.2749  0.3404  0.4337
 2832SOL    HW119955   1.825   4.593   6.726  0.9142 -0.9980  0.5430
 2832SOL    HW219956   1.776   4.481   6.643  0.9655  1.7541 -0.9559
 2833SOL     OW19957   1.352   2.540   5.422 -0.2726  0.0374 -0.2240
 2833SOL    HW119958   1.436   2.577   5.397  0.7532  0.3138  3.5815
 2833SOL    HW219959   1.384   2.496   5.501  0.9530  1.5747  0.1459
 2834SOL     OW19960   2.522   0.741   2.043  0.4495  0.1899  0.1142
 2834SOL    HW119961   2.465   0.780   1.977  1.3155 -1.0162 -1.3465
 2834SOL    HW219962   2.609   0.773   2.019  0.3261  1.4631  1.3301
 2835SOL     OW19963   4.400   2.062  13.440  0.1058 -0.3143  1.0423
 2835SOL    HW119964   4.468   2.127  13.420  1.0578 -1.2465  1.2433
 2835SOL    HW219965   4.355   2.087  13.360 -0.8392 -1.7479  1.1332
 2836SOL     OW19966   4.132   3.167   8.227 -0.0236  0.2248 -0.0526
 2836SOL    HW119967   4.213   3.214   8.204 -0.8461  1.0702 -1.2207
 2836SOL    HW219968   4.078   3.236   8.267  0.6484  0.5504  0.3006
 2837SOL     OW19969   0.156   4.490   8.873  0.0482 -0.3607  0.5729
 2837SOL    HW119970   0.186   4.428   8.806  1.6493  1.0881 -0.0609
 2837SOL    HW219971   0.172   4.442   8.954 -0.8864 -0.3209  0.7805
 2838SOL     OW19972   1.870   1.072   8.258 -0.0305  0.6509  0.0878
 2838SOL    HW119973   1.887   1.142   8.196  0.9377  0.3170 -0.0229
 2838SOL    HW219974   1.797   1.028   8.216  2.7198 -2.2088 -1.7517
 2839SOL     OW19975   3.699   0.706   1.982 -0.5723 -0.1618 -0.5103
 2839SOL    HW119976   3.693   0.802   1.981 -1.0816 -0.1589  2.3075
 2839SOL    HW219977   3.793   0.702   2.002 -0.9435  1.3606  1.5464
 2840SOL     OW19978   0.850   2.828   1.359 -0.3965 -0.1061 -0.4448
 2840SOL    HW119979   0.807   2.865   1.435  1.5728  0.5297  0.3664
 2840SOL    HW219980   0.846   2.904   1.301 -2.5330  1.3056  1.5956
 2841SOL     OW19981   3.628   1.984   7.986 -0.0147  0.2319 -0.2650
 2841SOL    HW119982   3.657   1.909   8.039 -0.1782 -0.2025 -0.7810
 2841SOL    HW219983   3.634   1.950   7.896  1.9374  1.0492 -0.4378
 2842SOL     OW19984   1.466   2.574   2.626 -0.3196 -0.1566 -0.0782
 2842SOL    HW119985   1.371   2.568   2.613 -0.6770 -0.3279  2.5291
 2842SOL    HW219986   1.475   2.497   2.682 -0.0722 -1.4129 -1.8788
 2843SOL     OW19987   0.214   4.164   8.910 -0.3027  0.3794  0.3357
 2843SOL    HW119988   0.205   4.235   8.974 -1.8111 -0.2309  0.7766
 2843SOL    HW219989   0.189   4.084   8.955  1.0676 -0.2771 -0.0726
 2844SOL     OW19990   0.680   2.944   3.799  0.4710  0.6263 -0.3088
 2844SOL    HW119991   0.758   2.925   3.852 -0.7196  0.8515  1.5013
 2844SOL    HW219992   0.645   3.025   3.835 -0.7571 -0.2747  0.5184
 2845SOL     OW19993   4.089   1.793  11.358  0.6582  0.4909 -0.0086
 2845SOL    HW119994   4.003   1.834  11.355 -0.1842 -1.3718 -1.0852
 2845SOL    HW219995   4.135   1.846  11.292  0.8518  0.3887  0.0427
 2846SOL     OW19996   4.268   3.276   0.956 -0.5943  0.2697  0.0316
 2846SOL    HW119997   4.294   3.189   0.926  1.2314  1.0575 -0.6594
 2846SOL    HW219998   4.306   3.339   0.894  0.2236  0.7511  1.0185
 2847SOL     OW19999   2.290   0.248  13.043 -0.2652 -0.5032  0.1539
 2847SOL    HW120000   2.312   0.294  12.962 -3.5286  0.7804 -0.0267
 2847SOL    HW220001   2.305   0.312  13.113 -0.3022 -0.8848  0.5077
 2848SOL     OW20002   2.921   4.481  10.338 -0.7860  0.2820 -0.5101
 2848SOL    HW120003   2.897   4.434  10.258  1.5593 -1.6453 -0.0945
 2848SOL    HW220004   2.858   4.437  10.396 -2.5807  0.2125 -2.5381
 2849SOL     OW20005   2.819   1.276   1.482  0.3450 -0.3026 -0.2951
 2849SOL    HW120006   2.748   1.332   1.512 -0.4712 -0.8515 -1.2193
 2849SOL    HW220007   2.765   1.217   1.429 -1.0076  0.4538  0.2413
 2850SOL     OW20008   3.306   3.125   0.622 -0.1962  0.0684 -0.1713
 2850SOL    HW120009   3.356   3.069   0.681 -2.2811  0.1658  1.6974
 2850SOL    HW220010   3.293   3.060   0.553  2.0623 -2.3738  1.7208
 2851SOL     OW20011   1.007   0.923   4.616  0.7784  0.4617 -0.4098
 2851SOL    HW120012   1.100   0.900   4.619  1.1401  1.7684 -1.3930
 2851SOL    HW220013   0.986   0.930   4.709 -1.8118 -1.3110 -0.8724
 2852SOL     OW20014   2.078   0.562  10.220 -0.1873  0.1279 -0.7301
 2852SOL    HW120015   2.013   0.492  10.230 -0.4558  0.6715  1.4281
 2852SOL    HW220016   2.015   0.634  10.228 -0.2940 -0.0626  0.1172
 2853SOL     OW20017   0.512   1.109   9.142 -0.1088  0.0787 -0.2932
 2853SOL    HW120018   0.515   1.165   9.219 -4.1970  1.1716 -0.9508
 2853SOL    HW220019   0.583   1.151   9.093  1.4007 -1.1561  0.8284
 2854SOL     OW20020   2.696   3.695   3.042  0.0332  0.3110  0.5443
 2854SOL    HW120021   2.751   3.620   3.063  0.4096  0.2755 -0.5700
 2854SOL    HW220022   2.757   3.769   3.050  1.2238 -0.4741 -1.2721
 2855SOL     OW20023   1.522   3.430   7.715 -0.2735  0.3610  0.0580
 2855SOL    HW120024   1.506   3.523   7.700 -2.8100  0.0229  0.5625
 2855SOL    HW220025   1.605   3.415   7.669 -0.3261 -2.0635  0.7581
 2856SOL     OW20026   1.050   0.563  14.499  0.0175 -0.1538 -0.0869
 2856SOL    HW120027   1.064   0.565  14.404  1.9248  1.0865  0.2221
 2856SOL    HW220028   0.975   0.503  14.503  0.3980 -0.5557  0.9139
 2857SOL     OW20029   0.277   0.390  15.095 -0.5343 -0.3953  0.0039
 2857SOL    HW120030   0.196   0.382  15.044 -0.7877  4.1234 -0.3627
 2857SOL    HW220031   0.228   0.401  15.176 -0.6209 -1.0650  0.0410
 2858SOL     OW20032   2.481   3.248  15.060 -0.3182 -0.8603  0.7160
 2858SOL    HW120033   2.520   3.236  14.974 -0.2938  1.7204  0.3811
 2858SOL    HW220034   2.475   3.343  15.060  0.5949 -0.8120  0.4990
 2859SOL     OW20035   1.610   4.235   0.411  0.0724  0.0164 -0.1124
 2859SOL    HW120036   1.630   4.225   0.504 -0.0292 -2.9076 -0.3856
 2859SOL    HW220037   1.682   4.291   0.383  0.1184 -0.6506 -1.3682
 2860SOL     OW20038   4.602   1.447   2.803  0.3252 -0.1939  0.5034
 2860SOL    HW120039   4.515   1.463   2.839  0.5900  0.9138  0.6278
 2860SOL    HW220040   4.615   1.357   2.834  0.2420 -0.2468  0.3859
 2861SOL     OW20041   3.439   1.709   9.390  0.2410  0.1178  0.1143
 2861SOL    HW120042   3.497   1.636   9.415  1.9711  1.8939  1.2482
 2861SOL    HW220043   3.451   1.715   9.296  2.8962 -2.8598  0.2603
 2862SOL     OW20044   1.204   1.012   4.053 -0.8911  0.0324 -0.2866
 2862SOL    HW120045   1.229   1.102   4.035  0.0776 -0.4652 -1.4025
 2862SOL    HW220046   1.123   1.028   4.102 -0.6200  0.2111  0.1019
 2863SOL     OW20047   3.895   2.486   5.302 -0.1196 -0.1288  0.4643
 2863SOL    HW120048   3.811   2.531   5.293  0.8600  1.3776 -1.1956
 2863SOL    HW220049   3.920   2.534   5.380  1.7859 -2.7330  1.4519
 2864SOL     OW20050   2.516   3.315   4.037 -0.7424 -0.0059 -0.3272
 2864SOL    HW120051   2.501   3.375   4.110 -2.0182 -1.4001  0.5596
 2864SOL    HW220052   2.568   3.360   3.971  2.4212  0.1595  2.2690
 2865SOL     OW20053   1.458   2.007   2.869 -0.1288 -0.2193 -0.0072
 2865SOL    HW120054   1.375   1.999   2.823  0.0105  4.0213 -0.9263
 2865SOL    HW220055   1.481   1.914   2.855  2.3795  0.6149 -1.5741
 2866SOL     OW20056   0.221   3.605  10.182 -0.1709  0.2705  0.0679
 2866SOL    HW120057   0.300   3.628  10.231 -0.3337 -0.9456  0.8904
 2866SOL    HW220058   0.209   3.688  10.135  1.8062 -0.3758 -1.6011
 2867SOL     OW20059   4.071   1.940   9.394  0.6673  0.2541  0.8357
 2867SOL    HW120060   4.089   1.856   9.435 -0.5655 -0.2767  0.3079
 2867SOL    HW220061   4.154   1.987   9.391  0.3742  0.7122 -0.3156
 2868SOL     OW20062   2.094   0.256  15.810 -0.2117 -0.4174 -0.3711
 2868SOL    HW120063   2.066   0.165  15.823 -0.1394 -0.1967  1.2378
 2868SOL    HW220064   2.015   0.306  15.829 -1.2863 -1.6901 -1.4692
 2869SOL     OW20065   4.644   2.485   6.624 -0.5005  0.4390  0.5134
 2869SOL    HW120066   4.722   2.429   6.623 -0.1663  0.9346 -1.0831
 2869SOL    HW220067   4.694   2.564   6.606 -0.0120 -0.2112 -1.0224
 2870SOL     OW20068   3.353   2.402   5.080 -0.0188 -0.1672  0.2125
 2870SOL    HW120069   3.300   2.323   5.087 -0.8016  0.3851  0.6170
 2870SOL    HW220070   3.306   2.469   5.130 -2.0902 -1.3416 -0.1449
 2871SOL     OW20071   1.874   1.887  17.527  0.0567 -0.3613 -0.1530
 2871SOL    HW120072   1.905   1.797  17.531 -1.3120 -0.8475 -0.5367
 2871SOL    HW220073   1.837   1.907  17.613  0.4276  0.1027 -0.0969
 2872SOL     OW20074   0.770   3.038  14.928  0.0911  0.7525  0.0532
 2872SOL    HW120075   0.767   2.950  14.967  2.0456  0.3187 -0.7620
 2872SOL    HW220076   0.861   3.030  14.900 -0.5800  2.6672 -2.6387
 2873SOL     OW20077   3.026   3.601   0.301  0.1837 -0.2664  0.0386
 2873SOL    HW120078   2.939   3.637   0.319 -0.0853 -0.6802 -0.4541
 2873SOL    HW220079   3.018   3.509   0.275 -0.5199  0.0052 -0.7390
 2874SOL     OW20080   3.293   0.731   7.245 -0.0811 -0.4269  0.2428
 2874SOL    HW120081   3.372   0.774   7.278  1.4012 -1.9551 -1.2267
 2874SOL    HW220082   3.326   0.682   7.169  0.1522  1.2898 -0.7524
 2875SOL     OW20083   2.185   1.070  14.180 -0.2585 -0.1442 -0.1534
 2875SOL    HW120084   2.253   1.003  14.186 -2.5840 -2.4491  0.6559
 2875SOL    HW220085   2.218   1.129  14.248 -0.5939 -1.8426  1.4711
 2876SOL     OW20086   1.390   0.770   2.831  0.5688 -0.3380 -0.0441
 2876SOL    HW120087   1.400   0.854   2.787  1.9175  0.3881  1.6095
 2876SOL    HW220088   1.311   0.774   2.884 -0.0024 -0.6086 -0.8874
 2877SOL     OW20089   1.334   2.881   9.820 -0.3735  0.2341 -0.0328
 2877SOL    HW120090   1.426   2.869   9.797 -0.4762  0.8234 -0.7396
 2877SOL    HW220091   1.299   2.792   9.809 -0.9133  0.1339  2.5467
 2878SOL     OW20092   1.277   3.744   5.852  1.4538  0.0872 -0.7324
 2878SOL    HW120093   1.205   3.716   5.797 -1.0123  2.5483  1.1997
 2878SOL    HW220094   1.248   3.724   5.941  0.9222  0.2799 -0.8672
 2879SOL     OW20095   2.927   3.933   2.708 -0.1267 -0.3296 -0.3107
 2879SOL    HW120096   3.019   3.959   2.706 -0.2054  0.2222  2.1861
 2879SOL    HW220097   2.900   3.962   2.621 -2.0808  1.4868  0.9022
 2880SOL     OW20098   3.342   1.592   0.034  0.6998 -0.4509  0.3074
 2880SOL    HW120099   3.420   1.634  17.698  1.6428  0.4890  3.4741
 2880SOL    HW220100   3.317   1.657   0.099 -1.1326 -0.6265 -0.2335
 2881SOL     OW20101   3.255   3.901   7.971 -0.1424 -0.2735  0.2940
 2881SOL    HW120102   3.320   3.931   7.908 -1.1624  1.0552 -0.1169
 2881SOL    HW220103   3.172   3.920   7.928  0.6923  0.4178 -0.9931
 2882SOL     OW20104   0.849   3.783  17.434  0.4827  0.3263 -0.6702
 2882SOL    HW120105   0.882   3.829  17.357  0.4866  1.6878  0.1589
 2882SOL    HW220106   0.767   3.831  17.446  0.3248 -0.0370 -0.2929
 2883SOL     OW20107   0.528   2.990   3.399 -0.3196  0.2583  0.7292
 2883SOL    HW120108   0.613   3.032   3.414  0.5753 -0.6746 -1.8147
 2883SOL    HW220109   0.556   2.902   3.424  1.3100  0.3754 -0.7139
 2884SOL     OW20110   2.655   0.850   4.837  0.0163  0.2450 -0.3497
 2884SOL    HW120111   2.581   0.910   4.835  0.1647  0.4141 -0.8955
 2884SOL    HW220112   2.622   0.791   4.905  0.6013 -1.0613 -1.1843
 2885SOL     OW20113   2.362   2.643   4.321  0.5620  0.4254 -0.3792
 2885SOL    HW120114   2.268   2.656   4.332  0.2485 -1.4427 -0.8335
 2885SOL    HW220115   2.389   2.584   4.391  0.3849 -0.2561 -0.8787
 2886SOL     OW20116   1.394   0.642  11.151  0.0955 -0.1391  0.2422
 2886SOL    HW120117   1.470   0.594  11.117  0.1452  0.2904 -0.2607
 2886SOL    HW220118   1.426   0.732  11.161 -0.4231  0.2936 -1.9443
 2887SOL     OW20119   1.920   1.420   2.352 -0.2398 -0.5405  0.0951
 2887SOL    HW120120   1.860   1.492   2.334  0.2576 -0.3945 -1.0214
 2887SOL    HW220121   2.004   1.465   2.357 -0.7446  0.3451  0.4844
 2888SOL     OW20122   2.205   0.434   6.288  0.3902 -0.1805 -0.2239
 2888SOL    HW120123   2.163   0.348   6.295 -1.0663  0.3967 -1.7593
 2888SOL    HW220124   2.126   0.487   6.295 -0.4960 -1.8467  2.3704
 2889SOL     OW20125   4.291   4.621   6.976  0.2169 -0.5547  0.5352
 2889SOL    HW120126   4.379   4.660   6.976 -0.8141  1.7616  0.5290
 2889SOL    HW220127   4.237   4.699   6.980 -0.0368 -0.5730 -2.6562
 2890SOL     OW20128   0.401   3.422   0.076  0.6324  0.0347  0.3674
 2890SOL    HW120129   0.398   3.469  17.692 -1.9811  0.2522  0.5891
 2890SOL    HW220130   0.311   3.389   0.073  0.2430  1.1325 -0.1907
 2891SOL     OW20131   0.047   2.617   7.236 -0.0239 -0.1473 -0.4988
 2891SOL    HW120132   0.076   2.680   7.302 -0.5422  0.7538 -1.1434
 2891SOL    HW220133   0.105   2.544   7.257 -1.4522 -0.8124  1.1724
 2892SOL     OW20134   3.758   0.576  14.421 -0.2005 -0.4686 -0.7182
 2892SOL    HW120135   3.773   0.622  14.503 -1.2361 -2.0932  0.3680
 2892SOL    HW220136   3.818   0.617  14.357 -0.2064  1.7041  0.6848
 2893SOL     OW20137   0.522   2.517   1.687 -0.4343  0.6225  0.4130
 2893SOL    HW120138   0.478   2.600   1.703 -0.6779  0.6189 -0.2342
 2893SOL    HW220139   0.448   2.464   1.656 -0.2362  0.4496  0.2275
 2894SOL     OW20140   2.318   1.164  10.997  0.8267  0.2935  0.0496
 2894SOL    HW120141   2.234   1.176  11.042  0.5127  2.6082 -1.1917
 2894SOL    HW220142   2.318   1.070  10.980  0.1646  0.0082  1.5838
 2895SOL     OW20143   3.399   0.473   0.674  0.1260 -0.1038 -0.6549
 2895SOL    HW120144   3.470   0.507   0.728 -0.4461  0.8362 -0.4777
 2895SOL    HW220145   3.424   0.382   0.660 -1.4924 -0.2596 -2.6088
 2896SOL     OW20146   2.281   1.362  13.314 -0.6348 -0.2453 -0.1763
 2896SOL    HW120147   2.241   1.437  13.358  1.5949 -0.2573  1.8634
 2896SOL    HW220148   2.220   1.348  13.242 -1.6363 -0.9960  0.8168
 2897SOL     OW20149   4.324   1.688  13.009 -0.0372 -0.1535 -0.2758
 2897SOL    HW120150   4.404   1.637  13.011 -0.4049 -0.7700 -1.1628
 2897SOL    HW220151   4.364   1.775  13.010 -0.3582 -0.0306  1.2261
 2898SOL     OW20152   2.567   0.610  10.151 -0.1287  0.3136 -0.1823
 2898SOL    HW120153   2.571   0.595  10.057  1.0076 -2.9740  0.3979
 2898SOL    HW220154   2.478   0.582  10.174 -0.3025  0.5769 -0.5328
 2899SOL     OW20155   1.089   0.895   8.178  0.4609  0.2677 -0.4412
 2899SOL    HW120156   1.172   0.848   8.185  1.2579  1.6410 -0.6133
 2899SOL    HW220157   1.087   0.939   8.263  2.7914  0.0300 -0.2371
 2900SOL     OW20158   3.339   0.986   8.504  0.2145  0.1824 -0.1258
 2900SOL    HW120159   3.414   0.933   8.530  1.5138  1.2758 -1.5814
 2900SOL    HW220160   3.293   0.914   8.461  0.5730  0.9569 -1.8108
 2901SOL     OW20161   1.505   2.713  15.227 -0.1082  0.0426  0.0992
 2901SOL    HW120162   1.475   2.632  15.185  1.0216 -1.1352  1.5697
 2901SOL    HW220163   1.593   2.690  15.257 -0.1967  0.6618  0.8253
 2902SOL     OW20164   2.809   0.586  17.611 -0.3096  0.4063 -0.5012
 2902SOL    HW120165   2.836   0.574   0.002  0.3945 -0.5269 -0.8332
 2902SOL    HW220166   2.866   0.518  17.575 -0.1038  0.4183 -0.1958
 2903SOL     OW20167   0.419   4.574   6.546  0.7859  0.5224  0.1384
 2903SOL    HW120168   0.383   4.491   6.516 -1.5241  1.8818 -0.8654
 2903SOL    HW220169   0.432   4.559   6.639 -0.4996  7.1597  1.4025
 2904SOL     OW20170   0.583   4.095  17.694  0.3710  0.7203 -0.3778
 2904SOL    HW120171   0.562   4.153  17.621 -1.5392  0.8835  0.3065
 2904SOL    HW220172   0.651   4.141   0.044 -1.3059  0.5154  2.0691
 2905SOL     OW20173   4.073   2.859  15.306 -0.2134  0.2712 -0.8891
 2905SOL    HW120174   4.053   2.840  15.397  0.1018  4.0264 -0.0139
 2905SOL    HW220175   4.020   2.792  15.262 -0.8226 -0.0617  0.3422
 2906SOL     OW20176   3.899   2.735   8.528  0.3595  0.1822 -0.1428
 2906SOL    HW120177   3.915   2.643   8.506  1.9113  0.1312  1.2136
 2906SOL    HW220178   3.940   2.765   8.447 -1.2360 -0.2487 -1.1066
 2907SOL     OW20179   1.505   1.332   2.838  0.6756  0.3108 -0.3738
 2907SOL    HW120180   1.547   1.367   2.760  1.0178  0.4577 -0.1189
 2907SOL    HW220181   1.448   1.406   2.858 -1.4923 -0.4067 -3.8436
 2908SOL     OW20182   0.612   4.268   4.945 -0.2624  0.3198 -0.6220
 2908SOL    HW120183   0.540   4.324   4.916  0.8024  0.9064 -2.1462
 2908SOL    HW220184   0.687   4.328   4.938 -0.7299  0.9472 -0.2815
 2909SOL     OW20185   2.948   2.305  14.743 -0.2169 -0.6692 -0.2149
 2909SOL    HW120186   2.963   2.393  14.777 -1.1326 -0.5185 -0.1925
 2909SOL    HW220187   2.873   2.282  14.799  0.5431 -0.3968  0.9027
 2910SOL     OW20188   2.036   3.677   9.427 -0.2704  0.1766 -0.5393
 2910SOL    HW120189   1.972   3.656   9.495 -0.3795  0.4378 -0.5600
 2910SOL    HW220190   2.080   3.592   9.432 -0.2559  0.1749 -0.7020
 2911SOL     OW20191   2.737   1.016   2.080 -0.1004  0.1813  0.4441
 2911SOL    HW120192   2.815   1.063   2.050  0.3962  0.4122  2.1248
 2911SOL    HW220193   2.732   0.953   2.008 -0.9918  0.4181  0.3006
 2912SOL     OW20194   3.347   1.742   1.955 -0.1897  0.3031 -0.0518
 2912SOL    HW120195   3.307   1.695   1.881 -0.4567 -2.1179  1.6314
 2912SOL    HW220196   3.280   1.802   1.985 -0.7746  0.2151 -1.1703
 2913SOL     OW20197   3.824   0.357  15.174  0.3097  0.3595  0.1194
 2913SOL    HW120198   3.878   0.313  15.240  0.0841  1.0054  0.7330
 2913SOL    HW220199   3.852   0.332  15.085 -0.1793 -2.5730  0.7915
 2914SOL     OW20200   1.561   2.295  16.748 -0.3015  0.0704 -0.4291
 2914SOL    HW120201   1.615   2.298  16.669  0.2602 -0.3911 -0.0631
 2914SOL    HW220202   1.514   2.378  16.744  0.8216  0.7554  0.8753
 2915SOL     OW20203   0.512   1.325   6.270  0.8512  0.3410 -0.5355
 2915SOL    HW120204   0.421   1.298   6.256  0.5459  0.3997  1.3619
 2915SOL    HW220205   0.506   1.421   6.273 -2.8063  0.1391 -0.8885
 2916SOL     OW20206   3.631   1.319   3.415  0.5369  0.0791 -1.0626
 2916SOL    HW120207   3.614   1.271   3.333 -1.6745 -1.7458  0.4487
 2916SOL    HW220208   3.663   1.405   3.388 -1.2073  1.0733  0.1305
 2917SOL     OW20209   2.174   4.423   2.575 -0.6989  0.0811 -0.1376
 2917SOL    HW120210   2.142   4.333   2.570  2.1909 -0.8629 -1.6637
 2917SOL    HW220211   2.262   4.404   2.606 -0.3233  1.6258 -0.2943
 2918SOL     OW20212   3.930   2.621   4.496 -0.1977  0.0240 -0.1544
 2918SOL    HW120213   3.889   2.542   4.531 -2.7792  1.0936 -0.7747
 2918SOL    HW220214   4.009   2.614   4.550  1.1255 -1.1990 -2.2864
 2919SOL     OW20215   3.329   3.612  12.189 -0.2074 -0.2156  0.0646
 2919SOL    HW120216   3.319   3.526  12.148 -3.5054 -1.7811  4.1261
 2919SOL    HW220217   3.296   3.582  12.274 -1.7355 -0.6498 -0.6714
 2920SOL     OW20218   1.317   3.127  15.769  0.3478 -0.2614 -0.6344
 2920SOL    HW120219   1.237   3.075  15.769  0.4977 -0.4982  1.6210
 2920SOL    HW220220   1.347   3.111  15.680 -0.1086  3.0575 -1.3959
 2921SOL     OW20221   0.214   1.198   3.947 -0.3348  0.1564 -0.7191
 2921SOL    HW120222   0.266   1.124   3.916 -2.7973 -2.2626  0.9383
 2921SOL    HW220223   0.131   1.151   3.959  0.6075 -1.0843  0.9317
 2922SOL     OW20224   0.356   0.663   8.034  0.6915  0.7575 -0.3036
 2922SOL    HW120225   0.418   0.595   8.060  1.5063  0.5300 -2.7996
 2922SOL    HW220226   0.334   0.614   7.955  0.4628  0.1013  0.1771
 2923SOL     OW20227   1.182   4.095  11.713 -0.3836 -0.2090 -0.1082
 2923SOL    HW120228   1.259   4.041  11.695  0.6201  1.7232 -1.5835
 2923SOL    HW220229   1.149   4.116  11.626 -1.5559 -0.0466  0.3732
 2924SOL     OW20230   3.665   2.369  15.743 -0.0331  0.3903 -0.3387
 2924SOL    HW120231   3.688   2.380  15.836  1.4288 -1.3405 -0.5094
 2924SOL    HW220232   3.726   2.300  15.717  0.8437  1.0450 -0.0660
 2925SOL     OW20233   4.563   2.525   2.907  0.3155 -0.2878 -0.4836
 2925SOL    HW120234   4.632   2.529   2.973  1.0849 -0.6627 -1.2669
 2925SOL    HW220235   4.568   2.617   2.881  0.0460  0.1209  0.8758
 2926SOL     OW20236   2.070   1.653   8.891  0.4960 -0.3968  0.4773
 2926SOL    HW120237   2.136   1.719   8.911  0.6989 -0.1775 -0.9365
 2926SOL    HW220238   2.069   1.662   8.795 -2.7054 -2.0211  0.3619
 2927SOL     OW20239   2.919   4.235   2.454  0.0492 -0.3182  0.0605
 2927SOL    HW120240   2.865   4.296   2.505 -0.6533  0.4901 -1.6842
 2927SOL    HW220241   2.999   4.280   2.430  0.8591 -1.3093  0.9031
 2928SOL     OW20242   1.410   3.716   2.478 -0.7374  0.1242 -0.2452
 2928SOL    HW120243   1.483   3.655   2.470 -0.6081  0.1783  0.4857
 2928SOL    HW220244   1.411   3.766   2.397  0.7571 -0.3731 -0.5322
 2929SOL     OW20245   3.892   0.713  12.960  0.3867  0.1721 -0.2396
 2929SOL    HW120246   3.871   0.653  12.889  2.7154 -0.3120 -0.5142
 2929SOL    HW220247   3.965   0.758  12.916 -0.5688  0.0657 -1.9023
 2930SOL     OW20248   4.032   3.977   8.113 -0.2989  0.3899  0.0525
 2930SOL    HW120249   3.984   4.037   8.057 -1.0528 -0.9203 -0.7218
 2930SOL    HW220250   4.117   3.966   8.071  0.1975 -2.8187  1.8797
 2931SOL     OW20251   0.622   0.811   5.434  0.0439  0.4324 -0.1027
 2931SOL    HW120252   0.659   0.813   5.346  0.2716 -0.6252 -0.0285
 2931SOL    HW220253   0.688   0.751   5.469  1.5732  2.1290 -0.1073
 2932SOL     OW20254   1.936   3.159  11.286 -0.2455 -0.2058 -0.0452
 2932SOL    HW120255   1.972   3.231  11.339  0.9896  0.7843 -2.2498
 2932SOL    HW220256   1.938   3.096  11.358 -0.5056 -2.9921 -2.5110
 2933SOL     OW20257   3.490   1.050   6.948 -0.3622 -0.4078  0.1260
 2933SOL    HW120258   3.398   1.022   6.952  0.0882 -1.8848 -0.1499
 2933SOL    HW220259   3.525   0.963   6.967 -0.4895 -0.4673  0.0898
 2934SOL     OW20260   3.293   1.973  16.626  0.0955 -0.8076  0.2377
 2934SOL    HW120261   3.198   1.969  16.636  0.1469  0.2147  1.1542
 2934SOL    HW220262   3.298   1.884  16.592  0.6139 -1.0967  1.0846
 2935SOL     OW20263   0.200   3.075   4.594 -0.1911 -0.2726 -0.0430
 2935SOL    HW120264   0.251   3.054   4.516  0.3839  0.9759  0.0062
 2935SOL    HW220265   0.227   3.011   4.659  0.6034 -0.6574 -0.7509
 2936SOL     OW20266   0.730   2.790   1.070 -0.2859 -0.6579  0.3548
 2936SOL    HW120267   0.700   2.874   1.034  1.2548  0.1655  1.0049
 2936SOL    HW220268   0.744   2.740   0.990  0.3150  1.7959 -1.0645
 2937SOL     OW20269   1.953   1.016  12.671  0.4147 -0.2661  0.8968
 2937SOL    HW120270   1.905   0.937  12.696  0.3359 -0.5247 -0.0367
 2937SOL    HW220271   1.888   1.081  12.698 -2.0803 -1.7931 -1.3277
 2938SOL     OW20272   3.037   0.517   0.974  0.2525  0.2011  0.3961
 2938SOL    HW120273   3.018   0.428   1.002 -2.5241  1.8334  3.6421
 2938SOL    HW220274   2.994   0.513   0.889 -1.2706 -0.4871  1.2076
 2939SOL     OW20275   4.706   1.645  16.414  0.2782 -0.2469  0.4285
 2939SOL    HW120276   4.701   1.614  16.504 -0.0941  0.0645  0.5191
 2939SOL    HW220277   4.662   1.730  16.419 -0.0950 -0.4441  0.4865
 2940SOL     OW20278   4.611   4.559   6.128  0.4233  0.1309 -0.0156
 2940SOL    HW120279   4.551   4.548   6.201  0.3807 -0.9753 -0.2217
 2940SOL    HW220280   4.648   4.643   6.156 -0.1004  1.3982 -3.0610
 2941SOL     OW20281   0.607   4.609  16.241  0.1026  0.1132 -0.6834
 2941SOL    HW120282   0.702   4.616  16.245 -0.0156  0.3519  1.3645
 2941SOL    HW220283   0.595   4.514  16.247 -1.0279  0.1792 -1.7825
 2942SOL     OW20284   0.712   0.031   4.652  0.1086 -0.1248  0.3065
 2942SOL    HW120285   0.742   4.697   4.722  0.2842  0.4654  0.7189
 2942SOL    HW220286   0.666   4.688   4.601  0.6987 -1.3123  1.3399
 2943SOL     OW20287   1.089   0.440   2.914 -0.2045 -0.0578  0.5782
 2943SOL    HW120288   1.173   0.435   2.960 -1.0117 -2.2656  1.8629
 2943SOL    HW220289   1.087   0.535   2.910  1.2690 -0.0918 -0.9496
 2944SOL     OW20290   1.776   2.701   1.364  0.6531 -0.3055  0.0200
 2944SOL    HW120291   1.700   2.754   1.337  1.9796  1.4953 -0.1597
 2944SOL    HW220292   1.766   2.700   1.459 -1.7992 -0.6955 -0.2421
 2945SOL     OW20293   1.457   1.808  11.123  0.2813  0.4313  0.2796
 2945SOL    HW120294   1.362   1.807  11.112  0.2789  1.8644  0.1014
 2945SOL    HW220295   1.487   1.756  11.049 -0.0175  0.8705 -0.1563
 2946SOL     OW20296   3.293   2.411   2.944 -0.1093 -0.3247 -0.0286
 2946SOL    HW120297   3.302   2.346   3.014 -0.8374  1.4640  1.7348
 2946SOL    HW220298   3.199   2.402   2.930  0.0044 -1.6457  0.0617
 2947SOL     OW20299   2.581   3.369  12.727  0.2675 -0.0612 -0.0103
 2947SOL    HW120300   2.598   3.292  12.672 -0.7848 -0.7629  0.6535
 2947SOL    HW220301   2.510   3.336  12.781 -1.2825 -0.8846 -2.5298
 2948SOL     OW20302   2.594   1.972   4.950 -0.2929  0.3066  0.2740
 2948SOL    HW120303   2.553   1.889   4.974 -0.0147  0.9574  3.0489
 2948SOL    HW220304   2.663   1.945   4.889 -0.4708  2.0235 -0.6958
 2949SOL     OW20305   2.372   3.862   1.137 -0.1699  0.0575 -0.7720
 2949SOL    HW120306   2.281   3.854   1.109 -0.7942  1.7625  0.7642
 2949SOL    HW220307   2.357   3.833   1.227  0.1931  0.3381 -0.6239
 2950SOL     OW20308   4.239   3.453  11.400 -0.0408  0.2787 -0.1582
 2950SOL    HW120309   4.263   3.520  11.336  0.7364  0.4281  0.2901
 2950SOL    HW220310   4.192   3.393  11.341  0.5075 -0.3711  0.0710
 2951SOL     OW20311   3.409   1.427   1.797 -0.5770  0.2377 -1.0016
 2951SOL    HW120312   3.384   1.495   1.734  0.0073  1.1290 -0.2842
 2951SOL    HW220313   3.492   1.467   1.822 -1.0029  1.6188 -1.7966
 2952SOL     OW20314   0.234   1.760  11.278 -0.2638 -0.4148  0.1196
 2952SOL    HW120315   0.167   1.691  11.277 -1.7667  1.0491  0.3257
 2952SOL    HW220316   0.301   1.706  11.235  1.7458  0.8036  1.7645
 2953SOL     OW20317   3.639   2.035   5.356  0.0412  0.3345 -0.0013
 2953SOL    HW120318   3.576   1.964   5.362  0.4312 -0.1018 -1.0278
 2953SOL    HW220319   3.648   2.076   5.442 -0.1206 -0.0096  0.1764
 2954SOL     OW20320   1.914   4.477   5.473  0.0940  0.0657  0.0654
 2954SOL    HW120321   1.827   4.498   5.439  0.5206 -1.3466 -1.9107
 2954SOL    HW220322   1.961   4.554   5.440 -2.1411  1.6498  0.5721
 2955SOL     OW20323   1.898   1.670   3.889 -0.2682  0.7040 -0.6244
 2955SOL    HW120324   1.893   1.757   3.849  2.6174  1.7400  1.2074
 2955SOL    HW220325   1.887   1.614   3.813  0.4683  0.5547 -0.6217
 2956SOL     OW20326   1.245   2.393   1.978 -0.4017  0.2179 -0.3443
 2956SOL    HW120327   1.304   2.374   1.905 -0.2850  0.1392 -0.2305
 2956SOL    HW220328   1.179   2.324   1.977 -0.4642  0.1967  2.8876
 2957SOL     OW20329   3.707   3.611   7.792 -0.2076 -0.0267  0.6753
 2957SOL    HW120330   3.708   3.540   7.856 -0.5055 -1.6304 -1.0863
 2957SOL    HW220331   3.615   3.605   7.766 -0.8327 -1.1385  3.1204
 2958SOL     OW20332   3.652   2.028   9.504  0.0860 -0.7359  0.4607
 2958SOL    HW120333   3.655   2.054   9.596 -2.5972 -1.4675  0.7495
 2958SOL    HW220334   3.691   1.941   9.509  0.2173 -0.6101  1.7520
 2959SOL     OW20335   3.532   4.028   3.481 -0.8779 -0.7230 -0.1972
 2959SOL    HW120336   3.534   3.955   3.543  1.8718 -2.1519 -1.9832
 2959SOL    HW220337   3.447   4.064   3.507 -0.1230 -0.1705  1.4767
 2960SOL     OW20338   2.420   1.617  15.793  0.5806  0.1748  0.1100
 2960SOL    HW120339   2.426   1.565  15.874  2.8650  0.6372  0.2467
 2960SOL    HW220340   2.513   1.634  15.774  0.5554  2.2417  1.9163
 2961SOL     OW20341   1.945   4.588   0.765 -0.4531 -0.1776 -0.0442
 2961SOL    HW120342   1.928   4.658   0.701  1.3405  0.2301 -0.0787
 2961SOL    HW220343   1.940   4.507   0.715 -3.5466 -0.1819  0.2737
 2962SOL     OW20344   1.149   4.207   0.744 -0.4829 -0.5638 -0.1486
 2962SOL    HW120345   1.236   4.243   0.729 -0.9082  0.9818  1.0694
 2962SOL    HW220346   1.103   4.257   0.676  1.9839 -1.1160 -2.1891
 2963SOL     OW20347   3.032   3.657   9.560 -0.3422 -0.2228  0.2472
 2963SOL    HW120348   3.046   3.566   9.535  1.1221  0.0823 -0.0423
 2963SOL    HW220349   2.967   3.686   9.496 -1.2432  1.5113  1.9420
 2964SOL     OW20350   2.664   2.459  16.805 -0.7646  0.3317  0.5560
 2964SOL    HW120351   2.680   2.552  16.794 -0.3283  0.3826  1.5632
 2964SOL    HW220352   2.644   2.451  16.899 -3.9784 -0.4043 -0.1949
 2965SOL     OW20353   3.398   0.477   3.782 -0.5811 -0.6830  0.4317
 2965SOL    HW120354   3.371   0.569   3.790  0.6048 -0.1687 -1.3541
 2965SOL    HW220355   3.415   0.458   3.874 -1.4167  2.3330  1.1982
 2966SOL     OW20356   0.087   0.793   3.758 -0.5457  0.4347 -0.2917
 2966SOL    HW120357   0.084   0.814   3.665 -1.6229 -3.1151 -1.0516
 2966SOL    HW220358   0.002   0.824   3.790 -0.1950  0.0788  0.9892
 2967SOL     OW20359   0.165   2.183   7.759  0.5255  0.4321  0.5049
 2967SOL    HW120360   0.128   2.268   7.783 -1.0177 -0.6655  1.9720
 2967SOL    HW220361   0.258   2.203   7.747  0.5871 -0.8507 -1.1968
 2968SOL     OW20362   1.226   0.546   5.836 -0.0245 -0.1056  0.6221
 2968SOL    HW120363   1.293   0.561   5.903  1.0645 -1.6430 -0.1201
 2968SOL    HW220364   1.245   0.459   5.800  0.7633 -0.0151  0.8261
 2969SOL     OW20365   4.453   1.492  10.443  0.2234 -0.7992  0.3018
 2969SOL    HW120366   4.458   1.552  10.518  0.4424  0.3512 -0.6281
 2969SOL    HW220367   4.391   1.527  10.379  0.3507 -3.7604 -1.4629
 2970SOL     OW20368   4.471   3.178   0.196  0.7716 -0.0151  0.2139
 2970SOL    HW120369   4.436   3.091   0.178  0.5353 -0.0189  0.6744
 2970SOL    HW220370   4.487   3.214   0.109  0.6256  0.1392  0.2492
 2971SOL     OW20371   0.180   0.841   1.937 -0.0454  0.4085  0.7798
 2971SOL    HW120372   0.260   0.840   1.990 -0.5515  2.2603  1.5875
 2971SOL    HW220373   0.181   0.935   1.919 -1.5590  0.0153 -1.2656
 2972SOL     OW20374   4.487   1.914   0.376 -0.1025  0.1480  0.1677
 2972SOL    HW120375   4.474   1.975   0.449 -1.2713  0.9437 -0.7060
 2972SOL    HW220376   4.581   1.924   0.369 -0.1611  0.7662  0.2534
 2973SOL     OW20377   4.696   1.322   5.706 -0.2137  0.1909 -0.1034
 2973SOL    HW120378   4.625   1.310   5.770 -0.1483  0.3739  0.0033
 2973SOL    HW220379   4.680   1.269   5.628 -1.2194  0.7460 -0.2758
 2974SOL     OW20380   2.098   4.387  12.592  0.0083 -0.0030 -0.6012
 2974SOL    HW120381   2.013   4.344  12.583 -1.8572  3.6369 -0.3604
 2974SOL    HW220382   2.155   4.330  12.541  3.3938 -0.4718  3.7340
 2975SOL     OW20383   0.290   1.234   9.908  0.1753  0.0329 -0.2686
 2975SOL    HW120384   0.215   1.174   9.914  0.3398 -0.2521 -1.1172
 2975SOL    HW220385   0.364   1.175   9.896 -0.3847 -0.9077  0.9234
 2976SOL     OW20386   2.968   3.643  16.090 -0.0221  0.5270  0.4628
 2976SOL    HW120387   2.915   3.633  16.169  1.5405  2.0482  1.7258
 2976SOL    HW220388   3.002   3.554  16.094 -2.0290 -0.1039  3.4297
 2977SOL     OW20389   4.209   4.482   9.332 -0.1512  0.5270 -0.2558
 2977SOL    HW120390   4.276   4.550   9.321 -2.0025  2.8010  2.3953
 2977SOL    HW220391   4.268   4.406   9.331 -1.4467 -0.3938 -4.0562
 2978SOL     OW20392   0.406   2.480  13.110 -0.3254  0.2720 -0.0317
 2978SOL    HW120393   0.392   2.391  13.077 -1.3920  0.1122  0.8528
 2978SOL    HW220394   0.458   2.472  13.190  1.7112  3.0934 -1.0852
 2979SOL     OW20395   3.587   1.075   2.633  0.0396  0.0469  0.0505
 2979SOL    HW120396   3.560   1.078   2.541  1.7016  1.2152 -0.4054
 2979SOL    HW220397   3.509   1.026   2.659  0.0976  1.3391  2.6973
 2980SOL     OW20398   2.357   3.182   7.434 -0.0386  0.8487  0.7507
 2980SOL    HW120399   2.370   3.113   7.368  1.2189  0.2765  1.5986
 2980SOL    HW220400   2.392   3.139   7.512  2.3260 -0.6320 -1.1376
 2981SOL     OW20401   1.783   1.705   7.504  0.3510  0.1890  0.2609
 2981SOL    HW120402   1.722   1.631   7.502  0.8205 -0.1925 -0.2451
 2981SOL    HW220403   1.854   1.668   7.450  0.9084  0.3055  0.9138
 2982SOL     OW20404   1.005   2.249  11.597  0.6992 -0.4172 -0.0889
 2982SOL    HW120405   0.984   2.157  11.579  1.1927 -0.6481  0.5019
 2982SOL    HW220406   0.983   2.292  11.514  0.4376 -0.8635 -0.2525
 2983SOL     OW20407   2.051   0.584   7.827  0.2982  0.7607  0.7711
 2983SOL    HW120408   2.137   0.566   7.789 -0.3551 -1.6706  0.4497
 2983SOL    HW220409   2.025   0.662   7.777 -2.1574 -0.9901 -0.7061
 2984SOL     OW20410   0.360   2.669   7.278 -0.0010  0.5428 -0.2714
 2984SOL    HW120411   0.385   2.654   7.186 -0.5843  0.1978 -0.3757
 2984SOL    HW220412   0.356   2.764   7.273  1.3322  0.4778 -3.0511
 2985SOL     OW20413   2.074   3.413   6.264  0.4995 -0.1171 -0.2775
 2985SOL    HW120414   2.027   3.330   6.267  0.5994 -0.3102 -4.4267
 2985SOL    HW220415   2.046   3.448   6.180  0.6436 -0.7593 -0.5902
 2986SOL     OW20416   3.884   2.579   6.248 -0.3860 -0.8222 -0.3038
 2986SOL    HW120417   3.956   2.529   6.286  0.0145  0.1544  0.2306
 2986SOL    HW220418   3.920   2.594   6.161  1.5347  3.0662  1.1467
 2987SOL     OW20419   2.514   2.831   2.490 -0.3019  0.7068 -0.1297
 2987SOL    HW120420   2.540   2.790   2.573 -1.0691  1.3402  0.4230
 2987SOL    HW220421   2.597   2.856   2.450 -0.3176  0.2021 -0.4707
 2988SOL     OW20422   0.674   0.409   2.898  0.1822  0.2223  0.1295
 2988SOL    HW120423   0.755   0.377   2.856  0.8852  0.2738  1.4612
 2988SOL    HW220424   0.633   0.322   2.899  1.7605 -0.5717 -2.0652
 2989SOL     OW20425   3.271   1.500   2.619 -0.1319  0.3121  0.0057
 2989SOL    HW120426   3.362   1.513   2.645 -0.5344 -1.0951  2.1418
 2989SOL    HW220427   3.249   1.416   2.660  1.0508  0.2371  0.4779
 2990SOL     OW20428   2.328   4.244  16.372  0.0774  0.0590 -0.1787
 2990SOL    HW120429   2.278   4.176  16.327  2.5246 -0.7218 -1.7080
 2990SOL    HW220430   2.261   4.312  16.381  0.3286  0.3457 -0.4712
 2991SOL     OW20431   2.349   0.391   6.011  0.0327  0.0139  0.1654
 2991SOL    HW120432   2.305   0.466   5.971  0.9635  0.3687 -0.2076
 2991SOL    HW220433   2.273   0.338   6.034  0.6279 -0.2070  1.6154
 2992SOL     OW20434   1.965   3.501  16.375  0.5282 -0.1917 -0.3301
 2992SOL    HW120435   2.036   3.555  16.338  2.1253 -0.4712  2.3615
 2992SOL    HW220436   1.994   3.410  16.363 -0.5532 -0.3902 -1.4282
 2993SOL     OW20437   1.856   2.401  11.853  0.1429 -0.0561  0.0283
 2993SOL    HW120438   1.908   2.385  11.774 -0.1742  0.9898 -0.3910
 2993SOL    HW220439   1.765   2.411  11.824  0.4655  1.5349 -0.4036
 2994SOL     OW20440   0.140   2.023   4.624  0.4223  0.3638 -0.1446
 2994SOL    HW120441   0.062   2.066   4.660  0.9349  1.5632 -0.4547
 2994SOL    HW220442   0.120   1.931   4.638 -1.2718  0.5227 -1.6030
 2995SOL     OW20443   0.318   0.343   5.622 -0.1076  0.1590 -0.0905
 2995SOL    HW120444   0.403   0.346   5.578 -0.6404  0.5830 -1.0890
 2995SOL    HW220445   0.295   0.251   5.631  2.7735 -0.3723  2.1387
 2996SOL     OW20446   2.769   4.375   8.699  0.1138 -0.6830  0.2171
 2996SOL    HW120447   2.836   4.381   8.766  0.2710 -0.7925  0.0710
 2996SOL    HW220448   2.737   4.286   8.714  0.9456 -1.2984 -1.5881
 2997SOL     OW20449   3.453   0.256  16.491 -0.4245  0.3912 -0.0668
 2997SOL    HW120450   3.478   0.340  16.452 -0.3891 -0.0115 -0.9216
 2997SOL    HW220451   3.424   0.214  16.410  1.5249 -0.1496 -0.4618
 2998SOL     OW20452   1.372   4.603   7.582 -0.1686  0.0359  0.3656
 2998SOL    HW120453   1.302   4.587   7.519 -0.4194 -1.9650  1.1332
 2998SOL    HW220454   1.429   4.532   7.551  1.1014  1.3749 -0.3377
 2999SOL     OW20455   2.723   0.039  13.219 -0.4985  0.4063 -0.9568
 2999SOL    HW120456   2.792   0.005  13.161 -1.5893  1.0284 -2.6400
 2999SOL    HW220457   2.674   0.100  13.164 -1.2206 -1.2644 -2.1888
 3000SOL     OW20458   3.159   4.711  13.104  0.3647  0.0951  0.5576
 3000SOL    HW120459   3.206   0.048  13.048 -0.2689 -1.3527 -1.5947
 3000SOL    HW220460   3.215   4.721  13.180 -0.0195  1.0312  0.7119
 3001SOL     OW20461   1.937   0.056   2.920  0.0447 -0.0767  0.4548
 3001SOL    HW120462   1.980   0.121   2.865  2.3151 -1.1736  0.9099
 3001SOL    HW220463   1.845   0.080   2.910 -0.4615 -1.5664  1.4670
 3002SOL     OW20464   1.876   3.612   7.020 -0.3789 -0.3868  0.0737
 3002SOL    HW120465   1.858   3.540   6.960  0.8264 -1.5068  1.0757
 3002SOL    HW220466   1.963   3.634   6.988 -0.0069 -2.2557 -0.1949
 3003SOL     OW20467   4.459   1.877   2.776  0.0899 -0.1414  0.0759
 3003SOL    HW120468   4.498   1.806   2.725 -0.5321 -1.3461  1.2680
 3003SOL    HW220469   4.406   1.826   2.839 -2.5345  2.5727  0.0766
 3004SOL     OW20470   3.769   0.260  16.327  0.2054  0.0861  0.6488
 3004SOL    HW120471   3.749   0.351  16.304 -0.7428 -0.5564 -1.1019
 3004SOL    HW220472   3.685   0.218  16.307 -0.8533  1.2716  2.6733
 3005SOL     OW20473   0.670   0.773   6.228  0.1348  0.1439  0.4191
 3005SOL    HW120474   0.617   0.804   6.302  0.5483  0.4716  0.5782
 3005SOL    HW220475   0.695   0.858   6.193  0.2249 -0.1382 -0.1996
 3006SOL     OW20476   3.982   4.564   5.256 -0.3026 -0.2052  0.2889
 3006SOL    HW120477   4.018   4.500   5.195  0.1715 -2.0162  2.4805
 3006SOL    HW220478   3.935   4.513   5.321 -0.0268 -1.6407 -0.6470
 3007SOL     OW20479   3.813   2.834   6.309 -0.1439  0.1233  0.4692
 3007SOL    HW120480   3.802   2.742   6.332 -0.0234 -0.1879 -0.6918
 3007SOL    HW220481   3.889   2.830   6.250 -1.1371  1.1689 -0.8900
 3008SOL     OW20482   0.951   3.290  14.684 -0.0135 -0.1769 -0.1733
 3008SOL    HW120483   0.876   3.283  14.625 -1.1222  0.7754  1.1534
 3008SOL    HW220484   0.958   3.203  14.723  1.8459 -0.9194 -2.1303
 3009SOL     OW20485   0.758   2.014   5.430  0.4855 -0.1313 -0.5074
 3009SOL    HW120486   0.707   1.936   5.450  2.5030 -0.9374  1.5445
 3009SOL    HW220487   0.712   2.051   5.355  3.6014  0.6552 -2.0303
 3010SOL     OW20488   0.032   0.657   2.566  0.6376  0.3953  0.7087
 3010SOL    HW120489   0.126   0.654   2.583 -0.0301 -0.4025  4.1600
 3010SOL    HW220490   0.039   0.659   2.471  0.6923 -1.0253  0.6878
 3011SOL     OW20491   3.461   1.287   1.192 -0.4681  0.4169 -0.3309
 3011SOL    HW120492   3.376   1.260   1.157 -1.7387  1.1844  2.1741
 3011SOL    HW220493   3.443   1.313   1.283  0.0655  0.6754 -0.3026
 3012SOL     OW20494   0.416   4.085   4.304 -0.7294  0.8139  0.2496
 3012SOL    HW120495   0.455   4.103   4.389  1.6958 -4.1446  0.2115
 3012SOL    HW220496   0.469   4.012   4.270  1.3287  2.3496  0.2139
 3013SOL     OW20497   3.813   0.149   0.305 -0.1801 -0.6322 -0.4115
 3013SOL    HW120498   3.899   0.110   0.316 -1.1337 -2.7742 -0.6169
 3013SOL    HW220499   3.777   0.071   0.264 -0.8112 -0.7187  0.3001
 3014SOL     OW20500   3.899   1.377  13.041 -0.4407  0.1754  0.1147
 3014SOL    HW120501   3.928   1.369  12.950 -0.1323  0.3332  0.1990
 3014SOL    HW220502   3.890   1.283  13.051  2.3572 -0.0644  0.4987
 3015SOL     OW20503   0.759   3.098   4.964 -0.2478 -0.4609 -0.1814
 3015SOL    HW120504   0.753   3.015   5.012 -1.5671 -1.1782 -1.5806
 3015SOL    HW220505   0.703   3.082   4.888 -0.7112  0.1688  0.0246
 3016SOL     OW20506   1.675   3.485   4.126 -0.4151 -0.0616 -0.1425
 3016SOL    HW120507   1.620   3.424   4.176 -0.9361 -0.4459 -1.1887
 3016SOL    HW220508   1.733   3.425   4.078  0.2477  2.4783 -2.4819
 3017SOL     OW20509   4.069   4.411   9.033  0.3610 -0.5776 -0.3661
 3017SOL    HW120510   3.978   4.398   9.008  0.5374 -1.6963 -0.4298
 3017SOL    HW220511   4.076   4.505   9.013 -1.7907  0.4760  3.8877
 3018SOL     OW20512   1.569   4.234   2.962  0.2240  0.0556  0.6663
 3018SOL    HW120513   1.623   4.312   2.948  0.4972 -0.7829 -2.8620
 3018SOL    HW220514   1.634   4.164   2.968 -1.1108 -1.3872 -1.6357
 3019SOL     OW20515   0.804   3.097   1.207 -0.0824  0.6014  0.0482
 3019SOL    HW120516   0.749   3.085   1.130 -2.0776  1.5562  1.3281
 3019SOL    HW220517   0.739   3.137   1.264 -1.8016 -2.2719  0.1333
 3020SOL     OW20518   2.226   0.979   3.471  0.2454 -0.0109  0.1787
 3020SOL    HW120519   2.147   0.995   3.420 -1.0401 -0.5937  1.9784
 3020SOL    HW220520   2.267   1.065   3.474  0.0700  0.1102 -1.0140
 3021SOL     OW20521   2.647   0.739  15.298 -0.6570  1.3019  0.0970
 3021SOL    HW120522   2.623   0.704  15.212  1.2946 -0.1490  0.1421
 3021SOL    HW220523   2.742   0.733  15.283 -0.7815 -1.6400  0.4466
 3022SOL     OW20524   1.624   4.281   2.149 -0.7586 -0.0900  0.0288
 3022SOL    HW120525   1.696   4.342   2.135 -0.6895  0.2640  1.9303
 3022SOL    HW220526   1.663   4.195   2.131 -1.0088  0.0633 -1.2362
 3023SOL     OW20527   0.846   2.953   5.316  0.2907 -0.1889  0.3227
 3023SOL    HW120528   0.789   2.918   5.248  1.7562  1.4349 -1.7565
 3023SOL    HW220529   0.840   2.890   5.388  0.0416 -0.9677 -0.3819
 3024SOL     OW20530   0.614   1.235   7.864  0.2453  0.1305 -0.1526
 3024SOL    HW120531   0.633   1.160   7.920  0.1305 -1.9237 -2.8648
 3024SOL    HW220532   0.622   1.313   7.919  0.0974  1.7497 -2.4299
 3025SOL     OW20533   3.228   3.031   8.188 -0.2495 -0.0241  0.6173
 3025SOL    HW120534   3.277   2.978   8.126  0.9933 -0.7078  2.1838
 3025SOL    HW220535   3.258   3.000   8.273 -0.4648 -2.2018 -0.0863
 3026SOL     OW20536   2.291   1.802  12.801 -0.1348 -0.6988  0.3381
 3026SOL    HW120537   2.383   1.777  12.790  0.1881  0.3674  0.5965
 3026SOL    HW220538   2.291   1.892  12.832 -0.4072 -0.1089 -1.3717
 3027SOL     OW20539   0.510   2.299   7.247 -0.0080  0.1302  0.5281
 3027SOL    HW120540   0.502   2.212   7.284  0.0841 -0.1408 -0.0899
 3027SOL    HW220541   0.483   2.285   7.157  1.9681  0.6828 -0.1617
 3028SOL     OW20542   4.407   0.234   0.661 -0.4705  0.1098  0.6969
 3028SOL    HW120543   4.394   0.189   0.578 -1.7305 -0.3125  1.1365
 3028SOL    HW220544   4.383   0.324   0.637 -0.4144  0.2597  1.1960
 3029SOL     OW20545   0.469   1.703   6.643  0.1303  0.6899 -0.1968
 3029SOL    HW120546   0.485   1.650   6.721 -0.2284 -0.2307 -0.7452
 3029SOL    HW220547   0.442   1.635   6.581  0.6991 -0.3182  0.6472
 3030SOL     OW20548   1.360   2.897  10.811 -0.0042  0.6408 -0.6787
 3030SOL    HW120549   1.436   2.903  10.869  0.2220 -1.0411 -0.8116
 3030SOL    HW220550   1.379   2.966  10.747 -1.7958  2.3530  0.6374
 3031SOL     OW20551   1.964   0.842   4.843 -0.0765  0.4843 -0.1630
 3031SOL    HW120552   1.997   0.876   4.926 -1.4941  2.1223 -0.2645
 3031SOL    HW220553   2.020   0.893   4.785  0.1808  1.9340  1.3670
 3032SOL     OW20554   0.122   1.591  14.110  0.0851  0.4885  0.1533
 3032SOL    HW120555   0.043   1.627  14.151  0.0456  0.9696 -0.3422
 3032SOL    HW220556   0.122   1.633  14.024  0.1754 -1.5725 -0.8412
 3033SOL     OW20557   3.855   2.904   5.075  0.0355 -0.2037 -0.2360
 3033SOL    HW120558   3.812   2.980   5.034 -0.9329 -0.2073  0.7712
 3033SOL    HW220559   3.782   2.844   5.057 -0.7014  0.6579 -0.1606
 3034SOL     OW20560   2.511   2.552  17.675 -0.3479  0.4822  0.2612
 3034SOL    HW120561   2.543   2.562  17.586  1.5136 -0.2670  0.8486
 3034SOL    HW220562   2.501   2.645  17.692 -1.1297  0.4628 -0.1031
 3035SOL     OW20563   1.357   0.654  14.273  0.7962  0.5349  0.2996
 3035SOL    HW120564   1.400   0.696  14.347  0.6931 -0.0224  0.6717
 3035SOL    HW220565   1.343   0.569  14.313 -0.8866  0.6714 -0.0103
 3036SOL     OW20566   1.939   0.539   6.253 -0.3965  0.2032 -0.4612
 3036SOL    HW120567   1.910   0.517   6.165  1.0063 -1.0064 -0.6086
 3036SOL    HW220568   1.855   0.534   6.298 -0.7104  2.2912 -0.8194
 3037SOL     OW20569   2.706   1.165   1.265 -0.0538  0.6260  0.0354
 3037SOL    HW120570   2.636   1.131   1.208  0.1348  0.0191  0.1602
 3037SOL    HW220571   2.723   1.077   1.300 -0.8694  0.5390  0.2052
 3038SOL     OW20572   2.058   1.254  14.000 -0.4982  0.1400 -0.1235
 3038SOL    HW120573   1.975   1.276  14.043  0.9394  0.0997  2.6139
 3038SOL    HW220574   2.072   1.172  14.047  0.9751 -0.0192 -0.8461
 3039SOL     OW20575   2.002   0.590   3.378  0.0218  0.1663  0.4127
 3039SOL    HW120576   2.083   0.547   3.405 -0.2862  0.7484  2.2271
 3039SOL    HW220577   1.953   0.518   3.337 -1.0990  0.3647  1.4111
 3040SOL     OW20578   3.395   1.744   8.826  0.0990  0.7239 -0.4535
 3040SOL    HW120579   3.397   1.742   8.922  0.5579  2.6234 -0.4319
 3040SOL    HW220580   3.389   1.837   8.807  0.7507  1.0099  0.8031
 3041SOL     OW20581   3.862   4.202  15.504  0.3136 -0.0026 -0.3261
 3041SOL    HW120582   3.934   4.265  15.495 -0.7819  1.6145  2.3914
 3041SOL    HW220583   3.910   4.123  15.479  0.9773 -0.7180  3.1236
 3042SOL     OW20584   4.287   2.817  13.199  0.0152  0.6597 -0.4809
 3042SOL    HW120585   4.373   2.781  13.180 -0.0021  1.7038 -2.5449
 3042SOL    HW220586   4.283   2.814  13.295  1.5129 -1.2724 -0.4843
 3043SOL     OW20587   1.621   1.114  16.578  0.1017 -0.1062  0.2703
 3043SOL    HW120588   1.605   1.093  16.670  1.4923 -3.7799 -0.3407
 3043SOL    HW220589   1.715   1.097  16.577 -0.3955 -2.6693 -2.4289
 3044SOL     OW20590   4.189   1.665   3.838  0.0880 -0.5454 -0.2458
 3044SOL    HW120591   4.220   1.745   3.880 -0.5139  1.5833 -3.8425
 3044SOL    HW220592   4.201   1.603   3.909  0.1243  1.1397  1.2340
 3045SOL     OW20593   4.301   3.734  13.913 -0.0460 -0.1126 -0.3446
 3045SOL    HW120594   4.299   3.696  14.001 -2.0945  0.5386 -0.1227
 3045SOL    HW220595   4.221   3.703  13.872 -1.4819  1.9873  0.9011
 3046SOL     OW20596   2.839   0.900   6.140 -0.2200 -0.4762 -0.2460
 3046SOL    HW120597   2.772   0.837   6.114 -2.0088  0.8119  1.2283
 3046SOL    HW220598   2.827   0.975   6.081  2.8459 -1.0212 -1.5610
 3047SOL     OW20599   0.653   0.753   5.120  0.2336  0.0798 -0.6515
 3047SOL    HW120600   0.748   0.757   5.136 -0.0823 -0.0797  1.3144
 3047SOL    HW220601   0.643   0.674   5.066  0.8232 -0.4555  0.0086
 3048SOL     OW20602   2.506   0.917   5.158  0.5529 -0.7435  0.1891
 3048SOL    HW120603   2.512   0.826   5.128 -2.3122 -0.8226 -0.1331
 3048SOL    HW220604   2.492   0.962   5.074 -1.6039  0.4064  1.1828
 3049SOL     OW20605   3.253   2.953   3.400 -0.5248  0.1821 -0.3098
 3049SOL    HW120606   3.168   2.955   3.444  0.5635  0.9320  1.7449
 3049SOL    HW220607   3.231   2.889   3.331  1.2642 -1.0886  0.2886
 3050SOL     OW20608   1.870   0.478   5.954 -0.3221 -0.2110  0.6044
 3050SOL    HW120609   1.938   0.411   5.955 -0.3884 -0.2774  0.6284
 3050SOL    HW220610   1.800   0.421   5.921 -1.1508 -0.3455  2.6436
 3051SOL     OW20611   0.183   2.635   0.209  0.5853 -0.0478 -0.0957
 3051SOL    HW120612   0.126   2.583   0.152 -0.5316  0.7322  0.3306
 3051SOL    HW220613   0.263   2.582   0.202  0.4508 -0.2461 -0.1482
 3052SOL     OW20614   1.736   0.134   2.746  0.3300  0.4807 -0.2978
 3052SOL    HW120615   1.654   0.183   2.745  0.6093  0.9550 -0.0353
 3052SOL    HW220616   1.712   0.060   2.690  2.3666  0.0840 -0.6504
 3053SOL     OW20617   1.275   1.403  10.391  0.5683  0.4944  0.3846
 3053SOL    HW120618   1.227   1.399  10.473  1.0430 -0.5410  0.6061
 3053SOL    HW220619   1.261   1.495  10.368  0.1133  0.4635  0.5462
 3054SOL     OW20620   1.840   3.373   4.903 -0.3832 -0.2334 -0.0298
 3054SOL    HW120621   1.821   3.304   4.966  0.0694 -0.9861 -0.7214
 3054SOL    HW220622   1.773   3.440   4.914 -0.2353  0.1301 -1.2955
 3055SOL     OW20623   0.458   1.312   4.036  0.7534 -0.2252 -0.0199
 3055SOL    HW120624   0.366   1.293   4.056  1.9605 -3.3136  2.6363
 3055SOL    HW220625   0.493   1.223   4.031 -2.0473 -1.2139 -2.4641
 3056SOL     OW20626   3.986   0.597  12.721  0.7544  0.1536  0.2311
 3056SOL    HW120627   3.944   0.519  12.686  1.6629 -0.3361  0.2157
 3056SOL    HW220628   3.991   0.643  12.638  4.8429  1.4581  1.2102
 3057SOL     OW20629   0.747   0.164  11.536 -0.0214  0.2866 -0.0296
 3057SOL    HW120630   0.803   0.234  11.569  1.7496 -1.8531  1.5274
 3057SOL    HW220631   0.663   0.201  11.564  0.2000 -1.8317  3.3129
 3058SOL     OW20632   4.696   1.448   5.408  0.2180 -0.6960  0.5354
 3058SOL    HW120633   4.609   1.438   5.447  0.4826 -0.3739  1.2170
 3058SOL    HW220634   4.673   1.395   5.332  2.7420 -2.5049  1.0308
 3059SOL     OW20635   0.256   0.651   6.164  0.5616 -0.0934  0.4779
 3059SOL    HW120636   0.289   0.741   6.166 -2.3208  0.9922  0.5479
 3059SOL    HW220637   0.324   0.619   6.105  0.6728 -1.2772  1.2545
 3060SOL     OW20638   0.415   4.076   1.159 -0.5632  0.2113  0.0541
 3060SOL    HW120639   0.328   4.110   1.138 -0.2401  1.0413  0.0606
 3060SOL    HW220640   0.456   4.153   1.199  0.2541 -0.2329  0.0769
 3061SOL     OW20641   1.731   3.656   3.537 -0.4727  0.8164  0.1061
 3061SOL    HW120642   1.761   3.568   3.513  0.4115  0.6356  1.9179
 3061SOL    HW220643   1.752   3.677   3.628 -0.8804 -0.5503  0.5169
 3062SOL     OW20644   2.806   0.483   6.102  0.4198 -0.0917  0.2404
 3062SOL    HW120645   2.817   0.414   6.036 -2.0082 -1.1322  0.8987
 3062SOL    HW220646   2.896   0.513   6.104  0.2888  0.4345 -1.8496
 3063SOL     OW20647   3.531   0.598   4.582 -0.3554  0.5104  0.2082
 3063SOL    HW120648   3.548   0.508   4.555  1.7093  0.8995  0.2159
 3063SOL    HW220649   3.574   0.650   4.514  1.4860  0.2279  1.1694
 3064SOL     OW20650   2.612   0.628  13.373  0.7844 -0.1916 -0.5290
 3064SOL    HW120651   2.688   0.683  13.394  1.7308 -1.8964  0.4735
 3064SOL    HW220652   2.578   0.695  13.313 -2.8017  1.2726  3.1843
 3065SOL     OW20653   2.065   0.917   8.324 -0.5017 -0.1632  0.0381
 3065SOL    HW120654   2.138   0.976   8.344 -1.7633  1.0908  0.8921
 3065SOL    HW220655   1.995   0.980   8.309  2.8024  3.0635 -2.0042
 3066SOL     OW20656   4.611   1.572  12.386 -0.1770 -0.1999 -0.4118
 3066SOL    HW120657   4.631   1.661  12.359  3.8254 -0.3064  2.2076
 3066SOL    HW220658   4.580   1.531  12.305 -0.3733 -0.7619 -0.0561
 3067SOL     OW20659   1.274   2.788   5.691 -0.6307 -0.0950 -1.0203
 3067SOL    HW120660   1.358   2.829   5.713 -0.2036 -0.9488 -1.0624
 3067SOL    HW220661   1.287   2.705   5.645  1.5101 -0.2268 -0.2014
 3068SOL     OW20662   3.098   0.834   3.202  0.5779 -0.3455  0.1294
 3068SOL    HW120663   3.019   0.807   3.249  0.6457 -2.0135 -0.6981
 3068SOL    HW220664   3.171   0.789   3.243  1.7209 -0.7315 -2.3039
 3069SOL     OW20665   1.462   2.362   2.797  0.3962  0.2062 -0.1496
 3069SOL    HW120666   1.379   2.349   2.842  1.1090  0.9674  1.3861
 3069SOL    HW220667   1.519   2.332   2.867 -2.7904 -2.7778  1.1556
 3070SOL     OW20668   4.051   4.692   3.544  0.2182 -0.3161 -0.0443
 3070SOL    HW120669   4.019   0.028   3.610  0.3127  1.9263 -2.0604
 3070SOL    HW220670   4.071   4.616   3.599  0.2367 -0.8296 -0.7549
 3071SOL     OW20671   3.337   2.003   8.776 -0.1914  0.3008 -0.8127
 3071SOL    HW120672   3.253   2.035   8.807 -0.2217 -0.3431 -0.2278
 3071SOL    HW220673   3.326   2.019   8.682  1.2180  1.4341 -0.7913
 3072SOL     OW20674   0.185   0.589   8.739 -0.6634  0.5063 -0.0312
 3072SOL    HW120675   0.268   0.552   8.769  0.1315  1.7865 -0.6198
 3072SOL    HW220676   0.216   0.641   8.665 -2.2150 -0.1880 -1.1520
 3073SOL     OW20677   1.425   1.021  16.340  0.3771 -0.3218  0.4323
 3073SOL    HW120678   1.413   1.089  16.274  1.2180 -1.2783 -0.6988
 3073SOL    HW220679   1.455   1.076  16.412  1.8244 -0.7619  0.1567
 3074SOL     OW20680   0.310   3.472  13.906  0.0591 -0.3014 -0.3656
 3074SOL    HW120681   0.319   3.383  13.941 -2.9233 -0.6035 -0.3650
 3074SOL    HW220682   0.400   3.501  13.893  0.8679 -2.5664  0.2402
 3075SOL     OW20683   2.351   0.822  10.665 -0.4681 -0.0262  0.2062
 3075SOL    HW120684   2.297   0.875  10.607  0.8482  0.4901 -0.5289
 3075SOL    HW220685   2.338   0.738  10.620 -1.7247  0.4382 -0.3039
 3076SOL     OW20686   0.169   4.609   8.299  0.4341 -0.0948  0.0946
 3076SOL    HW120687   0.229   4.680   8.325  0.9447 -0.3448 -0.3924
 3076SOL    HW220688   0.215   4.564   8.228 -1.1128 -1.6127  0.0804
 3077SOL     OW20689   2.681   3.784   2.766 -0.0656  0.1602  0.0330
 3077SOL    HW120690   2.697   3.747   2.853  0.7560  3.5847  1.3291
 3077SOL    HW220691   2.760   3.830   2.739  0.0407 -1.6819 -2.8190
 3078SOL     OW20692   1.697   3.482   3.118  0.2395 -0.9809  0.4277
 3078SOL    HW120693   1.691   3.452   3.209  0.6691  1.4128  1.2529
 3078SOL    HW220694   1.748   3.414   3.074  1.1536 -0.2478  0.3582
 3079SOL     OW20695   3.101   0.901   8.853  0.0120  0.0766 -0.0271
 3079SOL    HW120696   3.182   0.873   8.895 -0.5553 -0.8085  0.4548
 3079SOL    HW220697   3.131   0.956   8.780  0.7484  1.1403  1.0710
 3080SOL     OW20698   0.812   0.785   4.080 -0.0138  0.5200 -0.0431
 3080SOL    HW120699   0.789   0.857   4.139 -0.3851  1.0422 -0.8192
 3080SOL    HW220700   0.746   0.721   4.105 -1.2756  1.0735 -1.8960
 3081SOL     OW20701   0.281   2.312   3.547 -0.4163 -0.6701  0.5219
 3081SOL    HW120702   0.194   2.272   3.544 -1.3247  1.3812 -0.2046
 3081SOL    HW220703   0.325   2.240   3.592 -0.5782 -3.2283 -3.4359
 3082SOL     OW20704   2.181   0.648   8.628 -0.1328  0.4485  0.1002
 3082SOL    HW120705   2.088   0.667   8.639 -0.1904 -0.4959  1.2682
 3082SOL    HW220706   2.209   0.738   8.613 -1.3688  0.7139 -0.5504
 3083SOL     OW20707   2.041   1.627   0.085 -0.1041  0.0898  0.0733
 3083SOL    HW120708   1.965   1.677   0.115 -0.6818 -1.4468  1.1368
 3083SOL    HW220709   2.018   1.539   0.112 -1.6848  1.1220  2.0911
 3084SOL     OW20710   2.686   0.902  16.309  0.4098 -0.4489 -0.4391
 3084SOL    HW120711   2.700   0.839  16.380  0.6288 -0.5508 -0.5745
 3084SOL    HW220712   2.691   0.834  16.241 -2.0505 -0.0193 -1.0463
 3085SOL     OW20713   2.045   2.040  15.052 -0.5045 -0.0281 -0.0768
 3085SOL    HW120714   2.083   2.017  14.968  1.7594  0.3983  0.8510
 3085SOL    HW220715   1.965   1.988  15.044  1.3386 -2.9621  0.5694
 3086SOL     OW20716   1.253   3.885  14.766 -0.1293  0.3072  0.1152
 3086SOL    HW120717   1.250   3.918  14.856 -2.7722 -0.2286  0.2315
 3086SOL    HW220718   1.338   3.840  14.768  0.0001  0.4675 -1.9981
 3087SOL     OW20719   2.858   2.240   8.994  0.1366  0.3675  0.1641
 3087SOL    HW120720   2.820   2.249   9.082  1.6972 -0.1921  0.8969
 3087SOL    HW220721   2.822   2.318   8.952  1.1936  0.8298  0.0974
 3088SOL     OW20722   2.656   4.451   5.150 -0.7420 -0.2693  0.2401
 3088SOL    HW120723   2.709   4.423   5.075  0.7394  2.2373  0.3437
 3088SOL    HW220724   2.699   4.392   5.213  0.3377  0.4439  0.1835
 3089SOL     OW20725   2.857   4.252   9.305 -0.0262  0.0147 -0.1737
 3089SOL    HW120726   2.776   4.227   9.349 -0.1225 -1.4494 -1.1512
 3089SOL    HW220727   2.849   4.212   9.218  1.9312  2.0524 -1.2988
 3090SOL     OW20728   2.246   4.427   8.028  0.1976  0.0385  0.2298
 3090SOL    HW120729   2.163   4.423   7.980  0.8584  1.6602 -1.0233
 3090SOL    HW220730   2.286   4.344   8.005 -1.8260 -0.8213 -0.2302
 3091SOL     OW20731   4.199   0.144   1.795 -0.1657 -0.2829 -0.0901
 3091SOL    HW120732   4.172   0.053   1.786 -0.1108 -0.4920  1.9144
 3091SOL    HW220733   4.271   0.133   1.857 -1.4889 -1.4337  1.2361
 3092SOL     OW20734   0.718   3.485   5.604 -0.2238  0.2048  0.0092
 3092SOL    HW120735   0.665   3.450   5.675  1.1189  1.3152  1.5583
 3092SOL    HW220736   0.754   3.403   5.570  0.8353  0.6070  0.1578
 3093SOL     OW20737   3.185   4.386   3.771  0.3914 -0.0632  0.3685
 3093SOL    HW120738   3.151   4.333   3.843  0.1648 -1.1606 -0.5436
 3093SOL    HW220739   3.111   4.443   3.747  0.5097  0.9134  2.3892
 3094SOL     OW20740   0.746   3.498   9.582  0.3330 -0.3632  0.3599
 3094SOL    HW120741   0.736   3.413   9.625  0.2995  0.3081  1.6777
 3094SOL    HW220742   0.839   3.515   9.593  1.0682 -2.8869 -1.9650
 3095SOL     OW20743   2.984   3.007   5.513  0.0318  0.2048 -0.4120
 3095SOL    HW120744   2.921   2.980   5.579  0.0841  0.1103 -0.4012
 3095SOL    HW220745   2.925   3.035   5.443 -1.9722  1.6500  1.8801
 3096SOL     OW20746   0.098   3.389  13.020 -0.1318 -0.4442 -0.3506
 3096SOL    HW120747   0.167   3.358  12.962  1.2870  0.7319  0.7142
 3096SOL    HW220748   0.086   3.316  13.081 -1.5536  0.3629  0.3378
 3097SOL     OW20749   2.602   4.016   3.427  0.5329  0.2521 -0.5020
 3097SOL    HW120750   2.623   3.987   3.338 -0.8181  1.3240 -1.1864
 3097SOL    HW220751   2.627   4.108   3.430  0.2450  0.2746  1.2800
 3098SOL     OW20752   3.287   2.945   2.267  0.5833 -0.1716  0.5751
 3098SOL    HW120753   3.191   2.945   2.271  0.3956 -1.8554 -2.9782
 3098SOL    HW220754   3.296   3.040   2.267  0.5646 -0.1703  0.1182
 3099SOL     OW20755   1.195   2.030  14.614  0.0909 -0.3668 -0.4860
 3099SOL    HW120756   1.099   2.033  14.615  0.0308 -2.5188 -0.6089
 3099SOL    HW220757   1.221   2.122  14.621  1.5487 -0.8266 -0.0036
 3100SOL     OW20758   3.341   3.894   2.788 -0.0401 -0.1965 -0.5742
 3100SOL    HW120759   3.432   3.877   2.811  0.0420 -1.7463 -2.0068
 3100SOL    HW220760   3.330   3.988   2.804 -0.0112 -0.3324  0.2005
 3101SOL     OW20761   0.197   3.534   8.205 -0.1309  0.7527 -0.3026
 3101SOL    HW120762   0.122   3.589   8.227 -1.7837 -1.9072  0.6333
 3101SOL    HW220763   0.242   3.523   8.289 -0.1019  0.2781 -0.3804
 3102SOL     OW20764   2.429   4.618  15.958 -0.4612 -0.3428 -0.1751
 3102SOL    HW120765   2.338   4.598  15.936 -1.1608  1.7878  0.8114
 3102SOL    HW220766   2.429   4.612  16.053 -0.8928 -2.7145 -0.3090
 3103SOL     OW20767   2.748   2.543   7.937 -0.6941  0.1715 -0.2413
 3103SOL    HW120768   2.705   2.468   7.979 -0.3136  0.8559  1.3547
 3103SOL    HW220769   2.674   2.603   7.931  0.1639  1.1406 -1.1273
 3104SOL     OW20770   3.084   0.716  14.780  0.0185  0.3966 -0.3722
 3104SOL    HW120771   3.084   0.802  14.822  0.0364  0.0901  0.2459
 3104SOL    HW220772   3.049   0.744  14.695 -2.3523 -0.3753  0.3687
 3105SOL     OW20773   2.432   1.436   5.231  0.5033 -0.3695  0.4725
 3105SOL    HW120774   2.449   1.343   5.242 -2.0177 -0.8052  0.6352
 3105SOL    HW220775   2.358   1.439   5.291  0.5144  3.1262  0.2928
 3106SOL     OW20776   0.489   2.153   1.632 -0.5840  0.3665  0.4598
 3106SOL    HW120777   0.568   2.188   1.673 -0.3280  0.8233 -0.4325
 3106SOL    HW220778   0.427   2.222   1.656 -0.0241  1.2651 -0.6714
 3107SOL     OW20779   4.195   2.174  15.276  0.1733  0.5960  0.0262
 3107SOL    HW120780   4.170   2.238  15.209 -0.0112 -1.0297 -1.4632
 3107SOL    HW220781   4.287   2.196  15.295  0.0459  1.5068 -0.4123
 3108SOL     OW20782   4.049   0.609   7.425 -0.8091 -0.1730  0.3541
 3108SOL    HW120783   4.088   0.628   7.511  0.2522 -0.6105 -0.0360
 3108SOL    HW220784   4.003   0.529   7.449 -1.9791  0.2722 -0.4004
 3109SOL     OW20785   0.436   4.256   2.064 -1.0005  0.1261  0.0786
 3109SOL    HW120786   0.516   4.305   2.080 -1.0092 -0.7890  2.7991
 3109SOL    HW220787   0.363   4.311   2.094 -0.4239  2.1746 -2.2531
 3110SOL     OW20788   4.312   1.703   6.985 -0.0476  0.4763 -0.0909
 3110SOL    HW120789   4.268   1.623   7.015 -1.2050  1.5539  1.0445
 3110SOL    HW220790   4.241   1.762   7.008 -0.0816  0.0830  0.8098
 3111SOL     OW20791   2.188   2.016   6.593 -0.1816  0.2892  0.7093
 3111SOL    HW120792   2.263   2.044   6.540  0.6402  0.4042  1.9280
 3111SOL    HW220793   2.199   1.921   6.603 -1.9875 -0.0218 -0.3785
 3112SOL     OW20794   0.100   2.360   2.334  0.0639  0.8313 -0.2677
 3112SOL    HW120795   0.173   2.342   2.393 -0.0019  3.0689  0.4951
 3112SOL    HW220796   0.134   2.443   2.302  1.3059  1.0375  1.5602
 3113SOL     OW20797   0.807   2.279   3.508 -0.5731 -0.5594 -0.7404
 3113SOL    HW120798   0.726   2.236   3.484  0.1280 -1.8719 -0.7468
 3113SOL    HW220799   0.856   2.297   3.428 -0.2283 -0.7850 -0.5822
 3114SOL     OW20800   0.981   3.239   4.979  0.3656 -0.6419  0.5964
 3114SOL    HW120801   1.022   3.240   4.892  0.2390  2.0545  0.5571
 3114SOL    HW220802   0.908   3.177   4.978 -1.2691  1.3042 -1.2666
 3115SOL     OW20803   4.301   1.748   7.390  0.1579  0.0203  0.3337
 3115SOL    HW120804   4.394   1.761   7.371  0.0330 -2.8184 -2.3543
 3115SOL    HW220805   4.256   1.786   7.315 -1.6928 -2.4106  0.2110
 3116SOL     OW20806   3.271   0.387  10.006  0.1131  0.2066  0.0597
 3116SOL    HW120807   3.301   0.367  10.095  1.2498 -0.1057 -0.3853
 3116SOL    HW220808   3.304   0.477  10.004 -0.0651  0.2413 -1.3352
 3117SOL     OW20809   2.472   3.383  16.831 -0.0600 -0.0123 -0.3882
 3117SOL    HW120810   2.547   3.323  16.830 -0.9723 -1.1488  0.4051
 3117SOL    HW220811   2.510   3.454  16.779  2.1478  0.7153  2.2129
 3118SOL     OW20812   1.510   3.344   8.280 -0.1207 -0.1982 -0.6542
 3118SOL    HW120813   1.417   3.356   8.262 -0.4747 -1.9791 -0.0148
 3118SOL    HW220814   1.539   3.319   8.192 -0.4755 -0.0992 -0.7993
 3119SOL     OW20815   4.146   4.448   7.993  0.4484  0.6482 -0.3638
 3119SOL    HW120816   4.217   4.386   8.012 -0.5362  0.1433  1.6615
 3119SOL    HW220817   4.125   4.473   8.083 -0.8149 -0.8929 -0.2214
 3120SOL     OW20818   3.422   3.845  15.485 -0.5533  0.1026  0.1924
 3120SOL    HW120819   3.466   3.817  15.405  0.4521  0.0667  0.7497
 3120SOL    HW220820   3.434   3.940  15.484  1.3496 -0.1313 -0.1211
 3121SOL     OW20821   2.388   0.992   4.896 -0.5330  0.0482 -0.3261
 3121SOL    HW120822   2.304   1.028   4.927  0.6977  2.2469  0.5012
 3121SOL    HW220823   2.412   1.067   4.842 -1.0844  1.1655  0.9799
 3122SOL     OW20824   2.809   2.390   9.484  0.1972 -0.1927  0.1884
 3122SOL    HW120825   2.866   2.363   9.557  0.1680 -1.3356 -0.2118
 3122SOL    HW220826   2.730   2.405   9.537 -0.1712 -3.1025  0.4323
 3123SOL     OW20827   0.282   4.533  14.500  0.3239  0.7905  0.0691
 3123SOL    HW120828   0.213   4.563  14.441 -0.3973 -2.2268 -0.5847
 3123SOL    HW220829   0.244   4.449  14.525  0.5077 -0.2178 -3.0504
 3124SOL     OW20830   2.853   3.425   5.062  0.3876  0.0994  0.1005
 3124SOL    HW120831   2.899   3.482   5.000  0.6012 -1.5972 -1.3020
 3124SOL    HW220832   2.766   3.466   5.068  0.0414 -0.3113 -1.9368
 3125SOL     OW20833   1.969   3.837  11.439 -0.0047 -0.2890 -0.0396
 3125SOL    HW120834   1.910   3.793  11.499  1.2718 -0.6247  0.9638
 3125SOL    HW220835   1.934   3.800  11.357 -2.5657 -0.9933  1.3717
 3126SOL     OW20836   1.991   2.890   5.377  0.1567  0.0178 -0.1742
 3126SOL    HW120837   1.972   2.890   5.283  0.5807  0.4688 -0.2623
 3126SOL    HW220838   2.087   2.893   5.369  0.4117 -3.6991  1.5814
 3127SOL     OW20839   0.112   1.047   7.763  0.6967  0.3673 -0.0161
 3127SOL    HW120840   0.205   1.033   7.776  0.8133 -0.7933 -2.1320
 3127SOL    HW220841   0.097   1.095   7.844  0.9050  0.3530  0.0292
 3128SOL     OW20842   0.683   2.559   5.179 -0.2557 -0.3620  0.0748
 3128SOL    HW120843   0.636   2.607   5.247  1.2172 -0.1732  0.9591
 3128SOL    HW220844   0.729   2.490   5.228 -0.0302  0.3003  0.8051
 3129SOL     OW20845   2.894   4.149   5.793  0.4800  0.1688  0.0292
 3129SOL    HW120846   2.912   4.072   5.846  2.6021 -0.0630 -1.0303
 3129SOL    HW220847   2.917   4.223   5.850 -2.8105  1.7289 -0.6534
 3130SOL     OW20848   2.220   0.924   8.662  0.9486 -0.1779  0.0368
 3130SOL    HW120849   2.174   1.009   8.657  0.5052 -0.4146  0.0669
 3130SOL    HW220850   2.301   0.952   8.706  3.4026 -3.6068 -2.3591
 3131SOL     OW20851   1.804   3.867  10.129 -0.1073  0.4036 -0.6148
 3131SOL    HW120852   1.866   3.869  10.056  0.6686 -1.6601  0.0001
 3131SOL    HW220853   1.864   3.875  10.203 -2.3840  2.6623  0.9841
 3132SOL     OW20854   3.192   3.100   6.707  0.4023  0.1137  0.1166
 3132SOL    HW120855   3.237   3.092   6.623  1.4745  0.5550  0.6459
 3132SOL    HW220856   3.212   3.193   6.718  3.0451 -0.6387  1.7631
 3133SOL     OW20857   0.329   4.437   7.607  0.2305  0.2801 -0.2301
 3133SOL    HW120858   0.262   4.404   7.547  0.0479  1.5946 -0.7516
 3133SOL    HW220859   0.379   4.357   7.620 -1.5751 -0.8601 -0.2006
 3134SOL     OW20860   4.399   0.291   4.846  0.0781 -0.0876  0.0517
 3134SOL    HW120861   4.368   0.312   4.758 -1.8598 -0.2476  0.6985
 3134SOL    HW220862   4.331   0.229   4.872  0.3725 -0.6562 -0.5233
 3135SOL     OW20863   3.229   2.944   0.448 -0.1465 -0.5358 -0.0217
 3135SOL    HW120864   3.193   2.912   0.365  0.5276 -2.8840  0.5722
 3135SOL    HW220865   3.194   2.885   0.515 -0.0961  0.0007  0.4728
 3136SOL     OW20866   1.452   3.250   6.662 -0.6654 -0.0058 -0.4090
 3136SOL    HW120867   1.379   3.212   6.711 -0.1122  0.0602  0.4507
 3136SOL    HW220868   1.496   3.284   6.739  2.2404  0.1599 -2.1529
 3137SOL     OW20869   2.560   3.814  12.863  0.0869 -0.2402 -0.1288
 3137SOL    HW120870   2.610   3.734  12.883 -0.6154 -0.2736  1.4555
 3137SOL    HW220871   2.510   3.791  12.785  1.1926  1.1054 -1.2303
 3138SOL     OW20872   3.777   1.211   0.703  0.0224  0.2657 -0.7706
 3138SOL    HW120873   3.708   1.269   0.671  0.2931  1.4586  0.7899
 3138SOL    HW220874   3.726   1.162   0.768  2.0031  1.9991  2.1481
 3139SOL     OW20875   1.820   3.670   3.789 -0.3489 -0.0673 -0.0241
 3139SOL    HW120876   1.861   3.689   3.873  0.2137  1.1375 -0.5905
 3139SOL    HW220877   1.897   3.656   3.734  0.2267  0.3985  0.6634
 3140SOL     OW20878   3.055   2.807   7.768 -0.3065  0.3265 -0.4076
 3140SOL    HW120879   3.076   2.872   7.701 -0.4949  0.4067 -0.3889
 3140SOL    HW220880   2.960   2.804   7.759 -0.3176  0.3116 -0.2752
 3141SOL     OW20881   1.241   3.664  17.591  0.7427  0.2881 -0.3668
 3141SOL    HW120882   1.216   3.731  17.655  2.2053  0.7810 -0.3092
 3141SOL    HW220883   1.235   3.707  17.505 -0.7742  0.2472 -0.2944
 3142SOL     OW20884   1.394   1.403  12.084  0.4712 -0.1364 -0.0405
 3142SOL    HW120885   1.381   1.417  12.178 -1.0486 -1.9457  0.0069
 3142SOL    HW220886   1.405   1.309  12.073 -1.2931 -0.4847  1.2178
 3143SOL     OW20887   2.859   0.370   6.681 -0.5216 -0.1706 -0.2633
 3143SOL    HW120888   2.834   0.462   6.677 -0.5360 -0.1669 -0.0677
 3143SOL    HW220889   2.939   0.379   6.733 -0.6774  0.8485 -0.2070
 3144SOL     OW20890   0.573   3.541   9.909  0.8376  0.3811  0.2229
 3144SOL    HW120891   0.611   3.455   9.892  1.8303  1.0064 -0.6748
 3144SOL    HW220892   0.478   3.528   9.913  0.6885  1.6272  0.5893
 3145SOL     OW20893   1.529   4.208   7.382  0.3185  0.0147 -0.6731
 3145SOL    HW120894   1.620   4.236   7.391 -0.1944  1.4017  0.1291
 3145SOL    HW220895   1.491   4.195   7.468  0.7004  0.0157 -0.5031
 3146SOL     OW20896   0.252   1.248   1.432 -0.4158  0.3084 -0.2823
 3146SOL    HW120897   0.213   1.162   1.448  0.7236  0.0424  1.1314
 3146SOL    HW220898   0.199   1.291   1.365 -0.1858  1.6624  0.3978
 3147SOL     OW20899   0.792   2.924  10.399 -0.7562 -0.2523  0.4809
 3147SOL    HW120900   0.830   2.991  10.457 -0.1368  2.3645 -2.9418
 3147SOL    HW220901   0.804   2.967  10.315 -2.7734  2.7203  1.7347
 3148SOL     OW20902   4.701   1.308   5.183  0.3036  0.0636 -0.1524
 3148SOL    HW120903   4.655   1.228   5.155 -0.9440 -0.1136  2.4419
 3148SOL    HW220904   0.051   1.321   5.124 -0.0619  1.8846 -0.1986
 3149SOL     OW20905   3.474   4.273   8.405  0.4921  0.1613  0.1133
 3149SOL    HW120906   3.527   4.202   8.369  0.3435  0.5040 -0.7859
 3149SOL    HW220907   3.479   4.242   8.496  0.1922 -1.5961 -0.4943
 3150SOL     OW20908   1.217   1.940  17.010 -0.3824 -0.2995  0.6089
 3150SOL    HW120909   1.176   1.982  16.935 -1.2209 -0.7615  0.8122
 3150SOL    HW220910   1.264   2.015  17.048 -1.3231  0.2256  0.7277
 3151SOL     OW20911   1.686   4.174   1.435 -0.2071  0.2109 -0.1532
 3151SOL    HW120912   1.605   4.190   1.484 -0.3453  0.0287 -0.3209
 3151SOL    HW220913   1.755   4.161   1.500 -1.6223 -0.3796  1.2411
 3152SOL     OW20914   3.073   1.036   7.274 -0.9194  0.2618  0.5787
 3152SOL    HW120915   3.135   0.982   7.324  0.6360  1.3943 -0.1228
 3152SOL    HW220916   3.081   1.115   7.328 -1.3757  0.5861  0.1740
 3153SOL     OW20917   2.602   1.622   5.120 -0.1289  0.0366  0.1528
 3153SOL    HW120918   2.546   1.556   5.159  3.0063 -2.1091  1.0614
 3153SOL    HW220919   2.645   1.579   5.046  0.4987 -0.5264  0.8452
 3154SOL     OW20920   3.508   2.097   2.472  0.6538  0.8576  0.3879
 3154SOL    HW120921   3.454   2.053   2.405  0.7738 -0.3350  1.0712
 3154SOL    HW220922   3.433   2.142   2.511  1.8006  2.5937  0.5875
 3155SOL     OW20923   2.709   4.002   4.567 -0.3065  0.4237 -0.4091
 3155SOL    HW120924   2.718   3.916   4.527 -1.5861 -0.0015  0.2188
 3155SOL    HW220925   2.710   3.973   4.658 -1.8519  1.1355 -0.1714
 3156SOL     OW20926   3.488   3.187  14.157  0.1131 -0.2482 -0.3576
 3156SOL    HW120927   3.449   3.258  14.105  0.2679  1.8759  2.4588
 3156SOL    HW220928   3.485   3.237  14.239  0.3239  0.6093 -0.8641
 3157SOL     OW20929   4.640   4.370   9.064  0.0007  0.5105 -0.6542
 3157SOL    HW120930   0.009   4.369   9.087 -0.5128 -0.3180  1.4228
 3157SOL    HW220931   4.614   4.279   9.050  0.3668  0.3847 -0.5418
 3158SOL     OW20932   3.986   2.193  10.817  0.0084  0.2213  0.1988
 3158SOL    HW120933   3.890   2.195  10.815 -0.0688 -3.7089 -1.2325
 3158SOL    HW220934   4.011   2.106  10.785  2.0711  1.3252 -1.1894
 3159SOL     OW20935   2.726   0.796   3.973  0.2382 -0.2522 -0.2825
 3159SOL    HW120936   2.749   0.766   4.061 -0.6339  0.7247  0.2878
 3159SOL    HW220937   2.711   0.709   3.935 -1.7360 -0.5687  1.2037
 3160SOL     OW20938   2.671   4.021   2.034 -0.5132  0.2015  0.3980
 3160SOL    HW120939   2.592   4.075   2.034 -0.0647  0.8432  2.9017
 3160SOL    HW220940   2.648   3.966   2.109  0.7059 -1.9084 -0.7797
 3161SOL     OW20941   1.242   1.933   8.525  0.3127  0.0822 -0.6128
 3161SOL    HW120942   1.264   2.012   8.475  1.8521 -0.6216 -1.0281
 3161SOL    HW220943   1.227   1.975   8.610 -1.6706 -3.0728  0.6161
 3162SOL     OW20944   0.067   1.757   0.345 -0.3007 -0.0672  0.7214
 3162SOL    HW120945   0.118   1.751   0.425  1.1566  0.3475 -0.1663
 3162SOL    HW220946   0.092   1.846   0.318  0.8268 -0.5442  0.1824
 3163SOL     OW20947   1.796   0.903   7.820  0.2064  0.3149 -0.8250
 3163SOL    HW120948   1.781   0.930   7.911  1.2369  0.0418 -0.5727
 3163SOL    HW220949   1.714   0.941   7.788 -0.2608  0.9675  1.1600
 3164SOL     OW20950   2.298   0.618   6.824  0.2380  0.2663 -0.7794
 3164SOL    HW120951   2.262   0.553   6.884  1.5856  1.3572  1.1857
 3164SOL    HW220952   2.295   0.691   6.885 -1.4644 -1.1613  0.8707
 3165SOL     OW20953   1.081   1.524   7.626  0.8261 -0.1202 -0.1148
 3165SOL    HW120954   1.005   1.470   7.605 -1.2162  2.1050  1.5674
 3165SOL    HW220955   1.143   1.493   7.560 -1.5027  0.5912 -2.5946
 3166SOL     OW20956   3.164   3.007   3.075  0.2152  0.2795  0.7156
 3166SOL    HW120957   3.171   2.915   3.101  0.0264 -0.1012 -0.5960
 3166SOL    HW220958   3.072   3.024   3.096  0.1793  0.3643  0.4902
 3167SOL     OW20959   4.508   3.840   5.056  0.2669 -0.1723  0.0906
 3167SOL    HW120960   4.424   3.885   5.046 -0.3159 -0.8555  1.9710
 3167SOL    HW220961   4.529   3.791   4.977 -0.9365  1.7455 -1.4136
 3168SOL     OW20962   4.694   1.217  10.791 -0.0477  0.2148  0.2178
 3168SOL    HW120963   4.606   1.201  10.756 -0.3758  0.3299  0.9957
 3168SOL    HW220964   4.702   1.159  10.866  1.6131  2.2154  1.5696
 3169SOL     OW20965   3.016   2.878   1.780  0.0453  0.0946 -0.1483
 3169SOL    HW120966   2.954   2.949   1.796  2.5030  2.1261  0.4538
 3169SOL    HW220967   2.989   2.813   1.845 -0.3378 -0.7541 -1.1623
 3170SOL     OW20968   0.793   3.702   1.670  0.7976 -0.3517  0.7613
 3170SOL    HW120969   0.830   3.628   1.622  1.5720 -1.0603  2.4549
 3170SOL    HW220970   0.770   3.759   1.596  0.0894 -1.6219 -0.0041
 3171SOL     OW20971   3.468   3.264  11.756  0.0014 -0.1944  0.2497
 3171SOL    HW120972   3.438   3.177  11.783 -0.1607 -0.2236 -0.0183
 3171SOL    HW220973   3.419   3.277  11.674  1.2036  2.6564  0.0100
 3172SOL     OW20974   0.632   3.218   1.399  0.0150  0.7003 -0.1245
 3172SOL    HW120975   0.698   3.211   1.468 -0.8549  1.2475  0.7515
 3172SOL    HW220976   0.559   3.255   1.448 -0.9009  0.1021 -1.0202
 3173SOL     OW20977   3.383   0.192  11.217  0.0252 -0.0085 -0.2523
 3173SOL    HW120978   3.352   0.175  11.306  3.7960 -1.4629  0.7735
 3173SOL    HW220979   3.418   0.105  11.200 -0.5949 -0.1662 -0.7005
 3174SOL     OW20980   1.425   3.578   6.275  0.0183  0.0267  0.0565
 3174SOL    HW120981   1.446   3.486   6.261 -0.3675 -0.1974  0.9338
 3174SOL    HW220982   1.458   3.582   6.365 -0.5996 -1.0155  0.3390
 3175SOL     OW20983   3.916   3.984  10.648  0.0202  0.1824 -0.5853
 3175SOL    HW120984   3.861   4.016  10.720  0.9757  0.4413  0.0406
 3175SOL    HW220985   3.877   3.899  10.627  0.7562 -0.1862 -0.4670
 3176SOL     OW20986   0.451   3.583  17.301  0.1763 -0.4976 -0.1711
 3176SOL    HW120987   0.385   3.519  17.276 -1.3779  0.5538  1.2688
 3176SOL    HW220988   0.449   3.632  17.218 -0.5572  2.0812  1.3925
 3177SOL     OW20989   0.050   0.535  15.960  0.4457 -0.6839  0.2882
 3177SOL    HW120990   0.056   0.441  15.943 -0.4191 -0.8871  1.1038
 3177SOL    HW220991   4.693   0.562  15.918  0.1471 -1.8785  0.1201
 3178SOL     OW20992   3.111   2.001   9.447  0.1294  0.0826  0.0709
 3178SOL    HW120993   3.098   1.971   9.537  1.3664  3.7903  1.4943
 3178SOL    HW220994   3.201   1.971   9.435 -0.0081 -1.1609  2.2006
 3179SOL     OW20995   2.202   2.918  16.973 -0.3113  0.2492  0.3831
 3179SOL    HW120996   2.290   2.946  16.949 -0.4673  0.3216 -0.0972
 3179SOL    HW220997   2.213   2.824  16.985  0.8815  0.0992 -1.9879
 3180SOL     OW20998   3.161   3.503   2.609  0.6064 -0.2382  0.1822
 3180SOL    HW120999   3.158   3.596   2.631 -0.7005 -0.7353  2.1551
 3180SOL    HW221000   3.206   3.494   2.525 -0.0013  1.5154 -0.3450
 3181SOL     OW21001   4.689   1.276   8.578 -1.2731  0.0754  0.2876
 3181SOL    HW121002   0.033   1.342   8.591  0.7650 -1.9021 -0.4881
 3181SOL    HW221003   4.715   1.215   8.647  0.6495  0.8327  0.2491
 3182SOL     OW21004   2.774   2.795   7.710  0.2183  0.3342 -0.2470
 3182SOL    HW121005   2.752   2.885   7.735 -1.9209 -0.0406 -0.7500
 3182SOL    HW221006   2.733   2.741   7.778  1.1894 -0.2187 -0.0946
 3183SOL     OW21007   2.482   2.133   5.845 -0.4363  0.1906  0.2385
 3183SOL    HW121008   2.449   2.176   5.767 -0.4558 -1.3001 -0.5776
 3183SOL    HW221009   2.556   2.090   5.802 -0.4254  1.5251 -1.0861
 3184SOL     OW21010   0.620   1.469   8.006 -0.3674 -0.5087  0.0155
 3184SOL    HW121011   0.607   1.449   8.099 -0.9192  0.2879  0.1113
 3184SOL    HW221012   0.672   1.550   8.010 -2.0763  0.5800  0.1366
 3185SOL     OW21013   0.724   4.169   3.715  0.3473 -0.1279 -0.4864
 3185SOL    HW121014   0.668   4.092   3.730 -0.0801  0.1842 -0.4881
 3185SOL    HW221015   0.811   4.131   3.709  0.5106  0.4363 -1.6158
 3186SOL     OW21016   2.949   3.766   7.770  0.3088  0.2448 -0.0982
 3186SOL    HW121017   2.882   3.698   7.770 -0.3135  0.8493  2.0622
 3186SOL    HW221018   3.018   3.725   7.718  1.5007 -0.1669  1.7943
 3187SOL     OW21019   0.186   3.609   6.516  0.4283  0.6241 -0.0385
 3187SOL    HW121020   0.207   3.689   6.466 -1.0663  1.5363  0.8060
 3187SOL    HW221021   0.125   3.652   6.576  0.3052  1.9342 -1.0823
 3188SOL     OW21022   2.987   1.098   7.591 -0.5673 -0.4699 -0.1372
 3188SOL    HW121023   2.941   1.040   7.530 -1.5043 -1.0707  1.1247
 3188SOL    HW221024   3.011   1.029   7.654  2.7833  1.5257  0.7744
 3189SOL     OW21025   0.816   1.712   5.716 -0.0345 -0.3584 -0.4298
 3189SOL    HW121026   0.846   1.692   5.627  0.1539 -3.3700  0.3223
 3189SOL    HW221027   0.888   1.771   5.739 -1.0051  2.0638 -3.5504
 3190SOL     OW21028   1.696   4.298   7.971  0.3677  0.2399 -0.7009
 3190SOL    HW121029   1.783   4.261   7.980 -0.5061 -1.5226  0.4337
 3190SOL    HW221030   1.668   4.307   8.062 -1.0349 -0.3925 -1.0685
 3191SOL     OW21031   3.874   2.641   3.257 -0.4829 -0.1339  0.3923
 3191SOL    HW121032   3.824   2.673   3.332 -1.1041  0.3914 -0.2465
 3191SOL    HW221033   3.902   2.722   3.215  1.2364 -1.1988 -0.5148
 3192SOL     OW21034   3.420   4.148  16.334 -0.4295  1.3469 -0.9660
 3192SOL    HW121035   3.416   4.137  16.429  0.0600  0.5563 -1.0344
 3192SOL    HW221036   3.502   4.194  16.313 -0.2565  0.9494 -1.1646
 3193SOL     OW21037   3.284   0.220   7.979  0.7203  0.0972 -0.7408
 3193SOL    HW121038   3.223   0.165   8.028 -0.5943  2.0747 -0.1531
 3193SOL    HW221039   3.242   0.306   7.977  0.8836  0.1665 -1.1835
 3194SOL     OW21040   0.764   1.998   4.927 -0.0770 -0.3562 -0.0411
 3194SOL    HW121041   0.704   2.064   4.892  0.7457  0.6213  0.3943
 3194SOL    HW221042   0.845   2.026   4.884  0.5310  0.9181  1.9157
 3195SOL     OW21043   3.855   1.027   2.891 -0.1135 -0.0366 -0.0211
 3195SOL    HW121044   3.930   0.978   2.857 -0.3016 -0.4636  0.1805
 3195SOL    HW221045   3.815   1.071   2.816 -0.1990 -1.3535 -0.7486
 3196SOL     OW21046   1.011   1.805  10.852 -0.7139 -0.1537 -0.8369
 3196SOL    HW121047   0.995   1.750  10.929 -3.1542 -0.5778 -1.6625
 3196SOL    HW221048   1.100   1.815  10.886 -1.4530  1.0817  0.7191
 3197SOL     OW21049   1.133   3.386   6.664  0.1868  0.0245 -0.0712
 3197SOL    HW121050   1.188   3.462   6.642 -2.0049  0.1727 -4.9899
 3197SOL    HW221051   1.191   3.345   6.728 -0.6636 -0.4428  0.3860
 3198SOL     OW21052   0.578   4.514   6.774 -0.3957  0.1399  0.0993
 3198SOL    HW121053   0.558   4.420   6.769 -0.4548  0.0026  3.3317
 3198SOL    HW221054   0.655   4.524   6.829  0.0655  0.3252 -0.5791
 3199SOL     OW21055   0.314   4.538   2.566 -0.0306  0.2204 -0.0757
 3199SOL    HW121056   0.392   4.499   2.603 -0.5077 -1.3982 -0.8014
 3199SOL    HW221057   0.297   4.608   2.629  2.4835  1.0094 -0.2614
 3200SOL     OW21058   0.139   3.265  17.500  0.0480 -0.2572 -0.4378
 3200SOL    HW121059   0.119   3.172  17.507 -1.5519  0.2963  2.5255
 3200SOL    HW221060   0.100   3.285  17.585  1.8029  0.1717  0.2626
 3201SOL     OW21061   3.755   2.188   8.129 -0.1235 -0.5490 -0.1706
 3201SOL    HW121062   3.705   2.116   8.089 -0.7850  0.7004 -1.6214
 3201SOL    HW221063   3.800   2.229   8.055 -2.8320 -0.7569 -1.9649
 3202SOL     OW21064   4.310   4.633   8.675 -0.3535  0.1990  0.9523
 3202SOL    HW121065   4.225   4.624   8.717 -0.2296 -1.6760  0.8101
 3202SOL    HW221066   4.360   4.602   8.751 -0.8099 -0.3513  1.0224
 3203SOL     OW21067   1.536   3.322   6.055 -0.1901  0.0657  0.0878
 3203SOL    HW121068   1.490   3.255   6.106  0.6440  0.3831  1.2594
 3203SOL    HW221069   1.578   3.371   6.127  0.6123  1.1832 -1.1422
 3204SOL     OW21070   1.805   3.992   0.138 -0.1052 -0.4925  0.1450
 3204SOL    HW121071   1.897   4.015   0.137 -0.1888 -0.2087 -1.2435
 3204SOL    HW221072   1.790   3.983   0.044  1.7247 -2.3860  0.0590
 3205SOL     OW21073   2.927   3.723   4.621 -0.0955  0.2966 -0.0014
 3205SOL    HW121074   2.938   3.636   4.584  1.7377  0.1054  0.9894
 3205SOL    HW221075   2.936   3.779   4.544  1.1920  0.1828  0.0586
 3206SOL     OW21076   1.947   3.765   2.429  0.0329  0.0299 -0.0674
 3206SOL    HW121077   1.871   3.816   2.456 -0.4320  0.5507 -2.3248
 3206SOL    HW221078   1.924   3.678   2.461  0.1810 -0.2709 -0.7923
 3207SOL     OW21079   0.989   0.284   6.781 -0.3218 -0.1560  0.3756
 3207SOL    HW121080   0.904   0.239   6.785 -0.5858  0.0315 -3.4010
 3207SOL    HW221081   1.014   0.290   6.873  1.9336  0.2183 -0.2712
 3208SOL     OW21082   3.638   2.675   2.948  0.2051 -0.0684  0.1928
 3208SOL    HW121083   3.731   2.652   2.946  0.3135  0.6147 -2.8423
 3208SOL    HW221084   3.634   2.770   2.941  0.9087 -0.0539 -0.0197
 3209SOL     OW21085   4.081   1.719   9.544 -0.1752 -0.4611  0.5748
 3209SOL    HW121086   4.105   1.748   9.633 -2.7936  0.6643  0.9252
 3209SOL    HW221087   4.031   1.640   9.561 -1.1892  0.2446  0.9075
 3210SOL     OW21088   1.828   0.042   5.388  0.0888 -0.5649 -0.3973
 3210SOL    HW121089   1.760   4.699   5.382 -0.8350  0.3233  0.1179
 3210SOL    HW221090   1.782   0.117   5.350  1.2775  0.8829  1.0465
 3211SOL     OW21091   4.058   0.247   2.037 -0.0541 -0.3538 -0.0664
 3211SOL    HW121092   4.074   0.213   1.948  0.7248 -0.7834  0.2362
 3211SOL    HW221093   3.989   0.308   2.011  0.0097  0.7487  2.4095
 3212SOL     OW21094   1.599   0.887   5.353  0.1145  0.5631 -0.0900
 3212SOL    HW121095   1.679   0.837   5.372  0.5636  0.6970 -1.5589
 3212SOL    HW221096   1.618   0.970   5.396  0.7321 -0.6296  1.9460
 3213SOL     OW21097   4.462   2.174  16.970  0.0896  0.0099  0.0080
 3213SOL    HW121098   4.475   2.267  16.955 -0.1203  0.2253  1.1224
 3213SOL    HW221099   4.458   2.174  17.066  1.2583 -0.5327  0.0485
 3214SOL     OW21100   1.904   1.890   0.598  0.0288  0.2107 -0.0370
 3214SOL    HW121101   1.836   1.847   0.548 -1.7199  0.6103  2.0019
 3214SOL    HW221102   1.956   1.817   0.633 -0.1196 -0.4555 -1.1898
 3215SOL     OW21103   1.483   2.964   6.634  0.3958  0.0130 -0.2953
 3215SOL    HW121104   1.487   3.056   6.663 -1.3894  0.3788 -1.2107
 3215SOL    HW221105   1.559   2.927   6.677  1.7852  1.9338 -1.0883
 3216SOL     OW21106   1.721   4.717   1.402  0.4585  0.8423  0.3985
 3216SOL    HW121107   1.689   4.642   1.452 -2.0640  0.7791 -1.3145
 3216SOL    HW221108   1.731   0.063   1.465  1.3547  0.5831  0.5431
 3217SOL     OW21109   0.531   0.262   2.169 -0.3242  0.4624 -0.0270
 3217SOL    HW121110   0.564   0.340   2.213 -1.7279  0.4511  1.0231
 3217SOL    HW221111   0.471   0.227   2.234 -0.1444 -1.1231 -0.6905
 3218SOL     OW21112   2.250   3.024  13.714  0.0020  0.5151 -0.2317
 3218SOL    HW121113   2.192   2.949  13.701  0.6603  0.1211 -0.8769
 3218SOL    HW221114   2.306   3.023  13.636  0.4384 -2.5627  0.1430
 3219SOL     OW21115   0.971   3.261   2.779  0.2804 -0.0745  0.3380
 3219SOL    HW121116   1.031   3.243   2.707  0.2684  1.1465  0.0231
 3219SOL    HW221117   0.995   3.352   2.794 -1.5681  0.5773 -0.6810
 3220SOL     OW21118   1.104   1.413   3.560  0.0259  0.3339 -0.0693
 3220SOL    HW121119   1.190   1.436   3.527  0.4196 -0.3545  0.4852
 3220SOL    HW221120   1.126   1.357   3.635  1.0833  1.0929  0.1817
 3221SOL     OW21121   3.302   3.741   3.173  0.5671  0.0586  0.0521
 3221SOL    HW121122   3.365   3.804   3.209  2.1334 -1.8651  0.6856
 3221SOL    HW221123   3.270   3.698   3.252  2.2889 -1.1878  0.0732
 3222SOL     OW21124   1.865   4.213   6.905 -0.0373 -0.2263 -0.0181
 3222SOL    HW121125   1.959   4.195   6.911 -0.1902 -1.5989 -1.7681
 3222SOL    HW221126   1.853   4.305   6.927  0.6934  0.2311 -1.6011
 3223SOL     OW21127   3.694   3.934  12.988  0.8534 -0.0304  0.0250
 3223SOL    HW121128   3.760   3.983  12.939  0.1438 -0.0216 -0.9441
 3223SOL    HW221129   3.645   3.892  12.917  0.8356 -2.4271  1.4521
 3224SOL     OW21130   4.671   2.775   1.975 -0.3506 -0.1181  0.7069
 3224SOL    HW121131   4.679   2.801   2.066 -0.7015 -1.4585  1.1200
 3224SOL    HW221132   0.040   2.775   1.957 -0.5257 -0.4316 -0.2017
 3225SOL     OW21133   4.118   2.803   3.995 -0.2156  0.5393  0.0517
 3225SOL    HW121134   4.024   2.820   3.999 -0.1979  0.5206  0.5507
 3225SOL    HW221135   4.112   2.717   4.036  0.6283 -0.2502 -1.4698
 3226SOL     OW21136   1.894   0.456   8.787  0.6505 -0.4748 -0.2114
 3226SOL    HW121137   1.817   0.422   8.832 -0.2763  0.4578 -1.1148
 3226SOL    HW221138   1.964   0.405   8.829  1.7445  1.5977  0.5117
 3227SOL     OW21139   2.731   3.993   9.005  0.6028 -0.0289 -0.1055
 3227SOL    HW121140   2.751   3.899   9.005  1.5213  0.1680  0.9308
 3227SOL    HW221141   2.808   4.028   9.051 -1.6085  1.4444  2.4808
 3228SOL     OW21142   1.464   2.686   6.025 -0.2100 -0.1016 -0.3501
 3228SOL    HW121143   1.441   2.616   5.964 -1.0785 -0.6470  0.6078
 3228SOL    HW221144   1.376   2.723   6.028 -0.1519  0.0648 -0.6491
 3229SOL     OW21145   2.208   1.773   4.533  0.9055  0.0476  0.5369
 3229SOL    HW121146   2.235   1.682   4.527 -1.6161 -0.8966  3.4187
 3229SOL    HW221147   2.286   1.827   4.536  0.4057  0.7774  0.4844
 3230SOL     OW21148   0.457   0.144  10.117  0.1296  0.5010  0.2982
 3230SOL    HW121149   0.467   0.163  10.210  0.0453 -1.5999  0.7498
 3230SOL    HW221150   0.534   0.087  10.107 -0.3649 -0.3958  1.5999
 3231SOL     OW21151   3.079   0.141  11.328  0.7203  0.1811 -0.4386
 3231SOL    HW121152   3.148   0.146  11.394 -1.2177  1.9581  1.4582
 3231SOL    HW221153   3.005   0.138  11.389 -0.1942  0.6485 -1.5219
 3232SOL     OW21154   3.324   4.088  11.471  0.3380 -0.2978  0.5193
 3232SOL    HW121155   3.321   4.081  11.566 -2.2227 -1.6621  0.3539
 3232SOL    HW221156   3.416   4.076  11.450  0.0728 -1.4151 -0.0184
 3233SOL     OW21157   1.089   3.999   8.066 -0.0059 -0.2611 -0.6675
 3233SOL    HW121158   1.157   3.965   8.124 -0.1736  0.7868  0.1453
 3233SOL    HW221159   1.121   4.084   8.035  0.1901  0.0287  0.3188
 3234SOL     OW21160   2.716   2.763   5.459  0.0990 -0.6912 -0.7019
 3234SOL    HW121161   2.801   2.732   5.428  1.1856 -0.3622  1.9897
 3234SOL    HW221162   2.660   2.686   5.449 -3.7421  2.0862 -0.7814
 3235SOL     OW21163   0.895   1.370   7.486  0.0001  0.3144 -0.3495
 3235SOL    HW121164   0.820   1.311   7.472 -0.5435  1.0827 -0.6671
 3235SOL    HW221165   0.855   1.448   7.448 -1.3991 -1.0720 -1.7642
 3236SOL     OW21166   0.966   2.087   5.096 -0.0087  0.4137 -0.5506
 3236SOL    HW121167   0.984   2.166   5.046 -0.4687  0.2902 -0.9164
 3236SOL    HW221168   0.876   2.067   5.068  0.1155  1.3974 -1.6789
 3237SOL     OW21169   2.950   3.027  16.015  0.3605 -0.4741 -1.0844
 3237SOL    HW121170   3.002   2.992  15.942  0.7527 -1.0313 -0.5350
 3237SOL    HW221171   2.967   3.121  16.014 -2.6860  0.1186  1.7521
 3238SOL     OW21172   2.749   3.571   7.652 -0.1586 -0.0386  0.0589
 3238SOL    HW121173   2.673   3.625   7.630 -0.8037 -0.5141  1.1758
 3238SOL    HW221174   2.703   3.489   7.670 -0.5570  0.3249  0.6773
 3239SOL     OW21175   3.972   2.744  12.432 -0.3884  0.3636  0.6360
 3239SOL    HW121176   3.962   2.825  12.481 -3.1969  1.2128 -1.3401
 3239SOL    HW221177   4.066   2.741  12.446 -0.3587  0.5794  0.4802
 3240SOL     OW21178   4.014   2.525   1.654  0.3850 -0.2973  0.4920
 3240SOL    HW121179   4.063   2.443   1.664  0.7646 -0.6444 -3.9798
 3240SOL    HW221180   3.939   2.500   1.707 -0.6562  0.2874 -0.7125
 3241SOL     OW21181   2.442   3.487   7.305  0.0682 -0.0681 -0.6375
 3241SOL    HW121182   2.429   3.419   7.239  0.8728 -0.8298 -0.0144
 3241SOL    HW221183   2.537   3.490   7.315 -0.1967  3.6716  0.6197
 3242SOL     OW21184   1.301   1.873   5.302  0.2190  0.2765  0.0007
 3242SOL    HW121185   1.208   1.883   5.323  0.8261  0.9690  2.3309
 3242SOL    HW221186   1.298   1.907   5.212 -1.9042  0.6355  0.2155
 3243SOL     OW21187   2.203   0.182   1.984 -0.3659 -0.2381  0.0308
 3243SOL    HW121188   2.238   0.143   2.064  0.1211 -1.9742 -1.0185
 3243SOL    HW221189   2.200   0.104   1.928  0.7960  0.0252 -0.4092
 3244SOL     OW21190   0.313   2.439  15.469 -0.7991  0.1021 -0.3314
 3244SOL    HW121191   0.361   2.404  15.544  0.4013  1.3814 -0.4953
 3244SOL    HW221192   0.369   2.515  15.450 -3.3318  2.2454  0.8701
 3245SOL     OW21193   2.045   1.970   2.835  0.5424 -0.6864  0.4629
 3245SOL    HW121194   1.975   2.026   2.867 -0.2728 -1.8802  0.7880
 3245SOL    HW221195   2.005   1.884   2.852 -0.7575 -0.1114  0.2776
 3246SOL     OW21196   2.090   0.021  17.356 -0.0264 -0.1806  0.0113
 3246SOL    HW121197   2.168   4.694  17.337 -1.1289 -1.7616 -0.1735
 3246SOL    HW221198   2.116   0.067  17.436 -1.6133  0.7448  0.0086
 3247SOL     OW21199   4.118   2.560   5.136 -0.1721  0.2911  0.4635
 3247SOL    HW121200   4.031   2.575   5.173  0.1046 -1.1458  1.6741
 3247SOL    HW221201   4.139   2.474   5.171  0.8492 -0.3975 -1.7982
 3248SOL     OW21202   1.485   3.325   3.254 -0.2597  0.1595  0.3988
 3248SOL    HW121203   1.410   3.289   3.301 -0.3518  0.4717  0.4931
 3248SOL    HW221204   1.554   3.305   3.317  1.2497 -0.3251 -1.4336
 3249SOL     OW21205   1.680   2.861   3.762 -0.4927 -0.0625 -0.0042
 3249SOL    HW121206   1.732   2.782   3.745 -0.7485 -0.4056  0.7718
 3249SOL    HW221207   1.723   2.926   3.707  0.6744  1.0571  2.2218
 3250SOL     OW21208   0.307   2.780   5.867  0.1866 -0.3112  0.0976
 3250SOL    HW121209   0.240   2.835   5.828  1.0773 -0.5243 -1.6969
 3250SOL    HW221210   0.327   2.722   5.794  1.4163  0.9290 -0.5660
 3251SOL     OW21211   1.136   0.658   1.369  0.2342 -0.0408  0.1652
 3251SOL    HW121212   1.076   0.704   1.310  0.0131 -0.4567  0.0685
 3251SOL    HW221213   1.087   0.576   1.375 -1.7260  1.0301 -1.3306
 3252SOL     OW21214   4.585   0.781   5.214  0.5136  0.3409 -0.6633
 3252SOL    HW121215   4.593   0.708   5.153 -2.6543 -0.6699  0.0899
 3252SOL    HW221216   4.652   0.755   5.277 -2.0262 -1.6183  1.2628
 3253SOL     OW21217   4.326   3.763   9.957 -0.1586 -0.0064  0.2629
 3253SOL    HW121218   4.297   3.851   9.983  0.8770 -0.0566  1.5630
 3253SOL    HW221219   4.409   3.751  10.003  0.4271 -1.1716 -1.0862
 3254SOL     OW21220   0.508   1.467  10.399 -0.6661 -0.7345  0.2053
 3254SOL    HW121221   0.585   1.438  10.448  0.9372 -1.8441 -2.9549
 3254SOL    HW221222   0.458   1.512  10.468  1.3913 -1.6589  2.3183
 3255SOL     OW21223   2.769   2.951   5.636  0.1627  0.1192  0.1239
 3255SOL    HW121224   2.691   3.001   5.612  0.3607 -0.7517 -2.3252
 3255SOL    HW221225   2.757   2.863   5.602 -1.9925  0.8869 -1.0841
 3256SOL     OW21226   2.927   1.581   1.155  0.3377  0.0185  0.1439
 3256SOL    HW121227   2.893   1.663   1.190  0.8561  1.1100 -1.8681
 3256SOL    HW221228   2.853   1.525   1.176  1.5748 -2.2585 -1.5729
 3257SOL     OW21229   0.962   3.366   7.838 -0.6325 -0.0169 -0.3715
 3257SOL    HW121230   0.915   3.309   7.898 -0.2194  0.0585  0.0223
 3257SOL    HW221231   0.899   3.380   7.767 -2.6642  1.0018  1.6649
 3258SOL     OW21232   4.492   1.642   3.964 -0.2286 -0.1502 -0.5323
 3258SOL    HW121233   4.436   1.603   3.897 -1.2093  1.1871 -0.4790
 3258SOL    HW221234   4.452   1.728   3.976 -0.6885 -0.3845 -0.4079
 3259SOL     OW21235   3.022   4.719   7.328 -0.3380 -0.1473 -0.0707
 3259SOL    HW121236   3.071   0.031   7.254 -0.6088  0.1053 -0.1228
 3259SOL    HW221237   3.095   4.680   7.376  0.2009  1.2460  0.2189
 3260SOL     OW21238   3.264   1.112   4.915  0.6431 -0.2041 -0.1115
 3260SOL    HW121239   3.231   1.089   4.829 -1.4594 -1.8377  1.1351
 3260SOL    HW221240   3.351   1.073   4.915  0.8755  0.3053 -2.0119
 3261SOL     OW21241   0.986   1.898  11.271 -0.3884  0.2299  0.3211
 3261SOL    HW121242   0.916   1.959  11.294 -2.1720 -1.6574 -0.0718
 3261SOL    HW221243   0.933   1.845  11.212  0.1127  1.0833 -0.8869
 3262SOL     OW21244   0.702   4.315   2.009  0.2427  0.2256 -0.5642
 3262SOL    HW121245   0.759   4.275   2.075 -0.6934  1.4896  1.0164
 3262SOL    HW221246   0.744   4.396   1.978 -0.4300  0.1394 -1.6620
 3263SOL     OW21247   1.550   3.261   6.924  0.2452  0.1408 -0.0662
 3263SOL    HW121248   1.488   3.318   6.970  1.2670  2.1064 -1.0898
 3263SOL    HW221249   1.624   3.272   6.983  0.9745  0.4240 -1.0173
 3264SOL     OW21250   3.275   3.488   2.272  0.0172 -0.3441 -0.1351
 3264SOL    HW121251   3.329   3.508   2.349 -1.1207  0.7360  0.3791
 3264SOL    HW221252   3.279   3.580   2.246 -1.0222 -0.1854  0.2503
 3265SOL     OW21253   1.028   4.454   1.551 -0.6909  0.5426 -0.0799
 3265SOL    HW121254   1.103   4.507   1.525  0.0816 -0.3627  0.3144
 3265SOL    HW221255   1.057   4.444   1.642 -1.4804  0.7991  0.2015
 3266SOL     OW21256   3.537   2.227   6.062  0.1755 -0.3791  0.3054
 3266SOL    HW121257   3.605   2.195   6.121  0.8422 -2.2684 -1.4857
 3266SOL    HW221258   3.563   2.319   6.068 -1.0504 -0.0846  1.0995
 3267SOL     OW21259   4.039   2.016   7.511  0.2472 -0.4474  0.1470
 3267SOL    HW121260   4.128   2.017   7.545  0.4881  0.9024 -0.5522
 3267SOL    HW221261   4.003   1.948   7.568  2.7371 -1.5199  0.4028
 3268SOL     OW21262   2.959   1.767   5.018 -0.4142  0.1901 -0.7485
 3268SOL    HW121263   3.016   1.708   4.968 -1.3528 -2.4956  1.3256
 3268SOL    HW221264   2.952   1.723   5.103  0.5206 -0.8598 -1.2055
 3269SOL     OW21265   1.557   2.804   8.734 -0.2088  0.5988 -0.1496
 3269SOL    HW121266   1.509   2.803   8.651  2.1726  0.1145 -1.5331
 3269SOL    HW221267   1.535   2.725   8.783  0.5669  0.2811 -0.3125
 3270SOL     OW21268   3.038   1.880   8.353 -0.0042  0.0371  0.0896
 3270SOL    HW121269   2.947   1.851   8.343  0.3985 -0.8111 -1.0801
 3270SOL    HW221270   3.033   1.952   8.416 -0.1144 -1.6450  2.0074
 3271SOL     OW21271   0.711   0.529  10.149 -0.0040 -0.5592  0.5662
 3271SOL    HW121272   0.716   0.621  10.121  0.0489 -0.1964  1.7739
 3271SOL    HW221273   0.737   0.530  10.241  1.4797 -1.7661  0.1486
 3272SOL     OW21274   0.627   4.250   7.009  0.3497 -0.4138  0.4589
 3272SOL    HW121275   0.679   4.192   7.065  2.4214  1.3447  0.3492
 3272SOL    HW221276   0.538   4.233   7.042  0.9144  0.1255  2.2694
 3273SOL     OW21277   1.220   1.980  14.874  0.3226 -0.4339 -0.2539
 3273SOL    HW121278   1.189   2.018  14.791  0.3314  2.3555  1.0171
 3273SOL    HW221279   1.222   1.887  14.850  0.3127 -0.5305  0.1148
 3274SOL     OW21280   4.633   4.415   8.646 -0.2665 -0.2006 -0.2132
 3274SOL    HW121281   4.611   4.467   8.569 -2.6860  2.2631  2.1176
 3274SOL    HW221282   4.582   4.460   8.714  0.3731  1.0987 -0.5798
 3275SOL     OW21283   3.107   2.197   4.030 -0.1860  0.1540 -0.0140
 3275SOL    HW121284   3.055   2.197   3.950  4.4309  0.4693 -2.9962
 3275SOL    HW221285   3.048   2.251   4.083  0.7579  0.5113  0.6673
 3276SOL     OW21286   4.542   1.481   1.540 -0.0310 -0.1103  0.4601
 3276SOL    HW121287   4.557   1.400   1.492 -0.2228  0.9501 -1.3706
 3276SOL    HW221288   4.454   1.476   1.578 -0.7163  2.1919 -0.7976
 3277SOL     OW21289   1.514   4.099   8.315 -0.3408  0.0508 -0.6095
 3277SOL    HW121290   1.548   4.025   8.265  0.9780  0.8630 -0.9238
 3277SOL    HW221291   1.553   4.179   8.280  2.7080 -0.5631  1.3941
 3278SOL     OW21292   2.082   4.456   7.796  0.0662  0.6750 -0.2888
 3278SOL    HW121293   2.015   4.523   7.806  0.7167  1.1103  1.1427
 3278SOL    HW221294   2.163   4.501   7.770 -0.2078  0.5901 -1.2948
 3279SOL     OW21295   4.100   2.944  15.823  0.2855  0.4192 -0.1441
 3279SOL    HW121296   4.162   2.896  15.768  1.3140  0.5920  0.8689
 3279SOL    HW221297   4.103   2.915  15.914 -0.9823  0.0739 -0.2187
 3280SOL     OW21298   0.470   2.463  11.394  0.1858  0.3348 -0.2545
 3280SOL    HW121299   0.554   2.507  11.409  0.2010  0.7664 -1.6830
 3280SOL    HW221300   0.484   2.381  11.442  2.2653  1.0882  0.4268
 3281SOL     OW21301   0.042   2.539   3.634 -0.3937  0.0618 -0.4320
 3281SOL    HW121302   4.687   2.586   3.611 -1.5096 -1.2264  0.8141
 3281SOL    HW221303   0.035   2.453   3.591  1.7081 -0.1747 -0.3435
 3282SOL     OW21304   3.119   2.886  15.847 -0.3331 -0.4554  0.3033
 3282SOL    HW121305   3.142   2.914  15.758 -0.6937 -0.6348  0.1556
 3282SOL    HW221306   3.200   2.900  15.896 -0.6275  0.0663  0.6397
 3283SOL     OW21307   4.237   1.583   1.246  0.4992 -0.2232 -0.1876
 3283SOL    HW121308   4.296   1.589   1.171  1.3452 -2.7164  0.2771
 3283SOL    HW221309   4.235   1.487   1.255 -1.6265 -0.2568 -1.1079
 3284SOL     OW21310   3.883   3.314   8.060  0.0569 -0.7036 -0.1870
 3284SOL    HW121311   3.894   3.377   8.131  1.0937 -1.8411  0.6556
 3284SOL    HW221312   3.960   3.334   8.007 -1.2517  0.1222 -1.7861
 3285SOL     OW21313   2.325   1.491   2.300  0.4160  0.2792 -0.6359
 3285SOL    HW121314   2.326   1.442   2.218  1.7653 -0.0914 -0.3991
 3285SOL    HW221315   2.415   1.499   2.331 -0.1450  1.5697  0.6628
 3286SOL     OW21316   1.207   2.338   1.043 -0.3572  0.0251  0.1436
 3286SOL    HW121317   1.119   2.346   1.081  0.4366 -0.5047  2.0711
 3286SOL    HW221318   1.199   2.252   1.002  0.7607  0.8126 -1.7219
 3287SOL     OW21319   0.330   1.807  10.899  0.2034  0.9616  0.4079
 3287SOL    HW121320   0.276   1.738  10.860  0.0615  0.2367  1.8865
 3287SOL    HW221321   0.413   1.778  10.863  0.0999  0.1956  0.7953
 3288SOL     OW21322   1.419   3.569   7.321 -0.5400 -0.5182  0.5554
 3288SOL    HW121323   1.496   3.599   7.371  1.4101 -0.9417 -2.1674
 3288SOL    HW221324   1.375   3.519   7.390  1.1394  0.3478  2.2702
 3289SOL     OW21325   2.683   4.314   5.839 -0.2822 -0.2375 -0.2914
 3289SOL    HW121326   2.769   4.354   5.826 -0.0853 -1.2762 -2.2480
 3289SOL    HW221327   2.698   4.226   5.804 -3.1343 -0.4406 -1.0075
 3290SOL     OW21328   4.557   4.636   7.281 -0.1231 -0.0221  0.0934
 3290SOL    HW121329   4.644   4.604   7.302 -0.7939 -0.9967  1.4393
 3290SOL    HW221330   4.530   4.571   7.216 -2.5333 -0.1351  1.2006
 3291SOL     OW21331   0.362   4.724   8.797 -0.2041  0.3078 -0.6933
 3291SOL    HW121332   0.290   4.673   8.833  1.1786  0.7521  2.6760
 3291SOL    HW221333   0.393   4.676   8.720 -0.4643 -0.6543 -0.1998
 3292SOL     OW21334   0.932   1.248   7.973 -0.0517 -0.2422  0.3160
 3292SOL    HW121335   0.932   1.343   7.985 -1.5463 -0.4723  1.9629
 3292SOL    HW221336   0.907   1.215   8.059 -1.2358 -2.7758 -1.0056
 3293SOL     OW21337   2.791   1.022  10.435 -0.1207 -0.4910  0.3229
 3293SOL    HW121338   2.823   0.959  10.499  0.5148 -0.8244 -0.3340
 3293SOL    HW221339   2.740   0.963  10.380  1.3225  0.2123 -1.7421
 3294SOL     OW21340   1.203   2.347   3.578 -0.1960 -0.2143  0.1974
 3294SOL    HW121341   1.148   2.286   3.626  1.8174 -0.1351  2.6040
 3294SOL    HW221342   1.201   2.431   3.625  0.1524  0.6025 -1.2287
 3295SOL     OW21343   0.027   0.575   0.929 -0.3334 -0.0290 -0.3844
 3295SOL    HW121344   0.058   0.666   0.922  0.4551  0.0571  3.8260
 3295SOL    HW221345   0.023   0.566   1.024 -1.8683 -1.6445 -0.5939
 3296SOL     OW21346   2.591   4.153   6.803  0.8122  0.5727  0.5106
 3296SOL    HW121347   2.560   4.119   6.718  1.1288  2.9901 -0.5766
 3296SOL    HW221348   2.567   4.240   6.772  0.2127  1.0757  2.4056
 3297SOL     OW21349   1.490   1.334   6.325 -0.3908  0.1311 -0.2819
 3297SOL    HW121350   1.457   1.276   6.394 -2.0919  0.1238 -1.0842
 3297SOL    HW221351   1.412   1.384   6.300 -0.5057 -0.0405 -0.2633
 3298SOL     OW21352   4.062   0.043   8.888  0.2067 -0.0482 -0.2087
 3298SOL    HW121353   4.033   0.107   8.823  0.1361  0.6828  0.5546
 3298SOL    HW221354   4.030   4.692   8.840  1.2364 -1.2799  1.0372
 3299SOL     OW21355   4.323   1.086   7.501 -0.6508  0.2859 -0.5435
 3299SOL    HW121356   4.286   1.032   7.431  1.4405 -0.9450 -0.6975
 3299SOL    HW221357   4.249   1.080   7.562  0.2788  2.1170  0.7464
 3300SOL     OW21358   0.241   4.257  14.599  0.1517 -0.0189 -0.1126
 3300SOL    HW121359   0.264   4.175  14.641 -0.0691  0.0701  0.1825
 3300SOL    HW221360   0.273   4.247  14.509  3.8025 -0.9077  1.3342
 3301SOL     OW21361   2.654   0.566   7.389  0.2268  0.0486  0.9185
 3301SOL    HW121362   2.684   0.496   7.446 -0.1316 -0.5389  0.3836
 3301SOL    HW221363   2.732   0.621   7.381 -0.7281  1.6692  2.5633
 3302SOL     OW21364   3.434   2.915   2.650 -0.3778 -0.1851 -0.3281
 3302SOL    HW121365   3.473   2.887   2.733  1.7848 -2.4488 -2.1063
 3302SOL    HW221366   3.344   2.915   2.683 -0.0827  1.1052  0.4908
 3303SOL     OW21367   4.190   3.811   4.462  0.1215  0.0971  1.2132
 3303SOL    HW121368   4.167   3.820   4.369 -0.2953 -0.2091  1.2859
 3303SOL    HW221369   4.278   3.850   4.460  0.0804  0.1982  1.3705
 3304SOL     OW21370   3.514   0.283   9.334  0.1787 -0.2837 -0.2349
 3304SOL    HW121371   3.591   0.249   9.379  0.4483  0.2339 -0.3142
 3304SOL    HW221372   3.475   0.323   9.411  0.8480 -2.1898  1.0849
 3305SOL     OW21373   0.577   1.414   8.937 -0.2322 -0.7319  0.4320
 3305SOL    HW121374   0.485   1.437   8.946  0.3883  1.9476  0.0148
 3305SOL    HW221375   0.591   1.402   9.031 -0.6391  1.1406  0.7371
 3306SOL     OW21376   1.904   2.179   8.767 -0.7653 -0.0846 -0.6066
 3306SOL    HW121377   1.851   2.114   8.814 -1.0598  0.0421 -0.7565
 3306SOL    HW221378   1.929   2.240   8.836 -0.7495 -0.8101  0.0317
 3307SOL     OW21379   4.255   1.816   9.783  0.6040  0.4153 -0.0849
 3307SOL    HW121380   4.309   1.826   9.861  2.1842  2.7224 -1.4879
 3307SOL    HW221381   4.225   1.906   9.770  4.4786  1.4269 -1.9484
 3308SOL     OW21382   2.268   0.423   6.610 -0.0070  0.1389 -0.1692
 3308SOL    HW121383   2.251   0.485   6.681 -2.6991 -0.6830 -0.1287
 3308SOL    HW221384   2.229   0.474   6.539  1.3133  1.1147 -0.2057
 3309SOL     OW21385   2.695   0.073  10.648 -0.0921  0.1935  0.3596
 3309SOL    HW121386   2.781   0.053  10.611 -0.0313 -0.7040  1.0000
 3309SOL    HW221387   2.721   0.102  10.736  0.2639  2.4246 -0.4612
 3310SOL     OW21388   1.046   4.195   1.459  0.4793  0.3734 -0.1157
 3310SOL    HW121389   0.981   4.162   1.520  1.0458  1.0208  0.8351
 3310SOL    HW221390   1.034   4.288   1.479 -0.2502  0.5840 -1.4842
 3311SOL     OW21391   0.320   3.635  10.630 -0.1366 -0.2739 -0.5009
 3311SOL    HW121392   0.405   3.626  10.672  0.0256  0.7491 -0.5925
 3311SOL    HW221393   0.264   3.635  10.708  1.1171  0.4057  0.4020
 3312SOL     OW21394   0.568   0.011   1.457 -0.8783 -0.2248  0.3684
 3312SOL    HW121395   0.479   0.044   1.450 -0.2844  0.6303 -3.0797
 3312SOL    HW221396   0.618   0.092   1.462 -3.0260  1.2075 -1.4535
 3313SOL     OW21397   0.449   4.575  11.722  0.6651  0.5493 -0.0428
 3313SOL    HW121398   0.515   4.530  11.774  0.5903  1.2144  0.6405
 3313SOL    HW221399   0.465   4.530  11.639  0.9823  1.0670 -0.2620
 3314SOL     OW21400   0.051   3.162   5.599 -0.1610 -0.1126 -0.2218
 3314SOL    HW121401   0.003   3.222   5.542  1.6097  0.5000 -1.0601
 3314SOL    HW221402   0.138   3.163   5.559  0.1135 -2.8256  0.3183
 3315SOL     OW21403   3.226   0.719   1.021 -0.0232  0.9343 -0.3322
 3315SOL    HW121404   3.176   0.775   0.962  0.1796 -0.9065 -2.2428
 3315SOL    HW221405   3.181   0.636   1.004 -1.2749  1.6455 -0.4752
 3316SOL     OW21406   1.181   0.200   0.422 -0.0505  0.6418 -0.4918
 3316SOL    HW121407   1.099   0.180   0.377 -0.2327 -0.5900  0.3752
 3316SOL    HW221408   1.244   0.135   0.390  1.6581  1.5085  1.1089
 3317SOL     OW21409   1.146   2.376   0.102 -0.3431 -0.4353  0.1757
 3317SOL    HW121410   1.228   2.361   0.149 -0.5834  2.1949  1.4066
 3317SOL    HW221411   1.085   2.379   0.176 -1.1251  2.5316 -0.6108
 3318SOL     OW21412   1.544   0.118  15.493  0.2465 -0.5953  0.1521
 3318SOL    HW121413   1.599   0.196  15.484  0.0016 -0.4320  0.0960
 3318SOL    HW221414   1.558   0.090  15.584 -1.7370  0.2926  0.7355
 3319SOL     OW21415   3.063   4.058   8.766  0.0753  0.5209  0.1990
 3319SOL    HW121416   3.070   3.965   8.789 -0.2693  0.1108 -1.3321
 3319SOL    HW221417   3.141   4.101   8.801 -0.2656  0.3646  1.1478
 3320SOL     OW21418   2.509   3.186  17.167  0.4096  0.2969 -0.7335
 3320SOL    HW121419   2.493   3.194  17.261 -1.1856  1.5149 -1.1140
 3320SOL    HW221420   2.468   3.268  17.141  1.0222  0.5625 -0.8531
 3321SOL     OW21421   1.386   2.833   4.054  1.1154 -0.0825  0.5210
 3321SOL    HW121422   1.376   2.874   3.968 -0.2449 -0.9588  0.2724
 3321SOL    HW221423   1.395   2.909   4.113 -1.7782 -1.5704  2.8709
 3322SOL     OW21424   2.325   3.020   5.197 -0.3785  0.2151 -0.7447
 3322SOL    HW121425   2.419   3.034   5.184  0.1539 -0.7045  1.9392
 3322SOL    HW221426   2.324   2.928   5.223 -1.8434  0.1085 -1.1502
 3323SOL     OW21427   2.616   2.865   7.412 -0.2206  0.0616 -0.3354
 3323SOL    HW121428   2.679   2.869   7.485 -0.2513 -1.4373 -0.2383
 3323SOL    HW221429   2.649   2.802   7.348 -0.9844  0.1242 -0.7871
 3324SOL     OW21430   0.875   4.129   6.180 -0.4513  0.8360  0.4342
 3324SOL    HW121431   0.792   4.095   6.212 -0.6130  0.1917 -0.6452
 3324SOL    HW221432   0.942   4.085   6.232  0.1916 -0.2596 -1.3054
 3325SOL     OW21433   2.962   2.461   3.473  0.4364 -0.3118 -0.1610
 3325SOL    HW121434   3.057   2.465   3.462  0.5904 -2.6575  0.2706
 3325SOL    HW221435   2.950   2.367   3.464  1.1368 -0.2214 -1.8982
 3326SOL     OW21436   0.488   4.260   5.921  0.3108 -0.6720  0.0823
 3326SOL    HW121437   0.463   4.241   5.831  1.1286  0.4514 -0.3831
 3326SOL    HW221438   0.563   4.319   5.910 -0.1551  0.1579  1.3173
 3327SOL     OW21439   3.724   3.923   3.793 -0.4450 -0.2397  0.2091
 3327SOL    HW121440   3.797   3.866   3.818 -1.2904 -1.3169  0.2476
 3327SOL    HW221441   3.657   3.911   3.860 -1.0120  1.0866 -0.1361
 3328SOL     OW21442   3.253   3.221   2.907  0.2784 -0.2590  0.3998
 3328SOL    HW121443   3.210   3.136   2.915 -1.5512  0.7921  1.8000
 3328SOL    HW221444   3.210   3.254   2.828  0.2009  0.8563  0.9088
 3329SOL     OW21445   2.199   1.172   5.037  0.1067  0.0247  0.6663
 3329SOL    HW121446   2.165   1.250   4.992 -0.6349  0.2146  1.5530
 3329SOL    HW221447   2.212   1.220   5.119 -0.4241  0.2138  0.6467
 3330SOL     OW21448   0.184   1.438   1.881 -0.4974  0.0219  0.0090
 3330SOL    HW121449   0.134   1.432   1.962 -0.3473  1.4463  0.2143
 3330SOL    HW221450   0.240   1.514   1.897  0.9169 -1.1287  0.4477
 3331SOL     OW21451   2.128   0.936   2.530  0.1359 -0.4428 -0.9781
 3331SOL    HW121452   2.128   0.966   2.439 -1.9468  0.2709 -0.7402
 3331SOL    HW221453   2.189   0.997   2.571 -0.7491  0.2226 -0.6420
 3332SOL     OW21454   2.485   4.137   4.337  0.6109  0.1037  0.2014
 3332SOL    HW121455   2.510   4.208   4.395  2.0020 -1.6850  1.7843
 3332SOL    HW221456   2.439   4.074   4.393  1.5458 -0.6489  0.1301
 3333SOL     OW21457   1.104   3.246   6.423  0.4407 -0.0716 -0.0216
 3333SOL    HW121458   1.116   3.284   6.510  1.1500 -1.5523  0.5241
 3333SOL    HW221459   1.143   3.160   6.437 -0.5573 -0.7569 -1.3983
 3334SOL     OW21460   4.275   2.304  12.479  0.2081 -0.7556  0.2875
 3334SOL    HW121461   4.310   2.236  12.537  1.4445  0.6816  1.2379
 3334SOL    HW221462   4.309   2.388  12.511 -0.0265 -0.6341  0.2126
 3335SOL     OW21463   1.536   3.744  11.719  0.3621  0.1056 -0.5999
 3335SOL    HW121464   1.515   3.717  11.809  3.7425 -0.7583 -0.0523
 3335SOL    HW221465   1.483   3.823  11.719 -1.4335 -1.1051 -2.1831
 3336SOL     OW21466   1.665   0.925   6.768 -0.5158 -0.1379  0.0709
 3336SOL    HW121467   1.718   0.850   6.742  2.0975  1.1127  1.6974
 3336SOL    HW221468   1.587   0.882   6.803 -0.7421 -0.4904 -0.8869
 3337SOL     OW21469   2.675   1.272   2.769  0.0008 -0.4154 -0.3555
 3337SOL    HW121470   2.728   1.200   2.803 -1.4102 -1.5315 -0.5307
 3337SOL    HW221471   2.666   1.245   2.678  2.1362  0.0829 -0.6992
 3338SOL     OW21472   1.609   1.177  11.767  0.2682  0.3024 -0.0925
 3338SOL    HW121473   1.515   1.166  11.782  0.2342 -0.7470 -1.0581
 3338SOL    HW221474   1.644   1.202  11.852  1.1221  0.3438 -0.4530
 3339SOL     OW21475   0.488   3.620   7.215 -0.0145  0.3038 -0.2998
 3339SOL    HW121476   0.396   3.645   7.215 -0.1585 -0.2223  0.0215
 3339SOL    HW221477   0.530   3.705   7.227 -1.2321  0.9174 -0.4834
 3340SOL     OW21478   1.076   3.650   1.361  0.6134 -0.4766  0.3491
 3340SOL    HW121479   1.135   3.721   1.388 -0.2884  0.0284  0.9517
 3340SOL    HW221480   1.059   3.682   1.272 -0.3247  0.4025  0.8449
 3341SOL     OW21481   3.763   3.373   3.124 -0.4723  0.4935 -0.5128
 3341SOL    HW121482   3.730   3.340   3.207 -1.8231  0.0595 -1.2165
 3341SOL    HW221483   3.683   3.386   3.073 -0.5749 -0.2762 -0.5434
 3342SOL     OW21484   3.666   3.550   2.663  0.4422  0.5652 -0.0344
 3342SOL    HW121485   3.625   3.587   2.741 -1.2954  0.4655 -0.9031
 3342SOL    HW221486   3.704   3.635   2.643 -0.1013  0.6494 -0.6901
 3343SOL     OW21487   0.242   3.578  14.215  0.6439 -0.2751 -0.4311
 3343SOL    HW121488   0.237   3.671  14.238  1.2628 -0.4872  0.5460
 3343SOL    HW221489   0.331   3.562  14.186  1.5208 -0.6212  2.4316
 3344SOL     OW21490   4.718   3.741   6.683  0.5569 -0.3385 -0.2329
 3344SOL    HW121491   4.677   3.809   6.737  0.9566  0.1331 -0.5160
 3344SOL    HW221492   4.640   3.690   6.666 -0.2721  0.3255  1.5591
 3345SOL     OW21493   1.889   3.892   4.544 -0.3173 -0.2293 -0.4325
 3345SOL    HW121494   1.796   3.872   4.534 -0.1820 -0.4332 -1.3285
 3345SOL    HW221495   1.893   3.943   4.625 -4.3108 -1.5724  0.5859
 3346SOL     OW21496   2.036   4.160   6.503  0.0808 -0.9579 -0.5091
 3346SOL    HW121497   2.094   4.178   6.429  1.3214 -0.4141  0.5921
 3346SOL    HW221498   2.099   4.142   6.573 -2.6154 -0.6118  1.9889
 3347SOL     OW21499   3.645   4.607   5.472  0.0016  0.0863 -0.2044
 3347SOL    HW121500   3.661   4.517   5.446  1.2807  0.2482  0.0312
 3347SOL    HW221501   3.579   4.631   5.407 -1.1281  2.0112  1.6503
 3348SOL     OW21502   0.269   1.612   2.517  0.3214 -0.2301 -0.5506
 3348SOL    HW121503   0.212   1.685   2.545  0.7568 -0.5583  1.2287
 3348SOL    HW221504   0.205   1.553   2.477  0.4571  0.5420 -1.8839
 3349SOL     OW21505   2.052   1.560  16.406  0.4806 -0.2240 -0.1657
 3349SOL    HW121506   2.134   1.535  16.364  0.4032  1.3833 -1.2585
 3349SOL    HW221507   2.072   1.632  16.465 -1.4911 -0.5263  0.8842
 3350SOL     OW21508   4.000   3.053   3.313  0.0098 -0.2750  0.0694
 3350SOL    HW121509   4.077   3.082   3.265 -0.8083 -1.4810 -1.9575
 3350SOL    HW221510   3.951   3.132   3.336 -0.3680 -0.2411 -0.8596
 3351SOL     OW21511   2.760   1.164   6.467  0.0324  0.0900  0.2231
 3351SOL    HW121512   2.722   1.124   6.546 -0.6934  0.9867  0.3289
 3351SOL    HW221513   2.841   1.113   6.460 -1.1215 -1.7336  0.1507
 3352SOL     OW21514   2.050   2.056   9.503 -0.2525 -0.1613  0.6189
 3352SOL    HW121515   1.975   2.004   9.532 -0.5580 -0.3068 -0.4649
 3352SOL    HW221516   2.009   2.097   9.428 -2.7109 -0.0410  2.0187
 3353SOL     OW21517   2.354   2.656   5.192 -0.6252 -1.2314 -0.0153
 3353SOL    HW121518   2.337   2.570   5.153 -0.9453 -1.2959  0.2586
 3353SOL    HW221519   2.263   2.684   5.203  0.0144  0.6424  0.4949
 3354SOL     OW21520   0.315   0.087   6.404 -0.3575 -0.3306 -0.3093
 3354SOL    HW121521   0.388   0.126   6.453 -0.0497 -1.9453  0.5013
 3354SOL    HW221522   0.316   4.720   6.432 -2.5425 -0.1228  0.4632
 3355SOL     OW21523   1.865   0.284   8.160  0.1081 -0.3303  0.0762
 3355SOL    HW121524   1.859   0.235   8.078 -0.6779 -1.3077  0.7178
 3355SOL    HW221525   1.907   0.211   8.206 -0.0856 -1.3569 -1.3825
 3356SOL     OW21526   4.512   1.999   5.601  0.2512 -0.2624  0.3291
 3356SOL    HW121527   4.444   2.024   5.664 -0.3666  2.5102 -1.4331
 3356SOL    HW221528   4.589   2.006   5.658  1.1094  2.0098 -1.1016
 3357SOL     OW21529   0.038   3.992   9.060  0.1196 -0.2118 -0.0456
 3357SOL    HW121530   0.037   4.000   9.155 -0.1842  0.1978 -0.0837
 3357SOL    HW221531   4.687   4.040   9.026  1.3153  0.6304 -1.5594
 3358SOL     OW21532   4.599   2.314   2.765 -0.2314 -1.0042 -0.3643
 3358SOL    HW121533   4.579   2.380   2.831  2.4568  0.5050 -1.0624
 3358SOL    HW221534   4.574   2.364   2.688  0.0317  1.1356  0.9398
 3359SOL     OW21535   1.240   1.243  16.383  0.0282  0.3958  0.2174
 3359SOL    HW121536   1.155   1.199  16.391 -0.0562  0.7903  1.5750
 3359SOL    HW221537   1.262   1.233  16.291  0.0392  0.4884  0.2104
 3360SOL     OW21538   2.088   3.657   1.739 -0.3856  0.3477 -0.3975
 3360SOL    HW121539   2.135   3.706   1.807  0.7983 -1.4236  0.0806
 3360SOL    HW221540   2.161   3.602   1.709 -0.0067 -1.1258  3.1270
 3361SOL     OW21541   4.032   2.069   4.950  0.0566 -0.1835 -0.1437
 3361SOL    HW121542   3.980   2.120   5.013 -1.8086 -1.0899 -0.9548
 3361SOL    HW221543   4.039   2.129   4.876 -1.9927  1.6764  1.1537
 3362SOL     OW21544   1.397   1.982   8.752 -0.4237  0.2568 -0.2620
 3362SOL    HW121545   1.488   2.000   8.778 -0.6552 -1.0136  1.4036
 3362SOL    HW221546   1.402   1.912   8.688 -0.4375 -0.1833  0.2240
 3363SOL     OW21547   1.206   4.117   4.946 -0.0551 -0.4887 -0.8366
 3363SOL    HW121548   1.196   4.031   4.986 -2.5217  0.0397 -0.3107
 3363SOL    HW221549   1.117   4.152   4.947  1.0108  2.2404 -0.1612
 3364SOL     OW21550   1.310   4.287   5.501 -0.1158  0.3106 -0.1047
 3364SOL    HW121551   1.331   4.214   5.443 -1.0140  0.0859 -0.1613
 3364SOL    HW221552   1.226   4.258   5.538  0.2005 -0.4880 -0.0145
 3365SOL     OW21553   2.303   1.643   8.210 -0.0337 -0.5876  0.6348
 3365SOL    HW121554   2.248   1.703   8.260  0.2700  0.0572  0.1944
 3365SOL    HW221555   2.394   1.669   8.227 -0.3354  0.8365  0.1189
 3366SOL     OW21556   0.802   2.534   3.283 -0.1876  0.4565  0.4850
 3366SOL    HW121557   0.717   2.490   3.288  0.8702 -1.5681  0.9736
 3366SOL    HW221558   0.860   2.459   3.270 -4.1069 -2.4218 -0.5735
 3367SOL     OW21559   1.051   0.484  13.099 -0.0244 -0.0271 -0.5433
 3367SOL    HW121560   1.079   0.441  13.018  2.4523 -0.7276  0.6520
 3367SOL    HW221561   1.056   0.578  13.082 -1.0013  0.4751  1.9151
 3368SOL     OW21562   0.341   4.083   3.065  0.3222 -0.0415 -0.1039
 3368SOL    HW121563   0.308   4.004   3.022  0.6224  0.5419 -1.3954
 3368SOL    HW221564   0.428   4.084   3.026 -0.1940  0.3154 -1.2368
 3369SOL     OW21565   2.225   1.063  12.775  0.4456  0.1876  0.3927
 3369SOL    HW121566   2.258   1.147  12.743  0.8583  0.9287  2.7812
 3369SOL    HW221567   2.134   1.068  12.745  0.7236  0.6597 -0.3700
 3370SOL     OW21568   4.527   3.866   7.374 -0.0401 -0.1643  0.0579
 3370SOL    HW121569   4.519   3.904   7.286  1.0212  1.4312  0.6534
 3370SOL    HW221570   4.535   3.774   7.350 -1.0883 -0.4393  0.7893
 3371SOL     OW21571   2.472   2.850   8.524  0.5908 -0.1658 -0.0955
 3371SOL    HW121572   2.547   2.854   8.464  1.2033 -1.2293  0.5943
 3371SOL    HW221573   2.421   2.775   8.493  1.2933 -0.9382  0.6326
 3372SOL     OW21574   2.575   2.860   3.427  0.3585  0.5066  0.8672
 3372SOL    HW121575   2.602   2.846   3.336  2.1314  0.2710  1.4391
 3372SOL    HW221576   2.546   2.770   3.444  0.0408 -0.1745 -3.1927
 3373SOL     OW21577   0.864   2.941   0.320  0.0841  0.1065 -0.1070
 3373SOL    HW121578   0.810   2.948   0.398  0.8956 -0.1407  0.4854
 3373SOL    HW221579   0.887   2.848   0.324 -2.1688 -0.4321 -0.1022
 3374SOL     OW21580   3.994   3.711  10.383  0.2763 -0.2090  0.1665
 3374SOL    HW121581   3.954   3.697  10.469  0.1221  3.3434  0.6931
 3374SOL    HW221582   4.032   3.624  10.380 -1.3403 -0.8092 -2.5509
 3375SOL     OW21583   1.562   2.149  13.504  0.5849 -0.4047 -0.2148
 3375SOL    HW121584   1.475   2.178  13.479  0.6374  1.1629  1.3876
 3375SOL    HW221585   1.614   2.227  13.484 -1.7641  0.9467 -0.9759
 3376SOL     OW21586   2.426   2.423   3.748  0.0295  0.1630 -0.4645
 3376SOL    HW121587   2.512   2.455   3.776 -0.0955 -1.0820  1.3161
 3376SOL    HW221588   2.461   2.358   3.687 -0.2371  0.6257 -1.1132
 3377SOL     OW21589   2.311   1.448  12.281 -0.5729  0.1407 -0.0270
 3377SOL    HW121590   2.370   1.430  12.208 -0.4240 -0.7091  0.3092
 3377SOL    HW221591   2.245   1.509  12.249 -1.3047  0.7712  2.6594
 3378SOL     OW21592   3.055   0.736  17.386  0.3556  0.1703 -0.0774
 3378SOL    HW121593   3.067   0.826  17.418 -1.6614  0.8054 -1.0923
 3378SOL    HW221594   2.964   0.734  17.417  0.7829 -0.0573  1.1400
 3379SOL     OW21595   3.457   2.620   4.411  0.1092 -0.3781  0.3694
 3379SOL    HW121596   3.376   2.608   4.461 -0.7655 -1.8159 -1.3777
 3379SOL    HW221597   3.524   2.571   4.459  0.8326 -1.2644 -1.5426
 3380SOL     OW21598   2.462   1.928   9.653 -0.4132  0.5013 -0.0276
 3380SOL    HW121599   2.427   1.899   9.737  1.6880 -2.3327 -0.1308
 3380SOL    HW221600   2.393   1.902   9.592  0.0857  0.1682 -0.4618
 3381SOL     OW21601   2.847   2.157   7.020  0.2374 -0.4494 -0.7005
 3381SOL    HW121602   2.816   2.088   7.079  1.0239 -1.8775 -1.9453
 3381SOL    HW221603   2.870   2.104   6.944  1.6461  0.7339 -1.1056
 3382SOL     OW21604   0.163   4.034  15.540 -0.5520  0.5727 -0.1901
 3382SOL    HW121605   0.244   4.002  15.502  0.2409 -0.2637  2.1727
 3382SOL    HW221606   0.144   4.117  15.497  0.6285  0.3398 -1.1511
 3383SOL     OW21607   1.793   3.315   1.153 -0.0738 -0.2528  0.0805
 3383SOL    HW121608   1.814   3.296   1.062 -1.7351 -2.3504  0.1347
 3383SOL    HW221609   1.846   3.394   1.161  1.2351 -1.1363  0.0947
 3384SOL     OW21610   3.579   2.879   3.215 -0.2886 -0.2171  0.2037
 3384SOL    HW121611   3.626   2.961   3.227 -0.8479  0.2899 -1.0336
 3384SOL    HW221612   3.524   2.901   3.140 -2.6416  2.1933  2.6723
 3385SOL     OW21613   4.357   1.470   5.760 -0.4750  0.4222  0.7000
 3385SOL    HW121614   4.315   1.548   5.797  0.4095  0.3062  1.9210
 3385SOL    HW221615   4.322   1.397   5.811  0.6476 -1.2335 -0.9123
 3386SOL     OW21616   4.328   4.182   7.732 -0.0293 -0.1140 -0.7794
 3386SOL    HW121617   4.339   4.164   7.639 -2.1175 -0.1541 -1.0103
 3386SOL    HW221618   4.301   4.099   7.772 -1.3198  0.4770 -0.4421
 3387SOL     OW21619   0.786   4.537   0.910  0.3193  0.2521  0.2788
 3387SOL    HW121620   0.706   4.583   0.881 -0.0252  0.1813  1.1215
 3387SOL    HW221621   0.752   4.502   0.992  0.7640  0.6935  0.6500
 3388SOL     OW21622   2.494   3.070   7.631 -0.5794  0.7459  0.1381
 3388SOL    HW121623   2.465   2.979   7.634 -2.9354  1.4193 -1.9208
 3388SOL    HW221624   2.588   3.059   7.621 -0.7738 -0.5804 -0.1514
 3389SOL     OW21625   2.164   2.034   2.361 -0.1250 -0.1300 -0.6321
 3389SOL    HW121626   2.176   1.941   2.379  0.5315  0.4370  1.9419
 3389SOL    HW221627   2.201   2.072   2.441 -1.2195 -1.9332  0.7298
 3390SOL     OW21628   1.124   4.392   6.739 -0.9770  0.2909  0.1474
 3390SOL    HW121629   1.136   4.454   6.666 -0.5394 -0.4614 -0.4262
 3390SOL    HW221630   1.195   4.422   6.795 -2.0164  1.2121  0.9823
 3391SOL     OW21631   0.031   0.554   3.617  0.5991 -0.3452  0.1574
 3391SOL    HW121632   0.125   0.571   3.623  0.8433 -2.5301  2.4641
 3391SOL    HW221633   4.724   0.612   3.548  0.2817 -1.3090 -0.5081
 3392SOL     OW21634   4.031   1.416  13.874 -0.2693 -0.3046  0.3437
 3392SOL    HW121635   3.993   1.335  13.840 -0.5770  0.0616 -0.1915
 3392SOL    HW221636   3.960   1.453  13.927 -0.7739 -1.0380  0.1817
 3393SOL     OW21637   3.668   1.229   4.624 -0.6586 -0.0052  0.1692
 3393SOL    HW121638   3.727   1.154   4.622 -2.8423 -1.7668  1.8241
 3393SOL    HW221639   3.726   1.295   4.587 -2.8412  1.5772 -0.3989
 3394SOL     OW21640   4.162   1.967  13.549  0.1331 -0.3231  0.0507
 3394SOL    HW121641   4.239   1.973  13.493  0.4641 -1.8870  0.3411
 3394SOL    HW221642   4.109   2.041  13.520 -0.6714 -0.8642  0.1372
 3395SOL     OW21643   2.080   2.660   5.144  0.5319  0.2054 -0.7145
 3395SOL    HW121644   1.985   2.663   5.148  0.6297 -0.1687  2.6465
 3395SOL    HW221645   2.095   2.616   5.061  2.9637 -0.3731  0.0142
 3396SOL     OW21646   1.855   0.315   6.668  0.5009  0.3807 -0.1119
 3396SOL    HW121647   1.786   0.280   6.725  2.2164 -1.4287  0.8234
 3396SOL    HW221648   1.910   0.358   6.734 -0.9231  1.6320  0.2946
 3397SOL     OW21649   4.371   4.103   2.529  0.9253  0.0322 -0.0030
 3397SOL    HW121650   4.407   4.191   2.538 -2.8003  1.3434  1.7359
 3397SOL    HW221651   4.393   4.050   2.606  0.2858  0.2093  0.2980
 3398SOL     OW21652   4.388   2.969   3.614 -0.6756 -0.2587  0.7963
 3398SOL    HW121653   4.367   2.912   3.687  0.4746 -2.3693 -0.5158
 3398SOL    HW221654   4.306   2.966   3.565 -0.2475  0.7262  0.0106
 3399SOL     OW21655   1.594   4.422   3.496  0.7968  0.1916  0.2895
 3399SOL    HW121656   1.690   4.432   3.497  0.7873  0.2087  0.9324
 3399SOL    HW221657   1.560   4.502   3.535 -1.2029 -0.5507  0.0380
 3400SOL     OW21658   1.214   0.796   0.234 -0.0886 -0.1013 -0.5350
 3400SOL    HW121659   1.154   0.778   0.306  0.9724 -0.9480  0.1398
 3400SOL    HW221660   1.190   0.884   0.204 -1.1275 -0.3735 -0.4822
 3401SOL     OW21661   1.176   1.470   9.549  0.0939 -0.4102 -0.0126
 3401SOL    HW121662   1.193   1.415   9.625 -0.3083 -0.1706  0.2468
 3401SOL    HW221663   1.082   1.484   9.563  0.0449 -0.3309 -0.4098
 3402SOL     OW21664   0.078   2.460   9.238 -0.1364 -0.1249  0.1877
 3402SOL    HW121665   0.008   2.496   9.292 -1.6079 -1.8730 -0.5476
 3402SOL    HW221666   0.065   2.483   9.146  1.2263  1.6509  0.4398
 3403SOL     OW21667   2.613   3.345   3.680  0.1934  0.1258  0.4609
 3403SOL    HW121668   2.582   3.259   3.653  2.3185  0.8967 -4.3937
 3403SOL    HW221669   2.539   3.379   3.731 -0.1684 -0.0196  0.0342
 3404SOL     OW21670   0.659   3.545   2.868 -0.2827  0.4635  0.6065
 3404SOL    HW121671   0.710   3.601   2.810 -0.5081 -1.6219 -1.6051
 3404SOL    HW221672   0.608   3.497   2.803  1.4866  0.6046 -0.8696
 3405SOL     OW21673   3.078   0.405   8.106  0.2417  0.0541 -0.1708
 3405SOL    HW121674   3.010   0.356   8.059 -0.0143  1.3010 -1.1265
 3405SOL    HW221675   3.103   0.339   8.170 -1.8635 -2.7971 -2.3018
 3406SOL     OW21676   0.558   0.802   4.550  0.1845 -0.1006  0.5259
 3406SOL    HW121677   0.596   0.890   4.561  0.0949  0.6097 -4.4849
 3406SOL    HW221678   0.519   0.820   4.464  0.2666 -0.7023  0.3593
 3407SOL     OW21679   0.712   3.898   9.326  0.0641 -0.2839 -0.1585
 3407SOL    HW121680   0.794   3.939   9.354  1.7324 -2.8313 -1.3525
 3407SOL    HW221681   0.672   3.898   9.413  2.4719  1.3013  0.9667
 3408SOL     OW21682   1.371   1.118  12.070 -0.0115 -0.1888  0.1507
 3408SOL    HW121683   1.375   1.116  11.974  0.9951  1.3265  0.1487
 3408SOL    HW221684   1.276   1.111  12.084 -0.2402  4.1461  1.0465
 3409SOL     OW21685   4.427   3.262   9.944  0.3474  0.5060  0.0015
 3409SOL    HW121686   4.434   3.333   9.880  1.7248 -0.7936 -1.2981
 3409SOL    HW221687   4.519   3.262   9.971  0.6029  1.0351 -0.8717
 3410SOL     OW21688   1.958   2.346   2.623  0.0269 -0.2872 -0.1693
 3410SOL    HW121689   1.959   2.305   2.537 -0.1750  0.2847 -0.4443
 3410SOL    HW221690   1.880   2.402   2.617  0.9156  1.1142  1.5171
 3411SOL     OW21691   3.722   0.131   8.285 -0.2919 -0.1294 -0.7585
 3411SOL    HW121692   3.724   0.133   8.381  0.2456 -2.0412 -0.7396
 3411SOL    HW221693   3.800   0.077   8.271  0.3773  0.6582 -0.0920
 3412SOL     OW21694   0.451   4.013   6.395 -0.7596 -0.4561  0.5286
 3412SOL    HW121695   0.406   4.010   6.311 -1.6295  1.0495  0.9353
 3412SOL    HW221696   0.394   3.954   6.444 -1.2204  0.6256  1.2982
 3413SOL     OW21697   0.971   2.757   5.050 -0.2105  0.1190 -0.1162
 3413SOL    HW121698   0.953   2.836   5.101 -1.3854 -1.4468  1.8870
 3413SOL    HW221699   1.036   2.714   5.106 -1.4793 -2.0095 -0.2919
 3414SOL     OW21700   3.210   2.582  11.489 -0.2325  0.3826  0.3585
 3414SOL    HW121701   3.263   2.538  11.555  1.1116 -2.5435 -2.6894
 3414SOL    HW221702   3.268   2.599  11.415  1.6329  0.8481  1.9383
 3415SOL     OW21703   4.601   3.883   4.176  0.1683  0.4827  0.4426
 3415SOL    HW121704   4.663   3.949   4.144 -1.3169  1.1719 -0.9924
 3415SOL    HW221705   4.634   3.805   4.132 -1.2113  0.5691 -0.7147
 3416SOL     OW21706   1.349   2.295   9.903 -0.2170 -0.6534  0.3696
 3416SOL    HW121707   1.277   2.281   9.965 -0.2656  1.2619  0.7397
 3416SOL    HW221708   1.383   2.382   9.921 -1.0888 -0.3287  0.4606
 3417SOL     OW21709   3.614   3.229  10.907  0.1778 -0.0564 -0.4135
 3417SOL    HW121710   3.656   3.258  10.826  1.0888 -1.1470 -0.3316
 3417SOL    HW221711   3.631   3.135  10.904 -0.0415 -0.1235  0.3259
 3418SOL     OW21712   1.316   1.126  13.155  0.3822 -0.0640  0.2964
 3418SOL    HW121713   1.409   1.128  13.179  0.9253  0.5352 -1.8654
 3418SOL    HW221714   1.284   1.184  13.223  0.8666 -0.9662  1.2964
 3419SOL     OW21715   1.258   0.031  16.712  0.2388 -0.3557 -0.1319
 3419SOL    HW121716   1.335   4.703  16.692 -0.1246 -2.3106  3.4945
 3419SOL    HW221717   1.199   0.035  16.637 -0.7749  0.0140  0.6728
 3420SOL     OW21718   4.689   2.032  15.940  0.3415 -0.2481 -0.0614
 3420SOL    HW121719   0.033   2.024  15.874  0.5469  0.3130  0.0868
 3420SOL    HW221720   4.654   1.943  15.935 -0.4823  0.0033  1.1990
 3421SOL     OW21721   2.333   2.508  17.385 -0.3921  0.1469 -0.3031
 3421SOL    HW121722   2.426   2.504  17.410 -0.7683 -0.1681  1.0457
 3421SOL    HW221723   2.296   2.420  17.394 -0.4228  0.3513  1.5804
 3422SOL     OW21724   3.410   3.637   5.364  0.5391  0.2418 -0.5661
 3422SOL    HW121725   3.447   3.644   5.276  2.6101 -0.7199  0.2427
 3422SOL    HW221726   3.406   3.543   5.379  2.6057  0.0322 -1.3093
 3423SOL     OW21727   2.436   3.689   6.978 -0.0560 -0.0857 -0.1021
 3423SOL    HW121728   2.388   3.626   6.923  1.5497 -0.4077 -1.1406
 3423SOL    HW221729   2.526   3.656   6.976 -0.1257 -0.2611 -0.4002
 3424SOL     OW21730   2.566   0.398   6.484  0.2961 -0.5229 -0.2528
 3424SOL    HW121731   2.494   0.458   6.501 -1.2273 -2.4021 -0.0823
 3424SOL    HW221732   2.521   0.322   6.446 -1.9620  0.6610  0.0552
 3425SOL     OW21733   3.775   4.628   6.396  0.3387  0.0686 -0.3377
 3425SOL    HW121734   3.687   4.598   6.422 -0.7020  3.0662 -0.3588
 3425SOL    HW221735   3.823   4.591   6.470  1.8445  0.8100 -0.9542
 3426SOL     OW21736   1.996   2.865   6.192 -0.2167 -0.2504 -0.1668
 3426SOL    HW121737   2.091   2.868   6.206 -0.0147 -1.6400 -1.3475
 3426SOL    HW221738   1.967   2.873   6.283  0.3855  0.2800 -0.0213
 3427SOL     OW21739   2.334   3.779  13.025 -0.2285 -0.2704  0.6649
 3427SOL    HW121740   2.416   3.779  12.976  0.3747  0.6327  1.6871
 3427SOL    HW221741   2.360   3.829  13.103 -0.5607  0.9327  0.0139
 3428SOL     OW21742   4.490   3.785   5.336 -0.4061  0.1460  0.2529
 3428SOL    HW121743   4.495   3.782   5.240 -1.2944  0.8310  0.1789
 3428SOL    HW221744   4.498   3.879   5.349  1.5394  0.0525 -0.2971
 3429SOL     OW21745   2.628   4.045   3.831  0.0685 -0.1509  0.0198
 3429SOL    HW121746   2.704   4.103   3.841 -0.3047  0.4037 -0.3490
 3429SOL    HW221747   2.627   3.990   3.909  0.7381 -0.0436  0.1100
 3430SOL     OW21748   1.635   0.081  14.324  0.0935  0.1890  0.3203
 3430SOL    HW121749   1.630   0.021  14.398  2.0107 -0.1052  0.1898
 3430SOL    HW221750   1.615   0.030  14.245  2.2090  0.9692 -0.7079
 3431SOL     OW21751   0.792   3.411   4.754  0.5768  0.4666  0.3199
 3431SOL    HW121752   0.733   3.427   4.827  0.4459  1.3647  0.0197
 3431SOL    HW221753   0.737   3.398   4.677 -0.8852  0.4378  1.3756
 3432SOL     OW21754   4.699   4.112  14.519 -0.4536  0.2705 -0.0189
 3432SOL    HW121755   0.053   4.058  14.521 -1.3575 -1.0366 -0.2129
 3432SOL    HW221756   4.665   4.105  14.609  0.6822 -2.5797  0.1552
 3433SOL     OW21757   3.886   1.221  17.494 -0.6803 -0.1517 -0.2570
 3433SOL    HW121758   3.817   1.164  17.530  0.8720 -2.2199 -0.5574
 3433SOL    HW221759   3.833   1.281  17.441  1.2584  0.9481 -0.9164
 3434SOL     OW21760   4.477   2.155   3.691  0.3882  0.3692  0.0499
 3434SOL    HW121761   4.418   2.223   3.657 -1.1885 -0.6217  0.7849
 3434SOL    HW221762   4.475   2.188   3.781 -1.8648  2.9506 -0.9354
 3435SOL     OW21763   2.816   0.751   2.904 -0.2361 -0.5897  0.4023
 3435SOL    HW121764   2.879   0.683   2.928 -2.6357 -2.2737  1.9387
 3435SOL    HW221765   2.856   0.793   2.827  1.0741  0.3787  1.6130
 3436SOL     OW21766   2.381   0.500   0.007 -0.4584 -0.3340 -0.5247
 3436SOL    HW121767   2.416   0.528   0.091  1.3105  1.1035 -1.7326
 3436SOL    HW221768   2.296   0.543   0.015 -1.1387 -1.8888  0.6768
 3437SOL     OW21769   2.710   1.734  16.372 -0.6412  0.7145 -0.2682
 3437SOL    HW121770   2.678   1.781  16.295  0.5929 -0.3845 -1.4490
 3437SOL    HW221771   2.635   1.735  16.431  1.3965  0.3242  2.2980
 3438SOL     OW21772   4.216   3.275   1.666 -0.6051  0.1154 -0.1288
 3438SOL    HW121773   4.174   3.314   1.742  0.7608  1.7564 -0.2328
 3438SOL    HW221774   4.160   3.197   1.658  0.9814 -0.8048 -2.1806
 3439SOL     OW21775   2.669   3.197  16.911  0.3153  0.3126  0.1709
 3439SOL    HW121776   2.741   3.135  16.921 -1.9126 -1.8072  2.7603
 3439SOL    HW221777   2.624   3.174  16.992  2.3784 -1.0378  0.9261
 3440SOL     OW21778   3.690   3.486  13.416  0.5637 -0.2160  0.0027
 3440SOL    HW121779   3.626   3.441  13.360  0.2441 -0.0129  0.2074
 3440SOL    HW221780   3.769   3.434  13.401 -0.9246 -2.8297  1.1165
 3441SOL     OW21781   0.652   3.726   5.810  0.2591  0.3483 -0.3622
 3441SOL    HW121782   0.707   3.660   5.767  0.4839  0.0462  0.3812
 3441SOL    HW221783   0.696   3.733   5.895  0.2634  2.2513 -0.5427
 3442SOL     OW21784   4.486   3.212   7.241 -0.4892 -0.1429 -0.3476
 3442SOL    HW121785   4.416   3.275   7.256  0.5696  0.9780 -0.1165
 3442SOL    HW221786   4.447   3.172   7.163 -0.1241  0.1052 -0.6554
 3443SOL     OW21787   4.491   2.281   9.168 -0.4914 -0.0498 -0.2380
 3443SOL    HW121788   4.506   2.375   9.169 -2.2955  0.1877  3.2598
 3443SOL    HW221789   4.564   2.249   9.220  0.0283  0.4750 -0.6517
 3444SOL     OW21790   1.041   1.339   4.770 -0.2213  0.1781  0.2315
 3444SOL    HW121791   1.057   1.433   4.769 -2.2164  0.5262 -0.0116
 3444SOL    HW221792   1.100   1.314   4.700  0.5718  1.3769  0.4734
 3445SOL     OW21793   2.957   0.213  12.779  0.0761 -0.2827 -0.2295
 3445SOL    HW121794   2.930   0.292  12.732 -0.3001 -2.2979 -3.4615
 3445SOL    HW221795   3.028   0.249  12.832 -0.8803  1.1438  0.0920
 3446SOL     OW21796   1.644   0.245   4.609 -0.1710 -0.5922  0.2708
 3446SOL    HW121797   1.580   0.228   4.677 -0.9923 -1.3182 -0.6822
 3446SOL    HW221798   1.618   0.170   4.556  1.2580  0.2600 -1.6436
 3447SOL     OW21799   0.984   0.959  11.247  0.2317  0.5206 -0.6757
 3447SOL    HW121800   0.943   0.989  11.166  0.2791 -0.7657 -1.1763
 3447SOL    HW221801   1.027   0.881  11.211  0.7562 -0.2227  1.5690
 3448SOL     OW21802   0.058   1.318   4.217 -0.3553  0.1269 -0.1750
 3448SOL    HW121803   0.122   1.388   4.226 -0.4868  0.3138 -0.7026
 3448SOL    HW221804   4.722   1.347   4.149  0.5797  0.8679 -0.6871
 3449SOL     OW21805   4.217   1.065   2.075 -0.1502  0.2846 -0.2312
 3449SOL    HW121806   4.199   1.159   2.066 -0.1053  0.3177  0.0191
 3449SOL    HW221807   4.245   1.065   2.167  1.3473  0.4857 -0.6907
 3450SOL     OW21808   2.847   2.052   0.331 -0.5779  0.2644 -0.0658
 3450SOL    HW121809   2.798   2.133   0.348  1.9987  2.0819 -1.4184
 3450SOL    HW221810   2.794   1.990   0.382 -0.3660  1.1085  1.1692
 3451SOL     OW21811   4.245   2.891   4.651 -0.3680  0.1501 -0.0018
 3451SOL    HW121812   4.165   2.854   4.688 -1.0638  0.2792 -1.3900
 3451SOL    HW221813   4.272   2.801   4.631  2.1842  0.7486  0.8186
 3452SOL     OW21814   0.263   2.211  10.703  0.8799  0.0061  0.2089
 3452SOL    HW121815   0.261   2.151  10.778 -3.2114 -1.5158 -1.0937
 3452SOL    HW221816   0.205   2.277  10.741  0.8847 -0.2980  0.7437
 3453SOL     OW21817   4.250   2.307   7.535  0.0610  0.2953 -0.0599
 3453SOL    HW121818   4.257   2.216   7.564  0.6156  0.2905 -0.1989
 3453SOL    HW221819   4.299   2.349   7.607  2.7782 -0.8582 -1.2175
 3454SOL     OW21820   2.153   3.947  16.987 -0.1528 -0.1515 -0.2786
 3454SOL    HW121821   2.079   4.007  16.995 -0.9286 -1.1082 -0.3190
 3454SOL    HW221822   2.153   3.947  16.891 -0.8997 -0.6497 -0.2749
 3455SOL     OW21823   4.057   2.316   7.037 -0.1359 -0.0945 -0.3276
 3455SOL    HW121824   4.119   2.275   6.977  0.9884 -1.9731  2.1119
 3455SOL    HW221825   4.098   2.301   7.122 -2.3243  4.7407  1.6165
 3456SOL     OW21826   3.677   3.893   3.049  0.1399  0.2016 -0.1915
 3456SOL    HW121827   3.764   3.894   3.088 -1.0242  0.1694  2.3831
 3456SOL    HW221828   3.624   3.890   3.129 -0.0012  0.0810 -0.2894
 3457SOL     OW21829   0.202   3.905   9.607 -0.0581  0.1500 -0.2427
 3457SOL    HW121830   0.287   3.924   9.646 -0.9242  3.4758 -0.0249
 3457SOL    HW221831   0.160   3.880   9.690  0.5089  0.0598  0.0231
 3458SOL     OW21832   3.641   2.000   7.009  0.4353 -0.4604 -1.1991
 3458SOL    HW121833   3.708   1.968   7.069  1.9179  0.8121 -2.1887
 3458SOL    HW221834   3.661   2.091   7.032  0.4433 -0.8518  0.3635
 3459SOL     OW21835   4.393   1.912  15.420  0.2007  0.1217  0.6167
 3459SOL    HW121836   4.360   2.002  15.411  0.0979  0.0211  0.0072
 3459SOL    HW221837   4.383   1.892  15.513 -0.8584 -1.9215  0.0546
 3460SOL     OW21838   1.794   1.272   5.525  0.5796  0.4782 -0.5249
 3460SOL    HW121839   1.779   1.337   5.594  0.0843  1.7224 -1.7913
 3460SOL    HW221840   1.726   1.207   5.541 -0.4441  1.8009  0.5870
 3461SOL     OW21841   0.851   3.226   9.607 -0.6245  0.4403  0.0271
 3461SOL    HW121842   0.891   3.142   9.584 -1.3094  0.5424 -1.5275
 3461SOL    HW221843   0.922   3.290   9.613 -0.0362 -0.1422 -0.7970
 3462SOL     OW21844   4.287   4.723   1.511  0.3356  0.5335 -0.2910
 3462SOL    HW121845   4.247   4.648   1.465 -0.6148 -1.0679  3.1538
 3462SOL    HW221846   4.252   4.694   1.595  2.8787 -2.4410 -0.2658
 3463SOL     OW21847   0.896   1.667  12.082  0.1532 -0.2877  0.6366
 3463SOL    HW121848   0.878   1.741  12.140 -1.7433 -0.0521 -0.2666
 3463SOL    HW221849   0.809   1.651  12.045 -0.8984  1.6536  2.2774
 3464SOL     OW21850   3.573   1.867   3.559 -0.0122 -0.0652 -0.0405
 3464SOL    HW121851   3.556   1.934   3.492 -1.4675  1.0829  1.4693
 3464SOL    HW221852   3.662   1.898   3.573 -0.3227  0.0921  1.5409
 3465SOL     OW21853   1.871   1.646   3.318 -0.4622 -0.0379 -0.2461
 3465SOL    HW121854   1.841   1.646   3.227 -0.3822 -0.7800 -0.2752
 3465SOL    HW221855   1.793   1.680   3.361  0.3580  0.7493  0.6353
 3466SOL     OW21856   3.111   2.775   8.316 -0.3747  0.6048  0.0320
 3466SOL    HW121857   3.019   2.748   8.313  0.0982 -0.7960 -2.0641
 3466SOL    HW221858   3.128   2.813   8.402  3.2365  0.5650 -0.6419
 3467SOL     OW21859   0.814   1.212   3.308  0.4757 -0.1033  0.0251
 3467SOL    HW121860   0.781   1.301   3.295  1.3326  0.1381 -0.5172
 3467SOL    HW221861   0.781   1.197   3.397 -2.1810 -1.7074 -1.2376
 3468SOL     OW21862   0.390   1.560   3.229  0.1301  0.1529  0.3774
 3468SOL    HW121863   0.329   1.488   3.217  0.8332 -0.6651  1.7572
 3468SOL    HW221864   0.348   1.609   3.158  0.5875  0.7844  0.5359
 3469SOL     OW21865   1.350   3.833  16.454 -0.0323 -0.0505 -0.1421
 3469SOL    HW121866   1.433   3.830  16.500  1.0391 -2.2771 -2.2144
 3469SOL    HW221867   1.352   3.755  16.399 -1.8138 -1.0501  1.1960
 3470SOL     OW21868   0.307   1.691   5.192  0.5136  0.5968  0.2622
 3470SOL    HW121869   0.330   1.755   5.124 -0.9499  0.8176 -0.0252
 3470SOL    HW221870   0.237   1.743   5.233 -1.0637 -1.4341  0.1668
 3471SOL     OW21871   4.310   0.006   4.228 -0.1351  0.2579  0.6987
 3471SOL    HW121872   4.389   4.700   4.183  0.6128 -0.0626  2.2242
 3471SOL    HW221873   4.254   4.654   4.221  0.2629  0.2100 -2.0699
 3472SOL     OW21874   1.550   1.421   3.850  0.3939  0.1480 -0.1928
 3472SOL    HW121875   1.596   1.491   3.896  0.8434  0.1355 -0.6259
 3472SOL    HW221876   1.482   1.464   3.798 -0.4137 -1.5494 -0.5486
 3473SOL     OW21877   0.248   3.566  17.504  0.1292  0.0358  0.4375
 3473SOL    HW121878   0.334   3.553  17.465 -0.0888 -0.8739  0.2645
 3473SOL    HW221879   0.225   3.475  17.523  1.9122  0.1877  3.2858
 3474SOL     OW21880   4.333   0.365  11.382 -0.2484 -0.1137  0.0140
 3474SOL    HW121881   4.421   0.404  11.378 -0.9773  1.4614 -0.5627
 3474SOL    HW221882   4.285   0.429  11.434  1.0889  1.3275 -0.5228
 3475SOL     OW21883   3.904   0.684  13.257 -0.5102 -0.2904  0.9019
 3475SOL    HW121884   3.908   0.589  13.244  2.9004  0.0003  0.0116
 3475SOL    HW221885   3.887   0.702  13.164 -2.0554 -0.5107  1.1297
 3476SOL     OW21886   0.953   2.680   2.287 -0.1953  0.0199 -0.1266
 3476SOL    HW121887   0.889   2.698   2.218 -1.1156  2.2494  1.3135
 3476SOL    HW221888   0.941   2.585   2.299 -2.3963  0.3042 -0.0001
 3477SOL     OW21889   4.119   2.010   3.956  0.0220  0.2132 -0.0609
 3477SOL    HW121890   4.028   1.998   3.981  0.3074 -0.1822  0.7824
 3477SOL    HW221891   4.115   2.084   3.894  2.0052  0.7631  0.4565
 3478SOL     OW21892   2.315   1.428  17.392  0.0551  0.3915  0.2590
 3478SOL    HW121893   2.228   1.419  17.351  0.1588  0.0368  0.1178
 3478SOL    HW221894   2.301   1.383  17.475  1.3063 -0.8181 -0.1764
 3479SOL     OW21895   4.143   3.318   9.312 -0.2510 -0.0346  0.2586
 3479SOL    HW121896   4.126   3.327   9.406 -0.7262 -0.2386  0.1933
 3479SOL    HW221897   4.053   3.314   9.280 -0.2446  0.9861  0.1291
 3480SOL     OW21898   2.554   2.293   7.105 -0.2248 -0.2566  0.5152
 3480SOL    HW121899   2.545   2.384   7.134 -0.1973 -0.2642  0.5479
 3480SOL    HW221900   2.601   2.312   7.024 -2.5798  0.3000 -0.6985
 3481SOL     OW21901   2.733   4.317  10.581  0.0232  0.3998  0.4727
 3481SOL    HW121902   2.640   4.294  10.581 -0.1166  0.9100  2.9689
 3481SOL    HW221903   2.778   4.245  10.625  1.6072 -0.6093 -2.8064
 3482SOL     OW21904   4.586   3.173  10.823  0.1728  0.2545 -0.2542
 3482SOL    HW121905   4.638   3.164  10.744 -0.4210  0.1929 -0.6338
 3482SOL    HW221906   4.644   3.234  10.870 -1.7057  0.5527  1.7104
 3483SOL     OW21907   2.904   3.864   3.058 -0.0773  0.3297 -0.8061
 3483SOL    HW121908   2.923   3.846   3.150  0.1915  2.0519 -0.5213
 3483SOL    HW221909   2.994   3.858   3.025 -0.4251 -1.7188 -1.3445
 3484SOL     OW21910   0.197   0.930   2.256  0.2936 -0.4135 -0.2642
 3484SOL    HW121911   0.237   0.896   2.336  0.9622 -1.9362 -1.2384
 3484SOL    HW221912   0.239   0.890   2.180 -1.9801 -3.1866 -0.0745
 3485SOL     OW21913   1.637   1.115   0.801  0.3848  0.2419 -0.2898
 3485SOL    HW121914   1.637   1.026   0.766  0.1850 -0.0217  0.3644
 3485SOL    HW221915   1.675   1.088   0.885 -2.4439 -0.8012  0.6602
 3486SOL     OW21916   3.041   2.640   2.947 -0.3429  0.0630 -0.0308
 3486SOL    HW121917   2.992   2.695   2.886  1.1745  0.0954 -1.2125
 3486SOL    HW221918   3.044   2.557   2.901  3.6083 -0.1588  0.6507
 3487SOL     OW21919   1.926   1.614  12.428  0.2757 -0.1169 -0.5311
 3487SOL    HW121920   1.864   1.557  12.473  0.2059 -1.7623 -2.7226
 3487SOL    HW221921   1.952   1.680  12.493 -0.2608  0.0923 -0.5271
 3488SOL     OW21922   4.006   4.698  16.095  0.4259 -0.0495 -0.6249
 3488SOL    HW121923   3.949   4.624  16.115 -0.7994  1.3160  0.9373
 3488SOL    HW221924   4.014   0.010  16.183  0.0412 -0.2069 -0.5270
 3489SOL     OW21925   2.543   2.407   5.626 -0.1333  0.3809  0.3357
 3489SOL    HW121926   2.556   2.369   5.539  1.2179 -1.8794  1.5196
 3489SOL    HW221927   2.466   2.364   5.662  0.0845  0.1790  0.5680
 3490SOL     OW21928   1.886   0.785   3.971 -0.0622  0.2776 -0.3658
 3490SOL    HW121929   1.890   0.787   3.875  1.5401 -1.1312 -0.3300
 3490SOL    HW221930   1.793   0.764   3.970 -0.2322  0.9847  1.5701
 3491SOL     OW21931   1.308   0.791   3.968 -0.1811 -0.3981  0.0392
 3491SOL    HW121932   1.231   0.736   3.977 -0.7348  0.2888 -0.5383
 3491SOL    HW221933   1.275   0.872   4.007  0.3074 -0.0257 -0.3165
 3492SOL     OW21934   0.667   1.813   8.720  0.1386  0.0015  0.0985
 3492SOL    HW121935   0.657   1.766   8.637  3.1473  0.8494 -0.7658
 3492SOL    HW221936   0.723   1.743   8.754 -1.3650 -0.7428  1.0369
 3493SOL     OW21937   4.195   0.101   9.221  0.4381  0.0760  0.8528
 3493SOL    HW121938   4.200   0.191   9.189 -1.2787 -0.3000 -0.4611
 3493SOL    HW221939   4.147   0.096   9.304  0.9323 -2.1469  1.0249
 3494SOL     OW21940   1.405   1.401   4.738  0.0246 -0.1581 -0.1098
 3494SOL    HW121941   1.317   1.381   4.706  0.6072 -0.7900 -1.3122
 3494SOL    HW221942   1.384   1.490   4.767  1.2622 -0.3718  1.4279
 3495SOL     OW21943   2.792   1.357  12.766 -0.3494 -0.1168  0.7913
 3495SOL    HW121944   2.849   1.421  12.807 -1.1401  0.3934  1.0890
 3495SOL    HW221945   2.762   1.401  12.686  0.0356 -0.0764  0.6698
 3496SOL     OW21946   3.427   3.572   2.479 -0.3493  0.1061  0.4928
 3496SOL    HW121947   3.384   3.639   2.531 -0.2564  0.5104  0.0452
 3496SOL    HW221948   3.513   3.565   2.521 -0.9531  1.5084  1.9706
 3497SOL     OW21949   3.290   1.253   3.297 -0.1426 -0.3823  0.0987
 3497SOL    HW121950   3.296   1.344   3.270 -0.9337 -0.5729 -0.6981
 3497SOL    HW221951   3.383   1.237   3.315 -0.4255 -0.7744  1.2706
 3498SOL     OW21952   0.928   4.394   7.120  0.2220  0.3798 -0.0681
 3498SOL    HW121953   1.003   4.353   7.077  0.1479  0.0641  0.1100
 3498SOL    HW221954   0.872   4.317   7.127 -0.8859  1.0563 -1.3572
 3499SOL     OW21955   3.022   2.783   3.511 -0.3393  0.1859 -0.0842
 3499SOL    HW121956   2.972   2.715   3.466  0.6220 -0.9545  0.5743
 3499SOL    HW221957   3.094   2.730   3.544  0.1984  0.5599 -0.6770
 3500SOL     OW21958   4.451   3.409   1.637  0.0020 -0.2339  0.0513
 3500SOL    HW121959   4.396   3.443   1.566  2.4394  1.9349 -0.7828
 3500SOL    HW221960   4.397   3.332   1.654 -1.0592  1.1262  2.9330
 3501SOL     OW21961   2.585   2.775  16.307  0.7678  0.3069 -0.2605
 3501SOL    HW121962   2.574   2.750  16.216 -2.7228 -1.5204  0.6573
 3501SOL    HW221963   2.496   2.765  16.342 -0.2767  0.8908 -2.7930
 3502SOL     OW21964   1.031   1.790   7.074 -0.3542  0.0115 -0.4259
 3502SOL    HW121965   1.018   1.845   6.998 -1.8070 -0.3436 -0.4359
 3502SOL    HW221966   1.120   1.816   7.097 -0.7246  0.7034  0.2146
 3503SOL     OW21967   2.741   0.702   8.519  0.8162  0.2544  0.0679
 3503SOL    HW121968   2.681   0.665   8.584  2.2894 -0.4557  1.0250
 3503SOL    HW221969   2.826   0.715   8.561  0.3465  0.2270  1.0240
 3504SOL     OW21970   1.091   0.402   9.143  0.2016 -0.1696 -0.2090
 3504SOL    HW121971   1.148   0.478   9.129  0.7878 -0.6271 -0.2988
 3504SOL    HW221972   1.153   0.329   9.151 -1.4944 -1.3000  2.5588
 3505SOL     OW21973   0.696   4.422   3.654  0.1019  0.0551 -0.5749
 3505SOL    HW121974   0.702   4.331   3.684 -0.3363 -0.2545 -1.4347
 3505SOL    HW221975   0.730   4.414   3.565 -0.8869 -0.2211 -0.9261
 3506SOL     OW21976   3.050   3.965   2.230  0.0160  0.4787  0.5182
 3506SOL    HW121977   3.110   3.990   2.299  2.0153 -0.9390 -0.7162
 3506SOL    HW221978   3.056   4.043   2.175  0.2940  0.2756  0.2638
 3507SOL     OW21979   3.894   1.664  13.745  0.2521  0.6324 -0.0429
 3507SOL    HW121980   3.867   1.719  13.672 -0.1389 -0.2378 -0.5543
 3507SOL    HW221981   3.978   1.700  13.773  0.0913 -0.7367  2.2774
 3508SOL     OW21982   0.188   0.802  15.343 -0.4484 -0.2544 -0.1769
 3508SOL    HW121983   0.263   0.755  15.380 -1.0502 -1.5546 -0.6112
 3508SOL    HW221984   0.167   0.867  15.409 -0.1347 -1.4726  1.1169
 3509SOL     OW21985   2.590   4.319   4.513 -0.6298 -0.6422  0.3968
 3509SOL    HW121986   2.584   4.274   4.597 -0.5066 -0.1351  0.6760
 3509SOL    HW221987   2.559   4.407   4.535  0.3614 -0.5928  1.5607
 3510SOL     OW21988   2.168   0.031  12.861  0.1005  0.1170 -0.1803
 3510SOL    HW121989   2.176   4.661  12.875 -0.4743  0.1217  0.1773
 3510SOL    HW221990   2.258   0.051  12.837  0.1680  0.3828  0.3137
 3511SOL     OW21991   3.893   2.796  10.269 -0.4340  0.3378 -0.2884
 3511SOL    HW121992   3.982   2.829  10.284  0.1709 -0.8855 -1.1714
 3511SOL    HW221993   3.893   2.786  10.174  0.5117 -0.2256 -0.2264
 3512SOL     OW21994   4.540   1.670   2.612  0.3555  0.5067  0.2626
 3512SOL    HW121995   4.454   1.628   2.601  1.0769 -1.1310  0.9298
 3512SOL    HW221996   4.597   1.595   2.630 -0.5781 -0.3243 -0.2069
 3513SOL     OW21997   2.508   1.726   6.237 -0.5649 -0.3158 -0.0994
 3513SOL    HW121998   2.599   1.742   6.211 -1.1570  0.1031 -1.9209
 3513SOL    HW221999   2.488   1.651   6.181  0.7326  1.5614 -3.1117
 3514SOL     OW22000   0.406   2.043   5.296 -0.4743  0.7759  0.4908
 3514SOL    HW122001   0.351   1.965   5.306  2.8927 -1.7062 -0.2634
 3514SOL    HW222002   0.419   2.064   5.388 -1.7024  2.1766  0.3578
 3515SOL     OW22003   2.957   0.401   5.335 -0.5089  0.1290 -0.1424
 3515SOL    HW122004   2.878   0.348   5.328  0.4636 -0.8529 -3.3292
 3515SOL    HW222005   3.023   0.350   5.289  0.3821  1.7383 -0.6442
 3516SOL     OW22006   2.143   0.703   4.059 -0.8110 -0.1531 -0.3974
 3516SOL    HW122007   2.053   0.713   4.028 -1.3133 -1.9082  0.5496
 3516SOL    HW222008   2.194   0.680   3.981 -4.2811  0.3661 -2.8009
 3517SOL     OW22009   0.301   1.771   1.443 -0.1714 -0.2762 -0.4047
 3517SOL    HW122010   0.309   1.687   1.488  0.4364 -0.4930 -0.9232
 3517SOL    HW222011   0.378   1.814   1.481 -1.4294  1.2100  0.4806
 3518SOL     OW22012   0.660   4.426  12.200  0.2463 -0.1643 -0.1288
 3518SOL    HW122013   0.708   4.344  12.214  0.4547  0.0216  0.2540
 3518SOL    HW222014   0.677   4.425  12.106 -0.1832  1.7392 -0.2244
 3519SOL     OW22015   3.042   3.149   4.528 -0.1678  0.0762 -0.0259
 3519SOL    HW122016   3.037   3.213   4.457  0.4162  2.7288  2.3651
 3519SOL    HW222017   3.126   3.111   4.500  0.1833  0.4488  0.5208
 3520SOL     OW22018   1.184   4.081  11.429  0.1770  0.2993 -0.3896
 3520SOL    HW122019   1.188   4.177  11.433  0.5245  0.2540  0.4336
 3520SOL    HW222020   1.251   4.062  11.363 -0.8291  2.2058 -1.9719
 3521SOL     OW22021   3.686   3.666  17.613 -0.5733  0.4601 -0.2646
 3521SOL    HW122022   3.641   3.585  17.590 -0.0620  0.7188 -2.1622
 3521SOL    HW222023   3.703   3.653   0.006 -0.1244 -1.5429 -0.6397
 3522SOL     OW22024   1.900   4.456   7.035 -0.7769  0.3005 -0.0075
 3522SOL    HW122025   1.899   4.546   7.068  1.1074  0.8688 -1.4898
 3522SOL    HW222026   1.985   4.462   6.991 -1.2774  0.1588 -0.9837
 3523SOL     OW22027   0.577   3.438   0.938  0.6073 -0.8533 -0.2397
 3523SOL    HW122028   0.595   3.465   1.027 -0.2309 -0.5557 -0.1595
 3523SOL    HW222029   0.581   3.525   0.899  3.1258 -0.3414  1.1682
 3524SOL     OW22030   0.045   0.481   4.387 -0.1769 -0.5892  0.1678
 3524SOL    HW122031   0.073   0.403   4.340 -2.6726 -2.0719  1.1433
 3524SOL    HW222032   4.684   0.502   4.350 -0.8028  0.6602  2.2919
 3525SOL     OW22033   3.497   1.608   8.120 -0.8136 -0.2100 -0.6835
 3525SOL    HW122034   3.432   1.575   8.057 -0.7888  0.9736 -1.3350
 3525SOL    HW222035   3.529   1.526   8.157 -0.4652 -0.1668 -0.8939
 3526SOL     OW22036   3.752   3.338   7.521  0.0987 -0.4315 -0.1362
 3526SOL    HW122037   3.742   3.300   7.608 -1.1006 -1.3417 -0.6607
 3526SOL    HW222038   3.731   3.260   7.469  3.7801 -2.2492  1.0859
 3527SOL     OW22039   1.541   1.743   5.324  0.2543  0.1236 -0.1908
 3527SOL    HW122040   1.448   1.758   5.308 -0.1131 -1.6957  0.3655
 3527SOL    HW222041   1.573   1.790   5.247 -2.5206  1.2963 -0.6363
 3528SOL     OW22042   2.529   2.096   6.102  0.0657 -0.6539  0.2676
 3528SOL    HW122043   2.511   2.129   6.014  0.5597 -0.1626  0.3492
 3528SOL    HW222044   2.624   2.088   6.102 -0.0126 -1.5105  0.2610
 3529SOL     OW22045   4.489   4.444   1.944  0.4028 -1.7494 -0.0594
 3529SOL    HW122046   4.576   4.440   1.904 -0.1234  0.1520 -1.3733
 3529SOL    HW222047   4.513   4.377   2.009  1.5261  1.6882  3.0609
 3530SOL     OW22048   4.571   3.085   6.172  0.1645 -0.2219 -0.1642
 3530SOL    HW122049   4.576   3.180   6.161 -2.9382  0.1142  1.1546
 3530SOL    HW222050   4.563   3.057   6.081 -0.8475  0.8424 -0.4070
 3531SOL     OW22051   0.092   3.644  13.070  0.1892  0.3670  0.1191
 3531SOL    HW122052   0.109   3.552  13.051 -0.3334  0.2572  0.1818
 3531SOL    HW222053   0.015   3.638  13.126  0.1762  0.0261  0.0683
 3532SOL     OW22054   4.529   1.040   9.298 -0.0958  0.1341 -0.3664
 3532SOL    HW122055   4.554   1.004   9.383 -0.6747 -1.8173 -1.0168
 3532SOL    HW222056   4.464   1.098   9.337 -0.9471 -0.4828 -0.8457
 3533SOL     OW22057   3.184   1.237   4.481  0.7833 -0.2120 -0.6162
 3533SOL    HW122058   3.157   1.270   4.395 -3.6619  1.2881  1.3215
 3533SOL    HW222059   3.273   1.270   4.486  0.7820  0.0134 -1.8725
 3534SOL     OW22060   4.353   0.421   2.966 -0.2999  0.9833 -0.0074
 3534SOL    HW122061   4.368   0.466   2.883 -2.0637  0.0013 -0.8626
 3534SOL    HW222062   4.273   0.464   2.995 -0.1067 -0.2211  2.2850
 3535SOL     OW22063   1.719   2.484   2.530 -0.7862  0.1774  0.2920
 3535SOL    HW122064   1.700   2.436   2.449 -1.1361  0.9863 -0.0980
 3535SOL    HW222065   1.633   2.513   2.559 -0.4004  1.5631  0.0341
 3536SOL     OW22066   1.885   1.685  11.948  0.1429  0.5992 -0.3585
 3536SOL    HW122067   1.870   1.777  11.970  0.7795 -0.1808  3.3464
 3536SOL    HW222068   1.812   1.638  11.987  0.3389 -1.6499 -2.7278
 3537SOL     OW22069   2.723   4.243   7.454  0.1529  0.0092  0.1536
 3537SOL    HW122070   2.796   4.253   7.392  0.9470 -3.0136  0.6041
 3537SOL    HW222071   2.672   4.323   7.445 -1.8939 -1.0189  2.6199
 3538SOL     OW22072   0.763   1.163   2.837  0.2349  0.1513  0.1760
 3538SOL    HW122073   0.751   1.081   2.790 -2.8669 -0.7622  2.4975
 3538SOL    HW222074   0.827   1.135   2.903  0.6552  2.2303  0.6817
 3539SOL     OW22075   3.632   3.009  14.675  0.3431  0.0664  0.1147
 3539SOL    HW122076   3.539   3.033  14.672 -0.4169 -2.6781  2.3877
 3539SOL    HW222077   3.662   3.035  14.762 -2.4395  1.9460  0.5375
 3540SOL     OW22078   1.167   0.362   7.435  0.1260  0.2895  0.0359
 3540SOL    HW122079   1.162   0.375   7.340  0.1650 -1.3281 -0.1938
 3540SOL    HW222080   1.239   0.303   7.458  1.3727  2.3295  1.3880
 3541SOL     OW22081   2.024   0.993   3.057 -0.5457 -0.1043 -0.1719
 3541SOL    HW122082   2.023   0.898   3.069 -0.1792 -0.3923 -2.3307
 3541SOL    HW222083   1.983   0.991   2.970  1.2652 -1.4210 -1.0076
 3542SOL     OW22084   4.717   3.218   4.676 -0.7686 -0.4798 -0.1128
 3542SOL    HW122085   0.063   3.161   4.646  1.9278  2.0952  1.4209
 3542SOL    HW222086   0.036   3.258   4.751 -0.3252 -2.1774  0.5343
 3543SOL     OW22087   0.576   2.002   7.032  0.2974 -0.2029  0.1731
 3543SOL    HW122088   0.633   2.023   7.106  2.1826 -0.9395 -1.0616
 3543SOL    HW222089   0.552   1.909   7.033  2.0615 -0.6526  0.6241
 3544SOL     OW22090   0.198   2.052   6.431 -0.3044 -0.8043 -0.0086
 3544SOL    HW122091   0.212   1.975   6.376  0.1150 -0.8817  0.2079
 3544SOL    HW222092   0.130   2.026   6.493  0.7136 -4.8643 -0.5694
 3545SOL     OW22093   3.945   1.123   6.702  0.1522  0.2477  0.2413
 3545SOL    HW122094   3.867   1.125   6.647 -0.1550  0.4236  0.6870
 3545SOL    HW222095   3.972   1.209   6.669  0.6370 -0.1066 -0.2876
 3546SOL     OW22096   3.127   3.677   5.976  0.0101  0.6387 -0.0033
 3546SOL    HW122097   3.077   3.655   5.898  1.8023 -1.9419 -0.4343
 3546SOL    HW222098   3.170   3.591   5.973 -1.5885 -0.2845  2.9658
 3547SOL     OW22099   1.783   0.765  10.752 -0.0055  0.0760  0.1985
 3547SOL    HW122100   1.757   0.856  10.741  0.4387  0.3791  1.7614
 3547SOL    HW222101   1.695   0.728  10.744  0.4068 -0.8120 -0.2903
 3548SOL     OW22102   2.612   0.483  10.958 -0.4911 -0.3926  0.2881
 3548SOL    HW122103   2.599   0.521  10.871 -1.4422  0.1528  0.6697
 3548SOL    HW222104   2.538   0.423  10.967 -0.4557 -0.8122 -2.2518
 3549SOL     OW22105   2.942   0.600  15.123 -0.1254 -0.5999 -0.7620
 3549SOL    HW122106   2.889   0.521  15.133  1.0325 -1.3084 -0.1756
 3549SOL    HW222107   3.020   0.569  15.076  1.5683  0.1720  1.5357
 3550SOL     OW22108   3.446   0.205  13.783 -0.3431 -0.2277 -0.1740
 3550SOL    HW122109   3.449   0.290  13.827  1.0164  0.2270 -1.1657
 3550SOL    HW222110   3.520   0.157  13.819  0.6737  1.3971 -0.0935
 3551SOL     OW22111   3.593   1.410   0.601  0.5809 -0.2417 -0.3955
 3551SOL    HW122112   3.605   1.390   0.508 -2.8598 -0.5532 -0.7837
 3551SOL    HW222113   3.503   1.445   0.602  1.0315  0.9292 -1.3625
 3552SOL     OW22114   3.522   4.293   7.323 -0.3875  0.1708 -0.3436
 3552SOL    HW122115   3.551   4.252   7.404  0.6004  0.1122 -0.7264
 3552SOL    HW222116   3.430   4.270   7.325 -0.4653  0.5898  1.0879
 3553SOL     OW22117   3.697   0.913   2.340 -0.1375 -0.2716  0.8204
 3553SOL    HW122118   3.666   0.873   2.258 -0.3576  1.9543 -0.2087
 3553SOL    HW222119   3.659   1.001   2.340 -1.4842 -0.8126 -2.6381
 3554SOL     OW22120   0.897   4.530   3.204  0.1212 -0.1586 -0.6059
 3554SOL    HW122121   0.837   4.602   3.181  1.5309  1.7356  1.6060
 3554SOL    HW222122   0.927   4.490   3.122 -0.3007  0.7104 -1.1974
 3555SOL     OW22123   2.717   0.216   6.189  0.5291  0.3762  0.6621
 3555SOL    HW122124   2.775   0.279   6.230  2.5062 -1.1721  0.2335
 3555SOL    HW222125   2.775   0.141   6.174 -0.3010  0.6271 -3.8116
 3556SOL     OW22126   3.092   4.361   3.189 -0.2365 -0.1146  0.2398
 3556SOL    HW122127   3.068   4.441   3.143  0.8073 -0.3528 -0.7158
 3556SOL    HW222128   3.152   4.320   3.127 -1.1258  0.9828 -1.3580
 3557SOL     OW22129   2.707   0.701   8.253 -0.0639  0.0974  0.2664
 3557SOL    HW122130   2.700   0.683   8.347  0.2784  1.1502  0.4948
 3557SOL    HW222131   2.782   0.761   8.247  0.2783 -0.3580 -0.0244
 3558SOL     OW22132   0.507   2.539  15.204  0.6747  0.3094 -0.3949
 3558SOL    HW122133   0.447   2.605  15.171 -0.0496 -0.4412 -0.5645
 3558SOL    HW222134   0.533   2.586  15.284 -0.3532  1.6571 -0.8540
 3559SOL     OW22135   3.262   0.469   0.088  0.3150  0.5179  0.0878
 3559SOL    HW122136   3.301   0.436   0.007  1.0590 -1.1664  1.1264
 3559SOL    HW222137   3.197   0.399   0.100  0.2088  0.6365  0.2045
 3560SOL     OW22138   2.769   3.908   6.508 -0.0039  0.5811  0.1084
 3560SOL    HW122139   2.805   3.920   6.596 -1.5522 -2.6546  1.1681
 3560SOL    HW222140   2.676   3.929   6.515  0.2444  2.1255 -1.1861
 3561SOL     OW22141   1.223   2.920   7.909 -0.2100  0.1467 -0.0372
 3561SOL    HW122142   1.245   2.910   8.001 -3.1734 -0.7496  0.5707
 3561SOL    HW222143   1.185   3.008   7.908 -0.9280 -0.1752 -1.0857
 3562SOL     OW22144   2.162   2.552   5.413 -0.3485  0.0657 -0.1532
 3562SOL    HW122145   2.200   2.634   5.445 -0.1042 -0.2179  0.2904
 3562SOL    HW222146   2.144   2.581   5.324  1.5435  2.1157  0.1482
 3563SOL     OW22147   1.785   4.519   8.350  0.2441  0.0381  0.4285
 3563SOL    HW122148   1.772   4.602   8.396 -0.5773 -0.1277  0.4976
 3563SOL    HW222149   1.855   4.549   8.293 -0.3138  0.3867 -0.0797
 3564SOL     OW22150   3.990   2.905   0.497 -0.1905 -0.0159 -0.2239
 3564SOL    HW122151   4.055   2.969   0.468  0.3238 -0.1327  0.6947
 3564SOL    HW222152   3.951   2.954   0.569  1.1507 -2.4147  2.1319
 3565SOL     OW22153   0.231   1.998   3.531  0.1068 -0.3194  0.7214
 3565SOL    HW122154   0.187   1.913   3.540  0.4656 -0.3392  2.3943
 3565SOL    HW222155   0.173   2.043   3.470 -1.3473 -1.0816  1.5211
 3566SOL     OW22156   2.663   0.747  11.011 -0.1236 -0.2878  0.2157
 3566SOL    HW122157   2.639   0.657  10.991 -2.2887  0.1299  0.9751
 3566SOL    HW222158   2.750   0.740  11.052  0.5423  0.6541 -1.0750
 3567SOL     OW22159   0.756   2.002   9.059  0.0044 -0.3105 -0.5224
 3567SOL    HW122160   0.707   2.064   9.005 -0.8447 -0.7731 -0.2854
 3567SOL    HW222161   0.773   2.050   9.140 -0.3842  2.2370 -1.9486
 3568SOL     OW22162   0.429   2.123   7.448 -0.3054 -0.4327  0.0614
 3568SOL    HW122163   0.406   2.164   7.531  0.4838  1.8425 -0.8400
 3568SOL    HW222164   0.501   2.062   7.464  1.4926  1.6223 -0.1286
 3569SOL     OW22165   4.723   0.105   7.115  0.3231 -0.3673  0.1026
 3569SOL    HW122166   0.064   0.173   7.126 -1.5094  1.5417 -0.5901
 3569SOL    HW222167   4.712   0.082   7.207 -0.6636  2.0614  0.6066
 3570SOL     OW22168   1.894   2.883   8.573 -0.0672 -0.1230 -0.5994
 3570SOL    HW122169   1.853   2.969   8.562 -3.4296 -1.4590  1.2785
 3570SOL    HW222170   1.982   2.912   8.597 -0.4771 -0.0904  0.8750
 3571SOL     OW22171   4.715   2.870   2.224 -0.2495 -0.2327 -0.3696
 3571SOL    HW122172   4.694   2.963   2.216 -0.2125 -0.1373  0.7174
 3571SOL    HW222173   4.648   2.832   2.280 -1.4607 -0.3116 -1.8702
 3572SOL     OW22174   3.222   1.286  15.079 -0.1304 -0.9290  0.4627
 3572SOL    HW122175   3.287   1.333  15.131 -0.5892 -0.1697  0.3449
 3572SOL    HW222176   3.273   1.285  14.998  0.9722  2.0871  1.1127
 3573SOL     OW22177   1.488   2.824   7.080  0.0625  0.3167  0.4463
 3573SOL    HW122178   1.520   2.910   7.053 -0.5581  0.9536  1.7625
 3573SOL    HW222179   1.540   2.802   7.157 -0.1621 -1.4007  0.1062
 3574SOL     OW22180   4.036   1.851   0.329  0.5611  0.1731 -0.0529
 3574SOL    HW122181   3.984   1.797   0.269  1.0129 -0.7373  0.3760
 3574SOL    HW222182   3.974   1.887   0.392  2.8412  1.6146  1.3337
 3575SOL     OW22183   1.180   4.284   8.029  0.1506  0.6986 -0.0379
 3575SOL    HW122184   1.215   4.336   7.957 -0.7809  0.8094 -0.4109
 3575SOL    HW222185   1.096   4.330   8.035 -2.4251 -3.7790 -1.3017
 3576SOL     OW22186   4.689   1.043   5.463 -0.0372  0.4302 -0.4969
 3576SOL    HW122187   4.682   0.970   5.524 -2.2323  0.3269 -0.8745
 3576SOL    HW222188   4.617   1.041   5.399 -1.6332  0.4659  1.3047
 3577SOL     OW22189   1.387   1.174   5.687 -0.0363  0.0191  0.0150
 3577SOL    HW122190   1.408   1.144   5.776  2.4180 -0.3338 -0.6974
 3577SOL    HW222191   1.350   1.261   5.703 -1.6434 -0.7033  0.2871
 3578SOL     OW22192   0.348   1.145   8.692 -0.5460 -0.0135  0.2007
 3578SOL    HW122193   0.300   1.195   8.758  0.6963  2.4578 -0.7781
 3578SOL    HW222194   0.359   1.061   8.736 -1.1078  0.6134  1.5321
 3579SOL     OW22195   1.591   1.005   7.705  0.4712  0.4813 -0.6485
 3579SOL    HW122196   1.594   0.941   7.634 -0.5227 -2.3995  1.9245
 3579SOL    HW222197   1.501   0.996   7.736  0.3813 -1.2961 -1.4058
 3580SOL     OW22198   1.441   3.519  16.384 -0.1378 -0.5436 -0.3214
 3580SOL    HW122199   1.429   3.444  16.442  0.9610 -0.9635 -0.6357
 3580SOL    HW222200   1.536   3.529  16.393 -0.4739  1.6901  0.9125
 3581SOL     OW22201   0.908   3.669   4.775 -0.2417 -0.6574 -0.6358
 3581SOL    HW122202   0.905   3.682   4.870 -0.9736 -0.9158 -0.6237
 3581SOL    HW222203   0.883   3.579   4.758  0.8554 -0.9631 -0.6629
 3582SOL     OW22204   4.664   4.593   7.012  0.2741  0.1468 -0.4652
 3582SOL    HW122205   4.681   4.638   6.929 -0.4480  0.4315 -0.4608
 3582SOL    HW222206   4.700   4.664   7.065  0.5476  0.5866 -1.2441
 3583SOL     OW22207   3.101   4.260   2.788 -0.0057  0.0237 -0.1458
 3583SOL    HW122208   3.064   4.232   2.872  1.3405  0.4308  0.5867
 3583SOL    HW222209   3.073   4.351   2.773  0.0543  0.3083  1.4347
 3584SOL     OW22210   1.972   0.799   7.655  0.1589 -0.6279  0.6918
 3584SOL    HW122211   1.974   0.874   7.595 -1.4134 -0.4690  0.8482
 3584SOL    HW222212   1.924   0.843   7.725  0.1199  0.7400 -0.1942
 3585SOL     OW22213   3.042   0.579   4.038  0.0929  0.0290 -0.1719
 3585SOL    HW122214   3.069   0.493   4.006 -1.5103 -0.7801  0.6566
 3585SOL    HW222215   3.088   0.638   3.977 -1.3765 -0.2412 -1.5254
 3586SOL     OW22216   0.145   2.884   3.067 -0.2412 -0.0530  0.5411
 3586SOL    HW122217   0.101   2.922   3.143 -0.3372 -0.2608  0.5874
 3586SOL    HW222218   0.233   2.905   3.099 -1.6942  2.3580  2.9778
 3587SOL     OW22219   1.004   4.024   4.080 -0.1641  0.0906  0.2374
 3587SOL    HW122220   1.028   4.091   4.016  1.2248 -0.2212  0.4202
 3587SOL    HW222221   1.088   3.985   4.103 -0.7120  0.1471  2.3226
 3588SOL     OW22222   2.563   2.714   1.821 -0.5219  0.2874 -0.0718
 3588SOL    HW122223   2.534   2.805   1.813  1.7505  0.7269 -3.1254
 3588SOL    HW222224   2.482   2.672   1.850 -1.1188  1.4217 -0.0657
 3589SOL     OW22225   0.374   4.502   4.876  0.3568  0.0528 -0.4003
 3589SOL    HW122226   0.355   4.506   4.970  2.0314  2.1229 -0.1306
 3589SOL    HW222227   0.411   4.591   4.872 -2.0046  1.0460  0.2173
 3590SOL     OW22228   3.955   1.645   6.710 -0.0028 -0.1937  0.2053
 3590SOL    HW122229   3.954   1.741   6.721 -2.9202  0.0585 -2.3213
 3590SOL    HW222230   3.956   1.641   6.615 -4.6143 -1.2853  0.1867
 3591SOL     OW22231   3.726   0.833   6.724 -0.6364 -0.1148 -0.0193
 3591SOL    HW122232   3.652   0.811   6.781  1.5143  1.4275  3.3846
 3591SOL    HW222233   3.682   0.913   6.696  2.0767  0.6068 -2.1877
 3592SOL     OW22234   3.731   0.991  12.146  0.2518 -0.2833  0.1078
 3592SOL    HW122235   3.665   1.034  12.200  0.7637  0.0275  0.4881
 3592SOL    HW222236   3.740   1.048  12.069  1.9079 -0.8013 -0.0778
 3593SOL     OW22237   3.123   0.552   8.964  0.3581  0.6501  0.2809
 3593SOL    HW122238   3.063   0.507   8.905  1.2122 -2.5980  1.8788
 3593SOL    HW222239   3.150   0.626   8.909  3.7685 -1.4829 -0.8544
 3594SOL     OW22240   1.389   1.030  16.873  0.0999  0.0199 -0.4902
 3594SOL    HW122241   1.331   0.993  16.939  0.2433  0.8079  0.0787
 3594SOL    HW222242   1.328   1.087  16.825  0.2155  0.4070 -0.1741
 3595SOL     OW22243   4.054   3.506   4.348  0.4683 -0.0973  0.6776
 3595SOL    HW122244   4.137   3.483   4.305  0.2154  1.7252 -0.8074
 3595SOL    HW222245   4.078   3.495   4.440  3.7036 -1.8376 -0.3472
 3596SOL     OW22246   0.913   0.032   5.130  0.1766 -0.1121 -0.3295
 3596SOL    HW122247   0.975   0.087   5.179  0.9955  0.7372 -2.3506
 3596SOL    HW222248   0.864   0.101   5.086 -0.9813 -0.4606  0.4279
 3597SOL     OW22249   0.195   1.960   7.926  0.5918 -0.1761 -1.1560
 3597SOL    HW122250   0.182   1.911   7.844 -0.6174 -1.5008 -0.1635
 3597SOL    HW222251   0.174   2.047   7.894 -0.8881  0.5093  1.7332
 3598SOL     OW22252   0.479   1.882   1.603  0.1637  0.3721 -0.3120
 3598SOL    HW122253   0.491   1.972   1.632  0.3764  0.7423 -1.5333
 3598SOL    HW222254   0.506   1.830   1.679 -0.0360  0.7983  0.0542
 3599SOL     OW22255   0.193   3.427   3.752  0.4783  0.8032  0.0814
 3599SOL    HW122256   0.264   3.489   3.771 -0.9953  1.7599  2.4741
 3599SOL    HW222257   0.176   3.392   3.840 -1.1237  0.8101 -0.2308
 3600SOL     OW22258   0.967   1.095   4.166 -0.1991  0.2634 -0.0555
 3600SOL    HW122259   1.021   1.161   4.208  1.4414  0.1315 -1.9157
 3600SOL    HW222260   0.886   1.100   4.215 -1.2382 -0.5111 -1.6918
 3601SOL     OW22261   1.788   4.450   0.395  0.0484 -0.0265 -0.4570
 3601SOL    HW122262   1.779   4.545   0.380  0.9746  0.2605  0.7657
 3601SOL    HW222263   1.872   4.436   0.352 -0.2326 -1.8535 -0.3960
 3602SOL     OW22264   3.413   4.157   3.866 -0.3955  0.1479 -0.9715
 3602SOL    HW122265   3.449   4.188   3.950 -0.3014 -0.1864 -0.8860
 3602SOL    HW222266   3.448   4.220   3.803 -0.5422 -0.4144 -1.6194
 3603SOL     OW22267   2.299   1.437   7.659 -0.7859  0.4361 -0.3306
 3603SOL    HW122268   2.362   1.392   7.716 -2.0296  0.3398  0.9846
 3603SOL    HW222269   2.304   1.388   7.577 -0.0207  1.6937 -1.0254
 3604SOL     OW22270   4.100   2.018   4.464  0.1028  0.1887  0.8180
 3604SOL    HW122271   4.116   1.962   4.388 -1.6511  3.6170 -2.0781
 3604SOL    HW222272   4.083   2.101   4.421 -0.1327 -0.3476 -0.1252
 3605SOL     OW22273   2.697   1.606  15.682  0.2150 -0.0291 -0.5337
 3605SOL    HW122274   2.723   1.680  15.627  2.4266 -1.0523 -0.8694
 3605SOL    HW222275   2.665   1.542  15.618  2.4936 -0.1477 -1.5352
 3606SOL     OW22276   0.307   0.499   4.127 -0.1538 -0.1664 -0.1503
 3606SOL    HW122277   0.367   0.535   4.193 -1.4423  1.4694  0.1331
 3606SOL    HW222278   0.303   0.572   4.066 -1.5238 -1.2150 -1.3165
 3607SOL     OW22279   3.451   0.373   5.726 -0.3102 -0.1929  0.1381
 3607SOL    HW122280   3.482   0.375   5.635 -1.0269  3.0670 -0.0338
 3607SOL    HW222281   3.378   0.430   5.699 -0.3254  0.7668  2.2258
 3608SOL     OW22282   3.826   0.165   2.263 -0.1850 -0.0192  0.5935
 3608SOL    HW122283   3.777   0.165   2.180  1.5943  0.0438 -0.4586
 3608SOL    HW222284   3.888   0.238   2.259 -1.4732  1.0095 -0.4930
 3609SOL     OW22285   3.711   0.723   8.451 -0.0443  0.4451  0.3364
 3609SOL    HW122286   3.640   0.661   8.443 -0.4924  0.8622  0.9936
 3609SOL    HW222287   3.754   0.683   8.527 -0.6654 -0.9925 -0.0805
 3610SOL     OW22288   0.556   0.905   0.698 -0.3730 -0.0082 -0.4943
 3610SOL    HW122289   0.476   0.905   0.750  0.2493  0.1174  0.4598
 3610SOL    HW222290   0.547   0.817   0.662  2.9058 -1.0611  1.1662
 3611SOL     OW22291   2.920   2.599   5.411 -0.0357  0.1769 -0.1980
 3611SOL    HW122292   2.887   2.576   5.497 -1.2847 -0.5977 -0.8918
 3611SOL    HW222293   2.933   2.510   5.379  1.0362  0.1707  0.2494
 3612SOL     OW22294   0.016   3.585   5.022  0.3326 -0.4465 -0.5576
 3612SOL    HW122295   0.091   3.615   5.074  0.8885 -0.6532 -1.2387
 3612SOL    HW222296   0.026   3.655   4.958 -1.9496 -0.3778 -0.8112
 3613SOL     OW22297   3.697   1.502   4.310 -0.7761  0.5073  0.5179
 3613SOL    HW122298   3.710   1.479   4.218 -0.2141 -0.0612  0.7352
 3613SOL    HW222299   3.655   1.587   4.299 -1.9494  0.0854  1.8380
 3614SOL     OW22300   3.124   1.688   7.612  0.8126 -0.0031 -0.0463
 3614SOL    HW122301   3.072   1.750   7.662  1.9493  1.3466 -0.5594
 3614SOL    HW222302   3.194   1.740   7.573  1.8946 -0.6766  1.0014
 3615SOL     OW22303   4.473   0.604  11.201 -0.1058 -0.2978 -0.0511
 3615SOL    HW122304   4.531   0.572  11.270  1.3479 -0.2416 -1.2287
 3615SOL    HW222305   4.465   0.523  11.151  1.3926 -1.0171  0.8942
 3616SOL     OW22306   1.153   2.112  11.344  0.0110  0.3909  0.5722
 3616SOL    HW122307   1.231   2.090  11.395 -0.3676 -1.1256  0.5097
 3616SOL    HW222308   1.101   2.032  11.335 -1.1041  1.3491 -1.4589
 3617SOL     OW22309   1.031   1.465  16.241  0.4001 -0.1966 -0.5892
 3617SOL    HW122310   1.099   1.531  16.229  1.2222 -0.4625  2.5001
 3617SOL    HW222311   1.005   1.503  16.324  0.2496 -0.5236 -0.4851
 3618SOL     OW22312   4.260   1.582   2.165  0.4276 -0.0352  0.0927
 3618SOL    HW122313   4.244   1.533   2.246  1.4718 -2.1073 -0.9455
 3618SOL    HW222314   4.231   1.670   2.188 -0.9458 -0.0464 -1.6126
 3619SOL     OW22315   4.225   0.806   7.037  0.4337 -0.1503 -0.0032
 3619SOL    HW122316   4.135   0.776   7.049  0.9073 -1.4666  0.2940
 3619SOL    HW222317   4.210   0.832   6.947  0.3612  1.7398  0.5561
 3620SOL     OW22318   3.065   2.010   3.474  0.2556 -0.7689  0.2171
 3620SOL    HW122319   3.078   2.007   3.569  2.8446 -0.1934 -0.1351
 3620SOL    HW222320   2.982   2.058   3.469  0.5889 -0.4654 -2.2142
 3621SOL     OW22321   0.100   2.481   6.063 -0.8306 -0.2138 -0.1741
 3621SOL    HW122322   0.180   2.531   6.049  1.6991 -3.8668  1.1941
 3621SOL    HW222323   0.134   2.393   6.081 -0.2112 -0.1203 -0.9009
 3622SOL     OW22324   1.250   3.814   8.467  0.0785  0.2939 -0.0042
 3622SOL    HW122325   1.239   3.726   8.504 -0.9301 -0.2613 -1.6017
 3622SOL    HW222326   1.338   3.837   8.497 -0.0846  1.5099 -0.4825
 3623SOL     OW22327   4.593   2.196  17.251  0.3394 -0.7784  0.6444
 3623SOL    HW122328   4.498   2.203  17.244  0.4278 -1.3352 -1.0715
 3623SOL    HW222329   4.598   2.222  17.343  1.0795  0.1368  0.3471
 3624SOL     OW22330   1.425   2.966   3.739  0.0412 -0.6157 -0.0845
 3624SOL    HW122331   1.449   2.980   3.647  2.6417  0.9657  0.8343
 3624SOL    HW222332   1.509   2.936   3.775  0.4507  1.4926  0.6825
 3625SOL     OW22333   2.196   1.830   6.155 -0.1781  0.6372  0.2154
 3625SOL    HW122334   2.107   1.796   6.144  0.2395 -0.6423  0.8299
 3625SOL    HW222335   2.179   1.923   6.141 -1.1538  0.5883  1.0266
 3626SOL     OW22336   0.694   2.452   7.406 -0.3401 -0.3114 -0.2999
 3626SOL    HW122337   0.720   2.495   7.325  0.0548 -0.1035 -0.0613
 3626SOL    HW222338   0.616   2.402   7.383  2.0737 -2.9453 -2.9686
 3627SOL     OW22339   3.968   4.168   5.033  0.3125 -0.0584 -0.3630
 3627SOL    HW122340   3.915   4.122   4.968 -2.0996 -0.0060  1.5655
 3627SOL    HW222341   3.958   4.109   5.108 -0.5741 -1.3048 -1.4512
 3628SOL     OW22342   0.936   0.985   7.033  0.3176  0.5061  0.2328
 3628SOL    HW122343   0.963   0.895   7.014 -0.1524  0.8625 -2.1123
 3628SOL    HW222344   0.986   1.013   7.110  0.8620  0.6089 -0.1595
 3629SOL     OW22345   1.322   3.296  13.365 -0.5870 -0.0288 -0.4495
 3629SOL    HW122346   1.294   3.251  13.286  0.5084 -2.3875  0.5240
 3629SOL    HW222347   1.242   3.290  13.418 -1.7622  0.2043 -2.2034
 3630SOL     OW22348   3.094   0.039   8.527 -0.1287  0.1123 -0.0004
 3630SOL    HW122349   3.144   0.064   8.449  0.1429 -0.5424 -0.0332
 3630SOL    HW222350   3.004   0.045   8.494 -0.7060  2.7058  2.0149
 3631SOL     OW22351   3.811   0.720   7.990  0.0371 -0.6549 -0.2092
 3631SOL    HW122352   3.777   0.777   8.058  1.5160 -2.7773  2.2858
 3631SOL    HW222353   3.891   0.676   8.018 -0.4596 -2.0508 -0.9481
 3632SOL     OW22354   1.891   3.324   2.961  0.0625  0.1703  0.3524
 3632SOL    HW122355   1.966   3.379   2.936  1.2369 -1.4597  0.3135
 3632SOL    HW222356   1.932   3.283   3.037 -1.2955  0.2119  1.0982
 3633SOL     OW22357   2.699   2.293   0.341 -0.2191 -0.0239 -0.2572
 3633SOL    HW122358   2.604   2.281   0.337 -0.1077 -0.9962  0.0898
 3633SOL    HW222359   2.705   2.311   0.247 -1.4009  1.2949 -0.0845
 3634SOL     OW22360   3.321   0.914  16.067 -0.7389 -0.0337 -0.8159
 3634SOL    HW122361   3.226   0.921  16.057 -0.7651  1.6996  0.6044
 3634SOL    HW222362   3.354   0.998  16.098  0.1655 -0.7895  0.2662
 3635SOL     OW22363   3.067   2.802   6.308 -0.1094 -0.0020  0.0909
 3635SOL    HW122364   3.057   2.776   6.216  2.1974 -1.6423  0.2997
 3635SOL    HW222365   3.038   2.892   6.297 -1.7063 -0.8599 -2.8271
 3636SOL     OW22366   2.058   0.669   1.719 -0.4937 -0.3096 -0.5402
 3636SOL    HW122367   2.033   0.758   1.695 -0.0457 -0.2812 -0.9095
 3636SOL    HW222368   2.005   0.631   1.649  0.1281 -2.0930 -0.0432
 3637SOL     OW22369   2.761   1.880   8.345  0.5174  0.4136  0.0351
 3637SOL    HW122370   2.681   1.832   8.327  1.8753 -1.4812 -0.9845
 3637SOL    HW222371   2.733   1.960   8.300  0.2074 -0.1574 -0.7888
 3638SOL     OW22372   0.940   3.701  17.676  0.1993 -0.3487 -0.0476
 3638SOL    HW122373   0.912   3.748  17.597  2.2750  0.7277 -0.1565
 3638SOL    HW222374   0.861   3.653  17.700 -0.2209  0.1408 -0.4522
 3639SOL     OW22375   3.946   0.375  14.172 -0.6728  0.1634  0.3758
 3639SOL    HW122376   3.856   0.392  14.143 -1.8564 -2.8999  2.3360
 3639SOL    HW222377   3.988   0.371  14.085 -1.8713  1.7963 -0.2728
 3640SOL     OW22378   2.323   0.896  10.960 -0.4181 -0.2978 -0.1013
 3640SOL    HW122379   2.378   0.874  10.885  0.5351  1.2281  0.1483
 3640SOL    HW222380   2.349   0.828  11.022  0.8383  0.1549 -0.1266
 3641SOL     OW22381   4.342   0.177   7.693  0.4553 -0.1218 -0.4904
 3641SOL    HW122382   4.368   0.133   7.612  0.6297 -0.2704 -0.3544
 3641SOL    HW222383   4.415   0.237   7.712  0.6159 -0.9546  1.4751
 3642SOL     OW22384   1.225   1.202  16.707 -0.0313  0.0843  0.3293
 3642SOL    HW122385   1.149   1.257  16.725  1.8084  2.9586 -0.6925
 3642SOL    HW222386   1.179   1.121  16.687  0.4949 -0.2204  0.3553
 3643SOL     OW22387   1.999   1.125   7.901 -0.0444 -0.0659 -0.2908
 3643SOL    HW122388   2.026   1.127   7.809 -0.8528  2.6212 -0.4768
 3643SOL    HW222389   1.966   1.036   7.896  1.5988 -0.8670  3.1540
 3644SOL     OW22390   4.243   2.149  12.733 -0.0764 -0.6312  0.1437
 3644SOL    HW122391   4.163   2.150  12.785  0.1548 -1.2627  0.5107
 3644SOL    HW222392   4.257   2.055  12.732 -0.7527 -0.7414  2.1893
 3645SOL     OW22393   0.520   2.709   3.435 -0.0918 -0.7719 -0.2701
 3645SOL    HW122394   0.550   2.648   3.502 -0.0930  0.2353  0.6324
 3645SOL    HW222395   0.433   2.668   3.430 -0.5880  0.3247 -0.5583
 3646SOL     OW22396   0.383   2.238   5.090 -0.2379  0.4625 -0.1571
 3646SOL    HW122397   0.336   2.175   5.035 -2.5428  1.8533  0.2148
 3646SOL    HW222398   0.386   2.194   5.175 -0.3539  1.4100  0.3310
 3647SOL     OW22399   0.476   0.985   5.899  0.0131 -0.0701  0.8367
 3647SOL    HW122400   0.400   0.971   5.843  0.1682  0.4507  0.4897
 3647SOL    HW222401   0.517   1.057   5.849 -0.3140 -0.8629 -0.5872
 3648SOL     OW22402   3.668   0.098   2.021 -0.3109 -0.0146 -0.2068
 3648SOL    HW122403   3.606   0.026   2.029 -1.1025  0.9008  2.1371
 3648SOL    HW222404   3.620   0.165   1.973 -0.8261  0.2232  0.6274
 3649SOL     OW22405   2.783   1.436  10.595  0.3067  0.0947 -0.3807
 3649SOL    HW122406   2.774   1.359  10.651 -0.0623  0.1652 -0.3382
 3649SOL    HW222407   2.727   1.399  10.526  1.7973 -1.4874 -0.7226
 3650SOL     OW22408   1.490   0.430   5.925  0.8985 -0.4385 -0.0848
 3650SOL    HW122409   1.462   0.356   5.979  1.0409 -1.6196 -1.6439
 3650SOL    HW222410   1.459   0.392   5.843  1.3344 -1.3150  0.1531
 3651SOL     OW22411   3.211   1.792   2.623  0.7059  0.0327  0.4252
 3651SOL    HW122412   3.244   1.865   2.571 -0.8360  0.1531 -0.3766
 3651SOL    HW222413   3.277   1.725   2.606  1.6131  0.9937  0.1398
 3652SOL     OW22414   4.064   1.786   5.222 -0.1256 -0.0338 -0.2532
 3652SOL    HW122415   4.046   1.692   5.218  1.6550 -0.4348  1.0920
 3652SOL    HW222416   3.976   1.821   5.234  0.1492  1.2448 -2.0230
 3653SOL     OW22417   4.432   1.325   6.362 -0.0880 -0.3459  0.1053
 3653SOL    HW122418   4.445   1.288   6.275 -1.2385 -0.4458 -0.0325
 3653SOL    HW222419   4.337   1.323   6.378 -0.5466 -1.0996 -2.6526
 3654SOL     OW22420   4.698   1.121   4.384  0.5269 -0.1931 -0.1597
 3654SOL    HW122421   4.646   1.174   4.444 -0.4442  0.4469 -1.5528
 3654SOL    HW222422   0.001   1.196   4.332  0.1444 -0.4385 -0.7251
 3655SOL     OW22423   0.674   2.958   7.889  0.1827  0.3815 -0.0500
 3655SOL    HW122424   0.727   2.920   7.819  0.6609  1.2079 -0.1366
 3655SOL    HW222425   0.589   2.952   7.845 -0.4586  2.5248  0.9258
 3656SOL     OW22426   4.681   3.650   2.176 -0.4268 -0.7136  0.3982
 3656SOL    HW122427   4.722   3.619   2.256 -0.7753 -1.9733  0.0900
 3656SOL    HW222428   4.679   3.562   2.139  4.1098 -0.5698 -0.1518
 3657SOL     OW22429   4.536   2.091   8.954 -0.1681  0.1316 -0.0024
 3657SOL    HW122430   4.481   2.151   9.003 -1.6497 -1.9674  0.9052
 3657SOL    HW222431   4.617   2.127   8.991  0.9294 -1.2907 -0.9726
 3658SOL     OW22432   2.639   1.053   3.203  0.3307 -0.1807 -0.0414
 3658SOL    HW122433   2.587   1.034   3.124  1.7136  0.6238 -1.1558
 3658SOL    HW222434   2.697   1.122   3.172  0.0450  1.0178  2.1326
 3659SOL     OW22435   0.119   4.287   1.702 -0.2786  0.2068 -0.2428
 3659SOL    HW122436   0.157   4.264   1.617  2.0184  0.2091  0.7911
 3659SOL    HW222437   0.092   4.200   1.731 -1.2386  1.1852  1.8184
 3660SOL     OW22438   1.087   0.332   3.988  0.5172  0.0470 -0.7511
 3660SOL    HW122439   1.041   0.335   4.071  1.8516 -0.5572  0.0088
 3660SOL    HW222440   1.134   0.249   3.987 -0.5992 -0.5805 -0.8906
 3661SOL     OW22441   1.324   4.112   5.288  0.0828  0.2176 -0.2731
 3661SOL    HW122442   1.387   4.043   5.310 -1.4097 -1.3272 -0.8142
 3661SOL    HW222443   1.291   4.083   5.203 -0.9325  0.1571  0.1405
 3662SOL     OW22444   1.397   3.140   6.201  0.3806 -0.5867  0.3559
 3662SOL    HW122445   1.346   3.106   6.127 -0.8918  0.0259  0.9595
 3662SOL    HW222446   1.350   3.098   6.273 -1.6039  2.4831  0.8341
 3663SOL     OW22447   0.789   2.612   4.927 -0.5986  0.3150 -0.5368
 3663SOL    HW122448   0.864   2.651   4.973  0.4094 -1.3874 -0.7335
 3663SOL    HW222449   0.746   2.578   5.005  2.0530 -1.2279  0.2511
 3664SOL     OW22450   2.440   4.495  16.241  0.9514 -0.6551 -0.5768
 3664SOL    HW122451   2.501   4.425  16.262  1.9524  0.3786 -0.0565
 3664SOL    HW222452   2.454   4.548  16.319  0.4719  0.2446 -1.0963
 3665SOL     OW22453   0.435   1.545  10.155  0.0977 -0.2335  0.6058
 3665SOL    HW122454   0.347   1.549  10.193 -0.8334 -1.1324 -1.4805
 3665SOL    HW222455   0.503   1.534  10.221  1.3226  1.4919 -0.3661
 3666SOL     OW22456   3.910   1.455  12.743  0.1746 -0.5526  0.4265
 3666SOL    HW122457   3.827   1.407  12.740  0.3454 -0.7966 -0.7693
 3666SOL    HW222458   3.954   1.424  12.663  1.1332 -0.4881  0.9321
 3667SOL     OW22459   2.498   1.506   8.573 -0.4860 -0.0775  0.3796
 3667SOL    HW122460   2.407   1.486   8.553 -0.4513 -1.1171  1.2674
 3667SOL    HW222461   2.520   1.547   8.489 -1.7843  2.2315  1.1757
 3668SOL     OW22462   4.519   3.623   9.144 -0.2328 -0.0930  0.7316
 3668SOL    HW122463   4.472   3.575   9.212 -2.1068  2.8467  1.5382
 3668SOL    HW222464   4.492   3.713   9.165 -3.2235 -0.6096 -0.8173
 3669SOL     OW22465   0.659   1.503   1.510 -0.2576  0.0013 -0.0287
 3669SOL    HW122466   0.659   1.408   1.500 -0.0066 -0.1523  1.3967
 3669SOL    HW222467   0.644   1.520   1.417  2.4389 -2.1768 -0.8551
 3670SOL     OW22468   1.743   4.506   1.559  0.0142  0.5392  0.1151
 3670SOL    HW122469   1.701   4.480   1.641 -1.2617 -0.2830 -0.7893
 3670SOL    HW222470   1.837   4.510   1.577  0.2884  0.3902 -1.2991
 3671SOL     OW22471   4.517   2.680  13.040  0.5041 -0.2634  0.7134
 3671SOL    HW122472   4.486   2.590  13.039 -1.6242  0.5046 -0.5637
 3671SOL    HW222473   4.606   2.675  13.076  1.0266  1.0925 -0.3997
 3672SOL     OW22474   3.348   4.213   6.236  0.6298 -0.1702 -0.2838
 3672SOL    HW122475   3.300   4.283   6.280  1.5199  0.0749  0.3042
 3672SOL    HW222476   3.438   4.246   6.233  0.7068 -0.2606  1.0848
 3673SOL     OW22477   0.959   1.136   4.447 -0.0123 -0.3697 -0.4879
 3673SOL    HW122478   0.977   1.057   4.498 -0.5313 -1.1574 -1.5341
 3673SOL    HW222479   1.049   1.169   4.435 -0.2949  0.5921  0.0580
 3674SOL     OW22480   2.783   0.292   9.488 -0.4065  0.2088 -0.7232
 3674SOL    HW122481   2.862   0.286   9.433 -0.0961  0.3663 -0.2929
 3674SOL    HW222482   2.757   0.381   9.466 -1.2240 -0.8082 -3.8798
 3675SOL     OW22483   0.160   0.595   7.424  0.7678 -0.3013 -0.0095
 3675SOL    HW122484   0.207   0.570   7.345  0.2224  0.2083 -0.4888
 3675SOL    HW222485   0.072   0.590   7.388  0.9333  0.4306 -0.5050
 3676SOL     OW22486   1.648   1.185   6.856 -0.1485 -0.2673 -0.5659
 3676SOL    HW122487   1.720   1.159   6.914 -0.5884 -0.8372 -0.2660
 3676SOL    HW222488   1.660   1.096   6.822  0.1119 -0.2748 -0.4581
 3677SOL     OW22489   3.064   0.905   0.451  0.2172 -0.0779 -0.4880
 3677SOL    HW122490   3.036   0.991   0.420 -1.7747 -0.4689  0.1815
 3677SOL    HW222491   3.013   0.909   0.532 -0.3843 -0.9360 -0.8206
 3678SOL     OW22492   1.353   4.104   0.947  0.2579  0.4500  0.5855
 3678SOL    HW122493   1.332   4.018   0.984 -0.2721  0.7664  1.0175
 3678SOL    HW222494   1.330   4.091   0.855 -2.8702  1.6963  1.2209
 3679SOL     OW22495   4.090   3.258  17.244 -0.3627 -0.1327 -0.5567
 3679SOL    HW122496   4.153   3.296  17.183  0.6981 -0.7182  0.1699
 3679SOL    HW222497   4.060   3.336  17.290 -5.0268 -2.5860  0.4611
 3680SOL     OW22498   0.995   3.361  15.798 -0.1545  0.6178  0.0685
 3680SOL    HW122499   0.977   3.287  15.855  0.4098  1.2757  1.0993
 3680SOL    HW222500   0.993   3.322  15.711 -0.1328 -2.2945  1.3986
 3681SOL     OW22501   0.470   3.841   1.327 -0.3127  0.1218 -0.2356
 3681SOL    HW122502   0.565   3.850   1.330 -0.0970 -1.4673 -2.0310
 3681SOL    HW222503   0.447   3.917   1.274  2.7777  0.5150 -1.0225
 3682SOL     OW22504   0.335   2.111   2.307 -0.4967 -0.2822  0.3807
 3682SOL    HW122505   0.327   2.088   2.215 -1.8621  0.6366  0.2718
 3682SOL    HW222506   0.244   2.122   2.335  0.0206  2.1830  1.1102
 3683SOL     OW22507   3.374   0.323  16.743  0.2516  0.3556 -0.3330
 3683SOL    HW122508   3.454   0.335  16.794 -1.3524  0.3798  2.1488
 3683SOL    HW222509   3.407   0.300  16.655  0.4140 -2.0746  0.3574
 3684SOL     OW22510   1.390   0.484   4.539  0.2522  0.4565  0.0475
 3684SOL    HW122511   1.372   0.577   4.543  0.3502  0.5096 -0.8147
 3684SOL    HW222512   1.458   0.486   4.472  1.4093  3.3293  1.3312
 3685SOL     OW22513   0.382   2.338  17.411  0.4162 -0.0326  0.8213
 3685SOL    HW122514   0.329   2.372  17.483  0.9265  2.2264  0.1196
 3685SOL    HW222515   0.331   2.272  17.363  2.6680 -0.4218 -1.0178
 3686SOL     OW22516   0.294   0.844   3.283  0.6480  0.1346  0.5540
 3686SOL    HW122517   0.357   0.899   3.236 -0.7299  0.2939 -1.1353
 3686SOL    HW222518   0.256   0.788   3.215  1.7226 -0.1778  0.2158
 3687SOL     OW22519   1.764   3.328   2.698  0.1138 -0.0147 -0.1126
 3687SOL    HW122520   1.792   3.302   2.786 -1.4605  0.1905  0.4407
 3687SOL    HW222521   1.724   3.248   2.664  1.2062 -0.6738  0.1666
 3688SOL     OW22522   2.841   3.125   1.895 -0.9432 -0.0458 -0.3430
 3688SOL    HW122523   2.930   3.148   1.919 -0.0669 -2.8015 -0.9493
 3688SOL    HW222524   2.788   3.197   1.930 -1.7441 -0.1211 -1.3841
 3689SOL     OW22525   0.436   3.549   4.532  0.2936 -0.1100  0.3682
 3689SOL    HW122526   0.466   3.626   4.483 -0.3769  0.5146  0.9403
 3689SOL    HW222527   0.446   3.572   4.624 -0.2893 -1.5935  0.7906
 3690SOL     OW22528   2.873   3.051   2.813 -0.1422 -0.4354  0.0990
 3690SOL    HW122529   2.909   2.962   2.813  0.8576 -0.0240 -0.4440
 3690SOL    HW222530   2.815   3.059   2.889 -1.0226  1.5569 -0.8161
 3691SOL     OW22531   0.843   1.067   3.584  0.3808 -0.0337 -0.3117
 3691SOL    HW122532   0.766   1.083   3.639  3.1762  1.1462  3.2803
 3691SOL    HW222533   0.895   1.010   3.641 -0.7962 -0.7350  0.0619
 3692SOL     OW22534   1.120   4.204   9.410  0.4134 -0.0788  0.6379
 3692SOL    HW122535   1.134   4.273   9.475  1.5212 -0.8022  1.1720
 3692SOL    HW222536   1.207   4.165   9.411 -0.5248 -2.2217 -1.5858
 3693SOL     OW22537   1.219   3.527  15.869 -0.3178  0.0073  0.4208
 3693SOL    HW122538   1.263   3.473  15.934 -0.1240 -1.0877 -0.6186
 3693SOL    HW222539   1.143   3.470  15.862  0.5088 -0.9017 -1.3839
 3694SOL     OW22540   1.070   4.583  15.980  0.0376  0.1519 -0.1346
 3694SOL    HW122541   1.099   4.526  16.052 -0.2736  0.7895  0.4988
 3694SOL    HW222542   0.978   4.565  15.962 -0.1400  2.1300 -1.2197
 3695SOL     OW22543   0.233   4.719   1.178 -0.4858  0.4192 -0.1710
 3695SOL    HW122544   0.182   4.640   1.160 -2.5241  1.9119 -0.8952
 3695SOL    HW222545   0.322   4.683   1.184 -0.7176 -0.1526 -0.1180
 3696SOL     OW22546   1.617   2.424  11.688  0.0022  0.1397 -0.2623
 3696SOL    HW122547   1.538   2.462  11.728 -1.5483 -1.2231 -2.0123
 3696SOL    HW222548   1.615   2.457  11.598  1.3372 -1.2970 -0.8055
 3697SOL     OW22549   3.097   3.123   0.190 -0.1928 -0.0339  0.3774
 3697SOL    HW122550   3.175   3.072   0.168  0.0298 -0.3968  2.0470
 3697SOL    HW222551   3.029   3.076   0.142 -0.5835 -1.0663  1.9418
 3698SOL     OW22552   2.250   1.420  13.004  0.5001  0.6744 -0.3517
 3698SOL    HW122553   2.227   1.512  12.992  2.1525  0.8813 -1.8258
 3698SOL    HW222554   2.164   1.382  13.019  1.1825 -1.4650 -1.9270
 3699SOL     OW22555   0.116   2.591   2.762 -0.5626 -0.1555 -0.6190
 3699SOL    HW122556   0.205   2.600   2.795 -0.5400 -0.5183 -0.5788
 3699SOL    HW222557   0.063   2.574   2.840 -1.3463  1.0101 -0.8863
 3700SOL     OW22558   2.073   1.682   0.688 -0.0188 -0.3438 -0.5138
 3700SOL    HW122559   2.117   1.677   0.603 -1.2382 -3.0780 -0.9617
 3700SOL    HW222560   2.144   1.669   0.751 -0.1326  2.5088  0.1995
 3701SOL     OW22561   4.040   2.606   7.348  0.7987 -0.2132 -0.2821
 3701SOL    HW122562   3.968   2.656   7.311  0.2341 -0.2058  0.8352
 3701SOL    HW222563   4.077   2.664   7.415 -1.0691 -0.7653  1.2286
 3702SOL     OW22564   2.800   0.943   4.292  0.3036  0.2029 -0.5774
 3702SOL    HW122565   2.848   1.010   4.243 -0.6680  1.4050  0.0933
 3702SOL    HW222566   2.717   0.990   4.306  1.3040  1.1050  2.1089
 3703SOL     OW22567   3.364   1.552   4.675  0.0631  0.3297  0.0448
 3703SOL    HW122568   3.426   1.596   4.617  2.7777 -1.7920  1.3126
 3703SOL    HW222569   3.393   1.461   4.667 -0.8020 -0.0843  1.5168
 3704SOL     OW22570   2.049   3.542  12.510  0.5177  0.0289  0.4184
 3704SOL    HW122571   2.021   3.530  12.420 -2.3881 -1.1526  1.4872
 3704SOL    HW222572   1.970   3.517  12.557  0.7400  0.1751  0.8752
 3705SOL     OW22573   3.054   3.561   6.702  0.4607  0.0915 -0.4381
 3705SOL    HW122574   3.110   3.597   6.771  0.4428 -2.6675  1.0380
 3705SOL    HW222575   3.056   3.635   6.642  2.3769  0.1645 -0.2921
 3706SOL     OW22576   0.097   0.141  17.158  0.4577  0.2468  0.2017
 3706SOL    HW122577   0.078   0.092  17.238 -1.6016  2.7523  1.2265
 3706SOL    HW222578   0.112   0.229  17.191  1.3708  0.7493 -1.5374
 3707SOL     OW22579   2.787   4.466   6.883 -0.2604 -0.4547  0.8248
 3707SOL    HW122580   2.839   4.387   6.898  1.8079  0.9126  0.8025
 3707SOL    HW222581   2.861   4.525   6.892 -0.7210 -0.0700  2.0990
 3708SOL     OW22582   2.188   1.281  16.301  0.8411  0.4230 -0.1932
 3708SOL    HW122583   2.191   1.334  16.221 -0.0283  1.4037  0.4358
 3708SOL    HW222584   2.142   1.211  16.255  1.4432 -1.0045  1.4169
 3709SOL     OW22585   2.958   4.583   4.368  0.1800  0.0028  0.5986
 3709SOL    HW122586   3.040   4.630   4.383 -0.1768  0.7787  0.1225
 3709SOL    HW222587   2.985   4.491   4.365 -1.2571 -0.3290 -2.1743
 3710SOL     OW22588   2.524   3.184   2.581 -0.6791 -0.0980 -0.1260
 3710SOL    HW122589   2.614   3.170   2.551 -0.9393 -0.1677 -0.8760
 3710SOL    HW222590   2.527   3.188   2.676  1.4869  0.1882 -0.2157
 3711SOL     OW22591   2.068   0.237   3.141  0.2456 -0.2602  0.7082
 3711SOL    HW122592   2.069   0.142   3.140  1.4766 -0.2327 -1.2773
 3711SOL    HW222593   2.153   0.254   3.100 -0.1631 -2.2769 -0.9473
 3712SOL     OW22594   4.214   3.284   6.986 -0.1775 -0.3848 -0.4154
 3712SOL    HW122595   4.123   3.277   6.958  0.1846  0.2304 -1.7135
 3712SOL    HW222596   4.211   3.376   7.013 -1.0436 -1.0265  1.7357
 3713SOL     OW22597   0.537   3.591  17.564 -0.6438 -0.8644 -0.1161
 3713SOL    HW122598   0.521   3.573  17.471 -0.2367  0.3382 -0.4130
 3713SOL    HW222599   0.526   3.685  17.580 -2.6593 -0.9303 -1.0905
 3714SOL     OW22600   1.578   4.017  13.998  0.0553  0.5204 -0.2525
 3714SOL    HW122601   1.499   4.010  14.053  1.2722 -0.8247  1.3406
 3714SOL    HW222602   1.632   3.960  14.053 -0.0884  1.4382  0.8367
 3715SOL     OW22603   3.176   3.232  15.676  0.6254  0.4314  0.2240
 3715SOL    HW122604   3.263   3.272  15.682  0.3946  0.9601 -0.0251
 3715SOL    HW222605   3.140   3.273  15.598 -2.0405 -0.8426  0.7752
 3716SOL     OW22606   1.664   1.776  13.093  0.1458  0.5705 -0.5878
 3716SOL    HW122607   1.678   1.821  13.009 -0.6473  1.0406 -0.4774
 3716SOL    HW222608   1.603   1.709  13.062  1.7882 -0.6948 -1.0678
 3717SOL     OW22609   2.926   0.355  11.690  0.6577  0.3343  0.5738
 3717SOL    HW122610   2.917   0.389  11.779 -1.5834  0.1448  0.3992
 3717SOL    HW222611   2.911   0.261  11.701  1.6315 -0.0465 -1.2495
 3718SOL     OW22612   2.553   3.780   4.111  0.1425  0.0011 -0.2251
 3718SOL    HW122613   2.620   3.716   4.134  0.6716  0.3113 -0.8769
 3718SOL    HW222614   2.483   3.726   4.075 -0.0470  0.7725 -1.0135
 3719SOL     OW22615   0.133   0.615   6.967  0.1026 -0.3131  0.1309
 3719SOL    HW122616   0.089   0.543   6.921  2.2437 -1.5310 -0.0210
 3719SOL    HW222617   0.214   0.635   6.920 -0.0842  2.3588  0.9867
 3720SOL     OW22618   1.577   0.441   3.135  0.3711 -0.1263  0.1447
 3720SOL    HW122619   1.643   0.404   3.077  0.6384  0.4592  0.0786
 3720SOL    HW222620   1.636   0.498   3.184 -1.8612  0.2905  2.3529
 3721SOL     OW22621   3.333   2.239  11.778  0.2644 -0.1824  0.1643
 3721SOL    HW122622   3.416   2.212  11.816  0.2622  3.5717  2.7972
 3721SOL    HW222623   3.295   2.289  11.850  0.3274 -0.3436  0.3098
 3722SOL     OW22624   2.179   3.902   3.713 -0.4654  0.2220  0.1379
 3722SOL    HW122625   2.139   3.955   3.782  2.4077 -2.3250  3.7564
 3722SOL    HW222626   2.223   3.968   3.659  1.2800 -2.0204 -1.1899
 3723SOL     OW22627   3.651   1.528   1.873 -0.3780  0.3600 -0.3523
 3723SOL    HW122628   3.699   1.555   1.951 -2.2448  1.4510  0.3963
 3723SOL    HW222629   3.698   1.569   1.801 -0.1075 -0.8579 -0.8841
 3724SOL     OW22630   3.918   2.389   2.575 -1.2210  0.4044  0.6973
 3724SOL    HW122631   3.909   2.294   2.586  1.4698 -0.1346 -1.8434
 3724SOL    HW222632   3.923   2.395   2.480  2.0033 -0.1254  0.8385
 3725SOL     OW22633   3.955   2.154   5.480 -1.2451 -0.2863  0.3152
 3725SOL    HW122634   3.901   2.217   5.529 -0.5447 -0.6229  1.5404
 3725SOL    HW222635   3.963   2.199   5.396 -1.6230 -0.1550  0.3499
 3726SOL     OW22636   2.647   0.097  16.036  0.1992 -0.0945  0.3362
 3726SOL    HW122637   2.724   0.041  16.033  1.4936  1.5110  2.9991
 3726SOL    HW222638   2.575   0.034  16.029  0.5746 -0.8282  2.9430
 3727SOL     OW22639   2.625   4.221   1.532 -0.0495  0.0929 -0.2301
 3727SOL    HW122640   2.685   4.294   1.515  1.4423 -1.0608  0.1521
 3727SOL    HW222641   2.637   4.226   1.627  2.3886  2.1245 -0.6374
 3728SOL     OW22642   3.421   0.056   6.659  0.2097 -0.2001  0.8221
 3728SOL    HW122643   3.513   0.031   6.666  0.7252  0.9197 -1.9915
 3728SOL    HW222644   3.424   0.133   6.603  0.2440 -2.5105 -2.3410
 3729SOL     OW22645   2.184   2.734  10.246 -0.3395  0.1309 -0.0374
 3729SOL    HW122646   2.115   2.787  10.205  2.7155  1.5385 -3.3360
 3729SOL    HW222647   2.128   2.672  10.293 -0.3527 -0.8828 -1.3909
 3730SOL     OW22648   3.039   4.492   6.640  0.5492  0.0022  0.3487
 3730SOL    HW122649   3.009   4.403   6.624 -1.7255  0.7394  0.5451
 3730SOL    HW222650   3.103   4.482   6.710 -0.5018  0.2361  1.3329
 3731SOL     OW22651   2.853   1.025   8.915 -0.4081 -0.2880  0.5057
 3731SOL    HW122652   2.942   0.990   8.909 -1.0499 -1.7555 -0.3615
 3731SOL    HW222653   2.805   0.943   8.921  0.1139 -0.5275  1.2882
 3732SOL     OW22654   0.121   2.757  17.383  0.5981 -0.0448  0.4953
 3732SOL    HW122655   0.199   2.703  17.368  0.2792 -0.2825 -0.3084
 3732SOL    HW222656   0.062   2.695  17.425 -0.6759  1.3586  0.7618
 3733SOL     OW22657   4.059   2.724   2.595 -0.0343 -0.5058 -0.0124
 3733SOL    HW122658   4.079   2.805   2.549 -1.4830  1.3051  2.5510
 3733SOL    HW222659   3.965   2.722   2.577 -0.3506  0.1667  1.5439
 3734SOL     OW22660   4.238   0.490  16.156 -0.3442  0.0318  0.1395
 3734SOL    HW122661   4.307   0.551  16.181 -0.8692  1.4687 -1.8173
 3734SOL    HW222662   4.167   0.553  16.149 -0.5318 -0.5414 -3.3660
 3735SOL     OW22663   0.262   0.970   9.065  0.6899 -0.1622  0.1251
 3735SOL    HW122664   0.263   0.899   9.129  3.8782  0.6789  1.0031
 3735SOL    HW222665   0.325   1.027   9.110  2.2326 -0.5520 -1.5396
 3736SOL     OW22666   2.413   3.805  16.051  0.3959  0.5768 -0.4056
 3736SOL    HW122667   2.326   3.824  16.085  0.0763 -2.2438  0.3793
 3736SOL    HW222668   2.426   3.894  16.018 -0.3960  0.6736 -0.4437
 3737SOL     OW22669   4.158   2.357   7.290 -0.4749  0.1282 -0.5098
 3737SOL    HW122670   4.123   2.442   7.318 -0.7221 -0.1197 -0.0649
 3737SOL    HW222671   4.195   2.333   7.375 -0.0405 -4.4857 -2.0212
 3738SOL     OW22672   4.545   4.057  17.202  0.2700 -0.3067 -0.0161
 3738SOL    HW122673   4.570   4.012  17.282 -1.5256 -1.4862 -0.1167
 3738SOL    HW222674   4.545   4.147  17.235 -2.3730 -0.4810  0.4219
 3739SOL     OW22675   3.602   2.435   4.987  0.4987  0.3464  0.7951
 3739SOL    HW122676   3.510   2.414   5.003 -0.0786  1.9478 -0.3594
 3739SOL    HW222677   3.637   2.368   5.045 -0.4317  1.2622  2.3969
 3740SOL     OW22678   0.002   4.046   5.636 -0.2975  0.5628 -0.6877
 3740SOL    HW122679   0.063   4.082   5.571  0.7583 -1.3771 -0.7924
 3740SOL    HW222680   4.718   3.963   5.588 -2.8396  1.9326 -2.5545
 3741SOL     OW22681   1.765   1.141   9.509 -0.0106 -0.4297 -0.0517
 3741SOL    HW122682   1.851   1.120   9.545  0.0649  0.5333  0.3161
 3741SOL    HW222683   1.754   1.071   9.444 -3.1750  2.4186 -2.6123
 3742SOL     OW22684   0.426   2.748   9.812 -0.2638  0.2653  1.0324
 3742SOL    HW122685   0.410   2.668   9.861  1.2181 -0.6941 -0.0628
 3742SOL    HW222686   0.351   2.742   9.752 -0.6378 -0.9809  1.6259
 3743SOL     OW22687   3.038   1.360  13.796 -0.4894  0.0763  0.1435
 3743SOL    HW122688   2.947   1.349  13.822 -1.3027  2.7684 -1.6381
 3743SOL    HW222689   3.065   1.268  13.801 -1.5246 -0.3548 -2.6658
 3744SOL     OW22690   1.111   3.982  15.433  0.5562 -0.3205 -0.2484
 3744SOL    HW122691   1.085   4.070  15.458  0.2319 -0.7169  0.8077
 3744SOL    HW222692   1.193   4.006  15.389 -1.5517  2.0730 -2.8715
 3745SOL     OW22693   3.253   1.115  12.932 -0.1333 -0.3335 -0.9782
 3745SOL    HW122694   3.250   1.206  12.903 -1.0976 -0.6532 -1.8830
 3745SOL    HW222695   3.221   1.064  12.858 -2.0336 -2.1830  1.1354
 3746SOL     OW22696   0.804   0.948   0.757  0.0980 -0.3894 -0.4425
 3746SOL    HW122697   0.718   0.908   0.743 -0.8210  0.2484  3.4647
 3746SOL    HW222698   0.845   0.947   0.670 -0.7791  1.7374 -0.8874
 3747SOL     OW22699   2.737   1.721   2.361  0.1261 -0.1764 -0.2997
 3747SOL    HW122700   2.810   1.709   2.421 -0.0866  1.3158  0.2597
 3747SOL    HW222701   2.679   1.776   2.414 -0.8264 -0.8061 -0.6931
 3748SOL     OW22702   3.068   0.962  14.876 -0.2431  0.1831  0.1785
 3748SOL    HW122703   3.005   1.023  14.837  0.5312  0.1357 -1.1299
 3748SOL    HW222704   3.157   0.996  14.868 -0.7837  1.2167 -1.4307
 3749SOL     OW22705   1.164   2.976   3.671 -0.2788 -0.5311  0.0017
 3749SOL    HW122706   1.162   2.935   3.584  2.5218 -0.2432 -0.1794
 3749SOL    HW222707   1.249   2.942   3.697  0.6005  1.2795 -0.5193
 3750SOL     OW22708   2.331   3.450   7.546  0.2334 -0.1336 -0.1721
 3750SOL    HW122709   2.365   3.468   7.458 -2.2390 -1.0242 -1.2923
 3750SOL    HW222710   2.333   3.355   7.547 -1.2670 -0.1600 -0.4183
 3751SOL     OW22711   4.324   2.572   7.145  0.5312  0.1047  0.1128
 3751SOL    HW122712   4.392   2.609   7.201 -0.7790  1.4409  0.8352
 3751SOL    HW222713   4.271   2.535   7.216  0.6372  0.1675  0.2243
 3752SOL     OW22714   2.002   3.007   8.850 -0.2853  0.1667  0.3062
 3752SOL    HW122715   2.056   2.995   8.771 -1.4713  0.0267 -0.4949
 3752SOL    HW222716   2.070   3.017   8.917 -0.8148  2.0608  0.5584
 3753SOL     OW22717   1.277   4.632   3.169  0.4519  0.0287  0.2950
 3753SOL    HW122718   1.293   4.693   3.097  2.2501 -0.2135  0.4874
 3753SOL    HW222719   1.265   4.553   3.117  0.7949 -0.1858  0.5426
 3754SOL     OW22720   1.356   3.514   6.921  0.2482 -0.6620 -0.1269
 3754SOL    HW122721   1.413   3.588   6.940  0.5497 -0.7338 -0.7442
 3754SOL    HW222722   1.324   3.543   6.835 -1.6059  2.0183  1.4748
 3755SOL     OW22723   4.018   1.480   1.634 -0.4837 -1.1809 -0.6886
 3755SOL    HW122724   4.040   1.510   1.546 -1.3163 -1.6890 -1.0635
 3755SOL    HW222725   3.933   1.519   1.654  0.6082 -0.1512  2.0208
 3756SOL     OW22726   1.956   1.470   5.868  0.3505  0.6331  0.0890
 3756SOL    HW122727   2.033   1.454   5.813  1.2118  0.4708  1.3233
 3756SOL    HW222728   1.961   1.388   5.918 -0.6490  1.0856  0.9438
 3757SOL     OW22729   3.969   2.445   8.504 -0.3313 -0.1051 -0.4866
 3757SOL    HW122730   3.939   2.371   8.452  0.3760 -1.3069  0.8129
 3757SOL    HW222731   3.918   2.446   8.584  0.2064  0.3095 -0.1455
 3758SOL     OW22732   2.970   3.174   7.755  0.2367 -0.1593 -0.1164
 3758SOL    HW122733   2.992   3.164   7.848  0.8643  1.1776 -0.1207
 3758SOL    HW222734   3.039   3.127   7.709  3.5003  2.9511  1.5489
 3759SOL     OW22735   4.027   3.134   0.694 -0.1516 -0.1395 -0.5530
 3759SOL    HW122736   4.028   3.077   0.771  1.2398  2.5356  1.3926
 3759SOL    HW222737   3.970   3.209   0.711 -2.5094 -2.3660  1.4927
 3760SOL     OW22738   1.812   3.656   8.272 -0.2979  0.8317  0.0842
 3760SOL    HW122739   1.895   3.704   8.275 -0.7086  1.6975 -2.5624
 3760SOL    HW222740   1.777   3.685   8.188  0.6343 -0.3606 -0.6986
 3761SOL     OW22741   2.740   2.884   0.286  0.3428  0.1685 -0.2165
 3761SOL    HW122742   2.713   2.796   0.312 -0.3093  0.3074 -0.4224
 3761SOL    HW222743   2.781   2.914   0.367  0.9790 -1.0955 -0.0733
 3762SOL     OW22744   1.663   3.346   2.171  0.2853  0.5726  0.0978
 3762SOL    HW122745   1.750   3.331   2.208  0.4344  1.2086  0.0019
 3762SOL    HW222746   1.609   3.273   2.199 -0.3639  0.6644 -0.9306
 3763SOL     OW22747   3.217   1.243   2.693  0.5428 -0.4204  0.6973
 3763SOL    HW122748   3.181   1.289   2.770  0.8276  0.5175  0.2685
 3763SOL    HW222749   3.143   1.239   2.633  0.9619  0.1527  0.1457
 3764SOL     OW22750   4.066   1.388   9.130  0.0927  0.0459 -0.1067
 3764SOL    HW122751   4.090   1.301   9.099  0.3935  0.0275  0.1743
 3764SOL    HW222752   4.030   1.370   9.217  0.0039  4.3695  0.7349
 3765SOL     OW22753   3.817   3.793   4.636  0.3261 -0.4733 -1.1066
 3765SOL    HW122754   3.816   3.724   4.570  2.5022 -1.7021  0.1321
 3765SOL    HW222755   3.912   3.794   4.649  0.0498  1.8916  0.6904
 3766SOL     OW22756   2.983   4.530   3.645  0.1083 -0.7026  0.0921
 3766SOL    HW122757   2.965   4.518   3.552  0.1501  0.1222 -0.0225
 3766SOL    HW222758   2.907   4.583   3.670  1.3580  0.8532  0.5701
 3767SOL     OW22759   4.535   0.960   5.868 -0.5208  0.0465 -0.1378
 3767SOL    HW122760   4.586   0.922   5.796  1.0362  2.0891 -0.1051
 3767SOL    HW222761   4.545   0.891   5.933 -1.3827 -0.3054 -0.3644
 3768SOL     OW22762   4.008   2.764  12.156 -0.3254 -0.2596  0.0177
 3768SOL    HW122763   3.956   2.815  12.094 -0.0185 -1.3177 -1.1131
 3768SOL    HW222764   3.987   2.803  12.241  1.2592 -0.4084  0.4792
 3769SOL     OW22765   2.459   1.558  14.713 -0.1355  0.2289 -0.3916
 3769SOL    HW122766   2.406   1.501  14.769  1.5417  0.9134  1.9030
 3769SOL    HW222767   2.426   1.544  14.625  1.4799 -3.3822 -0.4123
 3770SOL     OW22768   4.573   0.248   8.829 -0.0427  0.0280 -0.0333
 3770SOL    HW122769   4.578   0.204   8.914  1.6363 -0.3819 -0.3552
 3770SOL    HW222770   4.485   0.287   8.826 -0.2136 -0.3940 -0.4556
 3771SOL     OW22771   2.413   3.350   5.183  0.0072  0.4693 -0.1330
 3771SOL    HW122772   2.357   3.282   5.222 -0.6710  1.7406  1.1041
 3771SOL    HW222773   2.397   3.332   5.091 -1.9850  0.9802  0.1043
 3772SOL     OW22774   1.101   1.571  11.286 -0.1279  0.4613  0.5003
 3772SOL    HW122775   1.022   1.622  11.305 -0.6267 -1.0525  2.5608
 3772SOL    HW222776   1.160   1.639  11.319  2.2303 -1.5875  0.4624
 3773SOL     OW22777   0.340   3.237  14.797 -0.1046 -1.0430  0.3732
 3773SOL    HW122778   0.419   3.246  14.849 -0.4743  0.2910  0.7141
 3773SOL    HW222779   0.277   3.200  14.859 -1.1268  0.1231  0.0358
 3774SOL     OW22780   1.487   4.667   3.336 -0.1479  0.2597 -0.2421
 3774SOL    HW122781   1.407   4.637   3.293 -0.0507 -0.1523 -0.1334
 3774SOL    HW222782   1.488   0.033   3.306 -0.9036 -0.7986 -3.4598
 3775SOL     OW22783   1.378   3.447   2.748  0.3025 -0.0004  0.0935
 3775SOL    HW122784   1.379   3.374   2.687  0.4341 -0.2164  0.3574
 3775SOL    HW222785   1.402   3.409   2.832 -1.2781  0.2340  0.6618
 3776SOL     OW22786   1.834   3.327   4.626 -0.4933  0.4304 -0.4691
 3776SOL    HW122787   1.840   3.417   4.593 -0.0775  0.6236  0.1448
 3776SOL    HW222788   1.852   3.354   4.715 -2.8117  1.2990 -0.2724
 3777SOL     OW22789   1.183   4.057   1.664 -0.3612 -0.0576  0.1570
 3777SOL    HW122790   1.258   4.086   1.715 -0.3543 -0.7325  0.5319
 3777SOL    HW222791   1.164   4.123   1.597 -2.7391 -1.0149 -0.1207
 3778SOL     OW22792   2.012   1.703  15.148  0.0942 -0.2851 -0.3670
 3778SOL    HW122793   1.961   1.774  15.107  1.6914  0.9220 -0.2462
 3778SOL    HW222794   2.000   1.725  15.240  0.7643 -2.0756  0.1325
 3779SOL     OW22795   2.530   2.498   6.114  0.3698 -0.3807 -0.3393
 3779SOL    HW122796   2.492   2.412   6.134 -0.6506  0.3609  0.9848
 3779SOL    HW222797   2.614   2.471   6.077  0.7876  0.0688  0.2725
 3780SOL     OW22798   2.085   3.393   9.432  0.0885 -0.2184  0.3463
 3780SOL    HW122799   2.141   3.327   9.389  0.3022  0.8212 -0.9632
 3780SOL    HW222800   2.014   3.339   9.467  1.1147 -1.3499  0.7074
 3781SOL     OW22801   4.180   3.908   6.442  0.2824  0.1658  0.3442
 3781SOL    HW122802   4.249   3.941   6.499  0.6735  0.4548 -0.2953
 3781SOL    HW222803   4.217   3.822   6.424  1.1390  0.5601  0.2204
 3782SOL     OW22804   2.242   0.160  12.484 -0.0497 -0.6292  0.9996
 3782SOL    HW122805   2.183   0.085  12.485 -2.4771  1.2279 -2.6738
 3782SOL    HW222806   2.176   0.229  12.491  1.8144  1.4085 -1.2644
 3783SOL     OW22807   2.452   3.225  10.832 -0.3757  0.3578  0.4904
 3783SOL    HW122808   2.505   3.224  10.753 -1.2198  1.0535 -0.0977
 3783SOL    HW222809   2.368   3.183  10.813  0.3513 -0.3111 -1.2507
 3784SOL     OW22810   4.161   0.466   5.767 -0.5643 -0.1743  0.0338
 3784SOL    HW122811   4.170   0.419   5.850  0.5401  1.6075  0.9459
 3784SOL    HW222812   4.217   0.404   5.720 -2.5556 -0.7112 -1.6177
 3785SOL     OW22813   0.602   2.573   4.131  0.6098 -0.5996  0.3283
 3785SOL    HW122814   0.543   2.646   4.149  1.8674 -0.0675  2.2477
 3785SOL    HW222815   0.643   2.606   4.051 -0.3990 -1.7240 -0.6519
 3786SOL     OW22816   1.993   1.481   8.157  0.2142  0.0316  0.2304
 3786SOL    HW122817   2.029   1.502   8.071  3.4779  1.7220  1.9798
 3786SOL    HW222818   1.927   1.416   8.134  0.4105 -0.8384  2.1128
 3787SOL     OW22819   1.877   4.433   2.112 -0.0395 -0.3606  0.2790
 3787SOL    HW122820   1.940   4.501   2.087 -0.5481 -0.2261 -0.6117
 3787SOL    HW222821   1.938   4.378   2.162  1.8673  1.4824  0.0004
 3788SOL     OW22822   3.447   2.156   6.453  0.2049  0.1788  0.6632
 3788SOL    HW122823   3.404   2.231   6.493  0.6051  0.3650  0.7453
 3788SOL    HW222824   3.374   2.109   6.413  1.0662  0.1059 -0.8167
 3789SOL     OW22825   1.230   4.626   1.467  0.0223 -0.1197  0.2805
 3789SOL    HW122826   1.307   4.636   1.523  0.3214  0.0719 -0.1553
 3789SOL    HW222827   1.254   4.695   1.405 -0.9143 -1.4328 -1.5536
 3790SOL     OW22828   1.222   2.896   5.218 -1.2011 -0.3191  0.7066
 3790SOL    HW122829   1.221   2.967   5.153  0.5421  0.3812  1.4435
 3790SOL    HW222830   1.305   2.923   5.258 -0.1583  1.0441 -2.3044
 3791SOL     OW22831   1.616   1.752  14.487 -0.0585  0.5105  0.0355
 3791SOL    HW122832   1.569   1.802  14.421 -1.0993 -0.6554 -0.1020
 3791SOL    HW222833   1.656   1.831  14.523 -1.1933  0.2381  1.9090
 3792SOL     OW22834   1.024   0.802   8.947  0.1724 -0.3117  0.0821
 3792SOL    HW122835   0.929   0.802   8.953  0.2676  0.3456  1.5288
 3792SOL    HW222836   1.032   0.866   8.876 -1.1235 -0.1601  0.0773
 3793SOL     OW22837   2.799   4.444   3.437 -0.0640  0.3330  0.1006
 3793SOL    HW122838   2.823   4.503   3.365  1.0604  0.7154  0.7849
 3793SOL    HW222839   2.751   4.379   3.386  1.0055 -0.0408 -0.4330
 3794SOL     OW22840   4.688   3.821  15.430  0.1695 -0.0714 -0.1241
 3794SOL    HW122841   4.661   3.853  15.344  0.6738  1.1776  0.1779
 3794SOL    HW222842   0.024   3.894  15.447 -1.1623  0.8306  0.7400
 3795SOL     OW22843   3.728   1.761   8.092 -0.0167  0.0075  0.3284
 3795SOL    HW122844   3.797   1.697   8.109 -1.8900 -2.0479  0.2090
 3795SOL    HW222845   3.646   1.715   8.108  0.9393 -1.8101  0.0519
 3796SOL     OW22846   2.185   3.078  16.098  0.8226  0.2170 -0.2987
 3796SOL    HW122847   2.222   3.011  16.041  1.7710 -0.5435  1.2230
 3796SOL    HW222848   2.127   3.126  16.038 -0.4808  1.3131  1.8317
 3797SOL     OW22849   2.242   3.770   1.964 -0.0417 -0.4182 -0.0425
 3797SOL    HW122850   2.320   3.743   1.916 -1.1045  0.9751 -2.5648
 3797SOL    HW222851   2.269   3.819   2.041 -1.0585 -0.7384  0.5179
 3798SOL     OW22852   0.186   0.201   1.605  0.0328 -0.9109 -0.5127
 3798SOL    HW122853   0.219   0.193   1.516  0.3202 -2.4811 -0.2530
 3798SOL    HW222854   0.210   0.291   1.630  0.0743 -0.0418 -3.7715
 3799SOL     OW22855   3.232   3.469  10.937  0.0933  0.8197 -0.2950
 3799SOL    HW122856   3.238   3.561  10.960 -1.4349  0.8289  0.0556
 3799SOL    HW222857   3.325   3.445  10.943  0.9050  4.3073  0.8294
 3800SOL     OW22858   3.066   2.103   8.865  0.1902 -0.2455 -0.6552
 3800SOL    HW122859   3.017   2.176   8.903  0.4996  0.3124 -1.3353
 3800SOL    HW222860   2.992   2.066   8.816 -0.4704 -0.2994  0.3952
 3801SOL     OW22861   1.532   0.489   6.699 -0.1059  0.4358 -0.2114
 3801SOL    HW122862   1.537   0.394   6.710  0.4052  0.7752  2.7048
 3801SOL    HW222863   1.459   0.521   6.752 -1.6093 -1.9787 -0.8249
 3802SOL     OW22864   3.600   1.022   9.028  0.0928 -0.0672 -0.6677
 3802SOL    HW122865   3.589   1.095   8.967  0.7824  1.1866  0.7164
 3802SOL    HW222866   3.554   0.949   8.985 -0.1099 -1.2596  1.5692
 3803SOL     OW22867   1.144   2.542  11.447  0.2110 -0.0851 -0.0002
 3803SOL    HW122868   1.141   2.449  11.424 -0.2261 -0.5643  2.0011
 3803SOL    HW222869   1.232   2.570  11.420 -0.5244  1.0574 -1.2291
 3804SOL     OW22870   1.461   3.173   4.630  0.5258  0.3436  0.6410
 3804SOL    HW122871   1.393   3.220   4.582  1.4397 -0.4701 -1.4361
 3804SOL    HW222872   1.443   3.208   4.718 -3.1622 -1.4294  0.6329
 3805SOL     OW22873   1.786   1.972   4.638 -0.7853 -0.3755  0.5470
 3805SOL    HW122874   1.710   1.993   4.691  0.6828  0.0112  2.5074
 3805SOL    HW222875   1.835   2.029   4.698  1.5953  1.0291 -2.7273
 3806SOL     OW22876   3.050   4.294  17.366  0.1067  0.1981  0.7513
 3806SOL    HW122877   3.073   4.227  17.430  1.3498 -1.3206 -1.2719
 3806SOL    HW222878   3.130   4.331  17.329 -0.2382 -0.5061 -0.6934
 3807SOL     OW22879   3.349   1.033   0.934  0.6514  0.0745  0.5500
 3807SOL    HW122880   3.301   1.062   1.011  0.2818  1.2383 -0.1060
 3807SOL    HW222881   3.290   1.061   0.864  1.5681 -3.0975 -1.5177
 3808SOL     OW22882   0.056   4.333  14.309  0.5801 -1.0690  0.4350
 3808SOL    HW122883   0.090   4.422  14.309 -0.3708 -0.7058 -0.6024
 3808SOL    HW222884   0.041   4.321  14.403  0.8936  0.2980  0.6587
 3809SOL     OW22885   1.244   0.306   4.656  0.1788 -0.5223 -0.2507
 3809SOL    HW122886   1.307   0.366   4.616 -0.4507  0.0640 -0.3756
 3809SOL    HW222887   1.171   0.369   4.662 -0.4974 -1.2474 -0.8344
 3810SOL     OW22888   2.078   2.691  15.489 -0.8011  0.4418  0.5865
 3810SOL    HW122889   2.154   2.681  15.432 -1.5371 -0.9188 -0.1486
 3810SOL    HW222890   2.035   2.763  15.441  0.3424  1.1017  0.5489
 3811SOL     OW22891   2.850   3.856   1.318 -0.4847 -0.0365 -0.6776
 3811SOL    HW122892   2.805   3.772   1.330  0.4284 -0.5265 -0.6562
 3811SOL    HW222893   2.864   3.887   1.407 -0.0615 -1.1970 -0.3303
 3812SOL     OW22894   4.423   2.509   3.243  0.2028  0.1300 -0.4559
 3812SOL    HW122895   4.335   2.479   3.265  0.4905 -0.0846  0.3782
 3812SOL    HW222896   4.406   2.558   3.162  3.4809  1.2041 -0.5163
 3813SOL     OW22897   1.647   1.507   8.292 -0.5080  0.0527  0.1120
 3813SOL    HW122898   1.700   1.519   8.371 -1.7066 -0.9301  1.0648
 3813SOL    HW222899   1.614   1.417   8.301  2.1187 -0.7535  1.7030
 3814SOL     OW22900   0.959   1.478   4.275 -0.1422 -0.0675 -0.2598
 3814SOL    HW122901   1.024   1.421   4.316  0.5463 -0.5580 -2.0455
 3814SOL    HW222902   0.993   1.566   4.292  1.7025 -0.8805  0.3184
 3815SOL     OW22903   3.345   3.481   4.059 -0.0222  0.3390 -0.4306
 3815SOL    HW122904   3.309   3.522   3.980 -0.6802  1.3815  0.4181
 3815SOL    HW222905   3.303   3.397   4.039  0.2471 -0.2528  1.5189
 3816SOL     OW22906   0.251   3.224   6.031 -0.4180 -0.6640 -0.9077
 3816SOL    HW122907   0.211   3.220   6.118 -0.7211 -1.3762 -1.0839
 3816SOL    HW222908   0.179   3.179   5.987 -1.2748  0.6222 -0.8165
 3817SOL     OW22909   1.136   2.162   0.547  0.0907  0.1517  0.3846
 3817SOL    HW122910   1.195   2.094   0.514  0.7377  0.5164  0.7934
 3817SOL    HW222911   1.051   2.119   0.538 -0.3346  0.5015  2.7795
 3818SOL     OW22912   3.916   1.810   1.580 -0.5494  0.2013 -0.5358
 3818SOL    HW122913   3.883   1.879   1.522 -1.2009  1.3863  1.2649
 3818SOL    HW222914   3.983   1.768   1.526 -0.1948  0.5346 -0.3455
 3819SOL     OW22915   2.833   1.095  11.108 -0.0504 -0.2428 -0.5515
 3819SOL    HW122916   2.871   1.181  11.119  0.0340 -0.3908  0.2935
 3819SOL    HW222917   2.857   1.058  11.193  0.1169 -1.0807 -0.9598
 3820SOL     OW22918   2.793   1.877   4.801 -0.0484 -0.1987 -0.2074
 3820SOL    HW122919   2.844   1.819   4.858 -1.0407 -1.0612 -0.1934
 3820SOL    HW222920   2.762   1.805   4.746 -0.3065  0.4949 -0.9636
 3821SOL     OW22921   3.438   0.750   7.547  0.1024 -0.5461 -0.3181
 3821SOL    HW122922   3.510   0.754   7.610 -0.6686 -0.0724  0.5323
 3821SOL    HW222923   3.369   0.755   7.613 -0.7643 -3.2684 -1.0330
 3822SOL     OW22924   2.395   2.608  12.856 -0.0479 -0.4788  0.5525
 3822SOL    HW122925   2.455   2.535  12.872  1.4906  0.3053 -1.5453
 3822SOL    HW222926   2.439   2.684  12.895  0.1036 -0.3831  0.1951
 3823SOL     OW22927   2.626   3.316   7.705 -0.6631 -0.3723 -0.1770
 3823SOL    HW122928   2.612   3.237   7.654  1.6686 -0.0169 -1.3810
 3823SOL    HW222929   2.647   3.267   7.785  0.3785 -0.9050 -0.7788
 3824SOL     OW22930   1.209   2.066  15.776  0.4346 -0.3619 -0.4217
 3824SOL    HW122931   1.192   1.973  15.795  1.4808 -0.2648  1.0096
 3824SOL    HW222932   1.146   2.094  15.711 -1.8745  0.4192  2.1575
 3825SOL     OW22933   2.412   2.715   3.227 -0.9826 -0.2917  0.3087
 3825SOL    HW122934   2.362   2.693   3.305 -2.5354 -0.8812 -0.8359
 3825SOL    HW222935   2.445   2.627   3.207 -1.2329 -0.3709  0.2477
 3826SOL     OW22936   1.993   1.297  13.071  0.1524  0.2316 -0.0749
 3826SOL    HW122937   1.949   1.216  13.098 -0.7218  0.3496 -1.1457
 3826SOL    HW222938   1.985   1.351  13.150 -0.1925 -0.4664  0.3685
 3827SOL     OW22939   0.486   0.060   4.956 -0.1090  0.4030 -0.4749
 3827SOL    HW122940   0.507   0.134   4.899  0.5371  0.7805  0.2577
 3827SOL    HW222941   0.396   0.087   4.978 -0.5491  0.4149 -2.2679
 3828SOL     OW22942   4.214   0.388   1.390 -0.5609 -0.1074 -0.0460
 3828SOL    HW122943   4.155   0.322   1.427  1.7637 -1.8613  0.5884
 3828SOL    HW222944   4.182   0.391   1.300 -0.7316 -0.0195  0.0184
 3829SOL     OW22945   0.478   4.525  13.744 -0.3873 -0.0911  0.2745
 3829SOL    HW122946   0.452   4.433  13.738 -1.6999  0.2577  0.5703
 3829SOL    HW222947   0.429   4.547  13.664 -0.9134  0.9148  0.8691
 3830SOL     OW22948   2.510   1.574  10.966  0.0021 -0.1089  0.0025
 3830SOL    HW122949   2.442   1.543  11.026 -0.7970  0.4745 -0.5970
 3830SOL    HW222950   2.586   1.524  10.994  0.6287  0.3888 -0.8114
 3831SOL     OW22951   1.398   4.464   8.638 -0.0809 -0.3545 -0.5758
 3831SOL    HW122952   1.379   4.383   8.591 -2.3132  0.2419 -0.7414
 3831SOL    HW222953   1.373   4.528   8.570 -0.7913  1.4816  1.4177
 3832SOL     OW22954   0.508   2.654  17.579 -0.6007  0.4418  0.0763
 3832SOL    HW122955   0.524   2.571  17.534 -2.0684  0.6201 -0.7549
 3832SOL    HW222956   0.593   2.688  17.606  0.8030 -2.0096 -1.2397
 3833SOL     OW22957   0.378   3.382  11.751 -0.2111 -0.1049  0.4869
 3833SOL    HW122958   0.357   3.289  11.741 -2.1507  0.1867  1.8879
 3833SOL    HW222959   0.427   3.396  11.670  0.3206  0.9952  1.0094
 3834SOL     OW22960   0.008   4.403   7.743 -0.1588 -0.7792  0.0972
 3834SOL    HW122961   4.662   4.462   7.768  0.9123  0.3720  0.3708
 3834SOL    HW222962   0.043   4.450   7.668 -0.1640  0.1050  0.6536
 3835SOL     OW22963   2.901   1.270   3.146  0.5777  0.4358 -0.5387
 3835SOL    HW122964   2.910   1.315   3.230 -1.1850 -1.6873  0.7841
 3835SOL    HW222965   2.977   1.212   3.141  1.0991  1.0343  0.3513
 3836SOL     OW22966   0.811   1.968  10.829 -0.8863  0.1949 -0.1170
 3836SOL    HW122967   0.881   1.910  10.859  0.3791  0.3544 -2.7117
 3836SOL    HW222968   0.826   2.046  10.883  0.5930 -1.1993  1.4818
 3837SOL     OW22969   2.894   1.957   4.393 -0.2856  0.1723 -0.1579
 3837SOL    HW122970   2.984   1.976   4.419  0.0120 -3.1430  1.2841
 3837SOL    HW222971   2.880   1.880   4.449 -1.1452  1.7139  1.7635
 3838SOL     OW22972   1.276   2.325   5.205  0.3174 -0.5223  0.3333
 3838SOL    HW122973   1.182   2.308   5.198  0.5675 -1.4235 -0.7374
 3838SOL    HW222974   1.275   2.400   5.265 -1.5724  2.3928 -3.3983
 3839SOL     OW22975   0.592   1.976   4.276  0.5328  0.3588  0.0532
 3839SOL    HW122976   0.642   1.898   4.302 -0.3555  0.3156  1.6158
 3839SOL    HW222977   0.583   2.021   4.360  0.5631 -1.7030  1.1717
 3840SOL     OW22978   2.915   3.248  13.696  0.2385  0.3654 -0.0876
 3840SOL    HW122979   2.988   3.244  13.634  0.9838 -1.4552  0.9047
 3840SOL    HW222980   2.899   3.342  13.688 -0.0442  0.2075 -1.3014
 3841SOL     OW22981   2.146   4.457  13.115 -0.5998  0.1919  0.2932
 3841SOL    HW122982   2.053   4.481  13.114 -0.8611 -0.8715 -0.6566
 3841SOL    HW222983   2.159   4.441  13.022 -1.7449  2.0044 -0.1978
 3842SOL     OW22984   1.028   0.895   6.048 -0.3304 -0.1008  0.1794
 3842SOL    HW122985   1.012   0.809   6.009  0.7800 -0.5949  0.7908
 3842SOL    HW222986   1.037   0.878   6.142  2.0340 -0.2019 -0.0783
 3843SOL     OW22987   0.255   3.531   8.464  0.4127 -0.5350 -0.5621
 3843SOL    HW122988   0.331   3.532   8.523  1.2242  0.1649 -1.6171
 3843SOL    HW222989   0.177   3.542   8.518  1.9059  0.0092  1.4731
 3844SOL     OW22990   1.335   1.455   3.164  0.6223 -0.3016 -0.0470
 3844SOL    HW122991   1.351   1.380   3.106  1.6447 -0.6154  0.6426
 3844SOL    HW222992   1.363   1.520   3.099 -0.1668  0.8100  0.7470
 3845SOL     OW22993   3.238   4.700   3.614 -0.0097 -0.0474 -0.4981
 3845SOL    HW122994   3.202   0.044   3.670 -0.2094 -0.6387  0.0987
 3845SOL    HW222995   3.160   4.651   3.587 -1.1038  0.6947  1.2832
 3846SOL     OW22996   2.956   4.520   2.978  0.3693  0.2999  0.3519
 3846SOL    HW122997   2.888   4.499   2.914  0.5044  1.9366 -0.3240
 3846SOL    HW222998   2.906   4.545   3.056  0.4397 -1.2142  0.8883
 3847SOL     OW22999   2.842   4.607   3.227 -0.4541 -0.0932  0.6975
 3847SOL    HW123000   2.877   4.696   3.219  0.1171 -0.4024 -0.2630
 3847SOL    HW223001   2.749   4.631   3.223 -0.3692 -0.0897 -1.2643
 3848SOL     OW23002   0.375   1.966   2.529 -0.2602  0.2988  0.0403
 3848SOL    HW123003   0.293   1.923   2.505  0.3198  0.9301 -2.9887
 3848SOL    HW223004   0.377   2.020   2.451  0.8940  1.5920  0.9776
 3849SOL     OW23005   0.378   4.153   5.691 -0.1500 -0.2466 -0.3854
 3849SOL    HW123006   0.431   4.102   5.630 -1.0906 -0.1046 -1.3286
 3849SOL    HW223007   0.316   4.194   5.631  1.2768  1.0536 -0.9698
 3850SOL     OW23008   3.082   0.174   4.893  0.4315  0.1020  0.2882
 3850SOL    HW123009   3.036   0.187   4.810 -0.7424 -0.4687  0.8548
 3850SOL    HW223010   3.075   0.079   4.902  1.7904  0.0381  0.7587
 3851SOL     OW23011   0.254   3.596   7.481  0.0938 -0.3902 -0.4652
 3851SOL    HW123012   0.225   3.574   7.569 -3.0235  0.7596 -1.2057
 3851SOL    HW223013   0.236   3.690   7.477  1.5090  0.0492  4.3419
 3852SOL     OW23014   3.797   1.534   7.172  0.0722 -0.6248 -0.1151
 3852SOL    HW123015   3.850   1.455   7.164  0.0552 -0.3227 -3.0008
 3852SOL    HW223016   3.819   1.577   7.090 -0.4419 -0.0726  0.0329
 3853SOL     OW23017   1.508   3.201   8.689  0.5013  0.3755  0.1879
 3853SOL    HW123018   1.567   3.128   8.708 -2.3788 -1.4482  2.2028
 3853SOL    HW223019   1.491   3.235   8.777 -0.3647 -0.5549  0.3794
 3854SOL     OW23020   1.197   4.675   7.330  0.7910 -0.1185  0.4476
 3854SOL    HW123021   1.226   4.602   7.274  0.1554  0.4779 -0.6597
 3854SOL    HW223022   1.109   4.696   7.301  1.3933 -0.0172 -1.3527
 3855SOL     OW23023   1.339   1.582   3.393  0.9151  0.2001  0.6242
 3855SOL    HW123024   1.339   1.531   3.312  2.7353  1.8768 -0.4109
 3855SOL    HW223025   1.300   1.667   3.370  0.4638  0.0325  0.7774
 3856SOL     OW23026   2.423   3.537  17.698  0.5277  0.6744 -0.2155
 3856SOL    HW123027   2.407   3.457   0.049  0.3822 -0.1311 -1.5123
 3856SOL    HW223028   2.358   3.592   0.040  1.3491 -0.6771  2.8312
 3857SOL     OW23029   1.976   1.453  13.291 -0.4207 -0.6027  0.1655
 3857SOL    HW123030   1.921   1.409  13.355  1.3988 -1.3434  1.2212
 3857SOL    HW223031   1.952   1.545  13.304  3.6543  0.4263  0.5159
 3858SOL     OW23032   4.205   3.844   0.410  0.3264  0.1852 -0.3581
 3858SOL    HW123033   4.131   3.888   0.452  0.0650 -1.9240  1.4186
 3858SOL    HW223034   4.205   3.884   0.324  1.5693  2.3774  0.6583
 3859SOL     OW23035   1.846   0.962   9.295 -0.0878  0.0361 -0.3475
 3859SOL    HW123036   1.860   0.868   9.283 -0.8656 -0.5581  3.4163
 3859SOL    HW223037   1.934   1.000   9.290 -0.1570  0.1569 -0.6405
 3860SOL     OW23038   4.057   0.884   3.067  0.1137  0.0706 -0.0124
 3860SOL    HW123039   4.100   0.869   2.983 -1.1177  2.8486 -1.1148
 3860SOL    HW223040   4.124   0.894   3.135  0.0832 -0.9354  0.1771
 3861SOL     OW23041   0.135   2.769   8.655  0.4722  0.8722 -0.3545
 3861SOL    HW123042   0.117   2.766   8.749  0.3965  1.5229 -0.3482
 3861SOL    HW223043   0.201   2.839   8.661  0.0370  1.2684 -0.2032
 3862SOL     OW23044   2.739   2.500  11.042  0.3337  0.0402 -0.3931
 3862SOL    HW123045   2.770   2.477  10.954 -0.5384 -1.0422 -0.4117
 3862SOL    HW223046   2.783   2.585  11.046 -1.6337  1.0671 -0.8258
 3863SOL     OW23047   4.096   1.720  16.428  0.3097 -0.2995  1.0305
 3863SOL    HW123048   4.013   1.710  16.381 -0.0746 -0.2780  1.7033
 3863SOL    HW223049   4.063   1.786  16.489 -0.1778 -0.8961  1.4069
 3864SOL     OW23050   3.730   2.227  17.658 -0.5121  0.2197 -0.8834
 3864SOL    HW123051   3.761   2.307   0.000  2.7217 -1.5349  0.1054
 3864SOL    HW223052   3.645   2.250  17.620 -1.2756 -1.9075 -0.4664
 3865SOL     OW23053   0.222   3.339  16.279 -0.1033 -0.3975 -0.5878
 3865SOL    HW123054   0.257   3.266  16.227  0.7055  1.0320 -2.0458
 3865SOL    HW223055   0.137   3.354  16.237  1.1525  1.2077 -2.5916
 3866SOL     OW23056   0.745   3.983   7.537  1.0895  0.2179  0.3249
 3866SOL    HW123057   0.828   4.026   7.561  1.9542 -1.3982  0.2209
 3866SOL    HW223058   0.767   3.897   7.572  1.2276 -0.0049 -0.3246
 3867SOL     OW23059   0.421   2.774   1.767  0.0065 -0.3798 -0.4361
 3867SOL    HW123060   0.508   2.811   1.755  0.2704 -0.1478  2.2447
 3867SOL    HW223061   0.368   2.839   1.721  2.1409  2.6406  1.3798
 3868SOL     OW23062   1.118   0.921   2.887  0.1099 -0.6821  0.1076
 3868SOL    HW123063   1.176   0.988   2.851 -0.2961 -0.5282 -0.2673
 3868SOL    HW223064   1.156   0.914   2.974  0.4505  0.4184  0.0482
 3869SOL     OW23065   2.479   4.601   3.874 -0.6092 -0.3210  0.6155
 3869SOL    HW123066   2.425   4.633   3.802  1.5491  0.2288 -0.7348
 3869SOL    HW223067   2.539   4.541   3.829 -1.6680 -0.4307 -0.6606
 3870SOL     OW23068   2.166   2.413   3.008 -0.1472 -0.0609  0.5278
 3870SOL    HW123069   2.196   2.330   2.971 -2.0988 -1.2354  1.5848
 3870SOL    HW223070   2.251   2.456   2.998 -0.6440  1.3028  2.2140
 3871SOL     OW23071   0.703   2.521   6.902  0.5997 -0.2365 -1.0784
 3871SOL    HW123072   0.752   2.581   6.846  0.2510  3.7124  2.8267
 3871SOL    HW223073   0.762   2.449   6.881  1.0772  0.1632 -1.0833
 3872SOL     OW23074   2.884   4.228  12.488 -0.0546 -0.5717 -0.2836
 3872SOL    HW123075   2.950   4.223  12.418  0.9969 -0.8571  0.7302
 3872SOL    HW223076   2.840   4.305  12.451  0.1990 -0.3172 -0.0477
 3873SOL     OW23077   0.882   0.364  11.671 -0.2137  0.0079  0.1376
 3873SOL    HW123078   0.848   0.449  11.644  2.4971  1.0728  0.0793
 3873SOL    HW223079   0.899   0.370  11.765  0.0490  2.0226 -0.0337
 3874SOL     OW23080   0.108   1.402   1.219 -0.4561  0.0139 -0.0601
 3874SOL    HW123081   0.144   1.362   1.139 -1.2374 -0.7926  0.0043
 3874SOL    HW223082   0.138   1.493   1.211 -1.3038  0.0845 -2.5905
 3875SOL     OW23083   2.914   0.292   5.600  0.2131  0.0458  0.3543
 3875SOL    HW123084   2.895   0.358   5.532  1.5670  0.9815  0.8717
 3875SOL    HW223085   2.916   0.213   5.547  2.3966  0.9058 -0.8681
 3876SOL     OW23086   0.295   3.344   9.259 -0.2545 -0.0803 -0.1567
 3876SOL    HW123087   0.370   3.293   9.227  0.4937 -0.1786  1.7874
 3876SOL    HW223088   0.316   3.327   9.351 -0.0560 -2.2528 -0.5923
 3877SOL     OW23089   4.010   3.956   1.102 -0.3075 -0.5442 -0.6247
 3877SOL    HW123090   4.051   4.019   1.162 -1.6205 -2.1999  1.9977
 3877SOL    HW223091   3.934   3.931   1.154 -0.0283 -0.5929 -0.2418
 3878SOL     OW23092   3.635   4.221  14.999 -0.5186  0.3534 -0.1495
 3878SOL    HW123093   3.617   4.136  15.039  1.1423 -0.0460 -0.2228
 3878SOL    HW223094   3.702   4.252  15.060 -2.5368 -0.3282  2.3739
 3879SOL     OW23095   0.659   0.902   6.535 -0.3537  0.4809 -0.2547
 3879SOL    HW123096   0.745   0.911   6.496 -0.1546  1.5644  0.4279
 3879SOL    HW223097   0.662   0.963   6.609  0.9336 -0.9404  0.8725
 3880SOL     OW23098   3.886   4.407   7.349  0.8467 -0.4739 -0.2056
 3880SOL    HW123099   3.954   4.465   7.315  0.0635  1.2846  1.2241
 3880SOL    HW223100   3.809   4.442   7.303  1.7192  1.9822  0.2329
 3881SOL     OW23101   0.580   2.386   3.281  0.1467 -0.3188 -0.5372
 3881SOL    HW123102   0.589   2.299   3.321 -0.4866  0.6982  1.8449
 3881SOL    HW223103   0.487   2.407   3.281  0.0662 -0.6318  0.5561
 3882SOL     OW23104   1.798   4.715   0.378 -0.3610  0.5139  0.0245
 3882SOL    HW123105   1.773   0.061   0.319  1.2345  1.1665  0.1491
 3882SOL    HW223106   1.817   0.033   0.462  0.9853 -2.0592  1.0582
 3883SOL     OW23107   0.153   2.552   6.912 -0.5704  0.9056  0.5704
 3883SOL    HW123108   0.248   2.549   6.904 -0.3587  1.6923  2.9981
 3883SOL    HW223109   0.139   2.611   6.986  0.6557 -1.1002  2.4066
 3884SOL     OW23110   4.209   3.077   7.314  0.1801 -0.2057 -0.0460
 3884SOL    HW123111   4.189   3.039   7.228 -1.4802  1.0369 -0.1884
 3884SOL    HW223112   4.216   2.995   7.363  0.9758  0.9127  1.6923
 3885SOL     OW23113   4.446   2.306   2.006 -0.1904 -0.4962  0.1624
 3885SOL    HW123114   4.486   2.291   2.092 -1.4856 -1.1214  0.6529
 3885SOL    HW223115   4.522   2.312   1.949 -0.2821 -3.9596 -0.3170
 3886SOL     OW23116   1.354   3.652  10.012 -0.0957 -0.1895  0.3479
 3886SOL    HW123117   1.420   3.648   9.943 -1.1020  2.7609 -0.8047
 3886SOL    HW223118   1.403   3.687  10.086 -0.1818 -0.1337  0.3784
 3887SOL     OW23119   1.582   0.804   7.545 -0.5042  0.1902  0.4456
 3887SOL    HW123120   1.533   0.744   7.489  0.5369  0.3600 -0.6440
 3887SOL    HW223121   1.657   0.750   7.568  0.8671  1.0441 -1.9582
 3888SOL     OW23122   1.740   4.447   2.934  0.0568  0.1388  0.2930
 3888SOL    HW123123   1.821   4.431   2.983 -0.1284 -1.5080  0.0800
 3888SOL    HW223124   1.730   4.542   2.933  1.5552  0.2730 -1.1837
 3889SOL     OW23125   0.379   0.181   0.856  0.5167  0.5798 -0.4944
 3889SOL    HW123126   0.427   0.237   0.794  0.1311  1.1283 -0.2940
 3889SOL    HW223127   0.295   0.226   0.860  0.5966  0.5752  1.1164
 3890SOL     OW23128   0.935   0.012   8.032  0.3303 -0.3261 -0.4494
 3890SOL    HW123129   0.955   0.097   7.994  0.4794  1.0255  2.7233
 3890SOL    HW223130   0.893   0.033   8.115 -0.4744  0.4582 -1.0531
 3891SOL     OW23131   3.871   2.788  10.006 -0.2421  0.0311  0.1141
 3891SOL    HW123132   3.841   2.697   9.999  0.2451 -0.2181  1.2867
 3891SOL    HW223133   3.911   2.806   9.921 -0.5674  3.6984  0.7499
 3892SOL     OW23134   3.634   1.954  15.198  0.1954 -0.1444 -0.5386
 3892SOL    HW123135   3.719   1.912  15.210  0.7083  0.5736 -1.6223
 3892SOL    HW223136   3.582   1.882  15.161  0.8870 -1.0566  0.2921
 3893SOL     OW23137   0.156   3.698   6.914 -1.0377  0.4186  0.0472
 3893SOL    HW123138   0.118   3.710   6.827 -0.2973 -3.6275 -0.8273
 3893SOL    HW223139   0.195   3.611   6.911  1.1180  1.3368  0.9705
 3894SOL     OW23140   3.230   0.582   3.285 -0.2182  0.2110  0.2129
 3894SOL    HW123141   3.235   0.500   3.236  1.0910 -0.5565  1.5961
 3894SOL    HW223142   3.185   0.549   3.363 -0.5653  0.7361  0.2287
 3895SOL     OW23143   0.329   0.821   2.457 -0.8733 -0.0240  0.6087
 3895SOL    HW123144   0.405   0.854   2.410  1.1018 -3.1519  1.6608
 3895SOL    HW223145   0.344   0.727   2.446 -0.2650  0.1655 -0.1713
 3896SOL     OW23146   3.982   0.432  13.113 -0.3392  0.0511  0.1509
 3896SOL    HW123147   4.054   0.439  13.050 -0.5683 -1.7600 -0.3095
 3896SOL    HW223148   4.020   0.370  13.175 -0.1192 -2.3215 -2.3636
 3897SOL     OW23149   0.683   3.277  11.763 -0.5325  0.0353  0.0173
 3897SOL    HW123150   0.751   3.219  11.798 -0.3820  0.7051  0.8462
 3897SOL    HW223151   0.733   3.303  11.686  0.9578  1.8852  1.6086
 3898SOL     OW23152   4.009   0.087   8.371 -0.5885  0.2124  0.0860
 3898SOL    HW123153   4.003   0.101   8.466 -0.7190 -0.7640  0.2276
 3898SOL    HW223154   4.104   0.096   8.365 -0.5944 -0.2040 -0.6239
 3899SOL     OW23155   0.608   0.487   8.443 -0.3929 -0.4083 -0.0224
 3899SOL    HW123156   0.658   0.477   8.523 -0.2537 -1.7196 -0.2689
 3899SOL    HW223157   0.622   0.579   8.422 -1.2293 -0.1466  0.6219
 3900SOL     OW23158   0.308   0.546   2.495 -0.2277  0.0272  0.1316
 3900SOL    HW123159   0.334   0.527   2.586 -1.2506 -0.5395  0.3003
 3900SOL    HW223160   0.282   0.458   2.467 -0.5004 -0.0475  0.6138
 3901SOL     OW23161   2.722   0.136  12.878  0.0537 -0.3933  0.2248
 3901SOL    HW123162   2.721   0.045  12.848  2.1281  0.3433 -2.1775
 3901SOL    HW223163   2.800   0.175  12.839 -0.1624  0.8070  0.9927
 3902SOL     OW23164   4.447   1.255  15.609  0.0015 -0.0227  0.2553
 3902SOL    HW123165   4.412   1.312  15.678 -0.9853 -0.3859  0.0594
 3902SOL    HW223166   4.386   1.285  15.542  2.0698 -0.3455 -1.7440
 3903SOL     OW23167   4.378   2.769   4.196 -0.1389  0.0796 -0.6555
 3903SOL    HW123168   4.308   2.705   4.186 -0.5701  0.4028  0.3507
 3903SOL    HW223169   4.338   2.841   4.245 -0.7204 -0.6558 -0.0588
 3904SOL     OW23170   2.546   3.646   2.049  0.1331  0.1353  0.6344
 3904SOL    HW123171   2.534   3.650   2.144 -0.8124 -0.0447  0.5214
 3904SOL    HW223172   2.524   3.553   2.037  0.7438  0.2051 -0.9882
 3905SOL     OW23173   3.526   2.014   3.337  0.1069  0.6625 -0.4134
 3905SOL    HW123174   3.445   2.055   3.366  0.3263 -0.1192  1.3093
 3905SOL    HW223175   3.545   2.076   3.267  0.0460  0.5794 -0.5032
 3906SOL     OW23176   1.189   2.281  11.997 -0.1352  0.5986  0.1856
 3906SOL    HW123177   1.244   2.309  11.923 -0.3246  3.9356  1.2925
 3906SOL    HW223178   1.103   2.255  11.963  0.1347 -1.0802  0.7662
 3907SOL     OW23179   2.238   1.999  13.614 -0.8144  0.8824 -0.2469
 3907SOL    HW123180   2.147   1.983  13.589 -0.2348  0.0250 -1.7736
 3907SOL    HW223181   2.254   2.057  13.541  1.5497  0.5346  0.0120
 3908SOL     OW23182   0.630   0.083   7.972  0.1765  0.1821  0.2638
 3908SOL    HW123183   0.667   0.016   7.914  1.5393  2.7936 -1.9063
 3908SOL    HW223184   0.642   0.035   8.053  1.4998 -0.6199 -0.4161
 3909SOL     OW23185   0.438   0.682  10.736  0.2568 -0.1911  0.4335
 3909SOL    HW123186   0.366   0.737  10.705 -0.3817 -2.2033 -1.6348
 3909SOL    HW223187   0.494   0.746  10.781  0.1279  1.0719 -1.2207
 3910SOL     OW23188   0.007   0.274   3.316 -0.0920 -0.4733  0.2855
 3910SOL    HW123189   4.649   0.319   3.302  0.4248  0.8320  1.4461
 3910SOL    HW223190   0.020   0.254   3.223  1.2441  2.0594 -0.0853
 3911SOL     OW23191   4.059   0.448  11.125  0.4018  0.0197 -0.0818
 3911SOL    HW123192   4.097   0.495  11.050 -3.0506 -0.1003 -1.8996
 3911SOL    HW223193   4.139   0.416  11.167  1.5125  1.1983 -1.2574
 3912SOL     OW23194   0.637   2.280   0.433 -0.0021 -0.3338  0.0993
 3912SOL    HW123195   0.583   2.347   0.390 -1.4916 -0.3997  1.8626
 3912SOL    HW223196   0.704   2.334   0.473  0.5552 -0.3338 -0.8347
 3913SOL     OW23197   3.363   0.949  15.559  0.2336 -0.0235  0.4891
 3913SOL    HW123198   3.392   0.969  15.470  1.5763  1.6442  1.3186
 3913SOL    HW223199   3.297   1.018  15.564  1.1347  0.9038 -0.3416
 3914SOL     OW23200   2.342   1.330  12.754  0.2148 -0.5212  0.4490
 3914SOL    HW123201   2.284   1.358  12.825  3.6692  0.2011  2.9611
 3914SOL    HW223202   2.335   1.409  12.700  0.7531  0.3948  1.7124
 3915SOL     OW23203   3.463   1.942  16.865  0.1391  0.7708  0.4822
 3915SOL    HW123204   3.516   2.022  16.867  1.0183  0.1616  1.2546
 3915SOL    HW223205   3.409   1.951  16.787  1.2932  0.5765 -0.3373
 3916SOL     OW23206   4.635   2.545   0.367  0.3667  0.6163  0.6219
 3916SOL    HW123207   4.574   2.520   0.298 -1.6149  0.4035  2.4549
 3916SOL    HW223208   4.705   2.588   0.317  0.2274 -0.6439 -0.6648
 3917SOL     OW23209   4.542   0.878   0.774 -0.0718 -0.9120 -0.4585
 3917SOL    HW123210   4.578   0.918   0.694  0.4844  0.6236  0.5593
 3917SOL    HW223211   4.554   0.784   0.763 -1.5791 -1.3983  2.0008
 3918SOL     OW23212   2.435   4.597   4.538  0.2065  0.4128 -0.5117
 3918SOL    HW123213   2.376   4.537   4.584  0.0454  0.6339 -0.4316
 3918SOL    HW223214   2.399   4.682   4.561  1.7470  1.2272 -1.1074
 3919SOL     OW23215   3.927   3.762   3.873  0.3604  0.8121 -0.0097
 3919SOL    HW123216   3.970   3.741   3.790 -0.6092 -1.6320  0.1011
 3919SOL    HW223217   3.929   3.679   3.921  1.1227  1.5645  1.2706
 3920SOL     OW23218   3.517   2.311   6.960  0.3210  0.4494  0.2553
 3920SOL    HW123219   3.461   2.275   7.029 -0.3762  0.6986 -0.1821
 3920SOL    HW223220   3.569   2.375   7.007 -0.0458  1.0872 -0.2156
 3921SOL     OW23221   2.106   1.629   2.302 -0.2098  0.4200  0.3795
 3921SOL    HW123222   2.155   1.684   2.363  0.5558 -0.9947  1.0141
 3921SOL    HW223223   2.181   1.574   2.282 -1.2126 -0.7906 -0.0502
 3922SOL     OW23224   1.714   0.661  15.858  0.5694  0.0871  0.0816
 3922SOL    HW123225   1.627   0.623  15.853  1.0611 -1.3531  2.1689
 3922SOL    HW223226   1.695   0.747  15.894 -1.6348  0.0384 -1.0095
 3923SOL     OW23227   4.696   1.128   0.633 -0.1204 -0.0296 -0.2237
 3923SOL    HW123228   0.031   1.053   0.624  1.6873  1.5381 -1.2044
 3923SOL    HW223229   0.031   1.187   0.587 -0.7232 -1.2745 -2.6535
 3924SOL     OW23230   3.895   2.608   2.917 -0.1672 -0.7181  0.3998
 3924SOL    HW123231   3.906   2.688   2.969 -0.8616  0.1880 -0.8496
 3924SOL    HW223232   3.984   2.572   2.915 -0.0775 -0.5049  0.4885
 3925SOL     OW23233   3.530   3.173   5.732 -0.2419  0.0170 -0.3337
 3925SOL    HW123234   3.610   3.227   5.727  1.4163 -2.5213 -1.0875
 3925SOL    HW223235   3.533   3.142   5.641 -0.5072 -0.3658 -0.2087
 3926SOL     OW23236   1.823   2.319   7.316 -1.0119 -0.2233  0.2116
 3926SOL    HW123237   1.778   2.386   7.369  0.0065  0.6921 -0.0663
 3926SOL    HW223238   1.742   2.300   7.271 -1.2648  0.5026  0.3533
 3927SOL     OW23239   0.061   3.315   2.512 -0.0661  0.0354 -0.0957
 3927SOL    HW123240   0.004   3.353   2.579  0.1085 -1.9393  1.1672
 3927SOL    HW223241   4.720   3.266   2.462  1.1950 -0.1473 -1.5767
 3928SOL     OW23242   1.059   3.816  15.134 -0.1404 -0.4105 -0.2434
 3928SOL    HW123243   0.969   3.832  15.104  0.1802 -0.2432 -1.1308
 3928SOL    HW223244   1.041   3.732  15.174 -0.3960  0.5090  1.5631
 3929SOL     OW23245   1.637   1.134   6.141  0.2559 -0.5455 -0.0470
 3929SOL    HW123246   1.592   1.158   6.060  0.9346  0.5678 -0.0870
 3929SOL    HW223247   1.588   1.195   6.196  0.9347 -0.9300  0.9793
 3930SOL     OW23248   2.053   3.914   5.332 -0.2191 -0.5253 -0.2117
 3930SOL    HW123249   1.987   3.871   5.387  0.5232 -0.8383  0.4324
 3930SOL    HW223250   2.125   3.851   5.326 -1.1389 -1.3452 -2.6522
 3931SOL     OW23251   4.157   0.875   6.536  0.1707  0.2392  0.4738
 3931SOL    HW123252   4.109   0.952   6.505  1.3676 -0.0517 -2.1305
 3931SOL    HW223253   4.157   0.824   6.455  0.0421 -0.2162  0.7615
 3932SOL     OW23254   0.280   1.545  16.184  0.0118 -0.4040  0.3693
 3932SOL    HW123255   0.369   1.532  16.217 -0.0043  2.7223  1.6762
 3932SOL    HW223256   0.307   1.582  16.100 -0.7522  0.1431  0.3635
 3933SOL     OW23257   3.658   3.783   3.554  0.0173  0.6233 -0.2918
 3933SOL    HW123258   3.683   3.819   3.639  0.3640 -1.4701  0.4917
 3933SOL    HW223259   3.710   3.840   3.497  0.1888  1.1406  0.3833
 3934SOL     OW23260   2.011   0.348  17.655 -0.8968 -0.2780 -0.0190
 3934SOL    HW123261   2.034   0.357   0.048  0.5692 -0.4261 -0.3709
 3934SOL    HW223262   2.012   0.440  17.630  1.4472 -0.3093  0.0094
 3935SOL     OW23263   0.732   3.299  13.470  0.0025  0.1448  0.5650
 3935SOL    HW123264   0.733   3.357  13.546 -2.7996  1.0743 -0.0908
 3935SOL    HW223265   0.657   3.242  13.488  0.2863 -0.8189 -1.3542
 3936SOL     OW23266   2.771   1.750   1.636  0.7175  0.0816 -0.9695
 3936SOL    HW123267   2.784   1.806   1.559  1.8730  0.3402 -0.5907
 3936SOL    HW223268   2.828   1.679   1.604  0.6380  0.5135 -2.0742
 3937SOL     OW23269   0.965   4.571   3.663  0.6684  0.3586  0.8466
 3937SOL    HW123270   0.949   4.665   3.651  1.3496  0.1652 -1.5789
 3937SOL    HW223271   0.881   4.538   3.694  0.9491 -2.3322 -1.2182
 3938SOL     OW23272   1.529   3.099   2.179 -0.1994 -0.1718  0.1585
 3938SOL    HW123273   1.490   3.034   2.120  2.0271  0.0632 -1.5552
 3938SOL    HW223274   1.474   3.086   2.257  0.3979  1.2150  0.8176
 3939SOL     OW23275   2.687   0.095   9.915 -0.0466  0.0310 -0.1196
 3939SOL    HW123276   2.736   0.114   9.835  2.0694  2.2516  1.7348
 3939SOL    HW223277   2.708   0.162   9.979 -1.6713  0.5256 -0.0946
 3940SOL     OW23278   4.426   2.602   5.408 -0.1868 -0.4097 -0.7732
 3940SOL    HW123279   4.411   2.685   5.454  1.8368 -1.3856  1.7244
 3940SOL    HW223280   4.504   2.623   5.356  0.4024 -1.3632 -0.2767
 3941SOL     OW23281   2.238   3.177   9.388  0.0270  0.5752  0.5463
 3941SOL    HW123282   2.320   3.128   9.384 -0.9135 -0.9921  0.7301
 3941SOL    HW223283   2.173   3.108   9.377 -0.4365  1.1522 -0.3677
 3942SOL     OW23284   1.845   0.536  13.072  0.5069 -0.4887 -0.0695
 3942SOL    HW123285   1.777   0.499  13.015  1.5470 -1.1592 -0.8705
 3942SOL    HW223286   1.885   0.462  13.118 -1.3345 -1.2497  0.3465
 3943SOL     OW23287   2.800   1.102   4.724 -0.9234  0.3168 -0.3587
 3943SOL    HW123288   2.856   1.056   4.662  0.4475  1.5636 -0.0516
 3943SOL    HW223289   2.823   1.062   4.808  1.1864  1.7163 -0.2733
 3944SOL     OW23290   1.882   0.188  14.372 -0.2175  0.2113 -0.8535
 3944SOL    HW123291   1.927   0.177  14.289  0.3565  1.1715 -0.6736
 3944SOL    HW223292   1.796   0.159  14.342 -0.1645 -0.7706 -0.0667
 3945SOL     OW23293   2.794   0.123   6.507 -0.8185 -0.0040 -0.3484
 3945SOL    HW123294   2.828   0.168   6.584 -1.1515  0.3252 -0.3913
 3945SOL    HW223295   2.801   0.194   6.443 -0.8849 -0.8084 -1.2594
 3946SOL     OW23296   2.671   1.324   5.143 -0.2729  0.0909 -0.5413
 3946SOL    HW123297   2.582   1.302   5.170  0.2392 -1.1874  0.0678
 3946SOL    HW223298   2.661   1.322   5.048 -0.8711  0.7429 -0.4930
 3947SOL     OW23299   2.690   1.416   5.529 -0.6552 -0.5045  0.6498
 3947SOL    HW123300   2.643   1.334   5.516 -0.9751 -0.1237 -0.5386
 3947SOL    HW223301   2.666   1.422   5.622  1.5714  2.1492  1.0567
 3948SOL     OW23302   1.257   0.883   4.985 -0.0518  0.2738 -0.0473
 3948SOL    HW123303   1.345   0.882   5.021  0.5081  2.3496 -1.3780
 3948SOL    HW223304   1.264   0.971   4.949 -0.4067  1.0202  1.7373
 3949SOL     OW23305   0.187   0.340   9.050  0.4475  0.0156 -0.2761
 3949SOL    HW123306   0.267   0.357   9.099  0.2274 -1.0608  0.4465
 3949SOL    HW223307   0.165   0.258   9.093  1.1385  0.3941  0.7862
 3950SOL     OW23308   0.178   2.076  17.404  0.5626 -0.8050 -0.1108
 3950SOL    HW123309   0.155   1.987  17.431 -0.1026 -0.5384  0.1977
 3950SOL    HW223310   0.261   2.089  17.450 -0.4393 -0.7490  1.6596
 3951SOL     OW23311   4.701   3.256   1.032 -0.0080  0.1677  0.2089
 3951SOL    HW123312   4.644   3.333   1.028 -0.9106 -0.5933 -1.5698
 3951SOL    HW223313   0.064   3.291   1.047  0.0920  0.6199 -1.4464
 3952SOL     OW23314   0.400   3.313   9.522  0.3384  0.1399 -0.0171
 3952SOL    HW123315   0.434   3.402   9.527  3.1266 -0.9080  0.0116
 3952SOL    HW223316   0.404   3.279   9.612  2.1455  0.1101 -0.0975
 3953SOL     OW23317   2.099   4.641  12.485 -0.2831 -1.0269  0.2593
 3953SOL    HW123318   2.037   4.614  12.417 -0.7184 -0.6146  0.4915
 3953SOL    HW223319   2.103   4.553  12.521  1.4782 -1.0484  0.0075
 3954SOL     OW23320   2.746   0.687  16.151 -0.0086 -0.1741 -0.0108
 3954SOL    HW123321   2.736   0.660  16.060 -1.6624  1.1008 -0.2138
 3954SOL    HW223322   2.825   0.637  16.173  0.5789  0.7568 -0.0021
 3955SOL     OW23323   1.414   0.800   3.259  0.1436 -0.1453  0.7027
 3955SOL    HW123324   1.450   0.765   3.340  2.0985 -1.1381 -0.5907
 3955SOL    HW223325   1.489   0.853   3.232 -1.5405  1.6243 -0.4791
 3956SOL     OW23326   0.020   2.841   0.574 -0.2623  0.3087 -0.1105
 3956SOL    HW123327   0.037   2.863   0.483 -1.4807 -1.9167 -0.8695
 3956SOL    HW223328   0.061   2.916   0.618 -0.4440 -1.0096  2.2880
 3957SOL     OW23329   1.231   2.281   4.618  0.0758 -0.5183 -0.2043
 3957SOL    HW123330   1.255   2.369   4.649  1.5453 -1.4733  1.4252
 3957SOL    HW223331   1.141   2.286   4.651 -0.6456 -0.7252 -2.1863
 3958SOL     OW23332   3.417   4.251   6.607  0.2228 -0.1270 -0.6279
 3958SOL    HW123333   3.508   4.244   6.578  0.0741 -2.1154 -0.5867
 3958SOL    HW223334   3.386   4.325   6.555  0.4449  0.1468 -0.3657
 3959SOL     OW23335   0.164   0.959  15.579  0.1285  0.7386 -0.1154
 3959SOL    HW123336   0.113   1.038  15.561 -0.5145  0.2009 -0.6734
 3959SOL    HW223337   0.099   0.923  15.640  1.6744 -0.6608  0.7256
 3960SOL     OW23338   0.112   0.384  13.571 -0.4721  0.5544 -0.5167
 3960SOL    HW123339   0.112   0.405  13.664  2.2082  1.3354 -0.6924
 3960SOL    HW223340   0.022   0.364  13.546 -0.0332 -1.0797 -0.7775
 3961SOL     OW23341   3.012   4.649   5.829  0.2438 -0.4451  0.1622
 3961SOL    HW123342   2.927   4.689   5.815 -0.2934 -1.7239 -0.2123
 3961SOL    HW223343   3.067   4.722   5.858 -0.1038  0.0712 -0.5016
 3962SOL     OW23344   3.114   0.846   8.461  0.0594 -0.0640 -0.4573
 3962SOL    HW123345   3.107   0.767   8.407  0.7575  0.6157 -1.5451
 3962SOL    HW223346   3.071   0.813   8.540 -0.9840  0.6108 -0.7506
 3963SOL     OW23347   0.470   0.435   3.247  0.1152  0.1240  0.3622
 3963SOL    HW123348   0.396   0.494   3.238 -0.6321 -1.0539 -1.0918
 3963SOL    HW223349   0.517   0.454   3.329  1.7184  4.0272 -1.4371
 3964SOL     OW23350   2.637   2.440   2.905 -0.6509  0.1032 -0.0076
 3964SOL    HW123351   2.712   2.415   2.959 -2.5835  0.6151  2.8648
 3964SOL    HW223352   2.673   2.428   2.817  1.5612  0.4227  0.8442
 3965SOL     OW23353   4.137   2.176  17.045  0.6483 -0.7186 -0.5879
 3965SOL    HW123354   4.153   2.263  17.009 -1.5194 -0.9559 -2.1177
 3965SOL    HW223355   4.095   2.135  16.969  0.6101  0.1744 -1.0504
 3966SOL     OW23356   3.863   4.097  10.896 -0.3163 -0.3678 -0.1697
 3966SOL    HW123357   3.774   4.128  10.914  0.4285  2.4797 -1.3936
 3966SOL    HW223358   3.908   4.180  10.886  1.3562 -1.1459  0.9835
 3967SOL     OW23359   1.583   0.211   6.796  0.0410 -0.0029  0.2478
 3967SOL    HW123360   1.566   0.233   6.888 -0.8483 -0.0419  0.0944
 3967SOL    HW223361   1.559   0.118   6.796 -1.6366  0.4242 -0.3061
 3968SOL     OW23362   3.324   4.283   7.036  0.3800 -0.3138  0.3291
 3968SOL    HW123363   3.257   4.249   7.096  0.3425 -2.8923 -1.1587
 3968SOL    HW223364   3.372   4.201   7.029  2.2443  0.7223  0.8994
 3969SOL     OW23365   4.595   3.274  14.070 -0.3053  0.0664  0.0677
 3969SOL    HW123366   4.616   3.211  14.001  0.6528 -0.1026  0.5111
 3969SOL    HW223367   4.685   3.300  14.090 -0.4134 -0.3620  1.1282
 3970SOL     OW23368   3.490   3.683   0.359  0.3099  0.6181  0.6606
 3970SOL    HW123369   3.539   3.732   0.293 -1.9280 -1.9814 -2.9483
 3970SOL    HW223370   3.537   3.706   0.439 -0.3771 -0.1556  1.2815
 3971SOL     OW23371   0.954   2.130   6.488  0.3478 -0.3882 -0.2483
 3971SOL    HW123372   0.925   2.164   6.573  1.5625  2.3079 -0.9101
 3971SOL    HW223373   0.987   2.209   6.445  0.7469 -0.7352 -0.5742
 3972SOL     OW23374   3.752   1.066   9.244 -0.5390 -0.0914 -0.2150
 3972SOL    HW123375   3.816   0.996   9.253  1.1906  1.1727 -2.6058
 3972SOL    HW223376   3.703   1.026   9.172 -0.3943 -0.4665 -0.1024
 3973SOL     OW23377   0.781   0.410   5.960  0.0528  0.2843  0.0734
 3973SOL    HW123378   0.728   0.342   6.003 -0.7110  0.9338  0.1551
 3973SOL    HW223379   0.825   0.369   5.886  2.0156  1.8418  0.3842
 3974SOL     OW23380   2.339   3.665   4.276 -0.4489 -0.0725 -0.4645
 3974SOL    HW123381   2.292   3.582   4.269  0.6247 -0.6905 -0.3504
 3974SOL    HW223382   2.320   3.702   4.190 -0.0995  0.6705 -0.2227
 3975SOL     OW23383   3.964   1.725  14.043  0.0551 -0.2923  0.1955
 3975SOL    HW123384   3.883   1.748  14.089  0.4894 -1.2392  1.4366
 3975SOL    HW223385   3.930   1.709  13.955  0.5736 -0.0950 -0.0371
 3976SOL     OW23386   4.577   1.929   8.393  0.2380  0.5634 -0.3364
 3976SOL    HW123387   4.625   1.996   8.344  0.8084 -0.0936 -0.6788
 3976SOL    HW223388   4.618   1.909   8.477 -1.3176  1.7647  0.7152
 3977SOL     OW23389   3.623   0.328   9.035  0.1895 -0.3806 -0.0750
 3977SOL    HW123390   3.641   0.336   9.128  0.5280  1.4486 -0.2964
 3977SOL    HW223391   3.539   0.374   9.029 -1.6341 -3.7828 -0.6844
 3978SOL     OW23392   3.407   1.419  16.160 -0.9742 -0.0264 -0.0985
 3978SOL    HW123393   3.365   1.504  16.147 -0.4029  0.5379  1.7620
 3978SOL    HW223394   3.367   1.365  16.092 -0.9769  0.4281 -0.4610
 3979SOL     OW23395   2.881   4.696   1.112 -0.2749 -0.4945 -0.7469
 3979SOL    HW123396   2.851   4.633   1.177  0.9833 -0.3362 -0.0218
 3979SOL    HW223397   2.925   4.641   1.047  2.3931  1.9228 -0.9959
 3980SOL     OW23398   2.399   3.732   3.381  0.3031  0.6304 -0.2488
 3980SOL    HW123399   2.397   3.796   3.310  0.1100  0.9853  0.0768
 3980SOL    HW223400   2.486   3.692   3.377 -0.1245 -0.6370  3.3957
 3981SOL     OW23401   2.895   1.700  13.384 -0.1829  0.1357  0.6675
 3981SOL    HW123402   2.897   1.621  13.439  0.9547  1.0611  1.9682
 3981SOL    HW223403   2.828   1.670  13.323 -1.1175  0.2274  1.6526
 3982SOL     OW23404   1.701   1.413   7.419 -0.0521 -0.1885  0.0604
 3982SOL    HW123405   1.654   1.331   7.433 -0.0540 -0.3458 -0.8616
 3982SOL    HW223406   1.631   1.478   7.410  1.2803  0.9456 -2.0907
 3983SOL     OW23407   3.588   3.167   7.339  0.1948 -0.0040  0.4572
 3983SOL    HW123408   3.590   3.073   7.321  0.6522 -0.1066  1.0640
 3983SOL    HW223409   3.500   3.174   7.376  0.8458  3.3678  1.4240
 3984SOL     OW23410   4.680   0.191  11.062 -0.3982  0.1755  0.1125
 3984SOL    HW123411   4.663   0.210  11.154 -2.2245  1.0760 -0.4233
 3984SOL    HW223412   4.602   0.139  11.043  0.4031 -0.9335 -0.1560
 3985SOL     OW23413   2.063   4.077   0.140  0.1342 -0.1298 -0.2283
 3985SOL    HW123414   2.135   4.035   0.186  1.2483  1.1787 -0.7852
 3985SOL    HW223415   2.110   4.129   0.075 -0.0735 -0.7172 -0.8462
 3986SOL     OW23416   1.982   3.276   1.974 -0.1023  0.0934 -0.8255
 3986SOL    HW123417   1.937   3.206   2.022  0.9083 -0.3717 -0.5532
 3986SOL    HW223418   1.937   3.351   2.014  1.2104 -0.0390  0.9073
 3987SOL     OW23419   0.973   1.359   3.828  0.2957 -0.4843 -0.1074
 3987SOL    HW123420   0.909   1.354   3.899  2.5007 -0.3718  1.8721
 3987SOL    HW223421   1.049   1.387   3.879  0.2998  1.0088 -0.9279
 3988SOL     OW23422   3.264   3.996   8.437 -0.4930  1.0505  0.3958
 3988SOL    HW123423   3.310   4.063   8.385  1.2278  0.1397  0.7566
 3988SOL    HW223424   3.325   3.982   8.509 -1.3984 -2.8921  0.3696
 3989SOL     OW23425   1.217   3.877   9.124 -0.1401 -0.2408 -0.2211
 3989SOL    HW123426   1.210   3.813   9.053  1.2785  1.0162 -1.4962
 3989SOL    HW223427   1.141   3.849   9.176  1.0614  1.0059  2.2170
 3990SOL     OW23428   1.814   2.103   2.915  0.2715 -0.1148 -0.4560
 3990SOL    HW123429   1.785   2.012   2.925  1.4187 -0.5354 -0.9568
 3990SOL    HW223430   1.725   2.138   2.922 -0.3567 -1.9481  0.6776
 3991SOL     OW23431   2.832   0.995  13.746  0.4289 -0.3287 -0.1421
 3991SOL    HW123432   2.739   0.988  13.724  0.3096  0.8187 -0.0027
 3991SOL    HW223433   2.862   0.906  13.728 -2.6101 -1.5373  0.7779
 3992SOL     OW23434   2.060   3.191   7.048  0.1163  0.0383  0.6592
 3992SOL    HW123435   2.137   3.247   7.037  0.9426 -1.5380 -1.5271
 3992SOL    HW223436   2.096   3.138   7.119  0.0906 -0.1409  0.5387
 3993SOL     OW23437   1.892   4.230   2.357 -0.2540 -0.0024 -0.0819
 3993SOL    HW123438   1.934   4.162   2.304  0.3274  1.3803 -1.3937
 3993SOL    HW223439   1.949   4.230   2.433  1.6847  1.0668 -1.5239
 3994SOL     OW23440   2.023   4.282   0.862  0.2906 -0.5296 -0.2304
 3994SOL    HW123441   2.086   4.352   0.880  1.2913 -1.4413 -0.1631
 3994SOL    HW223442   2.003   4.297   0.769  0.1178  0.7327  0.0015
 3995SOL     OW23443   1.073   3.099  12.182  0.1690  0.4446 -0.9511
 3995SOL    HW123444   1.047   3.104  12.274  2.4366  0.8746 -0.3316
 3995SOL    HW223445   1.159   3.060  12.198 -0.1224  0.1917  0.0090
 3996SOL     OW23446   3.251   0.506   8.623  0.3396  0.1928 -0.1012
 3996SOL    HW123447   3.299   0.544   8.549  1.0364 -0.6199 -0.0616
 3996SOL    HW223448   3.270   0.578   8.683  0.3552  1.6082 -1.7865
 3997SOL     OW23449   2.227   2.164   2.878 -0.5266  0.3400  0.1710
 3997SOL    HW123450   2.154   2.108   2.854  0.0396  0.6430 -2.3209
 3997SOL    HW223451   2.288   2.153   2.804  0.2058 -0.2952  0.8649
 3998SOL     OW23452   3.086   0.419  11.145 -0.0801 -0.6318 -0.1383
 3998SOL    HW123453   3.003   0.419  11.098  0.5559 -0.7647 -1.2804
 3998SOL    HW223454   3.048   0.386  11.226  1.1747 -1.8900 -0.0494
 3999SOL     OW23455   4.403   1.039  10.400 -0.2660 -0.3307  0.6605
 3999SOL    HW123456   4.444   1.028  10.314 -0.0057 -0.5004  0.8081
 3999SOL    HW223457   4.328   0.980  10.391  0.6784 -1.3548 -0.3531
 4000SOL     OW23458   1.719   2.493   3.297 -0.0759  0.2552  0.0221
 4000SOL    HW123459   1.651   2.428   3.312  0.2559  0.2793  1.6536
 4000SOL    HW223460   1.798   2.458   3.339  0.8872  0.9520 -1.1668
 4001SOL     OW23461   2.814   0.961   7.155 -0.1080  0.1003 -0.7874
 4001SOL    HW123462   2.875   1.035   7.154  1.0323 -0.8678 -2.4205
 4001SOL    HW223463   2.813   0.947   7.249  0.1490 -0.2292 -0.8334
 4002SOL     OW23464   4.501   3.844  10.812  0.1858 -0.3738 -0.1325
 4002SOL    HW123465   4.518   3.883  10.726  0.8785  0.1421  0.2383
 4002SOL    HW223466   4.406   3.844  10.822  0.1474  0.2575 -0.5072
 4003SOL     OW23467   2.500   3.231   4.318 -0.5052  0.2826 -0.2403
 4003SOL    HW123468   2.478   3.196   4.231 -0.8218  0.2050 -0.1253
 4003SOL    HW223469   2.515   3.323   4.296 -1.4310  0.7359  1.0571
 4004SOL     OW23470   3.407   2.850   5.669 -0.6353  0.1677  0.3049
 4004SOL    HW123471   3.447   2.766   5.645  0.6694 -0.2509  4.0012
 4004SOL    HW223472   3.331   2.842   5.611 -0.0701 -0.0504 -0.4172
 4005SOL     OW23473   1.712   0.131   2.371  0.8445 -0.2382  0.3447
 4005SOL    HW123474   1.723   0.188   2.448 -2.1221  2.0638 -0.9250
 4005SOL    HW223475   1.802   0.115   2.341  0.2853  0.0715 -1.4960
 4006SOL     OW23476   1.326   3.662   1.036 -0.1583 -0.4408 -0.1774
 4006SOL    HW123477   1.322   3.722   0.961  0.4168  0.0474  0.1767
 4006SOL    HW223478   1.247   3.610   1.023  1.5470 -3.2890  0.7706
 4007SOL     OW23479   1.033   2.950   6.491  0.2859  0.6023 -0.9970
 4007SOL    HW123480   0.942   2.962   6.520 -0.7142 -3.4489 -2.4680
 4007SOL    HW223481   1.044   2.868   6.538  3.1147  0.1141 -2.5553
 4008SOL     OW23482   3.697   0.499   0.498  0.0086  0.2094  0.2754
 4008SOL    HW123483   3.625   0.553   0.465 -0.1148 -0.3522 -0.3696
 4008SOL    HW223484   3.733   0.472   0.413 -0.3009  0.1384  0.1673
 4009SOL     OW23485   0.641   2.139   5.190  0.5337 -1.0039 -0.0962
 4009SOL    HW123486   0.565   2.085   5.210 -0.0115  0.5335  1.9945
 4009SOL    HW223487   0.613   2.188   5.113 -1.7774 -2.2490 -0.0469
 4010SOL     OW23488   0.184   3.619  11.664 -0.0461 -0.8257 -0.6045
 4010SOL    HW123489   0.261   3.664  11.700 -0.9139 -0.8226  1.2389
 4010SOL    HW223490   0.230   3.544  11.625 -0.5994 -1.3107 -0.3227
 4011SOL     OW23491   2.172   1.244  14.404 -0.0757  0.1152  0.3868
 4011SOL    HW123492   2.165   1.325  14.353  0.6080  0.5941  1.0544
 4011SOL    HW223493   2.102   1.253  14.469  0.1659  1.2821  0.4903
 4012SOL     OW23494   0.023   1.534   5.945  0.1515  0.4280 -0.2091
 4012SOL    HW123495   0.025   1.614   5.998  0.2757  0.1037  0.2783
 4012SOL    HW223496   4.711   1.569   5.864  0.2731  0.1004 -0.4076
 4013SOL     OW23497   0.049   2.948   2.799 -0.9646  0.1031 -0.2226
 4013SOL    HW123498   0.119   2.941   2.865  0.3064 -0.5410 -1.6476
 4013SOL    HW223499   4.698   2.977   2.849 -0.8925  1.3156 -0.8218
 4014SOL     OW23500   1.979   3.939   1.869  0.2227 -1.0014  0.0118
 4014SOL    HW123501   2.005   4.031   1.876 -1.9626 -0.1368 -3.2049
 4014SOL    HW223502   2.039   3.895   1.929  0.8670  0.8283  0.7278
 4015SOL     OW23503   3.517   0.215  16.214 -0.1902  0.0526  0.2803
 4015SOL    HW123504   3.459   0.279  16.173  0.1631 -0.2096 -0.6163
 4015SOL    HW223505   3.523   0.157  16.138 -1.3125  0.7083 -0.2966
 4016SOL     OW23506   1.612   2.839   2.876  0.0156 -0.2424  0.3925
 4016SOL    HW123507   1.524   2.805   2.864  0.0465  0.2682 -1.2967
 4016SOL    HW223508   1.663   2.761   2.854  0.7207  0.7241 -1.4048
 4017SOL     OW23509   4.633   2.562  17.445 -0.3774 -0.4520  0.0335
 4017SOL    HW123510   4.558   2.548  17.388 -0.8890 -0.4819  0.7139
 4017SOL    HW223511   4.680   2.483  17.417 -0.0806 -0.4779  0.6029
 4018SOL     OW23512   2.347   3.270   4.870 -0.4475  0.2542 -0.0371
 4018SOL    HW123513   2.328   3.182   4.902  0.7914 -0.2937 -0.8028
 4018SOL    HW223514   2.267   3.297   4.824 -0.6037  1.9370  1.2023
 4019SOL     OW23515   2.632   1.315   4.627  0.4873  0.4253 -0.0446
 4019SOL    HW123516   2.686   1.239   4.649 -2.2330 -1.1423  1.1081
 4019SOL    HW223517   2.548   1.297   4.669  1.2518 -3.0632 -0.0315
 4020SOL     OW23518   1.493   3.485   0.875 -0.3318 -0.1151 -0.4105
 4020SOL    HW123519   1.472   3.526   0.959 -3.1715 -0.6105 -0.8794
 4020SOL    HW223520   1.429   3.414   0.875 -1.5855  1.0157  0.6410
 4021SOL     OW23521   3.704   3.843   2.398 -0.4016 -0.6951 -0.0141
 4021SOL    HW123522   3.734   3.818   2.485 -3.4269 -1.3843  0.8133
 4021SOL    HW223523   3.772   3.906   2.377 -0.1051 -1.9915 -2.9825
 4022SOL     OW23524   4.135   1.737  13.203 -0.0453 -0.0403 -0.3875
 4022SOL    HW123525   4.048   1.750  13.166 -0.3834  1.0598  0.7827
 4022SOL    HW223526   4.200   1.713  13.137  1.2535  0.8300  0.5667
 4023SOL     OW23527   2.899   3.681   6.380 -0.2079  0.3228  0.1327
 4023SOL    HW123528   2.970   3.732   6.419  0.2836  0.4752 -0.9679
 4023SOL    HW223529   2.837   3.753   6.387 -1.7742 -1.0805  0.7262
 4024SOL     OW23530   1.368   4.031  14.209 -0.7186  0.0508  0.4658
 4024SOL    HW123531   1.304   3.972  14.248 -0.6472 -0.2284  0.1538
 4024SOL    HW223532   1.319   4.113  14.195  2.1004  1.8487  1.1419
 4025SOL     OW23533   0.927   0.219   2.456 -0.2872  0.4504  0.6243
 4025SOL    HW123534   0.955   0.257   2.539 -0.6608 -1.0561  1.4479
 4025SOL    HW223535   0.994   0.262   2.404  0.9880 -2.4703 -0.1491
 4026SOL     OW23536   0.665   2.334  16.493 -0.0711  0.2522  0.3277
 4026SOL    HW123537   0.702   2.273  16.557 -1.3828 -1.6515 -0.7440
 4026SOL    HW223538   0.741   2.363  16.443  0.3042 -0.2301  0.6229
 4027SOL     OW23539   1.496   2.552   0.187 -0.3163  0.3806 -0.3473
 4027SOL    HW123540   1.478   2.576   0.277 -0.4397 -0.9436 -0.0169
 4027SOL    HW223541   1.590   2.569   0.179 -0.2394 -0.9986 -2.5332
 4028SOL     OW23542   4.205   4.473   7.201  0.3777 -0.5168  0.3908
 4028SOL    HW123543   4.172   4.559   7.227  2.3209  0.7460 -1.2973
 4028SOL    HW223544   4.263   4.505   7.131 -0.9105 -0.4570 -0.6568
 4029SOL     OW23545   2.997   1.721   5.767 -0.2930 -0.0239  0.4201
 4029SOL    HW123546   2.956   1.636   5.784  0.1969  0.0127  1.7731
 4029SOL    HW223547   3.003   1.758   5.855 -1.1674 -2.9579  1.7126
 4030SOL     OW23548   1.333   1.121   6.827 -0.1595 -0.6369  0.0602
 4030SOL    HW123549   1.392   1.069   6.881 -1.4896 -1.2853  0.8783
 4030SOL    HW223550   1.290   1.155   6.905 -0.9334  0.2504 -0.7552
 4031SOL     OW23551   3.808   2.201   6.209  0.2429 -0.0939  0.0453
 4031SOL    HW123552   3.784   2.233   6.296  0.9249  0.6172 -0.0235
 4031SOL    HW223553   3.867   2.126   6.222 -1.8497 -1.5553  1.0480
 4032SOL     OW23554   2.654   0.216   6.836  0.1705  0.2030 -0.3913
 4032SOL    HW123555   2.711   0.272   6.889 -2.1600  0.9498  1.3082
 4032SOL    HW223556   2.690   0.131   6.861  1.7201  1.2105  0.8772
 4033SOL     OW23557   2.656   1.822   1.071 -0.2836 -0.1541 -0.5158
 4033SOL    HW123558   2.726   1.802   1.131  0.4144 -1.0655 -1.6390
 4033SOL    HW223559   2.624   1.906   1.106  0.3996  0.8277 -2.2119
 4034SOL     OW23560   1.501   0.150   7.055  0.4512 -0.8871  0.0822
 4034SOL    HW123561   1.497   0.055   7.067  2.7800 -0.6874  2.3262
 4034SOL    HW223562   1.507   0.193   7.140 -2.4185 -0.6972  0.2181
 4035SOL     OW23563   0.072   1.522   2.336 -0.2402 -0.1228  0.2980
 4035SOL    HW123564   0.067   1.612   2.305 -2.3546 -0.2616  0.2408
 4035SOL    HW223565   0.069   1.478   2.251 -0.5769 -0.5190  0.5128
 4036SOL     OW23566   0.341   1.336  14.515  0.2503 -0.4549 -0.2471
 4036SOL    HW123567   0.270   1.350  14.452 -1.3046  0.2209  1.6600
 4036SOL    HW223568   0.386   1.255  14.493 -0.5373 -0.9971  0.1634
 4037SOL     OW23569   3.938   4.329   4.292  0.2350  0.2427 -1.1045
 4037SOL    HW123570   3.999   4.255   4.297 -0.9829 -0.6940 -0.2283
 4037SOL    HW223571   3.860   4.289   4.254  2.1065 -2.4033 -2.1579
 4038SOL     OW23572   4.512   0.387   8.052 -0.0206  0.0307 -0.3451
 4038SOL    HW123573   4.604   0.408   8.037  0.3040  1.0173  3.0447
 4038SOL    HW223574   4.512   0.322   8.122 -0.7224 -0.9253 -1.2209
 4039SOL     OW23575   3.553   0.154   7.961 -0.3376  0.2029  0.1460
 4039SOL    HW123576   3.459   0.162   7.948 -0.1891 -0.6397 -1.5316
 4039SOL    HW223577   3.544   0.074   8.013  4.0767  0.3272  1.1448
 4040SOL     OW23578   1.770   2.157   6.973  0.5502  0.1948  0.0117
 4040SOL    HW123579   1.812   2.083   7.016  0.4625 -0.1270 -0.4478
 4040SOL    HW223580   1.825   2.234   6.986  0.3136  0.7978 -2.4365
 4041SOL     OW23581   2.369   2.201   7.980 -0.0113 -0.3109 -0.8234
 4041SOL    HW123582   2.279   2.197   7.948 -0.4794 -1.4540  0.5844
 4041SOL    HW223583   2.420   2.200   7.899  0.3826  0.2935 -0.5793
 4042SOL     OW23584   0.799   4.363  10.546  0.0796 -0.5146 -0.6740
 4042SOL    HW123585   0.813   4.435  10.484  0.5075  0.0963  0.1208
 4042SOL    HW223586   0.888   4.368  10.582  0.2640  2.1530 -1.4429
 4043SOL     OW23587   0.272   1.131   4.740  0.0273  0.2609  0.3243
 4043SOL    HW123588   0.367   1.145   4.738  0.2725 -1.3070  0.1546
 4043SOL    HW223589   0.249   1.094   4.825 -2.4955 -2.5476 -1.5647
 4044SOL     OW23590   0.882   0.454   1.753 -0.1290 -0.2397  0.2246
 4044SOL    HW123591   0.796   0.493   1.773 -0.2373  0.4783 -1.7019
 4044SOL    HW223592   0.856   0.364   1.736  2.1509 -1.2458  2.0368
 4045SOL     OW23593   0.190   2.420  12.816 -0.2367 -0.5528  0.2521
 4045SOL    HW123594   0.105   2.381  12.795 -0.0829 -1.2559  0.9615
 4045SOL    HW223595   0.207   2.377  12.899 -1.0577 -1.8217 -0.2232
 4046SOL     OW23596   2.209   1.169  12.429  0.0290  0.6424 -0.0709
 4046SOL    HW123597   2.304   1.156  12.436  0.1073  1.7450  0.9601
 4046SOL    HW223598   2.195   1.243  12.370  1.1359  2.7876  2.3441
 4047SOL     OW23599   3.876   3.435   6.743  0.3669  0.1657  0.3041
 4047SOL    HW123600   3.865   3.344   6.771 -1.2767  0.3747  0.3570
 4047SOL    HW223601   3.820   3.473   6.811  0.2804  0.7925 -0.1181
 4048SOL     OW23602   4.654   4.551   2.261  0.4804 -0.0379 -0.1503
 4048SOL    HW123603   4.718   4.607   2.217 -0.0970 -1.0075 -2.2252
 4048SOL    HW223604   4.575   4.604   2.277 -0.0456 -0.8684  0.0044
 4049SOL     OW23605   3.920   0.697   4.284 -0.1595 -0.2763 -0.3191
 4049SOL    HW123606   3.893   0.727   4.197  0.8316  3.0070  0.4997
 4049SOL    HW223607   4.003   0.655   4.262  1.1149  0.8518  2.4005
 4050SOL     OW23608   1.107   0.019   4.242 -0.5038 -0.1549  0.4335
 4050SOL    HW123609   1.075   0.088   4.300  1.9291  0.1001  1.4614
 4050SOL    HW223610   1.040   0.025   4.174 -0.1417 -0.4561  0.0501
 4051SOL     OW23611   0.582   3.863   5.292  0.3252 -0.0304  0.1180
 4051SOL    HW123612   0.614   3.779   5.324 -0.3652  0.6869  2.6816
 4051SOL    HW223613   0.654   3.888   5.234 -1.1472  1.1569 -1.2074
 4052SOL     OW23614   4.657   0.963   2.416  0.5344 -0.1118  0.4979
 4052SOL    HW123615   0.003   0.935   2.357 -1.1918 -1.1659 -1.0491
 4052SOL    HW223616   4.693   1.038   2.464  1.1895  1.0256 -1.7878
 4053SOL     OW23617   3.438   4.692   7.562 -0.9111 -0.3763  0.3219
 4053SOL    HW123618   3.412   4.603   7.541 -3.9269  0.6612 -0.2270
 4053SOL    HW223619   3.435   0.009   7.476 -1.9639 -2.0523 -0.4364
 4054SOL     OW23620   1.664   1.126   6.544  0.6539 -0.8063  0.5080
 4054SOL    HW123621   1.671   1.054   6.606  0.7603 -1.2293  0.0045
 4054SOL    HW223622   1.593   1.184   6.573 -1.5132 -2.6171 -1.1631
 4055SOL     OW23623   1.706   4.681   9.980  0.0321 -0.0598 -0.0158
 4055SOL    HW123624   1.692   4.645  10.068 -2.5244  0.3104 -0.2614
 4055SOL    HW223625   1.763   0.030  10.002  1.5079 -1.7677  1.9325
 4056SOL     OW23626   0.653   3.256   2.006  0.5003  0.1316  0.0041
 4056SOL    HW123627   0.600   3.177   2.012  0.4187 -0.0078 -2.5652
 4056SOL    HW223628   0.586   3.315   1.970 -0.1932 -0.3765  0.4610
 4057SOL     OW23629   2.135   0.648   2.563 -0.0163 -0.7155 -0.2302
 4057SOL    HW123630   2.230   0.659   2.561  0.2884 -3.9935 -2.6831
 4057SOL    HW223631   2.116   0.726   2.511  1.7007  0.2125  0.5162
 4058SOL     OW23632   4.558   0.618   0.746 -0.2839  0.2331 -0.7572
 4058SOL    HW123633   4.484   0.563   0.771 -1.3640  1.1168 -1.9508
 4058SOL    HW223634   4.624   0.589   0.808 -2.6350 -1.3485  0.9745
 4059SOL     OW23635   2.247   1.705  10.019 -0.1932  0.0865 -0.0181
 4059SOL    HW123636   2.319   1.672  10.073 -0.0880 -0.3409 -0.4257
 4059SOL    HW223637   2.264   1.669   9.932 -1.0861  0.1145 -0.2074
 4060SOL     OW23638   4.144   3.205   2.310 -0.5253 -0.2861 -0.0243
 4060SOL    HW123639   4.066   3.223   2.258  0.1396 -1.4678 -1.4370
 4060SOL    HW223640   4.211   3.250   2.258 -0.5683  0.7010  0.7829
 4061SOL     OW23641   2.559   0.227   4.256  0.0836 -0.1985  0.0898
 4061SOL    HW123642   2.510   0.303   4.226 -0.2404 -0.3810  0.1524
 4061SOL    HW223643   2.489   0.165   4.237  0.1749 -0.8110  1.7307
 4062SOL     OW23644   4.304   1.153   4.497 -0.3562  0.4940  0.2820
 4062SOL    HW123645   4.367   1.224   4.479  0.5442 -0.5702 -0.7301
 4062SOL    HW223646   4.353   1.101   4.561 -0.6799  0.4781  0.5139
 4063SOL     OW23647   0.645   3.980   8.139  0.6630  0.4803 -0.2604
 4063SOL    HW123648   0.712   3.935   8.088  1.5713 -0.1621  1.5143
 4063SOL    HW223649   0.693   4.011   8.216  0.5610  0.0333 -0.0170
 4064SOL     OW23650   1.777   2.709  11.415  0.3716 -0.0299  0.0652
 4064SOL    HW123651   1.799   2.687  11.324 -0.0478 -0.9785  0.1893
 4064SOL    HW223652   1.696   2.665  11.443  0.0149  0.2323 -0.5608
 4065SOL     OW23653   3.594   3.563  13.669  0.5159 -0.2471  0.3771
 4065SOL    HW123654   3.525   3.629  13.677  0.4133 -0.5865  2.1987
 4065SOL    HW223655   3.608   3.575  13.575  0.1584  0.2372  0.3805
 4066SOL     OW23656   4.145   4.371  12.193  0.5907 -0.2527 -0.2087
 4066SOL    HW123657   4.119   4.444  12.249 -0.5980 -1.1802  0.4552
 4066SOL    HW223658   4.241   4.370  12.203  0.6711  1.0228 -0.8670
 4067SOL     OW23659   2.150   4.327   2.148  0.4343  0.5859 -0.0119
 4067SOL    HW123660   2.135   4.421   2.137 -0.5853  0.4816  0.4548
 4067SOL    HW223661   2.220   4.322   2.212  0.2737  0.3184  0.1413
 4068SOL     OW23662   1.128   2.372   7.698 -0.1038  0.7408  0.2573
 4068SOL    HW123663   1.108   2.431   7.626 -0.9612 -1.3480 -1.2344
 4068SOL    HW223664   1.057   2.309   7.687 -0.0550  0.5543  1.0063
 4069SOL     OW23665   4.572   0.082   6.549 -0.4952  0.3329 -0.5775
 4069SOL    HW123666   4.637   0.117   6.487  1.2470 -2.0772 -0.0846
 4069SOL    HW223667   4.534   0.165   6.578 -0.2042 -0.0224  0.7699
 4070SOL     OW23668   1.532   2.030   6.744  0.6108  0.4279 -0.3253
 4070SOL    HW123669   1.498   2.057   6.659 -0.6935 -2.4382 -0.7260
 4070SOL    HW223670   1.484   1.952   6.772  0.4821  0.3539 -0.7574
 4071SOL     OW23671   3.303   1.384   2.338  0.6084 -0.0726 -0.0778
 4071SOL    HW123672   3.324   1.433   2.259  1.2186 -1.0530 -0.5130
 4071SOL    HW223673   3.352   1.432   2.405 -0.9568  1.9841 -0.3890
 4072SOL     OW23674   0.062   0.470  11.766  0.3853 -0.3445 -0.2140
 4072SOL    HW123675   4.694   0.449  11.754  0.6051 -2.5966  2.0742
 4072SOL    HW223676   0.060   0.565  11.751 -0.6764 -0.4559 -0.7385
 4073SOL     OW23677   1.716   2.440   1.760 -0.4248  0.2520  0.8483
 4073SOL    HW123678   1.720   2.536   1.755  0.4507  0.0860 -1.4954
 4073SOL    HW223679   1.741   2.432   1.852  0.3326 -0.0045  0.6148
 4074SOL     OW23680   4.385   1.282   3.349 -0.6105  0.1760  0.1029
 4074SOL    HW123681   4.467   1.250   3.310 -0.4912  0.9705 -0.2894
 4074SOL    HW223682   4.423   1.301   3.435  1.3584 -1.1455 -0.4570
 4075SOL     OW23683   1.477   1.617  16.758 -0.0551 -0.3318 -0.3161
 4075SOL    HW123684   1.566   1.643  16.733  0.4532 -1.7502  0.0592
 4075SOL    HW223685   1.436   1.690  16.804  1.5906  0.1847  0.3380
 4076SOL     OW23686   4.106   2.456   6.372 -0.3138 -0.6796 -0.1515
 4076SOL    HW123687   4.152   2.404   6.437  0.6759 -0.2579 -0.5031
 4076SOL    HW223688   4.180   2.496   6.325 -0.1425 -0.6242  0.1676
 4077SOL     OW23689   3.361   2.042   8.494 -0.5407  0.0561  0.3241
 4077SOL    HW123690   3.323   1.956   8.473  0.5158 -0.4090  0.3008
 4077SOL    HW223691   3.303   2.103   8.448  1.5945 -0.8152 -3.5236
 4078SOL     OW23692   4.725   2.535   7.542  0.0820 -0.3307 -0.0462
 4078SOL    HW123693   0.095   2.534   7.535  0.1254  0.9835  0.2600
 4078SOL    HW223694   4.720   2.612   7.600 -1.2952 -1.4770  1.3717
 4079SOL     OW23695   1.089   3.841   3.121 -0.2368 -0.0967  0.0413
 4079SOL    HW123696   1.133   3.756   3.132 -0.3917 -0.3964 -1.5781
 4079SOL    HW223697   1.104   3.867   3.211 -1.4477 -0.3061  0.3017
 4080SOL     OW23698   2.469   0.312  14.275  0.6404 -0.5294 -0.2428
 4080SOL    HW123699   2.499   0.318  14.184  1.0117  2.0907  0.0540
 4080SOL    HW223700   2.388   0.362  14.279  0.3616 -1.0306  0.3428
 4081SOL     OW23701   1.597   0.527   8.449 -0.1935 -0.7568 -0.1348
 4081SOL    HW123702   1.611   0.620   8.466 -0.8144 -0.4247 -1.4203
 4081SOL    HW223703   1.504   0.524   8.473  0.1764 -0.6110  1.3068
 4082SOL     OW23704   4.482   1.889   3.667 -0.1201  0.2194  0.0976
 4082SOL    HW123705   4.387   1.888   3.680 -0.4112  2.1394 -1.8940
 4082SOL    HW223706   4.493   1.983   3.678  2.2205 -0.2780  1.8531
 4083SOL     OW23707   0.036   0.045  12.777 -0.2941  0.5129 -0.0072
 4083SOL    HW123708   0.105   0.024  12.714  0.0199 -5.1824  2.3067
 4083SOL    HW223709   0.081   0.091  12.848 -1.4533 -0.4567  1.3741
 4084SOL     OW23710   2.048   2.344   8.938 -0.0045 -0.2961  0.1011
 4084SOL    HW123711   1.992   2.421   8.951  0.2808  0.0280 -0.5785
 4084SOL    HW223712   2.096   2.341   9.021  0.1122 -1.6600 -0.0194
 4085SOL     OW23713   0.103   3.834   4.378 -0.3632  0.1024  0.0345
 4085SOL    HW123714   0.044   3.860   4.307  0.2944 -1.2935 -1.0157
 4085SOL    HW223715   0.124   3.921   4.411  0.3878  0.2653 -0.8669
 4086SOL     OW23716   0.240   3.041   5.000  0.7662  0.1114  0.3629
 4086SOL    HW123717   0.155   3.024   5.040  0.7392  0.4086  0.4319
 4086SOL    HW223718   0.243   3.131   4.968  1.9311 -0.5721 -1.4867
 4087SOL     OW23719   2.892   2.204  11.598  0.0841 -0.2507 -0.1063
 4087SOL    HW123720   2.886   2.299  11.611 -2.1305 -0.3753 -0.1495
 4087SOL    HW223721   2.842   2.185  11.677 -0.6967 -1.2007 -0.8284
 4088SOL     OW23722   0.666   4.672  13.375  0.1866 -0.4150 -0.2521
 4088SOL    HW123723   0.623   0.011  13.318 -1.2713 -0.2185  1.0677
 4088SOL    HW223724   0.594   4.618  13.408  1.6047 -1.4740  1.0546
 4089SOL     OW23725   1.918   0.632   5.684  0.2490  0.9331  0.3115
 4089SOL    HW123726   1.823   0.623   5.684  0.2434  0.9516 -0.6096
 4089SOL    HW223727   1.928   0.682   5.765 -3.0586  1.7469  0.2019
 4090SOL     OW23728   0.476   1.412   9.194  0.0230  0.1261 -0.1011
 4090SOL    HW123729   0.454   1.369   9.276  0.6246  1.9457  1.0067
 4090SOL    HW223730   0.469   1.505   9.214 -3.6428 -0.2698  0.3986
 4091SOL     OW23731   4.511   1.269  14.138 -0.1862 -0.4664 -0.0352
 4091SOL    HW123732   4.420   1.274  14.109 -0.3157  2.8978  1.0105
 4091SOL    HW223733   4.552   1.303  14.058 -1.0086 -0.2434 -0.3652
 4092SOL     OW23734   0.335   2.842   0.342 -0.2739  0.4783 -0.0963
 4092SOL    HW123735   0.381   2.855   0.260  1.2064 -0.2256  0.6202
 4092SOL    HW223736   0.279   2.769   0.315 -0.0340  0.6445 -1.0276
 4093SOL     OW23737   3.510   1.053   8.177  0.4938 -0.3797  1.1389
 4093SOL    HW123738   3.510   1.077   8.084  0.4523 -1.0576  0.9655
 4093SOL    HW223739   3.560   1.123   8.219  2.2827 -0.2526 -1.2171
 4094SOL     OW23740   1.002   0.720   5.354  0.4008 -0.0607  0.2325
 4094SOL    HW123741   0.985   0.648   5.415  0.2287 -1.3041 -1.2977
 4094SOL    HW223742   0.964   0.792   5.404 -0.5303  0.5164 -1.2957
 4095SOL     OW23743   0.702   3.185   6.745 -0.1576 -0.0383  0.0821
 4095SOL    HW123744   0.744   3.271   6.738 -1.1937  0.3593 -1.2447
 4095SOL    HW223745   0.631   3.208   6.804  0.7342  0.6974  0.8793
 4096SOL     OW23746   3.014   1.443  14.703  0.3186  0.3855  0.1251
 4096SOL    HW123747   3.060   1.527  14.710  1.3780 -0.2348  0.6739
 4096SOL    HW223748   2.941   1.458  14.643  1.7736  2.4646 -1.1451
 4097SOL     OW23749   0.775   0.293   9.319 -0.5954 -0.6611 -0.5521
 4097SOL    HW123750   0.748   0.338   9.239  0.2514  1.1974  0.2303
 4097SOL    HW223751   0.694   0.244   9.339 -1.9991  1.9784  0.1544
 4098SOL     OW23752   3.460   2.759   1.636  0.2856 -0.1888  0.8306
 4098SOL    HW123753   3.425   2.821   1.572  1.4631 -0.9776 -0.5822
 4098SOL    HW223754   3.384   2.742   1.692 -1.4542 -1.4909 -1.9439
 4099SOL     OW23755   4.552   3.702   4.825  0.3237  0.3075 -0.7938
 4099SOL    HW123756   4.557   3.620   4.775 -0.6081 -0.7394  0.8205
 4099SOL    HW223757   4.575   3.772   4.765  0.4311  1.4584  0.5961
 4100SOL     OW23758   2.862   2.927   0.513  0.2441 -0.2690 -0.3248
 4100SOL    HW123759   2.807   2.871   0.567  0.2147 -0.4749 -0.5688
 4100SOL    HW223760   2.941   2.936   0.567 -0.1610  1.4080 -0.0104
 4101SOL     OW23761   1.451   2.154   5.357  0.2130 -0.6231  0.0817
 4101SOL    HW123762   1.415   2.065   5.352 -3.0379  0.6120  1.5497
 4101SOL    HW223763   1.376   2.197   5.316  0.8754  1.3997  1.0149
 4102SOL     OW23764   2.928   1.701   4.504  0.0019  0.1339 -0.6047
 4102SOL    HW123765   2.922   1.610   4.535 -2.6627  0.4197 -0.3088
 4102SOL    HW223766   3.020   1.721   4.520 -0.5046  0.0764  2.3988
 4103SOL     OW23767   2.069   3.452  17.088 -0.1342  0.8732  0.1577
 4103SOL    HW123768   1.988   3.434  17.041  0.6854 -0.8408 -0.5941
 4103SOL    HW223769   2.080   3.368  17.134 -1.4489  0.9416  0.6045
 4104SOL     OW23770   2.129   3.446   2.892  0.2768  0.5499  0.3529
 4104SOL    HW123771   2.124   3.472   2.985 -1.4525  1.8800 -0.1092
 4104SOL    HW223772   2.093   3.521   2.846 -1.5539  0.0411  0.9370
 4105SOL     OW23773   0.048   3.773   2.813  0.6121  0.4059 -0.2134
 4105SOL    HW123774   0.107   3.789   2.886 -0.2728  3.3620 -0.1164
 4105SOL    HW223775   0.019   3.690   2.849  0.7429  0.3080 -0.3326
 4106SOL     OW23776   1.467   2.398   9.645  0.0232 -0.2033 -0.2556
 4106SOL    HW123777   1.377   2.420   9.669 -0.1172  0.3931 -1.3158
 4106SOL    HW223778   1.477   2.305   9.628  1.1450 -0.1781  0.2342
 4107SOL     OW23779   4.533   1.922   7.988  0.4105  0.2791 -0.1582
 4107SOL    HW123780   4.481   1.972   7.924 -0.3301  0.2181  0.3897
 4107SOL    HW223781   4.594   1.995   8.002 -0.3385  0.9812 -0.5103
 4108SOL     OW23782   3.463   3.193   6.280 -0.3249  0.0500  0.1327
 4108SOL    HW123783   3.453   3.276   6.327 -3.3918 -0.9563  1.2890
 4108SOL    HW223784   3.494   3.223   6.194  0.3127 -1.9897 -0.3279
 4109SOL     OW23785   3.055   4.557   5.563  0.3797  0.0096 -0.4271
 4109SOL    HW123786   3.144   4.557   5.598 -0.3241 -1.0604  1.3356
 4109SOL    HW223787   3.006   4.562   5.645  0.8683 -0.1765 -0.1208
 4110SOL     OW23788   3.117   3.002   4.989 -0.0425  0.1848  0.8688
 4110SOL    HW123789   3.031   2.986   4.950  1.7464 -0.6870 -2.7564
 4110SOL    HW223790   3.177   2.971   4.921 -0.2272 -0.1923  0.8759
 4111SOL     OW23791   1.681   0.028   5.651  0.3097 -0.1435 -0.2652
 4111SOL    HW123792   1.665   0.105   5.705  1.0757 -0.4855  0.4392
 4111SOL    HW223793   1.750   0.059   5.592  0.6323 -0.3766 -0.0042
 4112SOL     OW23794   1.746   1.398   7.709 -0.3823  0.2158 -0.7640
 4112SOL    HW123795   1.738   1.473   7.767  2.2040 -1.1355  1.3162
 4112SOL    HW223796   1.828   1.411   7.662  0.3292 -0.1350  0.4012
 4113SOL     OW23797   0.707   2.235   6.259 -0.3994  0.6335  0.1861
 4113SOL    HW123798   0.717   2.330   6.256 -2.6548  0.8847  0.0053
 4113SOL    HW223799   0.655   2.220   6.180 -0.6647  3.5283 -0.1813
 4114SOL     OW23800   0.435   3.800   3.258  0.5995 -0.5448  0.1760
 4114SOL    HW123801   0.345   3.799   3.226  0.3903  0.6638  0.7542
 4114SOL    HW223802   0.476   3.737   3.199  1.0852 -0.3861  0.3410
 4115SOL     OW23803   4.330   0.612   8.068 -0.3673 -0.8365 -0.0448
 4115SOL    HW123804   4.398   0.631   8.132 -0.1138  0.6184 -0.7499
 4115SOL    HW223805   4.370   0.541   8.018 -0.4548 -2.1485  1.7345
 4116SOL     OW23806   3.274   2.604  15.861  0.3335 -0.0717 -0.6041
 4116SOL    HW123807   3.179   2.596  15.869  0.2392  0.3422 -1.2448
 4116SOL    HW223808   3.286   2.635  15.771  2.1151  0.9575 -0.0198
 4117SOL     OW23809   3.431   1.471   3.200  0.1378  0.2537 -0.0494
 4117SOL    HW123810   3.356   1.519   3.166  0.6048  0.4649 -0.7925
 4117SOL    HW223811   3.479   1.541   3.243 -0.1514 -0.5345  1.5350
 4118SOL     OW23812   1.875   1.752  13.308  0.3231 -0.0554  0.4365
 4118SOL    HW123813   1.811   1.759  13.237  0.6224 -1.1607  0.0610
 4118SOL    HW223814   1.848   1.828  13.360 -1.2984 -0.8065  0.6845
 4119SOL     OW23815   2.715   3.778  13.175  0.2862  0.2782  0.5637
 4119SOL    HW123816   2.712   3.869  13.203 -2.3176  0.2244  0.4701
 4119SOL    HW223817   2.784   3.786  13.109 -0.0781  0.5059  0.2067
 4120SOL     OW23818   2.573   3.849   3.634  0.0681  0.3994 -0.4193
 4120SOL    HW123819   2.598   3.924   3.688 -0.4100  0.1918  0.0933
 4120SOL    HW223820   2.579   3.888   3.546 -0.4525  1.7905  0.1589
 4121SOL     OW23821   4.284   3.814   3.609 -0.4107 -0.4221 -0.1109
 4121SOL    HW123822   4.360   3.816   3.551 -1.8825 -1.5544 -2.1025
 4121SOL    HW223823   4.322   3.874   3.673  1.3764  0.1019 -1.6757
 4122SOL     OW23824   4.704   0.964   6.518  0.4930 -0.3091  0.5303
 4122SOL    HW123825   4.724   1.055   6.496 -1.4029 -0.1130 -0.4329
 4122SOL    HW223826   0.066   0.926   6.530  1.5634  1.5339 -1.3943
 4123SOL     OW23827   3.600   0.425  11.087  0.8540 -0.5739  0.1383
 4123SOL    HW123828   3.584   0.340  11.129  1.1486 -1.4128 -1.4489
 4123SOL    HW223829   3.517   0.471  11.098  1.4791  0.7579 -0.7420
 4124SOL     OW23830   2.111   2.348   6.756  0.0036 -0.2652  0.1637
 4124SOL    HW123831   2.061   2.419   6.715 -0.1719  0.3474  1.4352
 4124SOL    HW223832   2.193   2.348   6.706  0.2265 -1.2482  0.5255
 4125SOL     OW23833   1.774   4.674   0.977  0.1033 -0.4832 -0.3036
 4125SOL    HW123834   1.852   4.693   0.925  0.2976  1.8371  0.8469
 4125SOL    HW223835   1.725   4.629   0.908 -2.2563  0.7028  0.6087
 4126SOL     OW23836   3.618   3.085   7.030 -0.3299  0.4771 -0.4018
 4126SOL    HW123837   3.536   3.037   7.016 -0.2804  0.3266 -0.1649
 4126SOL    HW223838   3.665   3.089   6.946 -0.5668  1.5869 -0.4769
 4127SOL     OW23839   2.192   1.473   2.547  0.0863  0.0290  0.3188
 4127SOL    HW123840   2.255   1.515   2.605 -1.1235 -0.0576  1.6862
 4127SOL    HW223841   2.236   1.493   2.464  1.4405  0.2737  1.0943
 4128SOL     OW23842   2.043   1.083   3.309 -0.5383  0.1668  0.3833
 4128SOL    HW123843   2.011   1.173   3.304  0.0141  0.4580  2.1951
 4128SOL    HW223844   2.029   1.064   3.216 -0.4977 -0.2078  0.4537
 4129SOL     OW23845   1.353   4.432   8.214 -0.4891 -0.1609 -0.0248
 4129SOL    HW123846   1.319   4.522   8.216 -0.2419 -0.0475 -0.8613
 4129SOL    HW223847   1.269   4.388   8.224 -0.2657 -0.8547 -1.2867
 4130SOL     OW23848   1.369   0.832   6.065  0.3628  0.3720 -0.4306
 4130SOL    HW123849   1.445   0.855   6.011  0.9370  1.6515  0.9244
 4130SOL    HW223850   1.294   0.834   6.006  0.6187 -1.4681 -0.8318
 4131SOL     OW23851   3.963   1.764  12.569 -0.5525  0.3998  0.5028
 4131SOL    HW123852   3.942   1.851  12.534 -1.3550  0.7408  1.7892
 4131SOL    HW223853   3.998   1.796  12.652  0.7559 -1.2149  0.5640
 4132SOL     OW23854   0.835   4.661   4.078  0.2602 -0.1787 -0.0890
 4132SOL    HW123855   0.766   4.631   4.018 -0.3154 -0.3847  0.6762
 4132SOL    HW223856   0.834   0.031   4.066 -1.1586 -0.1143  0.5794
 4133SOL     OW23857   0.836   2.211   7.451  0.7298  0.2817 -0.3208
 4133SOL    HW123858   0.864   2.216   7.542  1.3085  1.1814 -0.5419
 4133SOL    HW223859   0.785   2.293   7.448  0.6156  0.2081 -0.4003
 4134SOL     OW23860   1.754   2.377   2.015 -0.3545 -0.1986 -0.0526
 4134SOL    HW123861   1.701   2.403   2.091 -0.2281  1.1328 -0.4200
 4134SOL    HW223862   1.782   2.290   2.044 -0.7412  0.1117  1.2824
 4135SOL     OW23863   3.911   2.372  16.819 -0.1255 -0.1050  0.2579
 4135SOL    HW123864   3.944   2.459  16.840  0.2618 -0.3781  0.7657
 4135SOL    HW223865   3.892   2.333  16.904  0.0959 -3.0667 -1.0427
 4136SOL     OW23866   2.938   3.514  13.671 -0.1167 -0.5558 -0.1547
 4136SOL    HW123867   2.963   3.583  13.609  1.1248  1.8415  3.0190
 4136SOL    HW223868   2.965   3.559  13.751  2.7573 -1.1657 -0.7928
 4137SOL     OW23869   4.288   3.847   8.989 -0.3372  0.3650 -0.0665
 4137SOL    HW123870   4.225   3.782   9.019  0.2453 -0.4294 -0.5673
 4137SOL    HW223871   4.349   3.844   9.063 -0.8265 -0.9936  0.2787
 4138SOL     OW23872   0.436   1.557  14.103 -0.5842 -0.2939  0.6295
 4138SOL    HW123873   0.358   1.611  14.114 -1.0129 -0.7084 -0.4163
 4138SOL    HW223874   0.401   1.470  14.086 -0.4714 -0.3671  0.7704
 4139SOL     OW23875   2.734   3.483   7.378  0.4978  0.2239 -0.0691
 4139SOL    HW123876   2.790   3.502   7.303  2.4935  0.7409  1.5524
 4139SOL    HW223877   2.738   3.567   7.425 -1.0342  2.0200 -3.0723
 4140SOL     OW23878   3.405   2.783  17.469 -0.1549 -0.9752  0.0935
 4140SOL    HW123879   3.336   2.803  17.532  0.4649 -2.1424  1.1251
 4140SOL    HW223880   3.397   2.859  17.411 -2.5069 -1.8348 -0.7202
 4141SOL     OW23881   3.263   2.522   3.294 -0.4733  0.2484 -0.3358
 4141SOL    HW123882   3.276   2.442   3.243 -0.5296  0.6657 -1.0133
 4141SOL    HW223883   3.296   2.500   3.381  1.7945  3.0074 -0.4797
 4142SOL     OW23884   3.583   0.014  10.801 -0.3475 -0.0157  0.1090
 4142SOL    HW123885   3.656   0.030  10.861 -0.1445  1.5402 -0.5587
 4142SOL    HW223886   3.627   4.682  10.737  0.5546  0.0616  0.6652
 4143SOL     OW23887   3.238   4.019   2.424  1.1800 -0.4831  0.3081
 4143SOL    HW123888   3.290   4.099   2.429  0.1261  0.1323  1.3340
 4143SOL    HW223889   3.307   3.974   2.375  2.3019 -0.2279  1.6402
 4144SOL     OW23890   0.083   2.790   2.567 -0.2775  0.2435  0.1756
 4144SOL    HW123891   0.060   2.822   2.654 -1.6297 -1.5880  0.4727
 4144SOL    HW223892   0.107   2.700   2.590 -2.1599 -0.1286  0.6547
 4145SOL     OW23893   3.041   1.645   0.918 -0.5425  0.5150 -0.7013
 4145SOL    HW123894   3.003   1.622   1.003  0.0059 -1.5774 -1.0303
 4145SOL    HW223895   3.029   1.740   0.914 -2.2092  0.4071  1.6615
 4146SOL     OW23896   1.528   1.509  14.568 -0.4868 -0.4359  0.3461
 4146SOL    HW123897   1.554   1.600  14.551 -0.6102 -0.8741 -2.2198
 4146SOL    HW223898   1.504   1.521  14.660  0.1879  2.6355  0.1397
 4147SOL     OW23899   0.782   3.656   3.446 -0.0062 -0.7377  0.1990
 4147SOL    HW123900   0.841   3.606   3.389 -0.7887 -0.9245 -0.4464
 4147SOL    HW223901   0.788   3.587   3.512  0.9207 -0.4036  0.4602
 4148SOL     OW23902   0.422   0.650  10.390  0.0909 -0.1889 -0.1679
 4148SOL    HW123903   0.347   0.698  10.425  0.9301  0.3528  0.8793
 4148SOL    HW223904   0.427   0.577  10.451 -0.2724  1.5301  1.8999
 4149SOL     OW23905   2.779   3.867   0.439  0.0268  0.0042  0.3646
 4149SOL    HW123906   2.785   3.772   0.448  0.0205  0.1503  1.7991
 4149SOL    HW223907   2.731   3.871   0.356  0.8991  1.3347 -0.0649
 4150SOL     OW23908   0.211   0.910  10.861 -0.0004  0.6986 -0.2305
 4150SOL    HW123909   0.147   0.976  10.887 -0.6086 -0.0137  0.0946
 4150SOL    HW223910   0.283   0.961  10.825  0.1273  0.4983 -0.2580
 4151SOL     OW23911   3.290   2.538   6.850  0.0397  0.3046  0.2267
 4151SOL    HW123912   3.246   2.616   6.818 -0.1006 -0.1921 -0.7819
 4151SOL    HW223913   3.382   2.566   6.850 -0.7887  2.9410 -0.5045
 4152SOL     OW23914   2.327   1.164  13.943 -0.2533  0.4539  0.0276
 4152SOL    HW123915   2.371   1.246  13.966  0.6757  0.5623 -2.0584
 4152SOL    HW223916   2.242   1.184  13.981  0.4455  0.8100  1.3953
 4153SOL     OW23917   0.457   1.766  16.420  0.4176  0.2938 -0.0885
 4153SOL    HW123918   0.433   1.822  16.494 -0.1750  0.3358 -0.3167
 4153SOL    HW223919   0.430   1.830  16.353 -2.4293  1.0906  1.8373
 4154SOL     OW23920   0.922   4.701   2.296 -0.2922 -0.0271  0.0870
 4154SOL    HW123921   1.006   4.698   2.251  0.5811 -1.6792  1.8219
 4154SOL    HW223922   0.911   0.067   2.324 -1.4901  0.3148 -1.4684
 4155SOL     OW23923   0.345   1.688   2.184  0.2093 -0.1231  0.1504
 4155SOL    HW123924   0.310   1.715   2.270 -2.1104  0.4596 -0.9672
 4155SOL    HW223925   0.433   1.720   2.205  0.8379 -0.6469 -1.7548
 4156SOL     OW23926   0.635   1.632   4.863  0.3496  0.1712 -0.1674
 4156SOL    HW123927   0.626   1.557   4.922 -1.7558  0.9889  0.5309
 4156SOL    HW223928   0.708   1.600   4.809  2.1096  2.4189  0.8372
 4157SOL     OW23929   2.657   1.593   3.536  0.0348  0.7284  0.2312
 4157SOL    HW123930   2.666   1.572   3.443 -0.7502 -1.5210  0.6681
 4157SOL    HW223931   2.586   1.533   3.559  0.0029 -0.3135 -2.6442
 4158SOL     OW23932   3.302   4.551   5.669  0.0629  0.0660 -0.6035
 4158SOL    HW123933   3.290   4.537   5.763  1.2335 -0.4511 -0.5306
 4158SOL    HW223934   3.330   4.642   5.683  0.6564 -0.3958  1.2517
 4159SOL     OW23935   0.659   1.570  15.468 -0.0651 -0.4065  0.1117
 4159SOL    HW123936   0.743   1.607  15.442  0.4965 -2.0131 -0.4079
 4159SOL    HW223937   0.598   1.627  15.422  1.0543  1.2532  0.7086
 4160SOL     OW23938   2.492   3.523  14.999 -0.6960 -0.1370 -0.4079
 4160SOL    HW123939   2.409   3.559  14.966 -0.5285  0.8369  0.2589
 4160SOL    HW223940   2.551   3.595  14.978 -1.9362  1.3118  1.0657
 4161SOL     OW23941   1.980   1.621  17.513 -0.3399 -0.9078 -0.4169
 4161SOL    HW123942   2.035   1.557  17.468  1.3897  0.8710 -0.8386
 4161SOL    HW223943   1.991   1.606  17.607  0.4145  0.1052 -0.3434
 4162SOL     OW23944   1.880   1.856   9.234  0.1846 -0.5722  0.0912
 4162SOL    HW123945   1.838   1.792   9.176  0.6707 -0.1039 -0.7779
 4162SOL    HW223946   1.883   1.803   9.313  0.2299  1.7339  1.6337
 4163SOL     OW23947   1.950   2.901  15.824  0.1294 -0.4316 -0.4772
 4163SOL    HW123948   1.940   2.984  15.777  1.8841  1.2169  2.0591
 4163SOL    HW223949   1.908   2.917  15.908  1.9401  1.8769  0.0123
 4164SOL     OW23950   2.040   2.508   4.914  0.2063  0.1003  0.2452
 4164SOL    HW123951   2.054   2.505   4.820 -0.2868 -0.4947  0.1851
 4164SOL    HW223952   2.031   2.419   4.950  1.0341  0.2498  0.8445
 4165SOL     OW23953   4.268   4.441   7.662  0.1577  0.1594  0.0356
 4165SOL    HW123954   4.331   4.430   7.591  1.1684  0.1993  0.9445
 4165SOL    HW223955   4.252   4.350   7.687  0.2211  0.1217 -0.0611
 4166SOL     OW23956   2.270   3.133   7.977 -0.1197 -0.4342  0.2848
 4166SOL    HW123957   2.331   3.189   7.929 -1.1543  2.1471  1.9121
 4166SOL    HW223958   2.255   3.059   7.919  0.5428 -0.8066  0.5943
 4167SOL     OW23959   1.633   3.588   2.746 -0.3547  0.3189  0.3957
 4167SOL    HW123960   1.545   3.551   2.742  0.5223 -1.3560 -3.4209
 4167SOL    HW223961   1.674   3.504   2.726 -1.4873 -0.5395  1.6737
 4168SOL     OW23962   1.662   0.252   5.786 -0.2175 -0.4174  0.3814
 4168SOL    HW123963   1.753   0.239   5.812  0.6809 -0.1063 -2.5604
 4168SOL    HW223964   1.609   0.239   5.864  2.7314 -0.1448  2.4088
 4169SOL     OW23965   1.000   1.771  12.407  0.4187  0.2442 -0.2734
 4169SOL    HW123966   0.912   1.789  12.374  0.3328  0.3183 -0.0068
 4169SOL    HW223967   1.051   1.765  12.326  1.6113  1.7320  0.3594
 4170SOL     OW23968   3.202   0.903   5.698  0.0516  0.2490 -0.5767
 4170SOL    HW123969   3.180   0.926   5.608 -0.1155 -0.3997 -0.7024
 4170SOL    HW223970   3.114   0.899   5.735  0.2815 -0.5128 -0.1274
 4171SOL     OW23971   3.920   2.156  15.245  0.0247  0.1511  0.4427
 4171SOL    HW123972   4.008   2.118  15.257  1.4022  3.4432  0.7957
 4171SOL    HW223973   3.949   2.222  15.183 -0.2221 -1.0279 -0.9198
 4172SOL     OW23974   0.625   1.949  13.584 -0.6426  0.1731 -0.2170
 4172SOL    HW123975   0.582   1.896  13.518 -0.0408  1.2185 -1.4483
 4172SOL    HW223976   0.684   1.876  13.604 -1.6497 -0.3396  0.8534
 4173SOL     OW23977   2.959   2.493   5.118 -0.4239 -0.0360 -0.1915
 4173SOL    HW123978   2.929   2.557   5.053  2.0473  1.7690  0.4344
 4173SOL    HW223979   3.045   2.523   5.146 -0.4648  0.0748 -0.1840
 4174SOL     OW23980   1.898   3.555   8.625  0.3288 -0.0064  0.0710
 4174SOL    HW123981   1.805   3.563   8.645  0.4450 -1.0395  1.0230
 4174SOL    HW223982   1.924   3.647   8.628  0.9554 -0.1315 -1.5298
 4175SOL     OW23983   1.233   3.705  15.538 -0.3079 -0.1546  0.3119
 4175SOL    HW123984   1.318   3.741  15.562 -0.4418  0.6276 -0.3675
 4175SOL    HW223985   1.240   3.614  15.565  1.7621  0.0173  0.3490
 4176SOL     OW23986   2.569   4.039   5.802  0.2564  0.2773  0.5354
 4176SOL    HW123987   2.509   4.100   5.757 -1.6011 -2.2364 -0.4023
 4176SOL    HW223988   2.512   3.962   5.811  1.2590 -0.3608  1.3609
 4177SOL     OW23989   1.845   0.845   3.709 -0.1625 -0.1388  0.2060
 4177SOL    HW123990   1.832   0.754   3.683  0.4139 -0.2217  0.2139
 4177SOL    HW223991   1.830   0.890   3.625 -0.3172 -1.0831 -0.2738
 4178SOL     OW23992   3.544   2.189  11.166  0.2840 -0.3524 -0.3496
 4178SOL    HW123993   3.523   2.140  11.087 -0.9835  0.1303 -0.3126
 4178SOL    HW223994   3.582   2.116  11.216 -0.6880 -0.2801  0.4930
 4179SOL     OW23995   2.837   3.727   3.424 -0.1609  0.0800  0.4330
 4179SOL    HW123996   2.871   3.807   3.385  2.3071 -0.6097  1.1897
 4179SOL    HW223997   2.831   3.662   3.354 -1.3356  0.8463 -0.1676
 4180SOL     OW23998   3.978   0.197   3.676 -0.6684  0.2395 -0.1630
 4180SOL    HW123999   4.001   0.269   3.617  0.2619 -0.2520 -0.3986
 4180SOL    HW224000   3.887   0.187   3.647 -0.7025 -3.4611  1.2191
 4181SOL     OW24001   1.493   1.796   8.588  0.2677 -0.3810 -0.4125
 4181SOL    HW124002   1.496   1.835   8.501  0.1828 -2.3143 -1.2733
 4181SOL    HW224003   1.565   1.734   8.585  1.2692  0.7814 -0.2350
 4182SOL     OW24004   4.549   3.493   0.977  0.0469 -0.0709  0.4065
 4182SOL    HW124005   4.508   3.485   0.891 -0.6867  0.7492  0.6839
 4182SOL    HW224006   4.524   3.579   1.011  0.7594  0.2367  0.1594
 4183SOL     OW24007   4.678   1.873  10.142  0.5311  0.3868 -0.6695
 4183SOL    HW124008   4.633   1.955  10.162  0.9397  0.0978  1.4503
 4183SOL    HW224009   4.614   1.807  10.170  0.0231  0.3746 -1.8831
 4184SOL     OW24010   2.085   0.022   5.441  0.7520 -0.0683 -0.4873
 4184SOL    HW124011   1.997   0.060   5.442  1.0851  0.6431  0.9654
 4184SOL    HW224012   2.117   0.049   5.355  1.6902  0.5233  0.0519
 4185SOL     OW24013   2.284   0.482   5.227  0.7163 -0.0368 -0.0177
 4185SOL    HW124014   2.238   0.434   5.158  0.7704  0.5725 -0.4799
 4185SOL    HW224015   2.222   0.477   5.300 -0.0668 -1.4886 -0.7704
 4186SOL     OW24016   1.694   2.272   6.644 -0.4830  0.4850 -0.0268
 4186SOL    HW124017   1.721   2.307   6.559  0.6742  0.4347  0.3266
 4186SOL    HW224018   1.621   2.331   6.663  1.0751  2.1538  0.7367
 4187SOL     OW24019   2.041   2.705   8.979 -0.0486  0.6402 -0.4229
 4187SOL    HW124020   2.104   2.682   8.912  0.6424 -0.4283  0.5804
 4187SOL    HW224021   1.957   2.709   8.933  0.4719 -1.1612 -1.5434
 4188SOL     OW24022   4.004   4.379   3.859  0.3553 -0.1179 -0.4182
 4188SOL    HW124023   3.950   4.308   3.825 -1.6810  0.7315  0.9857
 4188SOL    HW224024   3.934   4.437   3.891 -0.8198 -2.1718  0.7633
 4189SOL     OW24025   0.575   3.566  13.899 -0.7722  0.4725  0.4534
 4189SOL    HW124026   0.617   3.508  13.835  0.0238 -0.8365  2.1654
 4189SOL    HW224027   0.563   3.640  13.839 -2.6409 -1.4832 -1.5689
 4190SOL     OW24028   3.637   4.609   7.755  0.1213 -0.0820 -0.6422
 4190SOL    HW124029   3.576   4.588   7.826 -0.0335  0.0095 -0.7488
 4190SOL    HW224030   3.576   4.632   7.685 -0.9593 -0.5445  0.1352
 4191SOL     OW24031   0.982   2.421   6.949 -0.0432 -0.1021 -0.1391
 4191SOL    HW124032   0.995   2.327   6.938 -0.7894 -0.4994  2.3744
 4191SOL    HW224033   1.016   2.462   6.869 -0.7718  0.6255 -0.0729
 4192SOL     OW24034   3.497   0.696   3.249 -0.1503 -0.1606  0.9158
 4192SOL    HW124035   3.418   0.643   3.263  0.2108 -1.1055 -0.6239
 4192SOL    HW224036   3.567   0.635   3.271 -1.0028 -1.8782 -1.0798
 4193SOL     OW24037   3.562   0.880   8.644 -0.5332  0.1135 -0.0246
 4193SOL    HW124038   3.622   0.934   8.695 -1.3833  0.0073  1.0960
 4193SOL    HW224039   3.621   0.830   8.589  1.6058  1.3982  1.0805
 4194SOL     OW24040   2.443   2.612  14.737  0.1693  0.4473 -0.5077
 4194SOL    HW124041   2.408   2.677  14.798  2.3039 -0.0966  1.2841
 4194SOL    HW224042   2.534   2.631  14.759  0.3630  0.8974 -1.6643
 4195SOL     OW24043   2.902   4.000  14.734  0.3915  0.4118  0.1842
 4195SOL    HW124044   2.969   4.055  14.775 -1.1574  2.2945  0.1557
 4195SOL    HW224045   2.875   3.951  14.811 -1.1603  1.6059  0.3968
 4196SOL     OW24046   1.329   4.702  10.300 -0.1252 -0.7359  0.3319
 4196SOL    HW124047   1.417   4.669  10.286  0.1625  0.0170  0.3731
 4196SOL    HW224048   1.327   0.068  10.268 -0.0149 -0.4208  1.2050
 4197SOL     OW24049   2.035   0.817   7.979  0.3346 -0.2619 -0.3477
 4197SOL    HW124050   2.076   0.731   7.985 -1.7176 -1.0994  1.4856
 4197SOL    HW224051   2.107   0.880   7.970  1.2337 -1.1653  0.5147
 4198SOL     OW24052   4.552   4.050  16.114 -0.0608 -0.0264 -0.2370
 4198SOL    HW124053   4.626   4.091  16.069 -0.7609  1.4212 -0.1017
 4198SOL    HW224054   4.484   4.117  16.103  0.5725  0.6955  0.2078
 4199SOL     OW24055   3.750   3.178   5.045  0.1446  0.1142  0.0576
 4199SOL    HW124056   3.674   3.126   5.073 -0.8989  1.1581 -0.8485
 4199SOL    HW224057   3.707   3.201   4.963 -0.7166 -0.5207  0.3311
 4200SOL     OW24058   1.700   2.205  11.423  0.3130 -0.0868 -0.9592
 4200SOL    HW124059   1.619   2.255  11.435  0.7804  0.6828 -0.9843
 4200SOL    HW224060   1.757   2.280  11.440 -1.4958  1.1352 -0.2978
 4201SOL     OW24061   1.580   2.200   3.001 -0.0468  0.1222  0.2051
 4201SOL    HW124062   1.539   2.179   3.085 -3.3348  0.8340 -1.2325
 4201SOL    HW224063   1.531   2.131   2.957 -1.9909  0.6916  1.4578
 4202SOL     OW24064   3.960   1.330   7.094  0.0983  0.3001 -0.2038
 4202SOL    HW124065   3.927   1.267   7.159  0.8707  0.8641  0.7261
 4202SOL    HW224066   3.993   1.268   7.029 -0.6358  0.4162 -0.6872
 4203SOL     OW24067   1.758   0.114  15.675 -0.0600  0.4208  0.6222
 4203SOL    HW124068   1.709   0.035  15.697  0.5015 -0.8424 -2.6528
 4203SOL    HW224069   1.817   0.108  15.751 -3.2376 -1.3606  2.9566
 4204SOL     OW24070   3.786   2.674   7.241 -0.0750 -0.0039  0.4804
 4204SOL    HW124071   3.782   2.716   7.155 -1.0995 -0.4721  0.3003
 4204SOL    HW224072   3.737   2.729   7.302  0.5292 -0.4121  1.3298
 4205SOL     OW24073   2.922   0.544   3.183  0.5642 -0.1122 -0.4346
 4205SOL    HW124074   2.979   0.577   3.113  0.8307 -0.6864 -0.4907
 4205SOL    HW224075   2.894   0.459   3.149 -2.1044  0.4792  0.2916
 4206SOL     OW24076   3.060   1.826   4.098  0.4534 -0.2311 -0.2365
 4206SOL    HW124077   3.153   1.806   4.096  1.1436  2.7766  2.6531
 4206SOL    HW224078   3.054   1.918   4.122 -0.3703 -1.1965  3.3279
 4207SOL     OW24079   2.571   1.272   6.293  0.1183  1.0544  0.0160
 4207SOL    HW124080   2.633   1.217   6.339  0.5480  1.5342  0.0165
 4207SOL    HW224081   2.505   1.290   6.360  0.3652  2.1377 -0.0226
 4208SOL     OW24082   3.957   4.314   6.046 -0.0080 -0.6297  0.1092
 4208SOL    HW124083   3.941   4.402   6.080 -2.0879 -1.0613  0.2821
 4208SOL    HW224084   4.052   4.312   6.054  0.1924  1.2540 -1.7135
 4209SOL     OW24085   1.625   2.805   5.050 -0.1021  0.0963  0.1169
 4209SOL    HW124086   1.631   2.848   4.964  2.2022  0.1192  0.2809
 4209SOL    HW224087   1.571   2.869   5.098 -1.4277 -0.2387 -0.9450
 4210SOL     OW24088   2.031   3.033   8.064  0.3654  0.2544 -0.5409
 4210SOL    HW124089   1.992   3.111   8.105  0.1362  1.5421 -3.2325
 4210SOL    HW224090   2.109   3.079   8.033  0.5049  0.8260  0.6553
 4211SOL     OW24091   2.993   0.200   9.047  0.5158  0.3026 -0.1759
 4211SOL    HW124092   2.968   0.129   8.989  2.0292 -0.9957  0.7696
 4211SOL    HW224093   3.087   0.204   9.027 -0.2514  0.7017 -3.7028
 4212SOL     OW24094   4.319   1.441   8.383 -0.3028 -0.3557  0.1069
 4212SOL    HW124095   4.353   1.507   8.322 -2.5965  1.3922  0.7173
 4212SOL    HW224096   4.226   1.446   8.365 -0.6288 -2.3246  1.3022
 4213SOL     OW24097   2.551   2.676  16.044 -0.3562 -0.3670 -0.2859
 4213SOL    HW124098   2.587   2.762  16.023 -0.7486  0.0500  0.7451
 4213SOL    HW224099   2.631   2.627  16.030 -1.1216 -2.6398  3.2497
 4214SOL     OW24100   2.675   4.245   6.250 -0.4338  0.2923 -0.1357
 4214SOL    HW124101   2.746   4.199   6.296 -1.5267 -0.4138  0.8616
 4214SOL    HW224102   2.682   4.192   6.171  1.4260 -1.0754  0.9373
 4215SOL     OW24103   3.050   3.158   8.023  0.2254 -0.0757  0.5533
 4215SOL    HW124104   3.057   3.247   8.058 -0.3740  0.2021 -0.0267
 4215SOL    HW224105   3.097   3.108   8.090 -0.3714 -0.7671  0.4536
 4216SOL     OW24106   2.547   0.722  14.217  0.2380  0.0632 -0.3785
 4216SOL    HW124107   2.455   0.748  14.211  0.8676  2.1156 -0.7851
 4216SOL    HW224108   2.552   0.684  14.305  3.1775 -0.3573 -0.7420
 4217SOL     OW24109   1.932   1.415   7.112 -0.6333  0.3826 -0.1829
 4217SOL    HW124110   1.897   1.395   7.025  0.6726 -1.0371 -0.3772
 4217SOL    HW224111   1.956   1.327   7.142 -1.0472 -0.3297 -1.9463
 4218SOL     OW24112   1.922   2.939   4.251  0.1468  0.0423  0.2623
 4218SOL    HW124113   1.910   2.844   4.254 -0.0556  0.1022  1.3530
 4218SOL    HW224114   1.868   2.972   4.323 -2.1008 -3.4813  0.1729
 4219SOL     OW24115   2.078   0.960   2.255  0.5293 -0.6598 -0.5811
 4219SOL    HW124116   2.107   0.869   2.247  0.2281 -0.7284 -0.8716
 4219SOL    HW224117   2.089   0.976   2.162  0.6103  3.2538  0.1023
 4220SOL     OW24118   0.597   3.081   6.164  0.2714 -0.2285 -0.1961
 4220SOL    HW124119   0.513   3.124   6.174  0.6183  0.5669 -0.7312
 4220SOL    HW224120   0.632   3.081   6.253  1.6370  0.0342 -0.7318
 4221SOL     OW24121   4.260   1.318  14.043  0.2399 -0.5325  0.1876
 4221SOL    HW124122   4.209   1.309  13.962 -0.8917 -0.3106  0.8689
 4221SOL    HW224123   4.220   1.398  14.077  2.3887  0.6097 -0.0149
 4222SOL     OW24124   0.491   1.258   6.601 -0.9936  0.2039 -0.4268
 4222SOL    HW124125   0.418   1.319   6.589  0.3893  1.3968 -2.7372
 4222SOL    HW224126   0.562   1.318   6.626 -0.7204 -0.0954 -0.4858
 4223SOL     OW24127   1.804   0.702   8.180  0.2912  0.0826  0.1037
 4223SOL    HW124128   1.858   0.756   8.121  0.6466  0.1281  0.4678
 4223SOL    HW224129   1.870   0.641   8.213  1.5903  2.2647  1.5292
 4224SOL     OW24130   1.634   4.257   4.530  0.1384 -0.2538 -0.0500
 4224SOL    HW124131   1.669   4.260   4.441 -0.8390  1.4201 -0.3643
 4224SOL    HW224132   1.715   4.256   4.581 -0.1507 -0.0257  0.4055
 4225SOL     OW24133   2.497   2.835   3.775  0.4352  0.0533 -0.0654
 4225SOL    HW124134   2.481   2.787   3.856 -0.0744  0.3292 -0.0026
 4225SOL    HW224135   2.413   2.825   3.732 -0.7452  1.5024  1.8929
 4226SOL     OW24136   2.329   0.795   7.997  0.0879 -0.2983  0.3380
 4226SOL    HW124137   2.386   0.826   8.067 -0.8049 -0.6814  1.2411
 4226SOL    HW224138   2.289   0.728   8.053 -1.7582  1.2955  0.8850
 4227SOL     OW24139   2.960   1.729  16.466  0.2945  0.5159  0.0843
 4227SOL    HW124140   2.956   1.648  16.517  0.0046 -0.0485 -0.8266
 4227SOL    HW224141   2.877   1.725  16.419 -0.3102 -1.6841  1.3166
 4228SOL     OW24142   4.439   1.937  11.219 -0.0947 -0.3096  0.2061
 4228SOL    HW124143   4.430   1.866  11.282 -1.5269  0.5159  0.9447
 4228SOL    HW224144   4.348   1.967  11.217  1.2128  3.6951 -0.5056
 4229SOL     OW24145   4.158   4.123  17.007  0.2905  0.0833 -0.0550
 4229SOL    HW124146   4.116   4.123  17.093  1.2026 -0.4956  0.3928
 4229SOL    HW224147   4.166   4.216  16.988 -0.1547  0.1768  0.2262
 4230SOL     OW24148   1.426   4.647   2.731 -0.0686 -0.1261  0.1987
 4230SOL    HW124149   1.462   4.564   2.763 -0.4770 -0.3162  0.1683
 4230SOL    HW224150   1.494   4.656   2.665  1.0941 -1.6166  1.1947
 4231SOL     OW24151   0.798   1.755   5.047 -0.1267 -0.0214 -0.2346
 4231SOL    HW124152   0.743   1.722   4.976 -0.7244 -0.5557  0.4743
 4231SOL    HW224153   0.806   1.849   5.028 -1.3646 -0.0709 -0.9991
 4232SOL     OW24154   0.553   1.889   5.713  0.4021  0.5466  0.4266
 4232SOL    HW124155   0.546   1.868   5.620  0.2670 -2.3216  1.0852
 4232SOL    HW224156   0.616   1.823   5.743 -0.0636 -0.5153 -0.9584
 4233SOL     OW24157   0.612   1.076   7.305  0.4495  0.0276 -0.0323
 4233SOL    HW124158   0.538   1.020   7.331 -0.2391 -0.0354 -2.1328
 4233SOL    HW224159   0.631   1.136   7.377  0.6092  1.9164 -1.6329
 4234SOL     OW24160   1.510   0.752   4.669  0.0314 -0.3458  0.5540
 4234SOL    HW124161   1.602   0.730   4.652 -0.5519 -1.3276 -1.2056
 4234SOL    HW224162   1.496   0.711   4.755  0.0877 -0.6906  0.3958
 4235SOL     OW24163   1.640   1.834   7.114 -0.4485 -0.3309  0.0098
 4235SOL    HW124164   1.724   1.863   7.149 -0.1434 -1.2496  0.0330
 4235SOL    HW224165   1.657   1.741   7.102 -3.5570 -0.4540 -3.3675
 4236SOL     OW24166   2.238   0.645   7.406 -0.3045 -0.2561 -0.3909
 4236SOL    HW124167   2.313   0.598   7.370  0.2192 -1.0492  1.7794
 4236SOL    HW224168   2.166   0.586   7.383 -0.8767 -0.0031  0.7882
 4237SOL     OW24169   2.014   0.575   4.997 -0.2857  0.3115 -0.2500
 4237SOL    HW124170   2.104   0.543   5.003 -0.1087  0.9693  0.5343
 4237SOL    HW224171   2.025   0.656   4.946 -0.8908  1.1062  0.8778
 4238SOL     OW24172   0.392   2.691  16.715 -0.4498 -0.4749  0.0075
 4238SOL    HW124173   0.386   2.784  16.696 -2.4519 -0.3963  0.9598
 4238SOL    HW224174   0.365   2.698  16.807 -0.9479 -0.4414 -0.1415
 4239SOL     OW24175   0.396   2.113   6.190  0.8064  0.0205  0.6259
 4239SOL    HW124176   0.443   2.072   6.262  0.2236  0.2322  1.1212
 4239SOL    HW224177   0.325   2.161   6.232 -0.5925 -0.6088 -0.9914
 4240SOL     OW24178   1.062   3.375   7.289  0.1925  0.0136  0.7237
 4240SOL    HW124179   0.999   3.368   7.217  1.7731 -1.5434 -0.5334
 4240SOL    HW224180   1.118   3.297   7.283 -0.0238 -0.1574  0.9128
 4241SOL     OW24181   0.710   3.957   1.512  0.5503  0.2174  0.4109
 4241SOL    HW124182   0.624   3.978   1.548  0.1970 -1.5815  0.6105
 4241SOL    HW224183   0.768   4.010   1.567  0.2515 -0.7765  1.6949
 4242SOL     OW24184   1.532   2.200  12.588 -0.1878 -0.2108 -0.0082
 4242SOL    HW124185   1.574   2.205  12.502 -0.7778  0.4792 -0.2564
 4242SOL    HW224186   1.609   2.190  12.645 -1.0438  0.3200  1.2461
 4243SOL     OW24187   1.502   0.005   2.273  0.1199  0.1495  0.4212
 4243SOL    HW124188   1.582   0.051   2.300 -0.2935  1.2316 -0.1689
 4243SOL    HW224189   1.467   0.064   2.206 -0.7539 -0.1297  0.6353
 4244SOL     OW24190   2.918   3.327   3.601 -0.2849 -0.3127 -0.2412
 4244SOL    HW124191   2.933   3.299   3.510  2.9269  0.6966 -0.0203
 4244SOL    HW224192   2.824   3.311   3.615 -0.8958  1.7578 -1.9228
 4245SOL     OW24193   0.296   1.556  16.515 -0.1937 -0.4237 -0.1598
 4245SOL    HW124194   0.313   1.596  16.600 -0.7580 -0.6870  0.0763
 4245SOL    HW224195   0.335   1.622  16.458 -0.4429 -0.7847 -0.7580
 4246SOL     OW24196   2.212   3.293   6.468  0.4829  0.7850  0.4509
 4246SOL    HW124197   2.161   3.354   6.415 -0.9476 -0.6615  0.1871
 4246SOL    HW224198   2.183   3.324   6.554 -2.1209 -0.5051  0.0270
 4247SOL     OW24199   0.750   0.763  13.701  0.0470 -0.8864 -0.1177
 4247SOL    HW124200   0.701   0.734  13.778 -1.2386  0.0643 -0.5798
 4247SOL    HW224201   0.708   0.717  13.629 -0.3629 -1.9335  0.7823
 4248SOL     OW24202   3.394   1.557   6.552  0.2480  0.5113 -0.3954
 4248SOL    HW124203   3.432   1.524   6.634  2.7291 -0.4125 -1.8984
 4248SOL    HW224204   3.303   1.529   6.553  1.1676 -2.5182 -1.4031
 4249SOL     OW24205   3.914   4.722   9.114  0.1470  0.1232 -0.2482
 4249SOL    HW124206   3.966   0.021   9.037  1.0827 -2.7746 -0.4930
 4249SOL    HW224207   3.932   0.069   9.175 -0.0291 -0.2102  0.1986
 4250SOL     OW24208   4.672   1.525   7.008  0.4948 -0.5813  0.0308
 4250SOL    HW124209   4.696   1.517   7.100 -0.1069  0.8868  0.3224
 4250SOL    HW224210   4.624   1.608   7.011  2.6625  0.6381  0.7788
 4251SOL     OW24211   0.643   3.739   4.392  0.0994  0.9608  0.0072
 4251SOL    HW124212   0.696   3.674   4.346  0.5067  0.4178  1.2266
 4251SOL    HW224213   0.703   3.775   4.457 -0.8773  1.1721  0.7886
 4252SOL     OW24214   1.509   2.586   7.973 -0.2504  0.2261  0.3936
 4252SOL    HW124215   1.418   2.557   7.978 -0.1841  0.1583  1.1442
 4252SOL    HW224216   1.508   2.658   8.036 -0.9754  0.9453 -0.4280
 4253SOL     OW24217   4.259   1.049  16.084 -0.2161 -0.1720  0.0782
 4253SOL    HW124218   4.269   1.056  16.178  0.3515  0.5759 -0.0435
 4253SOL    HW224219   4.323   1.116  16.061  1.8416 -2.6036 -1.3399
 4254SOL     OW24220   3.178   3.516   3.020  0.8851 -0.9808 -0.2346
 4254SOL    HW124221   3.128   3.581   3.069  0.5940 -1.3574 -0.0312
 4254SOL    HW224222   3.119   3.480   2.954  0.9592  0.7486 -1.2452
 4255SOL     OW24223   1.275   3.212   9.147 -0.6756  0.0164  0.2799
 4255SOL    HW124224   1.184   3.206   9.175 -1.0995 -0.0433 -1.1375
 4255SOL    HW224225   1.311   3.123   9.151  0.7770  0.7764  4.0258
 4256SOL     OW24226   4.501   1.237   7.349  0.1419  0.4125  0.4286
 4256SOL    HW124227   4.468   1.327   7.355  0.3675  0.7239 -2.8787
 4256SOL    HW224228   4.428   1.195   7.394  0.1647 -0.5063 -0.3971
 4257SOL     OW24229   3.136   3.752   8.410  0.6276 -0.5112 -0.0651
 4257SOL    HW124230   3.218   3.709   8.435  0.8520 -0.1107 -0.1044
 4257SOL    HW224231   3.161   3.843   8.426 -1.7951 -0.2318  2.1234
 4258SOL     OW24232   1.262   1.499  16.568 -0.1340  0.0917 -0.3750
 4258SOL    HW124233   1.289   1.424  16.515  0.4458  0.1092 -0.1111
 4258SOL    HW224234   1.194   1.549  16.524 -1.2297 -0.8668  0.2375
 4259SOL     OW24235   2.304   4.600   3.187 -0.0076 -0.5729  0.4160
 4259SOL    HW124236   2.289   4.644   3.103 -0.9846 -1.7698 -0.0405
 4259SOL    HW224237   2.220   4.623   3.226  0.1995  2.4415 -0.9613
 4260SOL     OW24238   2.250   3.595  16.495  0.2702 -0.4985 -0.6036
 4260SOL    HW124239   2.215   3.593  16.406 -2.1887  0.8742  0.3519
 4260SOL    HW224240   2.244   3.687  16.521  1.0582  0.0431 -2.2815
 4261SOL     OW24241   4.624   3.633   7.283 -0.1246 -0.2441 -0.0453
 4261SOL    HW124242   4.592   3.554   7.327 -1.0531  0.7078  0.9928
 4261SOL    HW224243   4.711   3.646   7.322  0.5405  0.8450 -1.9039
 4262SOL     OW24244   0.209   4.036   7.008  0.0368  0.7585  0.1045
 4262SOL    HW124245   0.263   4.058   6.932 -0.8908  3.1664  0.1477
 4262SOL    HW224246   0.277   4.073   7.065 -0.7770 -1.1288  2.2538
 4263SOL     OW24247   3.087   3.033  10.194 -0.4483 -0.2602 -0.5953
 4263SOL    HW124248   3.050   3.118  10.168  2.7515  1.4226  0.3544
 4263SOL    HW224249   3.003   2.988  10.199 -1.4146  1.5627 -0.4742
 4264SOL     OW24250   4.340   3.425   7.294 -0.4006 -0.2710 -0.6682
 4264SOL    HW124251   4.352   3.511   7.254 -0.6302  0.2837  0.4716
 4264SOL    HW224252   4.349   3.446   7.387 -2.8943 -2.4524  0.0666
 4265SOL     OW24253   1.764   0.593   7.528 -0.3091  0.2602 -0.5928
 4265SOL    HW124254   1.824   0.532   7.571  0.4471  2.1742  1.0823
 4265SOL    HW224255   1.825   0.652   7.483  0.8181 -1.7955 -1.7565
 4266SOL     OW24256   2.004   3.158   0.913 -0.2716  0.0296 -0.6811
 4266SOL    HW124257   2.057   3.149   0.833  0.2564 -2.9062  0.0038
 4266SOL    HW224258   1.926   3.206   0.888 -0.3796  0.1611 -0.0759
 4267SOL     OW24259   0.618   4.026   4.607  0.3865 -0.0150  0.0275
 4267SOL    HW124260   0.527   3.998   4.600  0.7379 -1.7722  2.3435
 4267SOL    HW224261   0.665   3.943   4.596 -1.0259 -0.8850  0.6048
 4268SOL     OW24262   3.121   2.088   6.070 -0.6511 -0.2841 -0.3638
 4268SOL    HW124263   3.203   2.039   6.071 -1.3523 -1.4280  0.2812
 4268SOL    HW224264   3.083   2.059   5.988 -1.0632 -1.4570  0.2413
 4269SOL     OW24265   1.346   2.536   4.116 -0.4869 -0.4203 -0.0520
 4269SOL    HW124266   1.256   2.520   4.145 -0.9257 -1.6704 -2.1516
 4269SOL    HW224267   1.335   2.626   4.087  3.8385  1.1960  3.2177
 4270SOL     OW24268   1.178   0.163   9.240  0.2408 -0.5262 -0.2776
 4270SOL    HW124269   1.210   0.105   9.309 -0.8651  0.2276  0.8654
 4270SOL    HW224270   1.172   0.098   9.169  1.4352  0.7583 -1.5522
 4271SOL     OW24271   3.871   3.793  15.254 -1.3196 -0.4972  0.0697
 4271SOL    HW124272   3.921   3.715  15.230  0.3429  0.9701 -1.2434
 4271SOL    HW224273   3.860   3.836  15.169 -0.8232  1.0730  0.8143
 4272SOL     OW24274   4.529   3.392   7.872  0.2811  0.2764 -0.1505
 4272SOL    HW124275   4.468   3.341   7.925 -0.2917  0.1996 -0.8845
 4272SOL    HW224276   4.560   3.460   7.933  1.7237  1.5708 -2.3381
 4273SOL     OW24277   3.102   0.991  11.297 -0.9460  0.1552  0.8126
 4273SOL    HW124278   3.015   0.954  11.312 -1.6004  1.7199  0.8217
 4273SOL    HW224279   3.132   0.998  11.388 -0.2432  2.7303  0.3781
 4274SOL     OW24280   3.302   1.696   1.627  0.0732  0.1346  0.3212
 4274SOL    HW124281   3.320   1.665   1.538 -1.5332 -1.3267  0.5054
 4274SOL    HW224282   3.309   1.791   1.622 -0.1139  0.1434  0.2291
 4275SOL     OW24283   3.393   4.616   4.336  0.1899  0.4894 -0.2971
 4275SOL    HW124284   3.356   4.531   4.360 -1.3432  1.5815  1.2960
 4275SOL    HW224285   3.422   4.594   4.248  2.4590  0.8299  0.3596
 4276SOL     OW24286   1.705   0.422   4.834  0.0811  0.3127 -0.2406
 4276SOL    HW124287   1.716   0.402   4.741 -0.8657 -0.3157 -0.2130
 4276SOL    HW224288   1.615   0.454   4.829  0.6400  1.9726  0.1348
 4277SOL     OW24289   3.997   2.800  15.585  0.0262 -1.0377  0.0821
 4277SOL    HW124290   3.973   2.753  15.665 -0.2817 -1.0092  0.0059
 4277SOL    HW224291   3.924   2.860  15.569  1.2521  0.6041  0.6410
 4278SOL     OW24292   4.272   2.018   1.793 -0.0105 -0.0529 -0.0044
 4278SOL    HW124293   4.217   1.940   1.789 -1.5632  0.9477  1.9729
 4278SOL    HW224294   4.324   1.997   1.715  1.1753  0.5717  0.6219
 4279SOL     OW24295   0.886   2.009   5.960 -0.2950  0.8307 -0.2577
 4279SOL    HW124296   0.839   1.981   6.038  0.2834  1.1764  0.2162
 4279SOL    HW224297   0.939   2.077   6.002 -0.4354 -1.2509  3.3254
 4280SOL     OW24298   1.228   2.206  16.587  0.5278 -0.1052 -0.4136
 4280SOL    HW124299   1.194   2.133  16.534  1.5911 -1.2498  0.4807
 4280SOL    HW224300   1.291   2.246  16.528 -0.5789 -2.3475 -3.0937
 4281SOL     OW24301   0.421   1.246   9.413  0.2800  0.0895 -0.4074
 4281SOL    HW124302   0.413   1.314   9.480  1.8113  1.5175 -1.7244
 4281SOL    HW224303   0.334   1.205   9.421  0.1350  0.5342  0.2950
 4282SOL     OW24304   2.344   1.178   5.586  0.7764  0.1789 -0.4046
 4282SOL    HW124305   2.310   1.204   5.501 -0.4662 -1.8618 -0.5402
 4282SOL    HW224306   2.316   1.087   5.572 -0.6301  0.0741  3.0473
 4283SOL     OW24307   0.001   3.948  10.293 -0.1526  0.1975 -0.0642
 4283SOL    HW124308   0.068   4.004  10.334 -1.0527  2.2973 -1.4969
 4283SOL    HW224309   0.046   3.904  10.221 -1.0843 -1.6109  0.4546
 4284SOL     OW24310   3.355   0.170   4.088 -0.5615  0.2305 -0.0961
 4284SOL    HW124311   3.411   0.137   4.158  0.0220 -0.1561 -0.7441
 4284SOL    HW224312   3.299   0.093   4.078  1.7875 -1.5477  0.3696
 4285SOL     OW24313   4.636   1.491   6.438 -0.0971 -0.3070  0.0835
 4285SOL    HW124314   4.578   1.428   6.395 -1.2398  0.7492  0.0765
 4285SOL    HW224315   4.579   1.568   6.443  1.9294  1.2593 -0.9933
 4286SOL     OW24316   0.869   0.193  12.680  0.2671 -0.0796  0.0773
 4286SOL    HW124317   0.839   0.213  12.768  0.5314  2.3042 -0.3825
 4286SOL    HW224318   0.847   0.272  12.631  0.0591 -0.7404 -0.8911
 4287SOL     OW24319   1.397   2.199  13.131  0.6144  0.2047  0.5803
 4287SOL    HW124320   1.479   2.151  13.143 -0.3306 -1.3318  0.9120
 4287SOL    HW224321   1.403   2.229  13.041  2.9015  0.2194  0.7357
 4288SOL     OW24322   0.098   0.002   5.509  0.4088 -0.1056 -0.3909
 4288SOL    HW124323   0.022   4.669   5.501  0.1873 -0.2742  2.8540
 4288SOL    HW224324   0.145   4.680   5.578 -2.0799 -0.6847  0.9245
 4289SOL     OW24325   2.870   2.746   4.701 -0.8586 -0.2464  0.3867
 4289SOL    HW124326   2.867   2.841   4.713  0.5303  0.0473 -1.4430
 4289SOL    HW224327   2.803   2.740   4.632  1.4138 -0.0475 -1.8620
 4290SOL     OW24328   2.360   2.840  14.911 -0.1643  0.0984 -0.3534
 4290SOL    HW124329   2.372   2.866  15.002  1.7328  1.3647 -0.9394
 4290SOL    HW224330   2.286   2.892  14.878 -0.5753  0.4090  1.0491
 4291SOL     OW24331   0.783   3.602   4.212  0.4795  0.2793 -0.2154
 4291SOL    HW124332   0.716   3.555   4.163 -0.6709  0.5213  1.1222
 4291SOL    HW224333   0.820   3.670   4.155 -0.3878  2.0567  1.3316
 4292SOL     OW24334   3.995   1.850   8.525 -0.3680  0.2926  0.4741
 4292SOL    HW124335   3.977   1.928   8.577  0.3329 -0.0649  1.2455
 4292SOL    HW224336   4.037   1.798   8.593  0.8493 -0.0027 -0.5120
 4293SOL     OW24337   3.643   0.802   3.970  0.1437  0.2583  0.6324
 4293SOL    HW124338   3.555   0.771   3.992  0.5933 -0.9202  0.7678
 4293SOL    HW224339   3.639   0.886   4.016 -0.8268  1.4968 -1.7276
 4294SOL     OW24340   2.184   2.626   9.492  0.5754 -0.3085 -0.1402
 4294SOL    HW124341   2.187   2.683   9.415 -2.0946  0.1115  0.0665
 4294SOL    HW224342   2.098   2.588   9.472  0.1859  2.1643 -3.0822
 4295SOL     OW24343   2.842   0.438   9.035 -0.0681  0.1282  0.4631
 4295SOL    HW124344   2.880   0.358   9.071 -0.8151 -0.6055 -0.3819
 4295SOL    HW224345   2.884   0.449   8.949 -1.6075  0.2450 -0.2717
 4296SOL     OW24346   4.183   0.071  15.035 -0.2083  0.2246 -0.3965
 4296SOL    HW124347   4.153   0.065  14.944  0.6023 -1.9791 -0.5116
 4296SOL    HW224348   4.262   0.017  15.035  0.7644  1.6450 -1.3247
 4297SOL     OW24349   2.620   2.743  11.804  0.1249  0.2698  0.3881
 4297SOL    HW124350   2.528   2.741  11.777  0.7700  0.6470 -1.8031
 4297SOL    HW224351   2.646   2.822  11.756  0.7429  0.2207  0.6473
 4298SOL     OW24352   2.964   1.759   2.520 -0.3314 -0.1489 -0.3263
 4298SOL    HW124353   2.984   1.668   2.497 -0.3588 -0.0290 -0.8308
 4298SOL    HW224354   3.052   1.783   2.549 -0.2896  2.6424 -2.7818
 4299SOL     OW24355   3.364   3.766   3.623  0.2678  0.3320 -0.6713
 4299SOL    HW124356   3.377   3.789   3.715  0.1960 -0.0565 -0.5612
 4299SOL    HW224357   3.449   3.727   3.603 -1.2182 -2.6125 -1.1988
 4300SOL     OW24358   1.832   3.325   3.675  0.6820 -0.4047 -0.1351
 4300SOL    HW124359   1.855   3.233   3.679  2.1009  0.0495  2.0205
 4300SOL    HW224360   1.922   3.354   3.661  0.0546  1.1378 -0.9878
 4301SOL     OW24361   2.015   2.054   8.118  0.2281 -0.3322 -0.3422
 4301SOL    HW124362   2.059   2.103   8.049 -1.6708  1.1616 -0.5243
 4301SOL    HW224363   1.988   1.974   8.073 -0.1408  0.4893 -1.5811
 4302SOL     OW24364   0.873   3.151   4.319  0.5097  0.8647  0.8695
 4302SOL    HW124365   0.917   3.235   4.330 -0.2103  1.2336  0.9550
 4302SOL    HW224366   0.817   3.149   4.397 -1.4332  0.8599 -0.5249
 4303SOL     OW24367   1.902   1.860  10.434  0.1413  0.9864  0.0920
 4303SOL    HW124368   1.940   1.878  10.520  0.3718  0.8912  0.0103
 4303SOL    HW224369   1.962   1.794  10.398 -2.1336 -0.7659 -0.4779
 4304SOL     OW24370   3.867   1.843   9.130  0.1104 -0.8133  0.3210
 4304SOL    HW124371   3.781   1.818   9.097  1.4214 -3.1052 -1.3908
 4304SOL    HW224372   3.922   1.779   9.085 -1.8752 -2.0073 -0.4144
 4305SOL     OW24373   2.400   2.805   7.579 -0.5009 -0.0732  0.1626
 4305SOL    HW124374   2.365   2.716   7.575 -0.5502 -0.0729  0.6266
 4305SOL    HW224375   2.460   2.809   7.505  0.1738 -2.7252  0.5701
 4306SOL     OW24376   3.932   1.049   8.092 -0.0080 -0.1598 -0.0193
 4306SOL    HW124377   3.909   1.003   8.012  0.8851 -2.8794  1.3114
 4306SOL    HW224378   3.912   0.982   8.158  0.4035 -1.7489 -1.5238
 4307SOL     OW24379   1.046   3.076  14.364  0.4933  0.0978  0.3335
 4307SOL    HW124380   1.071   3.042  14.279 -1.6148  0.7185 -0.5420
 4307SOL    HW224381   0.986   3.148  14.341 -0.2135  0.2577  2.6842
 4308SOL     OW24382   2.702   0.360  16.375  0.2597  0.3683 -0.2304
 4308SOL    HW124383   2.772   0.402  16.426  0.7932 -1.8672  0.8881
 4308SOL    HW224384   2.658   0.439  16.343 -2.4337 -0.1165  2.2526
 4309SOL     OW24385   2.008   1.910   3.306 -0.1671  0.2727 -0.1967
 4309SOL    HW124386   1.999   1.825   3.263  0.9737  0.2325 -0.3634
 4309SOL    HW224387   2.086   1.940   3.259  0.0093  1.4790  0.8920
 4310SOL     OW24388   1.333   2.541   1.673  0.5235 -0.2170  0.2960
 4310SOL    HW124389   1.294   2.555   1.587  0.2952  0.1025  0.4557
 4310SOL    HW224390   1.266   2.485   1.713  1.0702 -1.4368 -0.4737
 4311SOL     OW24391   0.203   1.983   7.370 -0.0716 -0.2118  0.2191
 4311SOL    HW124392   0.135   2.044   7.399  0.8053  1.4645 -1.2301
 4311SOL    HW224393   0.278   2.040   7.387 -1.0573  0.9288  0.7065
 4312SOL     OW24394   0.285   0.876   9.917  0.1565  0.0689 -0.3060
 4312SOL    HW124395   0.313   0.839  10.001 -0.6188  1.0183  0.3646
 4312SOL    HW224396   0.361   0.915   9.873  1.0190  0.1042  1.2242
 4313SOL     OW24397   3.478   3.431  11.030 -0.1240 -0.1593 -0.3342
 4313SOL    HW124398   3.526   3.361  10.985  0.1031 -1.3585  1.7556
 4313SOL    HW224399   3.535   3.504  11.008  1.3933 -1.7737 -1.7881
 4314SOL     OW24400   0.171   0.224  11.684  0.5448  0.1840 -0.5468
 4314SOL    HW124401   0.109   0.294  11.705  0.6795 -0.0300  0.5802
 4314SOL    HW224402   0.137   0.157  11.743  0.5663 -2.8858 -4.0830
 4315SOL     OW24403   3.408   4.483   5.327  0.6201  0.5117 -0.0743
 4315SOL    HW124404   3.455   4.435   5.396 -0.9472 -0.2041  0.4914
 4315SOL    HW224405   3.329   4.507   5.375  1.3121  1.8054  0.4100
 4316SOL     OW24406   2.237   1.913   8.011  0.0679  0.4769  0.5274
 4316SOL    HW124407   2.261   1.961   8.091  2.7844 -0.5830  0.3353
 4316SOL    HW224408   2.150   1.885   8.040  1.5039 -2.2807  2.1279
 4317SOL     OW24409   2.831   3.911  17.059 -0.1966  0.0711  0.7457
 4317SOL    HW124410   2.878   3.907  17.142  1.1363 -0.5848 -0.0456
 4317SOL    HW224411   2.806   4.004  17.056 -2.1513 -0.5451 -2.2802
 4318SOL     OW24412   2.473   2.190  17.281 -0.2935 -0.0844 -0.3797
 4318SOL    HW124413   2.385   2.213  17.311 -0.9219 -0.9583 -1.5310
 4318SOL    HW224414   2.500   2.149  17.363 -1.6968 -0.4864 -0.1254
 4319SOL     OW24415   1.046   2.559   9.951 -0.1567 -0.3537  0.5903
 4319SOL    HW124416   1.011   2.615  10.019 -1.6727 -0.5047 -0.0678
 4319SOL    HW224417   1.087   2.612   9.882  1.5030 -3.4857 -0.8673
 4320SOL     OW24418   1.299   2.870   3.144  0.0725  0.4139 -0.1134
 4320SOL    HW124419   1.236   2.837   3.080  1.0194 -0.9288 -0.3457
 4320SOL    HW224420   1.331   2.951   3.103  2.6177 -0.3197  0.4241
 4321SOL     OW24421   1.964   2.986   7.748  0.1652  0.8442 -0.0061
 4321SOL    HW124422   1.994   2.965   7.660  1.8390 -0.6100  0.9273
 4321SOL    HW224423   2.044   2.970   7.798 -1.6340  0.2387  2.6983
 4322SOL     OW24424   4.415   3.541   2.334  0.3433  0.3271  0.8631
 4322SOL    HW124425   4.362   3.488   2.273 -1.1978 -0.9844  3.3558
 4322SOL    HW224426   4.416   3.620   2.279  2.5697  1.0301  1.9382
 4323SOL     OW24427   1.011   3.219   1.074  0.2822  0.2337  0.2894
 4323SOL    HW124428   0.940   3.279   1.051 -1.6415 -2.7032 -1.4645
 4323SOL    HW224429   0.959   3.171   1.139  1.1893 -0.7588  0.2841
 4324SOL     OW24430   1.166   2.535   5.856  0.3733 -0.9047  0.3447
 4324SOL    HW124431   1.245   2.484   5.871  0.1106 -1.1788  0.8213
 4324SOL    HW224432   1.161   2.594   5.932  0.0461  0.3878 -0.6828
 4325SOL     OW24433   2.225   2.575   2.658 -0.0218  0.5199 -0.3499
 4325SOL    HW124434   2.283   2.543   2.590  1.3886  2.7914 -0.2305
 4325SOL    HW224435   2.238   2.517   2.733  1.5111  1.3567  0.0318
 4326SOL     OW24436   1.888   1.202   7.472  0.3201  0.0692  0.0021
 4326SOL    HW124437   1.795   1.183   7.473  0.1796  0.8014  1.0973
 4326SOL    HW224438   1.876   1.290   7.508  2.1041  0.1957  0.2952
 4327SOL     OW24439   1.755   0.104   7.940 -0.4759 -0.3508 -0.3896
 4327SOL    HW124440   1.707   0.071   8.016  0.4918 -0.3132  0.2470
 4327SOL    HW224441   1.684   0.110   7.876 -2.1610 -0.0328  1.5095
 4328SOL     OW24442   2.720   2.311   1.548  0.2084 -0.5058 -0.1237
 4328SOL    HW124443   2.635   2.355   1.546 -0.2444 -1.4528 -2.5098
 4328SOL    HW224444   2.688   2.222   1.532  0.8955 -1.2965  2.9318
 4329SOL     OW24445   3.356   0.119  10.724 -0.1311  0.0912 -0.6906
 4329SOL    HW124446   3.320   0.032  10.707 -0.5671 -0.0376  0.9140
 4329SOL    HW224447   3.444   0.096  10.754  0.3876  0.2337 -2.0966
 4330SOL     OW24448   0.374   2.348   5.528 -0.7360  0.4364  0.0536
 4330SOL    HW124449   0.316   2.396   5.468 -1.2465  0.1291  0.2980
 4330SOL    HW224450   0.334   2.261   5.530  0.5292 -0.1842 -1.0756
 4331SOL     OW24451   1.465   2.736   4.498 -0.1800  0.4913 -0.0377
 4331SOL    HW124452   1.377   2.765   4.476 -0.9468  0.3280  2.8763
 4331SOL    HW224453   1.512   2.817   4.478 -0.2040  0.2572 -1.0363
 4332SOL     OW24454   1.504   4.130   5.915 -0.3611 -0.1350 -0.2919
 4332SOL    HW124455   1.482   4.196   5.850  0.2894 -0.4107 -0.7936
 4332SOL    HW224456   1.421   4.098   5.950  0.6358 -3.0266 -0.5424
 4333SOL     OW24457   1.363   1.301   8.096  0.1888  0.6490 -0.3098
 4333SOL    HW124458   1.291   1.364   8.101  0.5028  0.9908 -0.0587
 4333SOL    HW224459   1.379   1.290   8.002  1.5500 -0.6586  0.0719
 4334SOL     OW24460   0.443   3.383   8.185  0.1920  0.0636  0.8972
 4334SOL    HW124461   0.446   3.343   8.271  2.4102 -1.0711  0.2828
 4334SOL    HW224462   0.349   3.395   8.176 -0.0988 -2.0922  1.1646
 4335SOL     OW24463   4.341   0.311   9.459 -0.6882 -0.1233  0.4263
 4335SOL    HW124464   4.408   0.333   9.523 -1.3094  0.9814  0.6877
 4335SOL    HW224465   4.403   0.247   9.423  0.0642  1.4607 -1.0791
 4336SOL     OW24466   0.727   1.489   2.311  0.3838  0.0115 -0.2376
 4336SOL    HW124467   0.722   1.409   2.260  1.1970 -0.0497 -0.2306
 4336SOL    HW224468   0.681   1.554   2.258 -1.0521 -0.1952  0.7479
 4337SOL     OW24469   2.919   2.210   3.834  0.1205  0.4004 -0.1533
 4337SOL    HW124470   2.900   2.292   3.788  0.1407 -0.1501 -1.1648
 4337SOL    HW224471   2.832   2.200   3.872 -0.1825 -0.1183 -0.9758
 4338SOL     OW24472   0.119   3.785  11.059 -0.4223 -0.8283 -0.0431
 4338SOL    HW124473   0.196   3.836  11.079 -0.5440 -1.6577  2.4764
 4338SOL    HW224474   0.048   3.841  11.090 -1.1457 -1.1046 -1.1788
 4339SOL     OW24475   2.296   3.919   2.194 -0.0913 -0.3413  0.3182
 4339SOL    HW124476   2.389   3.937   2.201 -0.0066 -0.3523 -0.8360
 4339SOL    HW224477   2.281   3.850   2.258 -0.1290 -0.4307  0.2124
 4340SOL     OW24478   4.562   3.663   2.545  0.2551  0.0583 -0.1754
 4340SOL    HW124479   4.560   3.752   2.509 -0.7464  0.5182  1.0599
 4340SOL    HW224480   4.508   3.620   2.479 -0.7407 -0.8658  1.2556
 4341SOL     OW24481   0.730   4.628   4.312 -0.1776  0.2104  0.9956
 4341SOL    HW124482   0.773   4.640   4.227 -0.5931  2.5598  1.1203
 4341SOL    HW224483   0.653   4.683   4.311 -1.9690 -2.3431 -0.5054
 4342SOL     OW24484   2.454   1.457   7.243 -0.0429 -0.6742  0.4042
 4342SOL    HW124485   2.397   1.419   7.311 -0.2294 -1.3983 -0.1559
 4342SOL    HW224486   2.537   1.479   7.286  0.3768 -0.1714 -0.6729
 4343SOL     OW24487   1.842   3.104   2.147 -0.4482  0.0696  0.4069
 4343SOL    HW124488   1.760   3.055   2.140  0.0698 -0.1827 -4.1315
 4343SOL    HW224489   1.864   3.123   2.238 -0.0374  2.1354 -0.1183
 4344SOL     OW24490   0.952   0.330   6.510  0.2409 -0.2686  0.0228
 4344SOL    HW124491   0.986   0.305   6.596  0.2634  0.0421  0.1051
 4344SOL    HW224492   0.949   0.425   6.524 -1.1384 -0.2635 -0.3537
 4345SOL     OW24493   4.121   3.218   4.294 -0.0984 -0.1125  0.0173
 4345SOL    HW124494   4.185   3.289   4.285  0.8441 -0.6149  2.7145
 4345SOL    HW224495   4.179   3.148   4.326  1.8372  1.9955  1.1528
 4346SOL     OW24496   0.609   0.558   4.905  0.1540  0.6457  0.1124
 4346SOL    HW124497   0.602   0.473   4.862 -1.9434  1.6887 -1.6294
 4346SOL    HW224498   0.701   0.577   4.889  0.6250 -1.5426  0.2761
 4347SOL     OW24499   3.505   3.537   2.032  0.8454 -0.4251 -0.0507
 4347SOL    HW124500   3.471   3.490   2.108  0.5127 -1.3295 -0.7647
 4347SOL    HW224501   3.591   3.559   2.069  1.8810  1.0166 -3.3670
 4348SOL     OW24502   4.191   1.584  12.467  0.8524 -0.1023  0.1475
 4348SOL    HW124503   4.246   1.662  12.459 -0.0900  0.6213  0.6127
 4348SOL    HW224504   4.112   1.612  12.513 -0.5007 -2.2759 -0.8718
 4349SOL     OW24505   1.653   4.539   5.415 -0.1060  0.5869  0.1150
 4349SOL    HW124506   1.638   4.506   5.503  0.9498  2.4075  0.9622
 4349SOL    HW224507   1.613   4.469   5.362  0.9495  0.5815 -0.6874
 4350SOL     OW24508   3.351   3.204   2.265  0.4441 -0.2661 -0.3007
 4350SOL    HW124509   3.295   3.274   2.231 -3.1721 -2.2805  1.5708
 4350SOL    HW224510   3.438   3.245   2.268  0.8005 -1.1111  0.7367
 4351SOL     OW24511   0.194   3.573   9.609 -0.2673 -0.2978 -0.1856
 4351SOL    HW124512   0.277   3.619   9.623  0.5063 -1.9128  0.5838
 4351SOL    HW224513   0.200   3.566   9.514  0.1661  1.7881 -0.2996
 4352SOL     OW24514   3.864   2.074   4.644 -0.0382 -0.4246 -0.4155
 4352SOL    HW124515   3.843   2.001   4.702 -2.2625 -0.6447 -1.5176
 4352SOL    HW224516   3.951   2.045   4.617  0.5166  0.2321  0.6705
 4353SOL     OW24517   0.284   1.832   5.474  0.5912  0.4607  0.3317
 4353SOL    HW124518   0.194   1.816   5.447  0.4531  1.7458  0.0261
 4353SOL    HW224519   0.287   1.754   5.530  3.3833 -0.0721 -0.5517
 4354SOL     OW24520   3.269   0.945  14.550 -0.2638 -0.0954  0.4333
 4354SOL    HW124521   3.198   0.897  14.593 -0.0653 -0.7048  0.0901
 4354SOL    HW224522   3.265   1.019  14.610  1.1269  2.4148 -2.5460
 4355SOL     OW24523   4.246   0.168  13.474  0.0320  0.2045  0.5492
 4355SOL    HW124524   4.235   0.197  13.565  0.7993  1.9438  0.0831
 4355SOL    HW224525   4.321   0.110  13.484  0.3400  0.7077  1.1293
 4356SOL     OW24526   1.333   2.148  16.827 -0.3508  0.4814  0.2703
 4356SOL    HW124527   1.422   2.182  16.816  0.4166 -1.1678  1.3286
 4356SOL    HW224528   1.296   2.184  16.746 -0.2554 -0.2895 -0.1067
 4357SOL     OW24529   3.838   0.843   5.883 -0.0056  0.1351 -0.2850
 4357SOL    HW124530   3.809   0.816   5.796  0.5154 -2.8595  0.4563
 4357SOL    HW224531   3.823   0.761   5.931  2.2833  0.2518  0.6580
 4358SOL     OW24532   0.857   4.233   0.068  0.3364 -0.8226  0.2672
 4358SOL    HW124533   0.882   4.141   0.064  0.7508 -0.7601  1.3866
 4358SOL    HW224534   0.919   4.278   0.125 -0.9480 -0.4432  1.3848
 4359SOL     OW24535   0.848   1.961   3.814 -0.1144 -0.1991 -0.5004
 4359SOL    HW124536   0.907   1.898   3.773  0.0803 -1.4202  1.6024
 4359SOL    HW224537   0.827   1.913   3.895 -0.9399  2.0100  0.5778
 4360SOL     OW24538   0.753   1.791   0.871  0.0169 -0.3499  0.1614
 4360SOL    HW124539   0.800   1.796   0.954  1.0294 -0.8504 -0.3858
 4360SOL    HW224540   0.676   1.841   0.897 -0.3589  0.1840 -1.9892
 4361SOL     OW24541   4.508   4.330   2.566  0.2798 -0.4146  0.1998
 4361SOL    HW124542   4.596   4.300   2.546 -0.0920 -1.1243 -0.3713
 4361SOL    HW224543   4.502   4.425   2.556 -0.6781 -0.1553  3.0228
 4362SOL     OW24544   0.286   2.982   2.220 -0.3726  0.3152 -0.5934
 4362SOL    HW124545   0.218   2.934   2.172 -0.4336 -0.0639 -0.1223
 4362SOL    HW224546   0.304   2.923   2.293  0.3765  0.6150 -0.5418
 4363SOL     OW24547   1.786   2.030  11.244  0.4958  0.2442  0.1062
 4363SOL    HW124548   1.737   1.957  11.282  1.6391 -1.9060 -2.5142
 4363SOL    HW224549   1.755   2.095  11.306  0.5872 -0.1887  0.6051
 4364SOL     OW24550   0.985   3.767   6.230  0.3072 -0.3717  0.2632
 4364SOL    HW124551   1.046   3.741   6.161  1.9022 -0.0550  1.5608
 4364SOL    HW224552   0.896   3.762   6.196  0.9852 -1.9189 -1.3132
 4365SOL     OW24553   0.241   0.262   8.784 -0.0299  0.1768 -0.5370
 4365SOL    HW124554   0.265   0.173   8.810 -0.9850  0.3743  0.9992
 4365SOL    HW224555   0.208   0.293   8.868 -0.4067 -0.2893 -0.5123
 4366SOL     OW24556   3.208   1.031  11.561  0.4651  0.1450  0.2328
 4366SOL    HW124557   3.269   0.968  11.523  0.2923 -0.0727  0.3176
 4366SOL    HW224558   3.261   1.094  11.609  0.0958 -1.1893  2.4130
 4367SOL     OW24559   2.678   3.440   0.194 -0.1177 -0.0367  0.2686
 4367SOL    HW124560   2.758   3.387   0.196 -0.9099 -1.1621  2.0118
 4367SOL    HW224561   2.669   3.454   0.100 -1.5580 -0.3524  0.3604
 4368SOL     OW24562   3.812   0.191   4.033  0.1030 -0.1457  0.8184
 4368SOL    HW124563   3.789   0.110   4.078 -1.1292  0.2739  0.9346
 4368SOL    HW224564   3.906   0.181   4.021  0.1055  2.1106 -1.1026
 4369SOL     OW24565   2.873   1.590   9.083 -0.8681  0.4084 -0.7845
 4369SOL    HW124566   2.927   1.669   9.088  0.0859 -0.2388 -0.8952
 4369SOL    HW224567   2.786   1.615   9.114 -0.1868 -1.1593  2.3879
 4370SOL     OW24568   1.176   2.098  15.118 -0.3882 -0.3621 -0.0012
 4370SOL    HW124569   1.143   2.021  15.165  0.1398  0.2356  1.3257
 4370SOL    HW224570   1.198   2.057  15.034  0.8564  0.9502 -0.3021
 4371SOL     OW24571   2.051   3.664   7.500  0.5539  0.2928  0.3412
 4371SOL    HW124572   2.032   3.738   7.442 -0.7857  0.4970  1.0444
 4371SOL    HW224573   2.115   3.704   7.559  0.6222 -0.2705  0.6468
 4372SOL     OW24574   4.189   4.615   6.049 -0.0393 -0.8831 -0.3939
 4372SOL    HW124575   4.105   4.633   6.091  0.7664  3.6765 -0.7190
 4372SOL    HW224576   4.245   4.655   6.116  0.0634 -1.5018 -0.1108
 4373SOL     OW24577   2.242   2.232   2.571  0.0366  0.0950 -0.1024
 4373SOL    HW124578   2.201   2.308   2.613 -0.1813  1.1040 -2.1413
 4373SOL    HW224579   2.334   2.259   2.563  0.2857 -0.8425 -0.2950
 4374SOL     OW24580   0.284   3.177   1.619  0.1208  0.4277  0.4636
 4374SOL    HW124581   0.270   3.187   1.525 -1.8697 -3.0965  0.3650
 4374SOL    HW224582   0.366   3.225   1.630 -0.8889  2.3543 -0.5335
 4375SOL     OW24583   4.466   3.300   0.451  0.3958  0.0536  0.0138
 4375SOL    HW124584   4.467   3.280   0.358  0.5863  2.4273 -0.4880
 4375SOL    HW224585   4.526   3.375   0.455 -1.7331  1.7504  0.2320
 4376SOL     OW24586   3.179   0.092  13.832 -0.0121 -0.2231  0.5189
 4376SOL    HW124587   3.267   0.126  13.844  0.7964 -1.9250 -0.6682
 4376SOL    HW224588   3.186   0.010  13.881 -2.9336 -2.1974 -2.3344
 4377SOL     OW24589   0.502   3.129  13.509 -0.1505 -0.5155  0.2584
 4377SOL    HW124590   0.460   3.089  13.433 -0.1996 -1.6236  0.8737
 4377SOL    HW224591   0.423   3.148  13.559  1.6464 -2.3905  3.7439
 4378SOL     OW24592   2.807   3.457   8.498 -0.1951  0.4432  0.0626
 4378SOL    HW124593   2.732   3.441   8.555 -1.1023  2.9895 -0.4421
 4378SOL    HW224594   2.751   3.474   8.422  1.6791  0.8503 -1.2491
 4379SOL     OW24595   0.508   0.459   8.131 -0.6801 -1.0093 -0.2239
 4379SOL    HW124596   0.549   0.470   8.217  1.1462 -3.9936 -0.6945
 4379SOL    HW224597   0.443   0.391   8.150 -2.0422  0.4536  0.3338
 4380SOL     OW24598   1.884   4.169  12.650 -0.3260  0.0738  0.8353
 4380SOL    HW124599   1.945   4.096  12.636  0.9243  0.6606  3.2089
 4380SOL    HW224600   1.928   4.214  12.722 -2.1597  1.2263  1.2393
 4381SOL     OW24601   2.793   1.212  10.734  0.0996 -0.1221  0.5484
 4381SOL    HW124602   2.771   1.157  10.659 -1.5623  0.6442  0.4944
 4381SOL    HW224603   2.846   1.143  10.776  0.0143 -0.4047  0.1903
 4382SOL     OW24604   0.691   0.377  14.826  0.4527  0.3222 -0.2321
 4382SOL    HW124605   0.783   0.361  14.803  0.6732 -2.9344  2.8761
 4382SOL    HW224606   0.662   0.406  14.740 -1.1058 -2.9512 -0.8151
 4383SOL     OW24607   0.903   0.807   3.780  0.3690  0.0720 -0.5422
 4383SOL    HW124608   0.900   0.719   3.741  0.3531 -0.3043  0.3187
 4383SOL    HW224609   0.871   0.793   3.869  4.6027 -1.6740  0.7332
 4384SOL     OW24610   0.808   3.510  10.659 -0.5224 -0.1163 -0.4693
 4384SOL    HW124611   0.840   3.500  10.569  1.9167  0.4459  0.3378
 4384SOL    HW224612   0.879   3.489  10.719 -0.1980 -0.0289 -0.8197
 4385SOL     OW24613   4.166   2.277   5.173  0.5680 -0.2213  0.0630
 4385SOL    HW124614   4.074   2.253   5.159  0.4743  0.4168 -0.4199
 4385SOL    HW224615   4.189   2.205   5.232  0.1152 -0.3386  0.1014
 4386SOL     OW24616   3.611   3.553   8.177  0.8898 -0.1535 -0.2024
 4386SOL    HW124617   3.517   3.565   8.171  1.1263  2.0229  0.5571
 4386SOL    HW224618   3.620   3.485   8.111  1.9215 -0.8101  0.6092
 4387SOL     OW24619   1.029   0.778   2.411 -0.3598 -0.0306 -0.4248
 4387SOL    HW124620   1.060   0.732   2.489  0.7434  2.7283  0.7608
 4387SOL    HW224621   0.939   0.793   2.441 -0.5140 -0.1639 -0.8084
 4388SOL     OW24622   2.470   1.853   8.513  0.2265 -0.6013  0.2154
 4388SOL    HW124623   2.376   1.839   8.519 -0.0528  0.1670 -2.2047
 4388SOL    HW224624   2.488   1.833   8.605 -1.8914  1.5117  1.1024
 4389SOL     OW24625   1.153   2.444   0.499  0.1185  0.1152  0.1545
 4389SOL    HW124626   1.146   2.357   0.538  0.9935 -0.3207 -0.6603
 4389SOL    HW224627   1.220   2.434   0.431  0.1574 -0.7160  0.3157
 4390SOL     OW24628   1.535   0.730   8.076 -0.1979  0.2496  0.1652
 4390SOL    HW124629   1.545   0.678   7.996 -0.2158  1.4591 -0.6192
 4390SOL    HW224630   1.620   0.707   8.113  0.5827  0.3279 -1.5688
 4391SOL     OW24631   1.743   2.391  11.192  0.5659  0.2786 -0.0985
 4391SOL    HW124632   1.828   2.397  11.148  0.0845 -0.4620 -1.1082
 4391SOL    HW224633   1.762   2.427  11.279 -3.2112 -1.1745  1.3008
 4392SOL     OW24634   4.325   1.368   8.066 -0.0283 -0.6073 -0.1738
 4392SOL    HW124635   4.283   1.343   7.984 -0.4110 -0.4682 -0.0211
 4392SOL    HW224636   4.258   1.427   8.100  1.7714  0.5165  1.3775
 4393SOL     OW24637   2.172   1.387   5.725  0.1245 -0.1965  0.4688
 4393SOL    HW124638   2.189   1.296   5.702  2.7885  0.4616 -0.1809
 4393SOL    HW224639   2.254   1.421   5.759  1.7766 -1.1786 -2.5275
 4394SOL     OW24640   4.517   3.073   3.871  0.0324 -0.1133  0.2647
 4394SOL    HW124641   4.445   3.045   3.928 -1.0259 -1.8680 -1.8679
 4394SOL    HW224642   4.575   3.092   3.944 -0.2453  1.4142  0.0792
 4395SOL     OW24643   3.619   0.161   2.596 -0.4650  0.3279 -0.4875
 4395SOL    HW124644   3.684   0.117   2.542 -0.0233  2.1073 -1.4139
 4395SOL    HW224645   3.582   0.235   2.548 -2.3973 -0.0205  0.4664
 4396SOL     OW24646   2.945   0.146   7.697 -0.1100  0.5300 -0.3346
 4396SOL    HW124647   3.041   0.144   7.687  0.1177  0.5281  1.8851
 4396SOL    HW224648   2.929   0.240   7.688  0.6155  0.7448  0.5886
 4397SOL     OW24649   3.150   4.326   0.842 -0.0831 -0.0898  0.4213
 4397SOL    HW124650   3.236   4.309   0.880  0.5563  0.6803 -0.6650
 4397SOL    HW224651   3.155   4.315   0.747 -1.7693 -0.4779  0.3829
 4398SOL     OW24652   3.264   4.070   8.961 -0.0442 -0.5053 -0.2335
 4398SOL    HW124653   3.294   3.984   8.992  0.2449 -0.2589  0.1687
 4398SOL    HW224654   3.350   4.112   8.958  0.1997 -0.8955  1.1870
 4399SOL     OW24655   2.338   0.058   8.728  0.4557  0.0300  0.4821
 4399SOL    HW124656   2.387   4.703   8.711  1.6872  0.8637  0.1549
 4399SOL    HW224657   2.250   0.034   8.758  0.3620  2.0998  1.8898
 4400SOL     OW24658   3.712   4.640   0.781 -0.0880 -0.1927  0.6713
 4400SOL    HW124659   3.618   4.624   0.772  0.1823 -1.5523  0.1165
 4400SOL    HW224660   3.748   4.552   0.791  0.9035  0.1028 -0.3866
 4401SOL     OW24661   2.045   1.500  15.854 -0.1887  0.4047  0.1040
 4401SOL    HW124662   1.983   1.571  15.836 -2.4509 -1.9174 -1.2784
 4401SOL    HW224663   2.105   1.512  15.780 -0.2229 -0.4311 -0.0592
 4402SOL     OW24664   1.591   4.065   8.964  0.1592 -0.6988 -0.2963
 4402SOL    HW124665   1.532   4.072   9.039  1.9353 -0.2411  1.0588
 4402SOL    HW224666   1.527   4.069   8.892  0.3929 -1.4185 -0.5462
 4403SOL     OW24667   1.378   3.299  16.005 -0.1290 -0.1106  0.2215
 4403SOL    HW124668   1.427   3.230  16.050  1.2777 -0.2242 -1.4610
 4403SOL    HW224669   1.371   3.266  15.916  0.8222  1.6971 -0.5374
 4404SOL     OW24670   1.384   4.319   0.694  0.0720  0.1038 -0.5791
 4404SOL    HW124671   1.427   4.389   0.645  1.1161 -0.5958 -0.6543
 4404SOL    HW224672   1.462   4.271   0.720  0.1654  1.0958  0.9850
 4405SOL     OW24673   0.221   0.484   1.592 -0.3315  0.4772 -0.1584
 4405SOL    HW124674   0.285   0.499   1.522  0.2879 -4.6118 -0.7000
 4405SOL    HW224675   0.200   0.574   1.617  0.4679  0.4892  0.4846
 4406SOL     OW24676   1.141   4.411  14.320 -0.2183 -0.1392  0.0027
 4406SOL    HW124677   1.111   4.322  14.300  0.1437 -0.1381 -0.5254
 4406SOL    HW224678   1.062   4.465  14.317  0.1962  0.5661  2.0269
 4407SOL     OW24679   3.733   0.266  17.100 -0.2140  0.0563  1.0979
 4407SOL    HW124680   3.704   0.275  17.191  1.4792  1.8288  1.4524
 4407SOL    HW224681   3.797   0.198  17.121 -0.6811 -0.4676  0.8142
 4408SOL     OW24682   2.824   0.992   1.052  0.2373  0.1983  0.1065
 4408SOL    HW124683   2.735   1.016   1.028  0.8180  1.2729 -0.9739
 4408SOL    HW224684   2.847   0.910   1.008 -0.0532  0.4410 -0.4943
 4409SOL     OW24685   3.750   1.583   3.022  0.1648 -0.2683 -0.7388
 4409SOL    HW124686   3.799   1.631   2.955 -0.3542  0.8728 -0.2939
 4409SOL    HW224687   3.685   1.646   3.053  0.7976 -0.6844  1.4411
 4410SOL     OW24688   0.041   1.535   8.675  0.1899  0.4075  0.2169
 4410SOL    HW124689   0.101   1.585   8.729  1.8282 -1.2896 -0.0435
 4410SOL    HW224690   4.690   1.521   8.732 -0.8199  1.7600 -0.7748
 4411SOL     OW24691   2.893   4.437   7.726  0.4320 -0.5263 -0.4948
 4411SOL    HW124692   2.931   4.398   7.805 -2.9573  0.0556  1.3916
 4411SOL    HW224693   2.884   4.355   7.677  0.6828 -0.8660  0.0230
 4412SOL     OW24694   2.528   1.265  15.766  0.1945  0.5050 -0.2248
 4412SOL    HW124695   2.612   1.231  15.796  0.1838  0.1265 -0.6191
 4412SOL    HW224696   2.465   1.241  15.835  0.2253  2.5415  0.4965
 4413SOL     OW24697   0.834   3.510   7.047 -0.0884 -0.7358  1.2274
 4413SOL    HW124698   0.755   3.468   7.083 -1.2709  1.3638  1.0856
 4413SOL    HW224699   0.878   3.430   7.020 -1.2633 -1.3216  1.0511
 4414SOL     OW24700   2.159   4.307   6.055  0.0457 -0.1137  1.1891
 4414SOL    HW124701   2.235   4.301   5.997 -1.2652 -0.8948 -0.4785
 4414SOL    HW224702   2.138   4.400   6.039  1.0580  0.4105  3.0274
 4415SOL     OW24703   2.145   2.194   1.854 -0.3522  0.1658  0.4848
 4415SOL    HW124704   2.145   2.100   1.836 -0.1888  0.3017 -0.2191
 4415SOL    HW224705   2.111   2.229   1.772  1.0264  0.2246 -0.0640
 4416SOL     OW24706   4.085   0.319   1.141  0.1320 -0.4159 -0.2204
 4416SOL    HW124707   4.009   0.269   1.172 -0.1223  0.5006  0.6290
 4416SOL    HW224708   4.052   0.365   1.064 -0.9389  2.6240  2.0988
 4417SOL     OW24709   1.555   4.660  14.540 -0.1874 -0.2286 -0.0527
 4417SOL    HW124710   1.494   4.595  14.506  0.5641 -0.4582 -0.9580
 4417SOL    HW224711   1.541   4.659  14.635  1.7966 -0.0820  0.2523
 4418SOL     OW24712   1.063   4.432   2.328 -0.1708 -0.3566 -0.0164
 4418SOL    HW124713   1.005   4.509   2.321 -0.9226 -0.6935  2.5925
 4418SOL    HW224714   1.087   4.436   2.421 -2.0498  0.2608  0.4538
 4419SOL     OW24715   0.196   4.351   8.635  0.3298  0.0910  0.2427
 4419SOL    HW124716   0.223   4.341   8.543  0.1308 -1.6572  0.3638
 4419SOL    HW224717   0.108   4.389   8.635  0.3789  0.1474  2.3750
 4420SOL     OW24718   0.778   2.467   0.584  0.2330 -0.2990 -0.6192
 4420SOL    HW124719   0.853   2.414   0.614  2.2376  3.0939  0.3687
 4420SOL    HW224720   0.778   2.538   0.648  2.0032  0.3574 -1.3444
 4421SOL     OW24721   2.482   3.901   6.443 -0.1653  0.1819 -0.3002
 4421SOL    HW124722   2.536   3.880   6.367  1.0724 -1.4954  1.0439
 4421SOL    HW224723   2.412   3.837   6.429  1.2080 -1.0777 -1.3884
 4422SOL     OW24724   2.137   1.142   1.536  0.3162  0.3531  0.1123
 4422SOL    HW124725   2.116   1.179   1.451 -0.8101 -2.8337 -1.0082
 4422SOL    HW224726   2.140   1.224   1.586 -0.5214  0.1333  0.5138
 4423SOL     OW24727   1.195   0.667   4.824  0.1519 -0.2402 -0.0698
 4423SOL    HW124728   1.225   0.747   4.868 -1.2810  0.6033 -0.6343
 4423SOL    HW224729   1.178   0.609   4.898  0.1386  1.4817  1.2625
 4424SOL     OW24730   2.993   2.929  17.164 -0.8633 -0.1875  0.0683
 4424SOL    HW124731   2.946   2.957  17.242  1.8701 -1.1025  2.0458
 4424SOL    HW224732   3.057   2.865  17.196  0.3768  1.7673  1.4433
 4425SOL     OW24733   3.785   4.498   4.003 -0.3360 -0.2683 -0.1349
 4425SOL    HW124734   3.755   4.422   4.053  2.1345  0.7953  2.9778
 4425SOL    HW224735   3.815   4.555   4.074 -0.3429 -1.7502  1.0413
 4426SOL     OW24736   4.466   1.707   8.208  0.4441 -0.4432  0.3985
 4426SOL    HW124737   4.418   1.714   8.126  1.5758 -0.3737 -0.2587
 4426SOL    HW224738   4.550   1.690   8.167  1.2078 -0.2230  1.8446
 4427SOL     OW24739   1.605   0.060   4.434 -0.5758 -0.1700 -0.4171
 4427SOL    HW124740   1.637   4.715   4.377  0.5025  0.2782 -0.3685
 4427SOL    HW224741   1.519   0.080   4.397 -0.5703  0.0063 -0.3366
 4428SOL     OW24742   1.728   0.324   6.184  0.1933  0.4246 -0.9749
 4428SOL    HW124743   1.786   0.307   6.259 -1.1144  0.8169  0.1224
 4428SOL    HW224744   1.693   0.238   6.163 -0.6317  0.3393  0.7380
 4429SOL     OW24745   0.502   0.367  10.335  0.0586  0.4031  0.0816
 4429SOL    HW124746   0.497   0.441  10.274 -2.2117  0.0180 -0.2045
 4429SOL    HW224747   0.495   0.404  10.423 -1.7567  0.5548 -0.1377
 4430SOL     OW24748   3.233   1.534   1.231  0.4961  0.1288 -0.1809
 4430SOL    HW124749   3.271   1.474   1.295  0.2572  0.9870  0.7561
 4430SOL    HW224750   3.145   1.496   1.223  0.9853 -1.2641  1.0520
 4431SOL     OW24751   3.318   1.542   0.975 -0.1026  0.3089  0.4880
 4431SOL    HW124752   3.286   1.549   1.065 -0.8274  3.3545 -0.0160
 4431SOL    HW224753   3.252   1.576   0.914 -1.3091 -0.1201  1.5393
 4432SOL     OW24754   3.616   2.219   1.288  0.3873  0.4169  0.0053
 4432SOL    HW124755   3.534   2.194   1.245  1.0584 -3.7210  1.1151
 4432SOL    HW224756   3.594   2.284   1.354 -0.3014  0.2644 -0.0719
 4433SOL     OW24757   1.675   0.917   3.207  0.2601  0.1438 -0.0483
 4433SOL    HW124758   1.675   0.831   3.165 -0.5760  0.4356 -0.6323
 4433SOL    HW224759   1.684   0.978   3.135 -1.4487  1.0443  0.5074
 4434SOL     OW24760   1.847   3.982   3.785  0.0335 -0.5484  0.3263
 4434SOL    HW124761   1.890   3.897   3.796 -0.0498 -0.6742 -0.3632
 4434SOL    HW224762   1.823   3.991   3.877  0.8511  1.9379  0.2922
 4435SOL     OW24763   2.735   3.521  16.233  0.5523 -0.2032 -0.1478
 4435SOL    HW124764   2.788   3.537  16.311 -2.1709 -0.9115  1.8432
 4435SOL    HW224765   2.765   3.431  16.223  0.7056 -0.0891 -0.7424
 4436SOL     OW24766   4.333   3.055   4.451 -0.2983 -0.2841 -0.4230
 4436SOL    HW124767   4.382   3.126   4.492  0.1729 -0.6265 -0.3940
 4436SOL    HW224768   4.293   3.014   4.527 -1.6931 -1.4419 -1.7749
 4437SOL     OW24769   0.374   2.835   3.862  0.1629  0.2899 -0.1381
 4437SOL    HW124770   0.424   2.772   3.810 -0.5305  0.7466 -1.3579
 4437SOL    HW224771   0.288   2.797   3.878  0.6687  0.7222  3.5359
 4438SOL     OW24772   2.606   0.259  13.397  0.4191 -0.9278 -0.0563
 4438SOL    HW124773   2.650   0.187  13.350  0.5020 -0.5268 -0.5916
 4438SOL    HW224774   2.611   0.222  13.486 -1.0811 -0.0006  0.4032
 4439SOL     OW24775   2.882   1.486   7.174 -0.0941 -0.6256  0.5684
 4439SOL    HW124776   2.919   1.518   7.256 -0.3419  0.8695  0.1019
 4439SOL    HW224777   2.801   1.454   7.213 -1.6598  1.9360 -0.5570
 4440SOL     OW24778   4.363   3.258   3.697 -0.8235  0.4654  0.5565
 4440SOL    HW124779   4.405   3.264   3.782  0.1573  3.2972 -0.1255
 4440SOL    HW224780   4.399   3.171   3.682 -1.7766 -0.1876  2.1121
 4441SOL     OW24781   1.418   3.289   5.811  0.0955  0.7427 -0.0526
 4441SOL    HW124782   1.457   3.292   5.898  0.3210  1.4680 -0.1745
 4441SOL    HW224783   1.484   3.342   5.767  0.5495  3.7544  4.2862
 4442SOL     OW24784   3.213   0.909   7.028  0.0149 -0.4373  0.5011
 4442SOL    HW124785   3.125   0.872   7.018  0.3828 -0.7772 -1.4982
 4442SOL    HW224786   3.229   0.893   7.121  2.5072 -0.0060  0.1479
 4443SOL     OW24787   2.358   3.677   3.749 -0.0634 -0.6119  0.2091
 4443SOL    HW124788   2.448   3.699   3.724  0.0644  0.4739  1.6403
 4443SOL    HW224789   2.317   3.747   3.699  0.9093 -1.7592 -2.2182
 4444SOL     OW24790   3.174   1.387   7.129  0.2399  0.3949  0.4261
 4444SOL    HW124791   3.235   1.461   7.132  0.8379 -0.0667 -0.6529
 4444SOL    HW224792   3.177   1.363   7.222 -0.3677 -2.0684 -0.1873
 4445SOL     OW24793   2.603   0.163  12.355  0.2179 -0.2066  0.0537
 4445SOL    HW124794   2.562   0.160  12.441  0.1287  1.4864  0.0552
 4445SOL    HW224795   2.696   0.150  12.376 -0.2616 -1.4201  1.4093
 4446SOL     OW24796   3.445   3.968  16.048 -0.1880  0.0236 -0.1407
 4446SOL    HW124797   3.378   4.011  15.995 -0.8784  1.5201  1.9024
 4446SOL    HW224798   3.525   3.979  15.996  1.6574 -1.1501  2.4186
 4447SOL     OW24799   1.385   2.095  11.504  0.1766  0.3661 -0.4789
 4447SOL    HW124800   1.397   2.065  11.594  1.0765  2.1097 -0.0033
 4447SOL    HW224801   1.436   2.176  11.511  1.4247 -0.5912  1.2981
 4448SOL     OW24802   0.970   2.297  11.310 -0.2077 -0.0742 -0.0132
 4448SOL    HW124803   1.052   2.248  11.312 -0.6767 -0.9161 -1.6573
 4448SOL    HW224804   0.972   2.344  11.227  0.7628  1.1613  0.7161
 4449SOL     OW24805   3.854   2.336   5.658 -0.2850 -0.1045  0.2935
 4449SOL    HW124806   3.903   2.325   5.739 -0.4335 -1.7642  0.1705
 4449SOL    HW224807   3.846   2.431   5.654 -1.5909 -0.1677  1.4994
 4450SOL     OW24808   0.896   3.155   8.242  0.3481  0.0160  0.6654
 4450SOL    HW124809   0.831   3.213   8.281  1.0694  0.4978  1.1555
 4450SOL    HW224810   0.857   3.141   8.156 -0.9357  0.4570  1.1798
 4451SOL     OW24811   3.714   1.556   5.205 -0.0909 -0.4691  0.1182
 4451SOL    HW124812   3.677   1.479   5.248  2.3416 -0.3803  2.3799
 4451SOL    HW224813   3.738   1.615   5.276  1.2762  0.0379 -0.7563
 4452SOL     OW24814   2.066   3.104  16.792 -0.0468  0.1084  0.2312
 4452SOL    HW124815   2.070   3.044  16.717 -1.7765  1.4141 -0.8969
 4452SOL    HW224816   2.075   3.044  16.867 -0.1774  1.1580  1.0780
 4453SOL     OW24817   3.554   1.473   0.894  0.2169  0.6628 -0.2182
 4453SOL    HW124818   3.522   1.415   0.824 -0.5393 -0.4381  1.0356
 4453SOL    HW224819   3.473   1.512   0.927  1.2708  1.9233  0.8647
 4454SOL     OW24820   2.348   3.420   3.801 -0.1790  0.0639 -0.2249
 4454SOL    HW124821   2.336   3.512   3.779  0.2093  0.2692  0.4350
 4454SOL    HW224822   2.281   3.407   3.867 -0.0149 -1.3308 -0.3333
 4455SOL     OW24823   3.678   0.652   2.924  0.3898 -0.3380  0.7820
 4455SOL    HW124824   3.614   0.714   2.958  1.8607  0.0965  2.8022
 4455SOL    HW224825   3.610   0.593   2.893  0.0648  0.5668 -0.2336
 4456SOL     OW24826   1.355   4.418   6.070  0.1338 -0.2744  0.7001
 4456SOL    HW124827   1.343   4.413   5.975 -2.0302 -0.1551  0.9534
 4456SOL    HW224828   1.288   4.354   6.094  0.5360 -0.1142  2.2384
 4457SOL     OW24829   2.793   4.579   9.979  0.2543 -0.4078 -0.6460
 4457SOL    HW124830   2.744   4.659   9.955  1.9285  0.6564 -0.4999
 4457SOL    HW224831   2.863   4.612  10.035 -1.2335 -2.7150  2.5469
 4458SOL     OW24832   3.893   2.223   0.926  0.2716  0.6598 -0.6382
 4458SOL    HW124833   3.802   2.199   0.909  0.3416 -0.1343  0.0841
 4458SOL    HW224834   3.878   2.269   1.009 -2.5150  0.9231 -1.2610
 4459SOL     OW24835   2.721   2.494   3.291  0.9729  0.1735 -0.0689
 4459SOL    HW124836   2.762   2.461   3.211  1.2813  1.0581 -0.2771
 4459SOL    HW224837   2.788   2.480   3.359  1.1079 -2.4935 -0.7433
 4460SOL     OW24838   1.584   3.973   1.041 -0.5483 -0.1654  0.8187
 4460SOL    HW124839   1.517   4.041   1.031  0.1617  0.3402 -0.4969
 4460SOL    HW224840   1.610   3.952   0.951  0.5223 -0.6064  1.2294
 4461SOL     OW24841   1.994   1.381   8.828 -0.3592 -0.0885  0.0386
 4461SOL    HW124842   2.038   1.465   8.838 -0.7820  0.0711  0.5503
 4461SOL    HW224843   1.983   1.363   8.922  0.4519  0.8706  0.3218
 4462SOL     OW24844   3.994   1.837  10.907 -0.2882  0.3279  0.0101
 4462SOL    HW124845   4.072   1.868  10.861 -0.7925  2.4663  0.5801
 4462SOL    HW224846   3.933   1.839  10.833  0.1763 -0.5467 -0.3903
 4463SOL     OW24847   2.972   1.943   0.567  0.0616 -0.1429  0.4414
 4463SOL    HW124848   2.935   1.983   0.489 -1.1167 -0.5856  0.7672
 4463SOL    HW224849   2.907   1.972   0.631  0.0012  1.1958 -0.2290
 4464SOL     OW24850   3.153   3.851   7.157 -0.7194 -0.1148  0.6989
 4464SOL    HW124851   3.079   3.892   7.203  1.1616 -0.3100  3.8832
 4464SOL    HW224852   3.228   3.859   7.215  0.5098 -0.3698 -0.8707
 4465SOL     OW24853   3.530   2.039   4.341 -0.6025 -0.0601  0.3431
 4465SOL    HW124854   3.481   2.090   4.276  0.1753  1.7889  1.2025
 4465SOL    HW224855   3.616   2.082   4.348 -0.6029  0.1850 -1.1606
 4466SOL     OW24856   0.082   3.519  11.228 -0.3608 -0.2070 -0.1648
 4466SOL    HW124857   0.159   3.483  11.185  0.3711 -0.2233  1.1750
 4466SOL    HW224858   0.090   3.613  11.209  1.5221  0.1380  2.2902
 4467SOL     OW24859   1.633   2.823   0.879 -0.2157 -0.5005 -0.1919
 4467SOL    HW124860   1.652   2.767   0.803  4.1776  0.3514  0.2752
 4467SOL    HW224861   1.581   2.892   0.838  1.5235  0.3090 -1.0676
 4468SOL     OW24862   1.267   0.683   6.446 -0.1361 -0.4250  0.0105
 4468SOL    HW124863   1.342   0.685   6.505 -0.0213  0.3924 -0.1560
 4468SOL    HW224864   1.286   0.619   6.378  2.1037 -0.3842  0.5985
 4469SOL     OW24865   1.180   4.598  17.601  0.1585 -0.2799  0.0676
 4469SOL    HW124866   1.104   4.602  17.658 -0.4516  2.1327 -0.9131
 4469SOL    HW224867   1.249   4.556  17.654 -0.4969 -1.1199  0.2522
 4470SOL     OW24868   4.398   0.614   5.728 -0.2494  0.4476 -0.0561
 4470SOL    HW124869   4.424   0.555   5.658  2.4931 -0.5472  1.8136
 4470SOL    HW224870   4.306   0.591   5.739  0.1551 -1.5676 -0.9602
 4471SOL     OW24871   2.389   1.385   6.487 -0.6698 -0.3438 -0.2688
 4471SOL    HW124872   2.443   1.369   6.565 -0.0864  1.8813 -0.1927
 4471SOL    HW224873   2.301   1.382   6.527 -1.2231 -1.5767 -1.6174
 4472SOL     OW24874   4.073   2.832  16.065 -0.4697 -0.0965 -0.1880
 4472SOL    HW124875   4.080   2.856  16.158 -0.1081  0.1898 -0.2850
 4472SOL    HW224876   4.131   2.757  16.060 -0.4797 -0.1365  0.2408
 4473SOL     OW24877   4.521   3.285   2.371  0.2023  0.4364 -0.5036
 4473SOL    HW124878   4.481   3.372   2.382  0.9299  0.6090  0.8602
 4473SOL    HW224879   4.456   3.233   2.417 -0.7529  2.8391  0.8887
 4474SOL     OW24880   2.579   0.828   5.796  0.2197 -0.0770 -0.2660
 4474SOL    HW124881   2.559   0.909   5.842 -0.5893  0.6509 -1.8902
 4474SOL    HW224882   2.599   0.772   5.871 -0.6120 -0.7945 -0.5755
 4475SOL     OW24883   4.233   4.105   6.809  0.2485  0.4400  0.6894
 4475SOL    HW124884   4.145   4.068   6.797 -1.1203  2.8580  3.2630
 4475SOL    HW224885   4.248   4.122   6.716  0.2112  1.0955  0.8062
 4476SOL     OW24886   0.002   3.290  17.247 -0.1634  0.1367  0.2628
 4476SOL    HW124887   4.707   3.208  17.202 -0.1609  1.0083 -1.3544
 4476SOL    HW224888   0.016   3.261  17.337 -0.5951 -1.7542 -0.2740
 4477SOL     OW24889   1.090   2.682   0.614  0.1636  0.2026  0.0413
 4477SOL    HW124890   1.178   2.703   0.646  1.1156 -2.0205 -1.1786
 4477SOL    HW224891   1.108   2.593   0.587  0.2460 -0.4000  2.0649
 4478SOL     OW24892   4.322   2.680   1.553  0.5521 -0.1390  0.2278
 4478SOL    HW124893   4.226   2.686   1.559  0.4777 -0.3997 -0.7625
 4478SOL    HW224894   4.360   2.728   1.627 -1.4742 -1.1623  1.9249
 4479SOL     OW24895   0.024   1.585   4.034  0.1953  0.5019 -0.3334
 4479SOL    HW124896   4.654   1.593   4.025 -0.0803 -2.9330 -0.4666
 4479SOL    HW224897   0.038   1.534   3.955  1.4716 -1.0811  0.9052
 4480SOL     OW24898   3.699   1.377  15.655 -0.0351  0.6159  0.3888
 4480SOL    HW124899   3.761   1.447  15.677  1.1815 -0.3585  0.0910
 4480SOL    HW224900   3.626   1.392  15.714 -0.8838  0.0979 -0.5264
 4481SOL     OW24901   2.903   1.260   5.611 -0.2443  0.6444 -0.4344
 4481SOL    HW124902   2.834   1.308   5.565 -1.2832 -0.2011  0.2297
 4481SOL    HW224903   2.915   1.181   5.558 -2.3842 -1.3846  2.1347
 4482SOL     OW24904   0.774   0.457  12.571  0.0334 -0.2965  0.3173
 4482SOL    HW124905   0.765   0.535  12.626 -0.1343  0.7845 -1.2611
 4482SOL    HW224906   0.694   0.465  12.519  1.0224 -1.2289 -1.3376
 4483SOL     OW24907   1.652   1.554  12.015 -0.5398 -0.0194 -0.0851
 4483SOL    HW124908   1.556   1.553  12.017 -0.5520 -0.1073 -1.0005
 4483SOL    HW224909   1.673   1.461  12.003 -1.3104 -0.0577 -1.1230
 4484SOL     OW24910   1.899   4.218   6.071 -0.0510 -0.5576  0.3217
 4484SOL    HW124911   1.885   4.250   5.982 -0.4371  1.5846  1.1313
 4484SOL    HW224912   1.991   4.242   6.086  0.4131 -3.6963  2.5771
 4485SOL     OW24913   1.939   3.769  16.925 -0.0761  0.1901  0.0457
 4485SOL    HW124914   2.018   3.766  16.979  0.4208 -0.4816 -0.7179
 4485SOL    HW224915   1.976   3.722  16.849 -1.0938  1.2589 -1.1138
 4486SOL     OW24916   1.785   3.511  17.005  0.0059 -0.3598  0.0605
 4486SOL    HW124917   1.831   3.591  16.980 -2.9734  2.0309  2.2111
 4486SOL    HW224918   1.806   3.448  16.936 -1.5380 -1.5923  0.7034
 4487SOL     OW24919   1.679   3.565  14.599 -0.4177 -0.7092  0.2366
 4487SOL    HW124920   1.746   3.496  14.601 -1.1156 -1.4280 -1.1684
 4487SOL    HW224921   1.617   3.513  14.548 -1.6404 -0.0061  0.9976
 4488SOL     OW24922   2.054   3.585  16.750 -0.4178 -0.0353 -0.4987
 4488SOL    HW124923   2.102   3.532  16.814 -0.4492  1.7867  1.0157
 4488SOL    HW224924   2.120   3.599  16.681 -0.4954 -2.4315 -1.0598
 4489SOL     OW24925   1.914   4.178   3.140  0.0483 -0.3570  0.7955
 4489SOL    HW124926   1.889   4.140   3.056  3.5961  1.5247 -1.0867
 4489SOL    HW224927   1.831   4.167   3.187  0.2079 -2.1437  0.6817
 4490SOL     OW24928   2.707   3.452   6.505  0.1493  0.3739 -0.7774
 4490SOL    HW124929   2.787   3.501   6.482  0.7532  0.0544  0.6709
 4490SOL    HW224930   2.684   3.497   6.586  3.0586 -1.7836  1.2080
 4491SOL     OW24931   2.548   0.151   5.952  0.1238 -0.3959 -0.0687
 4491SOL    HW124932   2.496   0.232   5.952  1.8263  0.6875 -1.1899
 4491SOL    HW224933   2.622   0.181   6.005 -0.5489 -0.5732  0.9616
 4492SOL     OW24934   3.065   3.003   2.517 -0.1982  0.4103  0.1152
 4492SOL    HW124935   3.122   2.930   2.543 -1.2234 -1.0409 -1.6803
 4492SOL    HW224936   3.105   3.076   2.563  2.4732 -0.8510 -0.2096
 4493SOL     OW24937   2.550   1.884   3.345 -0.5333  0.2901 -0.6669
 4493SOL    HW124938   2.502   1.810   3.383  0.9988 -0.3735 -0.0304
 4493SOL    HW224939   2.638   1.848   3.354  0.4911  3.2013  0.8615
 4494SOL     OW24940   1.355   0.040   4.358  0.2164  0.3001 -0.2405
 4494SOL    HW124941   1.308   0.020   4.439 -0.6072  2.6267 -0.1509
 4494SOL    HW224942   1.301   4.722   4.291  0.2752 -0.4867  0.2121
 4495SOL     OW24943   1.038   4.597  14.666 -0.1180  0.2842  0.0510
 4495SOL    HW124944   0.989   4.604  14.584  0.6077 -0.3402 -0.4297
 4495SOL    HW224945   0.977   4.540  14.712 -0.2278 -0.3863 -0.9506
 4496SOL     OW24946   4.375   3.291  10.960  0.0699  0.4889 -0.0227
 4496SOL    HW124947   4.375   3.362  10.895 -2.0550  0.5839  0.0928
 4496SOL    HW224948   4.454   3.250  10.923  0.5346  3.1392 -2.0262
 4497SOL     OW24949   0.610   1.908   4.578  0.0389  0.5366  0.2541
 4497SOL    HW124950   0.687   1.964   4.585  0.9818 -0.6087 -1.0994
 4497SOL    HW224951   0.540   1.952   4.627 -2.2834 -1.3769 -1.3721
 4498SOL     OW24952   3.718   1.212   6.538  0.0411 -0.3435  0.7460
 4498SOL    HW124953   3.644   1.195   6.480  1.5814 -1.7910 -0.8343
 4498SOL    HW224954   3.772   1.268   6.482 -0.8093  0.6475  0.9339
 4499SOL     OW24955   1.227   3.272   4.201  0.0326  0.0752 -0.2877
 4499SOL    HW124956   1.149   3.300   4.250  0.3542  0.0077  0.2659
 4499SOL    HW224957   1.283   3.303   4.273  0.8129  0.3759 -1.0204
 4500SOL     OW24958   4.198   4.394  11.138  0.0281 -0.2326  0.0602
 4500SOL    HW124959   4.254   4.391  11.061 -3.6071 -3.4806 -2.4331
 4500SOL    HW224960   4.178   4.303  11.158  1.2160 -0.7006 -0.8809
 4501SOL     OW24961   0.993   2.027   1.809  0.1809  0.6932 -0.1624
 4501SOL    HW124962   1.027   2.066   1.890 -0.5313 -0.3970  0.6643
 4501SOL    HW224963   1.075   1.988   1.781 -0.9037 -1.5868 -0.0923
 4502SOL     OW24964   1.838   2.284   4.518 -0.0247 -0.0288  0.8564
 4502SOL    HW124965   1.873   2.228   4.588 -0.3961 -1.5141 -0.1337
 4502SOL    HW224966   1.743   2.269   4.516  0.1008 -0.5752 -1.0488
 4503SOL     OW24967   1.768   1.921  15.559 -0.0099 -0.5490 -0.1679
 4503SOL    HW124968   1.825   1.893  15.487 -1.6969 -2.5661 -0.6964
 4503SOL    HW224969   1.686   1.891  15.521  0.3127 -0.0326 -1.2555
 4504SOL     OW24970   4.130   1.768   1.798  0.0387  0.0106  0.3414
 4504SOL    HW124971   4.045   1.774   1.841 -0.6356 -0.0103 -0.9751
 4504SOL    HW224972   4.119   1.701   1.729 -1.5890  0.3956  0.2303
 4505SOL     OW24973   3.492   0.575  16.109  0.1420 -0.4848 -0.1320
 4505SOL    HW124974   3.569   0.519  16.124  0.0693 -0.3596  0.7194
 4505SOL    HW224975   3.532   0.656  16.079 -0.4930  0.5229  1.7826
 4506SOL     OW24976   3.803   0.430   4.184 -0.0585 -0.7806 -0.1714
 4506SOL    HW124977   3.879   0.405   4.236  0.7121  1.2217 -0.3432
 4506SOL    HW224978   3.781   0.347   4.140  1.9251 -1.1398 -0.5248
 4507SOL     OW24979   2.722   1.621  14.761 -0.1284 -0.7404  0.1958
 4507SOL    HW124980   2.739   1.533  14.727 -0.1445 -1.0451  0.9840
 4507SOL    HW224981   2.627   1.616  14.771 -0.4730 -0.5795 -3.0535
 4508SOL     OW24982   2.821   3.602   1.702  0.3363 -0.6549  0.0109
 4508SOL    HW124983   2.807   3.622   1.795 -3.0004  0.2869 -0.6971
 4508SOL    HW224984   2.752   3.658   1.666  0.9677  0.3388  0.3097
 4509SOL     OW24985   0.684   4.630   2.136 -0.4196 -0.0672  0.6636
 4509SOL    HW124986   0.591   4.623   2.157 -0.5673 -3.8757 -1.1340
 4509SOL    HW224987   0.720   4.651   2.222  1.7503 -1.3882  0.0881
 4510SOL     OW24988   0.126   3.599   2.385 -0.6729 -0.2579  0.3734
 4510SOL    HW124989   0.122   3.505   2.403  0.6877 -0.9494 -2.9146
 4510SOL    HW224990   0.216   3.613   2.356 -0.8569 -3.9798 -1.9203
 4511SOL     OW24991   0.515   3.846  17.636  0.3973 -0.3013 -0.4015
 4511SOL    HW124992   0.492   3.896  17.558  1.8293  0.7794 -0.1398
 4511SOL    HW224993   0.566   3.916  17.677 -0.0469 -0.5280  0.5462
 4512SOL     OW24994   1.183   3.368  10.528  0.1464 -0.2853  0.5054
 4512SOL    HW124995   1.117   3.436  10.511  0.3687 -0.1187  0.3008
 4512SOL    HW224996   1.202   3.345  10.437 -0.2735  1.3076  0.0142
 4513SOL     OW24997   3.260   4.586  10.707 -0.4890  0.3238 -0.3158
 4513SOL    HW124998   3.263   4.555  10.616 -0.9505  1.4799 -0.7240
 4513SOL    HW224999   3.168   4.577  10.729 -0.3083 -0.5552  0.0862
 4514SOL     OW25000   4.258   2.715   3.450 -0.0909 -0.5171  0.2992
 4514SOL    HW125001   4.314   2.748   3.380  1.7769 -1.0698  1.5127
 4514SOL    HW225002   4.256   2.785   3.516  0.6546  0.5339 -0.8041
 4515SOL     OW25003   3.908   2.836   7.490  0.1342  0.0205 -0.2115
 4515SOL    HW125004   3.924   2.926   7.518  0.4193 -0.2870  0.6241
 4515SOL    HW225005   3.939   2.792   7.569  2.5422 -0.6583 -1.5398
 4516SOL     OW25006   0.439   2.226   7.763 -0.0036 -0.3775 -0.0626
 4516SOL    HW125007   0.455   2.188   7.850  0.0430 -3.3738 -1.3827
 4516SOL    HW225008   0.469   2.316   7.772 -2.7963  0.6654 -1.0628
 4517SOL     OW25009   1.967   3.458   7.232  0.0574  0.4303  0.0824
 4517SOL    HW125010   1.927   3.494   7.311 -1.1855 -1.3310  0.2530
 4517SOL    HW225011   1.945   3.525   7.167 -1.0047  0.6747  0.7015
 4518SOL     OW25012   3.496   2.854  10.970  0.3199 -0.0175  0.1320
 4518SOL    HW125013   3.522   2.813  11.052 -0.6692 -1.6963 -0.3994
 4518SOL    HW225014   3.422   2.904  11.006  0.8300 -0.1496  1.3682
 4519SOL     OW25015   0.365   0.813   6.446 -0.5020 -0.0844  0.1758
 4519SOL    HW125016   0.444   0.850   6.486 -0.6837  0.4764  0.0253
 4519SOL    HW225017   0.381   0.840   6.355 -2.1323  0.6917  0.1094
 4520SOL     OW25018   2.789   1.276   6.950  0.5546  0.0664 -0.4374
 4520SOL    HW125019   2.862   1.225   6.984  0.6136 -0.6963 -1.7017
 4520SOL    HW225020   2.796   1.349   7.011 -0.1491  2.4794 -3.2357
 4521SOL     OW25021   2.490   0.801   4.429  0.5267  0.0121 -0.2975
 4521SOL    HW125022   2.426   0.789   4.499  1.8097  1.8811  1.1695
 4521SOL    HW225023   2.459   0.883   4.391 -1.7915 -0.1450  1.3036
 4522SOL     OW25024   1.098   2.145   7.306  0.1321  0.1818  0.5205
 4522SOL    HW125025   1.086   2.236   7.279  1.8788  0.0182 -0.7467
 4522SOL    HW225026   1.007   2.127   7.331 -0.0006 -1.1409 -0.8734
 4523SOL     OW25027   0.386   0.916   2.750  0.0640  0.0609 -0.1393
 4523SOL    HW125028   0.363   0.863   2.674 -1.1444 -0.4365  0.5771
 4523SOL    HW225029   0.365   1.004   2.718  0.7969 -0.4199 -1.9144
 4524SOL     OW25030   0.090   2.258  11.705  0.1041 -0.5151  0.3215
 4524SOL    HW125031   0.086   2.209  11.787  1.8487  0.1373  0.7850
 4524SOL    HW225032   0.084   2.186  11.641  0.2372 -0.2074 -0.0373
 4525SOL     OW25033   1.671   1.883   5.068 -0.0752 -0.4084  0.0230
 4525SOL    HW125034   1.675   1.972   5.103  0.7107 -0.2299 -0.5302
 4525SOL    HW225035   1.765   1.865   5.072 -0.1724 -1.3492 -1.8059
 4526SOL     OW25036   3.491   2.210  12.960 -0.2089 -0.0102 -0.2511
 4526SOL    HW125037   3.398   2.189  12.962 -0.1727 -0.0929  0.5625
 4526SOL    HW225038   3.498   2.289  13.015 -3.3550 -0.2319  0.4408
 4527SOL     OW25039   0.455   3.283   8.468 -0.2708 -0.0309 -0.4510
 4527SOL    HW125040   0.436   3.191   8.452  0.4764 -0.7437  2.8186
 4527SOL    HW225041   0.400   3.291   8.546 -0.5007 -2.6211 -0.3368
 4528SOL     OW25042   1.539   0.159  11.021 -0.1506 -0.0542  0.1235
 4528SOL    HW125043   1.522   0.102  10.946 -3.0330 -0.0839  0.7833
 4528SOL    HW225044   1.621   0.136  11.063 -0.0931  1.1298  0.6791
 4529SOL     OW25045   2.948   0.842   6.954 -0.1192 -0.1169 -0.3317
 4529SOL    HW125046   2.897   0.883   7.024 -1.3642 -1.1400 -0.6292
 4529SOL    HW225047   2.883   0.786   6.911 -0.9180 -0.8060  1.7336
 4530SOL     OW25048   0.939   3.318  12.030  0.2829  0.0355  0.2074
 4530SOL    HW125049   0.903   3.246  11.979  0.1035  0.3206 -0.0666
 4530SOL    HW225050   0.949   3.279  12.117 -2.1356  0.1414  0.5311
 4531SOL     OW25051   2.457   1.912   4.597 -0.0407  0.0177  0.2527
 4531SOL    HW125052   2.527   1.846   4.601 -1.4860 -1.6322 -1.4089
 4531SOL    HW225053   2.500   1.990   4.565  0.8074 -1.1545 -1.4319
 4532SOL     OW25054   2.718   2.386  16.322  0.4289  0.2401  0.0577
 4532SOL    HW125055   2.715   2.448  16.395 -0.3131 -2.0689  2.0015
 4532SOL    HW225056   2.720   2.443  16.246  1.9765  0.3780  0.1933
 4533SOL     OW25057   2.235   3.668   6.099 -0.0470 -0.2812 -0.4436
 4533SOL    HW125058   2.311   3.641   6.047  2.5148  1.4040  2.3682
 4533SOL    HW225059   2.174   3.691   6.029 -1.0380 -3.1302 -0.5056
 4534SOL     OW25060   4.153   4.209   7.138  0.0530  0.0179 -0.2110
 4534SOL    HW125061   4.229   4.203   7.079  2.1268 -0.0414  2.4837
 4534SOL    HW225062   4.162   4.300   7.165 -1.3249  0.0947 -0.0255
 4535SOL     OW25063   2.320   4.673   4.966 -0.1947 -0.0818  0.2810
 4535SOL    HW125064   2.244   4.637   4.922  0.3658 -1.5438  0.5064
 4535SOL    HW225065   2.385   4.676   4.896 -2.1226 -2.3973 -1.5827
 4536SOL     OW25066   3.603   1.616  16.519 -0.5458 -0.3093  0.7349
 4536SOL    HW125067   3.509   1.634  16.523 -1.0672 -3.5560  2.6994
 4536SOL    HW225068   3.645   1.683  16.574  0.1795  0.3139 -0.5620
 4537SOL     OW25069   0.182   3.886   8.313 -0.1168 -0.1922 -0.0760
 4537SOL    HW125070   0.122   3.952   8.280  0.5731  0.3393 -0.2722
 4537SOL    HW225071   0.132   3.852   8.387 -1.4134 -1.5168 -1.5596
 4538SOL     OW25072   0.197   2.938   1.732 -0.4086 -0.7795  0.5835
 4538SOL    HW125073   0.113   2.938   1.686  0.7507  0.7449 -1.5179
 4538SOL    HW225074   0.235   3.018   1.695  1.8178 -1.0537  2.2545
 4539SOL     OW25075   4.415   2.763   1.842 -0.1252 -0.1317  0.3394
 4539SOL    HW125076   4.361   2.826   1.889 -1.5097  0.5097 -2.1271
 4539SOL    HW225077   4.498   2.765   1.890 -0.4721  1.8396  0.8354
 4540SOL     OW25078   1.284   3.769   3.764 -0.2820 -0.2454 -0.2270
 4540SOL    HW125079   1.358   3.727   3.807  0.5027  0.8685 -0.4880
 4540SOL    HW225080   1.237   3.689   3.740 -0.1049  0.0337 -1.4833
 4541SOL     OW25081   0.700   3.475  11.942  0.6877 -0.0056 -0.3615
 4541SOL    HW125082   0.777   3.420  11.956 -1.4094 -3.0687 -0.8550
 4541SOL    HW225083   0.641   3.427  11.884 -0.7170  0.3930  0.7393
 4542SOL     OW25084   0.500   4.230   7.642 -0.3140  0.0870 -0.2244
 4542SOL    HW125085   0.500   4.160   7.709  1.0670  1.4194  1.1777
 4542SOL    HW225086   0.589   4.258   7.666 -0.3413 -0.6431  0.7533
 4543SOL     OW25087   2.123   1.516   6.416 -0.7622 -0.0887 -0.1777
 4543SOL    HW125088   2.118   1.434   6.464 -2.1760 -1.2608 -2.3307
 4543SOL    HW225089   2.075   1.578   6.471  0.3038  0.9303 -0.3779
 4544SOL     OW25090   3.600   2.041   9.192  0.3007  0.9922  0.4774
 4544SOL    HW125091   3.681   2.025   9.240 -0.7956  2.1958  2.7673
 4544SOL    HW225092   3.589   2.134   9.210 -2.7131  0.6676  0.4140
 4545SOL     OW25093   3.440   3.863   8.172  0.3200 -0.2079  1.0615
 4545SOL    HW125094   3.377   3.918   8.125  1.8008  1.4015  0.9724
 4545SOL    HW225095   3.454   3.797   8.105 -1.4462 -0.7070  1.1896
 4546SOL     OW25096   0.237   1.823   6.296 -0.4527 -0.2984  0.2331
 4546SOL    HW125097   0.190   1.739   6.289  0.4600 -0.7169 -0.8713
 4546SOL    HW225098   0.300   1.807   6.226 -0.2665 -1.5613  0.6747
 4547SOL     OW25099   1.518   3.190  16.913 -0.2621  0.3611  0.1654
 4547SOL    HW125100   1.562   3.254  16.969 -0.7941  1.7182 -0.9700
 4547SOL    HW225101   1.477   3.134  16.979  0.9260 -2.1731 -1.2744
 4548SOL     OW25102   3.749   0.086   0.581  0.3505 -0.0704  0.0020
 4548SOL    HW125103   3.741   0.028   0.657  3.3352  1.3944  1.4223
 4548SOL    HW225104   3.799   0.034   0.518  0.7614 -1.3737  1.3958
 4549SOL     OW25105   2.421   4.420   8.337 -0.1547 -0.2141  0.2051
 4549SOL    HW125106   2.397   4.370   8.259 -2.7297  0.8153  0.3594
 4549SOL    HW225107   2.477   4.360   8.386  0.2229 -0.2343 -0.2528
 4550SOL     OW25108   4.491   1.369   4.407  0.1605  0.0469 -0.2875
 4550SOL    HW125109   4.543   1.447   4.386  0.6807 -0.1751  0.1927
 4550SOL    HW225110   4.497   1.322   4.324  2.2230  0.9656 -0.6780
 4551SOL     OW25111   4.211   3.505   2.831 -0.1901 -0.1545  0.3410
 4551SOL    HW125112   4.200   3.480   2.922  0.6763 -1.6667  0.0166
 4551SOL    HW225113   4.280   3.570   2.846 -0.7091  0.6115 -0.5279
 4552SOL     OW25114   0.231   4.465   5.417 -0.0059  0.0515  0.0058
 4552SOL    HW125115   0.266   4.553   5.432  0.6562 -0.1479 -0.4188
 4552SOL    HW225116   0.144   4.489   5.385 -0.3816  0.3452  1.2362
 4553SOL     OW25117   3.012   4.526   0.960 -0.2383 -0.3754 -0.4564
 4553SOL    HW125118   2.945   4.528   0.892  0.2791  1.9976 -0.9084
 4553SOL    HW225119   3.062   4.447   0.943  1.2668  0.5938 -0.6015
 4554SOL     OW25120   3.697   3.048   5.484  0.1072  0.5081 -0.1581
 4554SOL    HW125121   3.716   2.961   5.447  3.3840  1.4558 -0.6713
 4554SOL    HW225122   3.746   3.110   5.429  0.5723  0.6351  0.4002
 4555SOL     OW25123   0.717   1.453  10.564 -0.3103 -0.2566  0.2204
 4555SOL    HW125124   0.720   1.526  10.626  3.3428 -0.3429  0.1670
 4555SOL    HW225125   0.793   1.479  10.512 -0.4807  1.0629  0.6180
 4556SOL     OW25126   3.811   3.023  15.421 -0.0973 -0.2844 -0.1987
 4556SOL    HW125127   3.875   3.066  15.477  3.4782 -2.9854 -2.1936
 4556SOL    HW225128   3.758   2.971  15.480  1.3190  0.0450  1.3569
 4557SOL     OW25129   2.479   3.243   1.704 -0.0911  0.7045 -0.0475
 4557SOL    HW125130   2.441   3.159   1.679  0.0861  0.5866  0.0770
 4557SOL    HW225131   2.560   3.239   1.655  0.6664  0.4126  1.2338
 4558SOL     OW25132   3.151   1.299   7.391 -0.4058 -0.1011 -0.0396
 4558SOL    HW125133   3.078   1.334   7.441 -0.1437 -0.4638  0.5893
 4558SOL    HW225134   3.219   1.296   7.458  0.5777  1.9569 -0.9102
 4559SOL     OW25135   1.457   1.110  13.473  0.0997 -0.2177  0.1686
 4559SOL    HW125136   1.496   1.146  13.393  0.2016 -0.4860  0.0950
 4559SOL    HW225137   1.469   1.016  13.459 -4.8616 -0.6622 -1.1277
 4560SOL     OW25138   3.865   4.048   2.559  0.2075 -0.2152  0.3949
 4560SOL    HW125139   3.897   3.959   2.571 -1.3418 -0.9374 -0.8916
 4560SOL    HW225140   3.943   4.092   2.525 -1.0611  0.9426 -1.0557
 4561SOL     OW25141   2.588   2.787  11.421  0.7499  0.0636  0.4408
 4561SOL    HW125142   2.660   2.727  11.438  0.1890  0.0450  2.7862
 4561SOL    HW225143   2.600   2.790  11.326 -1.8989  1.5515  0.1636
 4562SOL     OW25144   2.158   0.947   9.869  0.1364  0.0407  0.3787
 4562SOL    HW125145   2.144   0.856   9.892  0.4095 -0.1360 -0.1502
 4562SOL    HW225146   2.251   0.944   9.844  0.0158 -0.8539  0.0509
 4563SOL     OW25147   0.555   1.019   5.009 -0.2395 -0.2583 -0.4028
 4563SOL    HW125148   0.565   0.933   5.051  0.9827 -0.7090 -1.6049
 4563SOL    HW225149   0.459   1.026   5.015 -0.2583 -1.8132  1.1778
 4564SOL     OW25150   2.303   1.833   6.414 -0.7136  0.2205 -0.8028
 4564SOL    HW125151   2.367   1.806   6.348  0.9284  1.4165  0.2868
 4564SOL    HW225152   2.246   1.878   6.351  1.1914  2.2846 -1.0461
 4565SOL     OW25153   4.431   2.433   6.894  0.3457 -0.3545  0.0343
 4565SOL    HW125154   4.522   2.420   6.919  0.4222  0.5876  0.2481
 4565SOL    HW225155   4.389   2.456   6.977  1.3818  0.9509  0.1946
 4566SOL     OW25156   1.602   1.108   2.134  0.3027  0.1818 -0.0923
 4566SOL    HW125157   1.643   1.025   2.159  0.0609  0.8372  2.4214
 4566SOL    HW225158   1.683   1.160   2.126 -0.4248  0.9488 -2.4889
 4567SOL     OW25159   1.034   1.350   2.677  0.6624 -0.1839  0.0809
 4567SOL    HW125160   1.089   1.324   2.751  3.9329  2.8832 -1.2583
 4567SOL    HW225161   0.949   1.356   2.720 -0.8709  0.8163 -3.0915
 4568SOL     OW25162   2.861   2.177  16.397 -0.1233 -0.3533 -0.3873
 4568SOL    HW125163   2.831   2.251  16.344 -0.9202  0.0438  0.6240
 4568SOL    HW225164   2.824   2.203  16.481 -0.8233  2.4914 -1.5714
 4569SOL     OW25165   1.535   1.498  16.324 -0.7965 -0.4073  0.1871
 4569SOL    HW125166   1.629   1.509  16.329 -0.8304 -0.8426  1.9409
 4569SOL    HW225167   1.524   1.422  16.383  2.1895  0.4079  1.7627
 4570SOL     OW25168   0.971   0.164   4.864 -1.0221 -0.0198 -0.2706
 4570SOL    HW125169   0.966   0.257   4.840 -1.4323 -0.1569 -0.7105
 4570SOL    HW225170   0.989   0.186   4.956  0.7604  2.1607 -1.1460
 4571SOL     OW25171   2.573   1.988  13.779  0.0190 -0.1613 -0.2924
 4571SOL    HW125172   2.601   1.960  13.691  0.7065 -4.4011  1.2372
 4571SOL    HW225173   2.632   2.063  13.789  0.1004 -0.1051 -1.1807
 4572SOL     OW25174   2.938   2.757   6.872 -0.3462 -0.0287 -0.5035
 4572SOL    HW125175   2.991   2.702   6.814  0.6261  0.7449 -0.3485
 4572SOL    HW225176   2.893   2.690   6.924 -1.4937  0.7360 -0.5150
 4573SOL     OW25177   1.299   1.110   2.970  0.3760  0.1503 -0.4600
 4573SOL    HW125178   1.389   1.114   2.939  0.7542  4.6351  1.2317
 4573SOL    HW225179   1.313   1.092   3.063  1.5757 -2.4637 -1.1457
 4574SOL     OW25180   3.213   3.911   4.695  0.1569  0.1727 -0.3264
 4574SOL    HW125181   3.261   3.870   4.623  0.2443 -3.7784  2.0114
 4574SOL    HW225182   3.186   3.832   4.741 -1.4503  1.4733  0.9785
 4575SOL     OW25183   3.568   3.939  13.534  0.7494 -0.2259  0.0773
 4575SOL    HW125184   3.583   3.903  13.447  1.0601  0.2177 -0.0566
 4575SOL    HW225185   3.657   3.933  13.569  0.0592 -1.1713  1.6438
 4576SOL     OW25186   1.541   0.646   3.480  0.2720  0.2144  0.2661
 4576SOL    HW125187   1.637   0.645   3.477  0.2475  0.2615 -0.6772
 4576SOL    HW225188   1.517   0.656   3.572  0.9220  1.0050  0.3497
 4577SOL     OW25189   3.141   3.559   7.276  0.8212  0.3966  0.0263
 4577SOL    HW125190   3.196   3.500   7.225  2.6611  3.5704 -1.6436
 4577SOL    HW225191   3.123   3.610   7.197 -1.9714  1.7125  1.4932
 4578SOL     OW25192   1.525   2.143   7.525 -0.2459 -0.3811 -0.1968
 4578SOL    HW125193   1.526   2.083   7.600 -0.3172 -0.9473 -0.6497
 4578SOL    HW225194   1.517   2.076   7.457 -0.0980 -1.0605  0.4480
 4579SOL     OW25195   0.921   2.752  15.757 -0.1077 -0.2285  0.4146
 4579SOL    HW125196   0.958   2.687  15.816  1.3132 -0.3709 -0.6296
 4579SOL    HW225197   0.995   2.792  15.713  1.1327 -1.1623  1.6667
 4580SOL     OW25198   1.057   0.705  10.906  0.4921  0.4371 -0.2882
 4580SOL    HW125199   1.077   0.717  10.998 -2.1509 -1.3377  0.5112
 4580SOL    HW225200   0.969   0.743  10.913 -0.2075 -0.8596 -1.9016
 4581SOL     OW25201   0.190   4.378   5.816  0.2554 -0.3390 -0.1991
 4581SOL    HW125202   0.213   4.422   5.898  0.8938 -0.8942 -0.0878
 4581SOL    HW225203   0.244   4.421   5.749 -1.2906 -1.1928 -2.0184
 4582SOL     OW25204   0.679   1.024  13.741  0.5517  0.2823 -0.5216
 4582SOL    HW125205   0.758   1.078  13.746  0.8698 -0.3432  1.1877
 4582SOL    HW225206   0.710   0.936  13.723 -3.3779 -1.3405  0.6215
 4583SOL     OW25207   0.153   3.543   1.034  0.5418 -0.1716 -0.3254
 4583SOL    HW125208   0.189   3.468   1.081 -2.0222 -0.3214  1.3895
 4583SOL    HW225209   0.084   3.560   1.099  1.2150 -1.4438  0.7272
 4584SOL     OW25210   4.342   2.782   6.951  0.1253  0.5853 -0.1509
 4584SOL    HW125211   4.435   2.758   6.952 -0.4709 -1.6192  1.1091
 4584SOL    HW225212   4.308   2.708   7.001  0.1067  0.5604 -0.2007
 4585SOL     OW25213   0.800   1.231   4.785 -0.1424 -0.2659 -0.1266
 4585SOL    HW125214   0.892   1.260   4.782 -0.2853  0.3761  1.5261
 4585SOL    HW225215   0.756   1.294   4.842  1.2053 -0.0256  0.6647
 4586SOL     OW25216   2.703   3.372  12.241  0.0955  0.3296  0.0877
 4586SOL    HW125217   2.789   3.385  12.279 -0.6459  0.0801  1.8619
 4586SOL    HW225218   2.666   3.309  12.302  0.2931 -0.3310 -0.4733
 4587SOL     OW25219   1.222   2.484   2.590  0.7892 -0.1364  0.9669
 4587SOL    HW125220   1.235   2.390   2.605  1.5570 -0.6199 -2.8734
 4587SOL    HW225221   1.220   2.486   2.494 -1.9920 -2.6224  0.9441
 4588SOL     OW25222   4.668   0.656   1.490  0.4591  0.1662 -0.0434
 4588SOL    HW125223   4.580   0.647   1.453 -0.0411  0.3893  1.1148
 4588SOL    HW225224   4.704   0.584   1.437  0.9589 -0.2912  0.9101
 4589SOL     OW25225   2.974   2.079   2.763 -0.5584 -0.8683  0.0075
 4589SOL    HW125226   2.897   2.033   2.731  0.4800 -0.8208 -2.5310
 4589SOL    HW225227   3.043   2.065   2.698  1.4690  0.1772  1.9208
 4590SOL     OW25228   4.267   1.887   6.512 -0.0986  0.2621  0.7887
 4590SOL    HW125229   4.318   1.806   6.512  0.6694  0.7707 -3.6532
 4590SOL    HW225230   4.231   1.894   6.601 -2.1948 -0.0527 -0.0206
 4591SOL     OW25231   2.783   0.618  13.108 -0.0537 -0.5786  0.7652
 4591SOL    HW125232   2.867   0.654  13.136  0.2323  0.8141 -1.8917
 4591SOL    HW225233   2.722   0.691  13.099 -1.3286 -1.3829  2.9294
 4592SOL     OW25234   3.821   2.424   7.424 -0.0897 -0.5761 -0.0081
 4592SOL    HW125235   3.878   2.501   7.416  0.5472 -0.7044  3.3296
 4592SOL    HW225236   3.794   2.408   7.333  0.0115 -0.0787 -0.1266
 4593SOL     OW25237   3.027   1.284   1.312  0.3182  0.1617 -0.1187
 4593SOL    HW125238   2.969   1.291   1.236 -0.1094  1.2592  0.3081
 4593SOL    HW225239   2.968   1.268   1.386  2.2373  0.2923  1.4261
 4594SOL     OW25240   2.038   1.488   2.925  0.6453  0.2881 -0.5546
 4594SOL    HW125241   2.047   1.405   2.972 -0.4764  0.7349  0.4551
 4594SOL    HW225242   2.115   1.534   2.957  0.1687 -0.1041  1.1931
 4595SOL     OW25243   2.172   1.463   5.026 -0.3695  0.1971 -0.3961
 4595SOL    HW125244   2.196   1.529   5.092  1.2287  0.3610 -1.1542
 4595SOL    HW225245   2.110   1.520   4.980  0.0342 -0.4757 -1.7666
 4596SOL     OW25246   3.741   3.414  16.840  0.9663 -0.3281 -0.3965
 4596SOL    HW125247   3.831   3.444  16.849  1.1706 -0.8732 -0.6122
 4596SOL    HW225248   3.714   3.417  16.932 -0.6557 -1.2659 -0.8311
 4597SOL     OW25249   0.535   2.689   3.084 -0.0111 -0.9203 -0.4713
 4597SOL    HW125250   0.472   2.752   3.120  1.1112 -1.5797  2.6094
 4597SOL    HW225251   0.552   2.633   3.159  0.3968 -0.8457 -0.5091
 4598SOL     OW25252   4.190   3.712   4.997 -0.2531 -0.2174  0.6914
 4598SOL    HW125253   4.273   3.670   5.023 -0.1963 -0.3416  0.3121
 4598SOL    HW225254   4.208   3.806   4.996 -2.4625  0.1836 -1.1595
 4599SOL     OW25255   1.316   4.621   8.442  0.1908  0.2475 -0.2788
 4599SOL    HW125256   1.251   4.648   8.377  1.6829 -2.4415 -2.8648
 4599SOL    HW225257   1.394   4.663   8.407  0.4741 -0.2686 -0.2573
 4600SOL     OW25258   3.826   4.358  11.110  0.3559  0.0346 -0.2480
 4600SOL    HW125259   3.809   4.354  11.204  0.2188 -2.0305 -0.3453
 4600SOL    HW225260   3.916   4.390  11.110  0.1323  0.6645  0.2744
 4601SOL     OW25261   1.653   0.786   4.403  0.6638  0.0932  0.2595
 4601SOL    HW125262   1.699   0.812   4.483 -3.5846  2.2828  2.0114
 4601SOL    HW225263   1.718   0.802   4.335  0.5401  0.8347  0.3203
 4602SOL     OW25264   0.881   1.509   1.898  0.3630 -0.0605  0.8346
 4602SOL    HW125265   0.884   1.418   1.867 -1.5627 -1.1669  3.9022
 4602SOL    HW225266   0.965   1.549   1.875 -0.2089  1.9449  2.3152
 4603SOL     OW25267   3.294   4.100   3.613 -0.5392  0.4971 -0.3540
 4603SOL    HW125268   3.237   4.173   3.586 -1.2049 -0.1614 -0.7314
 4603SOL    HW225269   3.325   4.136   3.696 -1.1191  1.6830 -0.6421
 4604SOL     OW25270   3.934   1.248   7.887  0.1494  0.0705 -0.0030
 4604SOL    HW125271   3.931   1.245   7.983 -0.2457 -1.0439 -0.0539
 4604SOL    HW225272   4.011   1.193   7.873  1.6776  2.6332 -1.5831
 4605SOL     OW25273   0.035   2.636   3.041 -0.1367  0.1040  0.2438
 4605SOL    HW125274   0.082   2.719   3.031  2.0355 -1.0584  0.9468
 4605SOL    HW225275   0.052   2.637   3.135 -0.1379 -0.9480  0.2485
 4606SOL     OW25276   1.115   0.406   6.142  0.3505 -0.3429  0.6466
 4606SOL    HW125277   1.056   0.482   6.139 -0.1086 -0.6904  0.9467
 4606SOL    HW225278   1.071   0.363   6.069  0.0193 -1.1518  1.3300
 4607SOL     OW25279   1.129   2.962  13.912 -0.3867 -0.5025  0.1883
 4607SOL    HW125280   1.176   2.879  13.896  0.0245 -0.0145 -1.1842
 4607SOL    HW225281   1.064   2.960  13.841 -1.0907 -1.1021  0.8552
 4608SOL     OW25282   2.287   4.448   9.418  0.2557 -0.4984  0.0157
 4608SOL    HW125283   2.256   4.478   9.332 -2.1290  0.8297  1.3446
 4608SOL    HW225284   2.372   4.415   9.390 -0.1856 -1.9725  0.4303
 4609SOL     OW25285   0.236   2.719   8.383  0.1819  0.1935  0.3048
 4609SOL    HW125286   0.172   2.725   8.453  0.2484 -1.9509  0.5464
 4609SOL    HW225287   0.267   2.632   8.407  2.6822  0.7408 -0.9072
 4610SOL     OW25288   2.612   3.671  16.781  0.0322  0.2516 -0.0922
 4610SOL    HW125289   2.597   3.630  16.696  0.2060  1.1311 -0.5441
 4610SOL    HW225290   2.702   3.702  16.783 -0.2247  0.9919  0.0688
 4611SOL     OW25291   0.835   4.119   8.404  0.4737  0.0527  0.6262
 4611SOL    HW125292   0.916   4.135   8.454  0.9324 -0.0387 -0.0835
 4611SOL    HW225293   0.866   4.047   8.349 -0.2720 -1.0507  1.6628
 4612SOL     OW25294   0.163   3.838   1.950  0.4244  0.6096 -0.0203
 4612SOL    HW125295   0.169   3.934   1.951 -1.9695  0.7667 -1.3676
 4612SOL    HW225296   0.228   3.824   1.881 -0.6238 -0.9380 -0.6836
 4613SOL     OW25297   0.013   3.818   5.477 -0.0350 -0.3953  0.6427
 4613SOL    HW125298   0.010   3.731   5.516  0.1756 -0.4829  0.4636
 4613SOL    HW225299   4.660   3.817   5.420  1.1305 -0.1140 -0.9660
 4614SOL     OW25300   2.185   0.923   1.334 -0.1270 -0.5268 -0.1571
 4614SOL    HW125301   2.190   0.991   1.402 -1.2501  1.4399 -2.0297
 4614SOL    HW225302   2.199   0.846   1.389 -0.0729 -0.3394  0.0930
 4615SOL     OW25303   1.058   2.362   8.144 -0.4008 -0.3537  0.2514
 4615SOL    HW125304   1.065   2.448   8.186  2.2405 -0.1147 -0.6994
 4615SOL    HW225305   0.974   2.384   8.102 -0.9485 -1.9295  0.5157
 4616SOL     OW25306   1.103   3.495   2.819  0.2502 -0.1234 -0.2142
 4616SOL    HW125307   1.189   3.458   2.840  0.5284 -0.2330 -1.5280
 4616SOL    HW225308   1.122   3.584   2.790  1.0340 -0.8946 -2.0788
 4617SOL     OW25309   1.178   3.148   7.086  0.3294  0.1509 -0.0413
 4617SOL    HW125310   1.211   3.064   7.119  0.8733  0.4215  0.1065
 4617SOL    HW225311   1.222   3.211   7.143  0.0355  0.9479 -0.7087
 4618SOL     OW25312   0.276   4.202   8.434  0.4581 -0.2790 -0.1190
 4618SOL    HW125313   0.326   4.205   8.353  2.8346  1.1103  1.4001
 4618SOL    HW225314   0.189   4.179   8.401 -0.6939  2.7873  0.8112
 4619SOL     OW25315   0.499   1.128  13.894  0.1977 -0.1397 -0.1448
 4619SOL    HW125316   0.568   1.070  13.859  0.7417  2.2709 -3.0546
 4619SOL    HW225317   0.425   1.069  13.878 -0.8730  0.5099  2.5587
 4620SOL     OW25318   0.008   0.399   6.875 -0.3157  0.5013  0.0425
 4620SOL    HW125319   0.071   0.332   6.849 -1.3360 -0.4518  0.0199
 4620SOL    HW225320   4.646   0.369   6.847  0.5222 -1.0586 -0.8405
 4621SOL     OW25321   2.196   3.482   4.554  0.4124  0.0992  0.4292
 4621SOL    HW125322   2.219   3.573   4.536  2.3699 -0.1512  1.6798
 4621SOL    HW225323   2.153   3.446   4.476  2.0468  0.5233 -0.6760
 4622SOL     OW25324   0.627   4.453  11.860  0.1734 -0.1255  0.2617
 4622SOL    HW125325   0.721   4.456  11.844  0.4094  1.5558  1.9732
 4622SOL    HW225326   0.602   4.361  11.860 -0.5357  0.0706 -0.9572
 4623SOL     OW25327   0.990   3.548  15.571  0.5730 -0.3664  0.3219
 4623SOL    HW125328   0.966   3.514  15.657 -2.4200 -0.0220 -0.3856
 4623SOL    HW225329   1.073   3.500  15.566  0.9799  0.2822  0.8411
 4624SOL     OW25330   0.035   2.712   6.678 -0.5344  0.1095 -0.0523
 4624SOL    HW125331   0.022   2.806   6.689 -4.4722 -0.3671 -0.5980
 4624SOL    HW225332   0.036   2.686   6.770 -0.9563 -1.5085 -0.5128
 4625SOL     OW25333   0.597   0.365   5.523 -0.4982  0.3420  0.0752
 4625SOL    HW125334   0.661   0.435   5.532  1.4367 -1.3515 -0.6482
 4625SOL    HW225335   0.642   0.283   5.542 -0.8189  0.6642  2.2200
 4626SOL     OW25336   2.171   3.270  13.956 -0.2748 -0.6707 -0.2879
 4626SOL    HW125337   2.259   3.304  13.973 -1.0360  1.1325 -0.0464
 4626SOL    HW225338   2.123   3.332  14.011  0.1365  1.1145 -1.9412
 4627SOL     OW25339   3.427   2.802  17.122  0.1393 -0.3572 -0.5405
 4627SOL    HW125340   3.363   2.743  17.162  1.2030 -0.2681  1.3261
 4627SOL    HW225341   3.421   2.871  17.188 -1.4598  0.1986 -1.2627
 4628SOL     OW25342   2.889   3.972   3.325  0.2426 -0.0569  0.4619
 4628SOL    HW125343   2.983   3.983   3.309  0.1577 -2.4505 -1.7070
 4628SOL    HW225344   2.858   4.062   3.317  0.1044 -0.0009  1.6709
 4629SOL     OW25345   1.900   2.906   0.995 -0.4222 -0.2714  0.2030
 4629SOL    HW125346   1.818   2.909   0.945  0.5463  1.0185 -1.3022
 4629SOL    HW225347   1.941   2.991   0.980  2.6045 -2.0246 -1.4992
 4630SOL     OW25348   4.351   4.381   4.517  0.6161  0.5782  0.2828
 4630SOL    HW125349   4.415   4.451   4.508 -2.4757  3.2244 -1.2217
 4630SOL    HW225350   4.354   4.350   4.427 -1.6900  2.2228 -0.3526
 4631SOL     OW25351   1.493   1.278  16.886 -0.1485 -0.3758  0.5092
 4631SOL    HW125352   1.481   1.184  16.900 -0.7283 -0.3242  0.3847
 4631SOL    HW225353   1.578   1.299  16.923 -0.6625  2.3407  0.1514
 4632SOL     OW25354   3.325   0.902   0.237 -0.3087 -0.2593 -0.2406
 4632SOL    HW125355   3.358   0.991   0.243 -1.3820  0.0538  0.8783
 4632SOL    HW225356   3.367   0.878   0.154 -1.1816 -1.1814 -0.4196
 4633SOL     OW25357   0.179   0.430   9.710  0.1789  0.0696  0.3373
 4633SOL    HW125358   0.094   0.450   9.749 -0.2741  1.3441 -1.3287
 4633SOL    HW225359   0.220   0.516   9.706 -0.1933  0.2701  0.9215
 4634SOL     OW25360   0.537   4.451   2.724 -0.3219  0.2186 -0.3990
 4634SOL    HW125361   0.609   4.391   2.747 -0.8923  0.2360  1.4195
 4634SOL    HW225362   0.556   4.521   2.786  2.1614 -0.9295  0.1342
 4635SOL     OW25363   2.714   4.329   3.967 -0.4603  0.1605  0.3653
 4635SOL    HW125364   2.680   4.411   3.932  1.0032 -0.6605 -2.9392
 4635SOL    HW225365   2.636   4.284   3.999  1.0775 -1.2185  2.2169
 4636SOL     OW25366   3.113   3.548   3.647  0.0132  0.0022 -0.2530
 4636SOL    HW125367   3.118   3.584   3.559  1.2914  0.6830  0.0966
 4636SOL    HW225368   3.051   3.475   3.650  0.8397 -0.7074 -0.7345
 4637SOL     OW25369   1.824   4.128  11.400  0.0242 -0.5900 -0.4523
 4637SOL    HW125370   1.898   4.067  11.395  0.2376 -0.3950  0.2559
 4637SOL    HW225371   1.779   4.126  11.316 -0.1001 -1.6379 -0.3611
 4638SOL     OW25372   3.505   1.286   3.003 -0.1571 -0.2981 -0.1558
 4638SOL    HW125373   3.467   1.359   3.051  0.6389 -1.1703  1.8078
 4638SOL    HW225374   3.509   1.233   3.082  0.3598 -0.2946 -0.1782
 4639SOL     OW25375   3.599   3.548   7.433 -0.0651  0.2211  0.1334
 4639SOL    HW125376   3.534   3.535   7.503  2.5600  0.9004  2.6831
 4639SOL    HW225377   3.651   3.469   7.442 -0.2279  0.0208 -0.6691
 4640SOL     OW25378   0.827   3.284   2.231 -0.4021 -0.0475 -0.8413
 4640SOL    HW125379   0.767   3.267   2.303  1.6394 -0.7291  0.7209
 4640SOL    HW225380   0.776   3.263   2.153 -1.8408 -0.0973  0.1236
 4641SOL     OW25381   2.483   4.341   6.406 -0.3917  0.5352  0.5236
 4641SOL    HW125382   2.550   4.315   6.343 -1.1364 -1.6478  0.6195
 4641SOL    HW225383   2.526   4.379   6.482  3.0258 -1.6829 -0.3042
 4642SOL     OW25384   3.895   3.729   8.109  0.2183 -0.0424  0.5424
 4642SOL    HW125385   3.924   3.819   8.100  0.8701 -0.3186 -0.1474
 4642SOL    HW225386   3.940   3.693   8.032  0.5276  3.3939 -0.8596
 4643SOL     OW25387   0.576   3.363   3.291 -0.6716 -0.6164  0.0647
 4643SOL    HW125388   0.627   3.298   3.245  0.5996 -0.0865  0.7309
 4643SOL    HW225389   0.615   3.356   3.378  0.1973  0.8297 -0.1989
 4644SOL     OW25390   2.820   0.348   3.028 -0.1556  0.0790  0.0924
 4644SOL    HW125391   2.744   0.292   3.012  1.9699 -2.3730 -1.4503
 4644SOL    HW225392   2.814   0.388   2.941  1.3702  0.0903  0.0003
 4645SOL     OW25393   1.050   4.385   5.928 -0.0454  0.0350  0.4370
 4645SOL    HW125394   1.100   4.355   6.005  2.1901  0.4913 -0.8366
 4645SOL    HW225395   1.010   4.306   5.891 -0.2378 -0.6565  2.0951
 4646SOL     OW25396   2.884   0.497  16.562 -0.3940 -0.1978  0.3088
 4646SOL    HW125397   2.868   0.450  16.644 -2.2721 -1.0745 -0.5813
 4646SOL    HW225398   2.979   0.488  16.557 -0.0018  3.9994  0.1026
 4647SOL     OW25399   3.002   0.724  11.879  0.1700 -0.6515  0.7451
 4647SOL    HW125400   3.093   0.695  11.871  0.3321  0.2727 -0.8111
 4647SOL    HW225401   2.981   0.741  11.787 -0.2126 -0.2368  0.9180
 4648SOL     OW25402   0.415   4.360   1.113 -0.0011 -0.1721 -0.0963
 4648SOL    HW125403   0.476   4.312   1.056  0.9008  1.6404 -0.6464
 4648SOL    HW225404   0.473   4.409   1.170  1.1446  0.6429 -1.9539
 4649SOL     OW25405   0.617   1.707   3.657 -0.4306  0.6751 -0.3463
 4649SOL    HW125406   0.555   1.662   3.599  1.2050 -0.4565 -1.2374
 4649SOL    HW225407   0.679   1.633   3.666  0.3718  1.3964  0.0733
 4650SOL     OW25408   3.233   2.915   8.532 -0.0551  0.7408 -0.8342
 4650SOL    HW125409   3.233   3.011   8.530 -0.7682  0.7520  0.0330
 4650SOL    HW225410   3.180   2.898   8.609 -0.0398  4.1744 -0.0758
 4651SOL     OW25411   3.021   1.606   9.945 -0.1906 -0.3581 -0.1564
 4651SOL    HW125412   3.014   1.524   9.896  0.6446 -1.2053  1.1256
 4651SOL    HW225413   3.108   1.632   9.918  0.0432 -0.2465  0.6936
 4652SOL     OW25414   3.866   1.002   7.154 -0.1839 -0.1022  0.1705
 4652SOL    HW125415   3.891   0.910   7.163  3.8346  0.9262 -0.5633
 4652SOL    HW225416   3.903   1.024   7.068  1.3759 -0.2635  0.8069
 4653SOL     OW25417   1.853   4.379   3.481 -0.3270  0.6122 -0.1298
 4653SOL    HW125418   1.905   4.458   3.466 -0.5253  0.6904 -0.4062
 4653SOL    HW225419   1.898   4.332   3.551 -0.9577 -0.8091 -0.6685
 4654SOL     OW25420   4.661   3.446   2.716  0.4351 -0.2347  0.4585
 4654SOL    HW125421   0.032   3.450   2.719  0.4323  0.9441 -0.9966
 4654SOL    HW225422   4.640   3.520   2.659 -2.2226 -0.9097  0.5681
 4655SOL     OW25423   0.433   3.730  15.619  0.2213  0.3690  0.4533
 4655SOL    HW125424   0.357   3.672  15.623  0.3353  0.1326 -1.0647
 4655SOL    HW225425   0.404   3.796  15.556  0.0825 -1.5254 -1.4330
 4656SOL     OW25426   2.790   2.655   8.525  0.0685 -0.0484  0.3932
 4656SOL    HW125427   2.863   2.594   8.534 -0.7967 -1.2635 -0.8732
 4656SOL    HW225428   2.766   2.652   8.618  0.2925  0.4861  0.4692
 4657SOL     OW25429   3.542   3.166   4.005  0.0201 -0.2885  0.1085
 4657SOL    HW125430   3.602   3.140   3.934 -1.2926 -0.1116 -1.0518
 4657SOL    HW225431   3.458   3.135   3.972  0.2271  1.2312 -1.8925
 4658SOL     OW25432   0.868   4.142   5.862  0.5731  0.3295 -0.4434
 4658SOL    HW125433   0.852   4.140   5.956  2.5415 -2.2624 -0.1789
 4658SOL    HW225434   0.884   4.050   5.840 -0.5982 -0.0962  0.4672
 4659SOL     OW25435   3.975   0.319   6.999 -0.1358 -0.3472  0.5055
 4659SOL    HW125436   4.057   0.368   6.995  0.7099 -1.6924  1.7139
 4659SOL    HW225437   3.953   0.304   7.090 -1.7391 -1.3388 -0.0395
 4660SOL     OW25438   2.858   1.850   3.900  0.3646 -0.5930  0.3778
 4660SOL    HW125439   2.816   1.927   3.940  0.3641 -0.0359 -0.7048
 4660SOL    HW225440   2.923   1.840   3.970 -0.6088  0.7227  1.4803
 4661SOL     OW25441   0.856   3.484   1.467  0.4653  0.1834  0.4495
 4661SOL    HW125442   0.900   3.404   1.498 -0.5492  0.8650  3.5873
 4661SOL    HW225443   0.931   3.521   1.420 -0.8738 -1.5138 -3.0602
 4662SOL     OW25444   3.280   1.465   9.628 -0.5956  1.1693  0.3432
 4662SOL    HW125445   3.307   1.517   9.704  0.8877 -0.7613  1.1264
 4662SOL    HW225446   3.223   1.524   9.578  1.0687  0.7326 -2.1004
 4663SOL     OW25447   2.516   2.602   3.503 -0.0657  0.0463  0.3449
 4663SOL    HW125448   2.535   2.512   3.475 -1.4322 -0.0894 -0.1238
 4663SOL    HW225449   2.524   2.588   3.597 -1.1591 -1.8117  0.1530
 4664SOL     OW25450   1.009   2.956   8.968  0.0846  0.5492 -0.0547
 4664SOL    HW125451   0.984   2.994   8.884  0.2056  1.5403  0.3581
 4664SOL    HW225452   1.100   2.936   8.950 -0.3224 -0.6935 -0.6848
 4665SOL     OW25453   1.760   3.984   3.525 -0.2584 -0.0872 -0.0953
 4665SOL    HW125454   1.778   3.890   3.522 -0.6007 -0.1503 -0.1586
 4665SOL    HW225455   1.792   4.001   3.614 -0.1465 -0.8023  0.0016
 4666SOL     OW25456   0.218   1.632   8.854 -0.1965  0.2949 -0.1537
 4666SOL    HW125457   0.279   1.706   8.862  0.1810 -0.1583  1.1466
 4666SOL    HW225458   0.166   1.659   8.930 -0.2861 -0.3176  0.0013
 4667SOL     OW25459   3.168   3.353   6.376 -0.4510  0.4994 -0.0421
 4667SOL    HW125460   3.190   3.369   6.284  1.0433  2.5995  0.6819
 4667SOL    HW225461   3.246   3.392   6.415 -0.3920  0.0034  0.3315
 4668SOL     OW25462   3.578   4.330   6.251  0.4636 -0.6094 -0.4922
 4668SOL    HW125463   3.659   4.313   6.298  2.1424  0.9692 -2.7613
 4668SOL    HW225464   3.608   4.361   6.165  0.9814 -4.0575 -1.5536
 4669SOL     OW25465   4.484   1.485  12.615 -0.1830  0.1847  0.0820
 4669SOL    HW125466   4.543   1.504  12.542 -2.4079  0.1758 -1.7414
 4669SOL    HW225467   4.517   1.401  12.645  1.1353  0.9299  0.6863
 4670SOL     OW25468   1.512   2.651  11.123 -0.5608  0.3064  0.2351
 4670SOL    HW125469   1.593   2.616  11.160 -1.5527 -1.1837  0.9912
 4670SOL    HW225470   1.458   2.657  11.202  0.5296  3.2331  0.7599
 4671SOL     OW25471   3.151   1.361   0.242  0.2109 -0.3132 -0.4054
 4671SOL    HW125472   3.213   1.416   0.289  0.8413  0.0736 -1.7196
 4671SOL    HW225473   3.071   1.412   0.230 -1.3703 -2.8642 -0.7501
 4672SOL     OW25474   3.693   0.180   1.427 -0.4748  0.3386  0.1342
 4672SOL    HW125475   3.726   0.166   1.338 -1.0464 -1.5897  0.2195
 4672SOL    HW225476   3.729   0.268   1.441  0.8164 -0.2299  0.4098
 4673SOL     OW25477   3.263   2.482   8.450  0.2003 -0.2877  0.0421
 4673SOL    HW125478   3.350   2.506   8.481  0.2762 -0.4752 -0.0229
 4673SOL    HW225479   3.250   2.545   8.379  3.4361  0.0445 -0.2258
 4674SOL     OW25480   3.709   0.328   2.806 -0.4834 -0.0211 -0.3745
 4674SOL    HW125481   3.737   0.402   2.753 -1.9106  0.1867 -0.8201
 4674SOL    HW225482   3.676   0.268   2.739  0.1391 -1.8885  0.9571
 4675SOL     OW25483   0.339   4.646   3.202 -0.9170 -0.1900 -0.1045
 4675SOL    HW125484   0.276   4.593   3.153 -1.9227 -0.0820  1.0727
 4675SOL    HW225485   0.292   4.721   3.238 -1.5738 -0.2106 -0.9091
 4676SOL     OW25486   0.480   3.887  10.016 -0.3192  0.1082 -0.8209
 4676SOL    HW125487   0.557   3.936  10.046 -0.4486  0.5021 -1.1340
 4676SOL    HW225488   0.485   3.805  10.065  1.9450  1.2856  0.8965
 4677SOL     OW25489   2.423   2.650  10.403  0.4817 -0.0330  0.2893
 4677SOL    HW125490   2.342   2.700  10.391  2.3325  2.8960 -0.0023
 4677SOL    HW225491   2.447   2.650  10.311  0.1676 -0.5513  0.2049
 4678SOL     OW25492   0.605   0.069   3.353 -0.1601  0.1720  0.0914
 4678SOL    HW125493   0.610   4.713   3.406  0.4541  1.1789  1.5740
 4678SOL    HW225494   0.572   0.131   3.418 -1.2083 -0.6248  0.3078
 4679SOL     OW25495   1.203   3.269  10.771 -0.3118  0.0329 -0.2101
 4679SOL    HW125496   1.200   3.320  10.690 -2.4168  1.8733  1.0170
 4679SOL    HW225497   1.276   3.211  10.750 -0.1062 -0.5293  2.0452
 4680SOL     OW25498   2.319   1.398  14.888 -0.1233  0.1803  0.1114
 4680SOL    HW125499   2.330   1.321  14.945  2.2467 -0.1184 -0.7543
 4680SOL    HW225500   2.324   1.477  14.942  0.1657  1.6361 -2.0484
 4681SOL     OW25501   3.012   0.951   3.949 -0.1590 -0.4529  0.4804
 4681SOL    HW125502   2.999   0.988   4.036 -0.0857 -0.2348  0.3995
 4681SOL    HW225503   3.003   1.032   3.898  2.7158  0.3774  1.2647
 4682SOL     OW25504   2.119   0.156   6.279 -0.4246  0.2181 -0.9311
 4682SOL    HW125505   2.201   0.116   6.309 -2.1695 -2.6331  0.0323
 4682SOL    HW225506   2.079   0.074   6.251 -3.1522  0.3433  2.5320
 4683SOL     OW25507   4.309   2.335   9.470 -0.3600  0.1796  0.3347
 4683SOL    HW125508   4.276   2.382   9.392 -2.4085 -1.2866  0.3220
 4683SOL    HW225509   4.295   2.244   9.443  2.6658 -0.7916  2.0665
 4684SOL     OW25510   3.253   3.335   5.117 -0.1811  0.1281  0.6405
 4684SOL    HW125511   3.187   3.308   5.053 -0.1844  1.6450  0.0007
 4684SOL    HW225512   3.312   3.386   5.062 -2.5654  0.5324 -1.5472
 4685SOL     OW25513   4.557   4.554   5.158 -0.3517 -0.3547  0.1760
 4685SOL    HW125514   4.528   4.511   5.078  0.9868 -1.6044  0.3419
 4685SOL    HW225515   4.504   4.631   5.137  1.2237  0.7011  0.0657
 4686SOL     OW25516   4.283   4.649   9.021  0.2430  0.2291  0.3936
 4686SOL    HW125517   4.217   4.685   8.961  1.4476  2.3498  0.3277
 4686SOL    HW225518   4.268   4.700   9.100 -1.0723 -0.8624  0.8401
 4687SOL     OW25519   3.598   2.877   7.498  0.1621  0.6176  0.0342
 4687SOL    HW125520   3.688   2.847   7.498  0.3409  1.1305 -1.3468
 4687SOL    HW225521   3.594   2.897   7.404  1.2213  0.3333 -0.0660
 4688SOL     OW25522   0.934   2.411   0.290 -0.5954  0.5198  0.3768
 4688SOL    HW125523   0.912   2.504   0.276 -0.8418  0.4794  0.4886
 4688SOL    HW225524   0.987   2.417   0.369  2.3627 -2.8265 -1.3814
 4689SOL     OW25525   2.694   1.008  17.319 -0.3128 -0.0735  0.5800
 4689SOL    HW125526   2.728   1.055  17.395  2.8500  1.3191 -1.6971
 4689SOL    HW225527   2.717   0.916  17.333 -0.5416 -0.0179  1.3099
 4690SOL     OW25528   4.552   4.421   6.709  0.5808 -0.7677  0.2373
 4690SOL    HW125529   4.627   4.479   6.722 -0.5981  0.6912  0.5452
 4690SOL    HW225530   4.514   4.471   6.637  0.4453 -2.5362 -0.9038
 4691SOL     OW25531   4.460   0.957   8.488  0.2873  0.1544 -0.1276
 4691SOL    HW125532   4.500   0.965   8.401  1.0729 -0.9962  0.1377
 4691SOL    HW225533   4.457   1.048   8.517  0.9399  0.5128 -1.1676
 4692SOL     OW25534   1.196   1.131   2.362 -0.5237 -0.2987  0.2220
 4692SOL    HW125535   1.261   1.185   2.318  0.5717  0.0822  2.3052
 4692SOL    HW225536   1.145   1.193   2.414  0.5375  0.5761  0.2136
 4693SOL     OW25537   1.756   3.260   0.869  0.0110  0.1259  0.1871
 4693SOL    HW125538   1.671   3.273   0.912  0.3432 -1.4880  1.3006
 4693SOL    HW225539   1.718   3.270   0.782  1.2176  1.1270 -0.2214
 4694SOL     OW25540   0.972   2.708   7.970  0.2478  0.2719 -0.8096
 4694SOL    HW125541   0.884   2.671   7.975  0.1081  0.3792 -2.6564
 4694SOL    HW225542   0.970   2.747   7.883  0.3229  0.8854 -0.5324
 4695SOL     OW25543   3.165   2.892  14.239 -0.1439  0.1055 -0.1604
 4695SOL    HW125544   3.127   2.806  14.255 -0.9381  0.5396  0.2714
 4695SOL    HW225545   3.115   2.921  14.162  0.1511  0.8474 -0.0805
 4696SOL     OW25546   4.287   1.510   9.502  0.3015 -0.8614 -0.1623
 4696SOL    HW125547   4.218   1.573   9.522  0.8235 -0.8491  1.5406
 4696SOL    HW225548   4.354   1.566   9.463 -0.8122 -0.3263 -1.3312
 4697SOL     OW25549   2.614   1.667   8.233 -0.3502  0.4458 -0.5170
 4697SOL    HW125550   2.630   1.750   8.189 -1.5736  0.2894 -1.2544
 4697SOL    HW225551   2.676   1.605   8.195 -1.5689  1.7654 -4.6148
 4698SOL     OW25552   0.593   2.585  15.848  0.0467 -0.0727  0.1149
 4698SOL    HW125553   0.540   2.530  15.791 -1.0226  0.3160  0.7379
 4698SOL    HW225554   0.640   2.520  15.899 -1.7216  0.1033  1.9564
 4699SOL     OW25555   0.014   2.301   7.256  0.0251  0.3147 -0.6200
 4699SOL    HW125556   0.102   2.291   7.292  0.1120 -0.8152 -1.1110
 4699SOL    HW225557   4.695   2.277   7.338 -2.4269  3.8679 -0.8983
 4700SOL     OW25558   3.708   2.625   1.602  0.0890 -0.0689  0.0516
 4700SOL    HW125559   3.681   2.533   1.592 -1.4559  0.4209 -0.1126
 4700SOL    HW225560   3.621   2.656   1.625 -0.4611 -0.6048 -1.2933
 4701SOL     OW25561   1.279   2.462   6.914  0.0383 -0.4283 -0.1508
 4701SOL    HW125562   1.321   2.428   6.992 -0.6491  1.2805  0.9721
 4701SOL    HW225563   1.352   2.510   6.874  1.0576 -1.0503  1.0082
 4702SOL     OW25564   1.911   1.740   5.846  0.7047  0.5190 -0.1013
 4702SOL    HW125565   1.942   1.652   5.824 -1.6168 -0.6714  1.5083
 4702SOL    HW225566   1.986   1.789   5.811  0.3957  1.3968  0.4627
 4703SOL     OW25567   1.452   3.218   2.585 -0.7731 -0.1461 -0.1135
 4703SOL    HW125568   1.535   3.174   2.599 -0.5860  0.7368  1.6115
 4703SOL    HW225569   1.413   3.169   2.512  0.2662  0.3833 -1.0217
 4704SOL     OW25570   2.970   3.300   0.600  0.3137 -0.2532 -0.0595
 4704SOL    HW125571   3.022   3.381   0.596  1.3858 -0.9303  0.1797
 4704SOL    HW225572   3.013   3.255   0.672  0.8788  0.6884  0.2033
 4705SOL     OW25573   0.751   0.803  16.172 -0.0220 -0.2524  0.6174
 4705SOL    HW125574   0.736   0.866  16.101  0.5874  1.1089  1.6952
 4705SOL    HW225575   0.672   0.749  16.171  0.0465 -0.3207 -0.4508
 4706SOL     OW25576   1.578   2.228   3.344  0.1985  0.0583  0.0089
 4706SOL    HW125577   1.532   2.148   3.315  1.0907 -0.4983  0.1245
 4706SOL    HW225578   1.668   2.208   3.319 -0.2709  0.1220 -1.7487
 4707SOL     OW25579   3.955   3.602   7.643 -0.7222  0.4807  0.0061
 4707SOL    HW125580   3.872   3.577   7.685  0.9033  0.1098  2.9874
 4707SOL    HW225581   3.953   3.539   7.571  0.5919  1.6653 -1.0662
 4708SOL     OW25582   2.063   1.273  15.584  0.9803  0.3283 -0.1591
 4708SOL    HW125583   2.149   1.233  15.584  1.6145  1.6771 -0.2991
 4708SOL    HW225584   2.066   1.337  15.656 -0.6571 -1.5432  1.5861
 4709SOL     OW25585   0.825   0.465   3.957 -0.2956 -0.0149  0.3403
 4709SOL    HW125586   0.910   0.511   3.956  0.1941 -0.9257  0.9316
 4709SOL    HW225587   0.783   0.510   4.031 -0.3874 -0.8884  0.8139
 4710SOL     OW25588   2.813   3.175   0.426 -0.5822 -0.1683  0.3169
 4710SOL    HW125589   2.820   3.086   0.461  2.0071 -0.5135 -1.0361
 4710SOL    HW225590   2.879   3.211   0.485  1.2366 -0.5042 -1.5198
 4711SOL     OW25591   1.109   0.245   5.095 -0.1073 -0.4506 -0.3454
 4711SOL    HW125592   1.169   0.312   5.062  0.1212 -0.9262 -0.8913
 4711SOL    HW225593   1.167   0.180   5.136  0.8006  1.7646  1.8949
 4712SOL     OW25594   1.454   2.321  16.439  0.4484 -0.7271  0.5783
 4712SOL    HW125595   1.458   2.264  16.363 -0.0114 -0.3309  0.2593
 4712SOL    HW225596   1.437   2.407  16.400 -0.1993 -0.9366  0.4008
 4713SOL     OW25597   0.759   1.854   6.651 -0.2022  0.5268  0.1800
 4713SOL    HW125598   0.715   1.867   6.567 -0.7532 -0.2141  0.3535
 4713SOL    HW225599   0.692   1.817   6.708 -0.4454  0.5633 -0.0848
 4714SOL     OW25600   0.913   2.417   1.992  0.2280  0.1146 -0.0479
 4714SOL    HW125601   0.866   2.498   1.973  0.7358  0.1269 -1.2959
 4714SOL    HW225602   0.979   2.433   1.924  0.0113 -1.5492 -0.6772
 4715SOL     OW25603   1.719   1.322   4.326  0.2185  0.5000 -0.2868
 4715SOL    HW125604   1.777   1.397   4.322 -0.0998  0.8576  1.7304
 4715SOL    HW225605   1.678   1.329   4.412 -0.6196 -1.2225 -0.5343
 4716SOL     OW25606   4.197   4.608   2.151  0.4983 -0.3147  0.0605
 4716SOL    HW125607   4.259   4.627   2.222 -0.8590  0.4270  1.0536
 4716SOL    HW225608   4.238   4.669   2.089  0.9076  0.2481  0.8815
 4717SOL     OW25609   2.254   0.047  11.307 -0.7198 -0.0917  0.9050
 4717SOL    HW125610   2.185   0.025  11.369  0.0807 -2.3911  1.0050
 4717SOL    HW225611   2.237   4.711  11.235  1.0025 -0.8581  1.1234
 4718SOL     OW25612   4.692   0.017   9.581 -0.3175  0.2277 -0.0804
 4718SOL    HW125613   0.045   0.035   9.634  0.0249 -2.5272  0.3396
 4718SOL    HW225614   4.722   4.665   9.533  0.5773  0.2124  0.5066
 4719SOL     OW25615   2.070   0.433   7.353  0.1304  0.0582 -0.1289
 4719SOL    HW125616   1.981   0.409   7.327 -0.0477  1.0585 -0.4437
 4719SOL    HW225617   2.124   0.380   7.294  2.2933  1.2012  0.8205
 4720SOL     OW25618   3.156   0.649   2.249 -0.5691  0.1473  0.0906
 4720SOL    HW125619   3.144   0.602   2.166 -3.7908  0.9611  0.0847
 4720SOL    HW225620   3.092   0.717   2.227 -0.9080 -0.8279 -1.9763
 4721SOL     OW25621   4.722   3.777   8.861 -0.3890  0.2232 -0.4334
 4721SOL    HW125622   4.646   3.809   8.812 -2.4546 -1.1603  1.8357
 4721SOL    HW225623   0.000   3.835   8.938 -2.4687 -0.6038  0.2714
 4722SOL     OW25624   0.563   1.112   8.479 -0.1500  0.0702 -0.0886
 4722SOL    HW125625   0.519   1.082   8.399  1.0234 -1.8311 -0.0180
 4722SOL    HW225626   0.490   1.104   8.540 -0.6845  0.5897 -0.6526
 4723SOL     OW25627   1.465   4.255   6.403 -0.1286 -0.3475 -0.3675
 4723SOL    HW125628   1.489   4.251   6.311 -1.5526  0.3257 -0.7710
 4723SOL    HW225629   1.428   4.168   6.418  1.3046 -1.1614 -1.6563
 4724SOL     OW25630   4.159   0.856   1.893 -0.0153 -0.1866  0.5517
 4724SOL    HW125631   4.162   0.930   1.954  1.9132 -1.0226  1.4523
 4724SOL    HW225632   4.194   0.892   1.811  0.5553 -1.9587  0.0195
 4725SOL     OW25633   0.478   3.401   6.057 -0.2490 -0.3007  0.3575
 4725SOL    HW125634   0.402   3.343   6.057  0.2506 -0.9690 -1.0391
 4725SOL    HW225635   0.525   3.372   6.136 -0.6970  0.6530  0.9648
 4726SOL     OW25636   3.890   2.047   8.671  0.1764  0.1234  0.3001
 4726SOL    HW125637   3.856   2.090   8.749 -0.5367  0.4882 -0.2195
 4726SOL    HW225638   3.810   2.057   8.620 -0.0094  0.4269  0.6522
 4727SOL     OW25639   0.958   2.551   4.675 -0.1708  0.2015  0.0431
 4727SOL    HW125640   0.914   2.633   4.650 -1.5181 -0.7829 -0.8224
 4727SOL    HW225641   1.045   2.588   4.662  0.1020 -0.8717 -1.2230
 4728SOL     OW25642   4.288   2.085   9.350  0.8907  0.4153 -0.2166
 4728SOL    HW125643   4.368   2.055   9.306  0.8158 -0.2644  0.1202
 4728SOL    HW225644   4.252   2.149   9.289  1.9484  0.7742 -0.4695
 4729SOL     OW25645   1.473   4.593   7.068  0.2473 -0.2535  0.3530
 4729SOL    HW125646   1.400   4.535   7.089  0.2606 -0.2733  0.3441
 4729SOL    HW225647   1.541   4.530   7.091 -1.9727 -2.8136 -0.1498
 4730SOL     OW25648   4.634   0.375   0.452 -0.0542  0.2789  0.0816
 4730SOL    HW125649   4.599   0.447   0.399  0.5005 -0.0868 -0.7814
 4730SOL    HW225650   4.558   0.317   0.451  1.9737 -2.3479 -0.4420
 4731SOL     OW25651   3.712   2.118   6.477  0.2183 -0.2109  0.5277
 4731SOL    HW125652   3.728   2.148   6.566  1.4182  2.5981 -0.6115
 4731SOL    HW225653   3.619   2.137   6.467  0.2134 -1.1819 -1.4246
 4732SOL     OW25654   0.689   1.328  15.619  0.1335  0.0906 -0.2377
 4732SOL    HW125655   0.605   1.352  15.659  0.3395  1.1361 -0.4400
 4732SOL    HW225656   0.697   1.406  15.564  1.1673  0.1275 -0.0370
 4733SOL     OW25657   1.665   0.878   6.373  0.4713 -0.2347 -0.2715
 4733SOL    HW125658   1.626   0.805   6.421  0.9535  0.5847  1.3833
 4733SOL    HW225659   1.597   0.945   6.373 -0.0050 -0.7165 -0.3395
 4734SOL     OW25660   1.361   0.952   6.335 -0.6092 -0.3181  0.2937
 4734SOL    HW125661   1.281   0.902   6.349 -1.1360  0.7469  1.1296
 4734SOL    HW225662   1.389   0.899   6.260 -1.3004 -0.3071  0.0248
 4735SOL     OW25663   4.655   0.223   4.855 -0.1816 -0.0180 -0.0676
 4735SOL    HW125664   4.564   0.252   4.852 -0.7124 -1.6215  0.6763
 4735SOL    HW225665   4.702   0.296   4.815 -2.2580  0.5334 -1.4815
 4736SOL     OW25666   0.041   0.370  15.573  0.0644  0.0606  0.0999
 4736SOL    HW125667   4.717   0.367  15.655 -0.1117  2.8302  0.1175
 4736SOL    HW225668   0.108   0.435  15.593  0.5906  0.6061 -3.5068
 4737SOL     OW25669   2.241   0.694  12.444  0.0200  0.3560 -0.2180
 4737SOL    HW125670   2.283   0.732  12.366  0.8945 -0.8794 -0.3440
 4737SOL    HW225671   2.157   0.740  12.436 -0.5881 -0.5554  0.9650
 4738SOL     OW25672   0.307   2.033   3.003  0.1728 -0.6485  0.0796
 4738SOL    HW125673   0.234   1.979   2.974 -1.1660  0.2283  1.8599
 4738SOL    HW225674   0.266   2.120   3.010 -0.7537 -1.0522 -0.4171
 4739SOL     OW25675   3.538   1.552   2.690 -0.8809 -0.1616  0.5242
 4739SOL    HW125676   3.580   1.467   2.687 -1.0476 -0.2171 -0.3329
 4739SOL    HW225677   3.613   1.612   2.684 -0.5762 -0.6321 -0.3019
 4740SOL     OW25678   2.792   4.113   1.249 -0.4031 -0.2580  0.2084
 4740SOL    HW125679   2.859   4.181   1.239  1.9526 -2.0275  3.8809
 4740SOL    HW225680   2.834   4.032   1.278  1.2551 -0.1394 -1.8759
 4741SOL     OW25681   4.394   3.078   7.044  0.3770  0.5159  0.1711
 4741SOL    HW125682   4.395   3.020   6.968 -0.2420  0.1729  0.4187
 4741SOL    HW225683   4.327   3.139   7.012  0.0321 -0.1530 -0.3735
 4742SOL     OW25684   0.142   2.272   6.253  0.4292 -0.1339  0.0842
 4742SOL    HW125685   0.156   2.222   6.334 -0.3834 -0.3296  0.0978
 4742SOL    HW225686   0.060   2.234   6.225 -0.7542  1.1060  1.8358
 4743SOL     OW25687   3.562   0.213  17.621  0.3777  0.2312 -0.0895
 4743SOL    HW125688   3.521   0.129  17.599 -0.9693  0.3568  1.9038
 4743SOL    HW225689   3.653   0.186  17.631  0.1811  0.1723  1.7041
 4744SOL     OW25690   1.969   1.423   5.385 -0.5790 -0.4914  0.1367
 4744SOL    HW125691   1.908   1.357   5.415 -0.1785 -0.8903  0.0759
 4744SOL    HW225692   1.917   1.502   5.400  2.0472  1.5352 -1.2076
 4745SOL     OW25693   2.562   2.860   4.298  0.1835  0.0887  0.4246
 4745SOL    HW125694   2.604   2.939   4.263  0.5102  0.1011  0.8517
 4745SOL    HW225695   2.483   2.851   4.244 -0.2715  1.4293  0.8770
 4746SOL     OW25696   1.664   1.580   7.006  0.6031  0.2161  0.6338
 4746SOL    HW125697   1.624   1.494   7.015  0.2198  0.3315  0.0277
 4746SOL    HW225698   1.745   1.554   6.961  0.2867  2.6798 -1.4135
 4747SOL     OW25699   4.438   3.467  10.209  0.2961  0.2700  0.1872
 4747SOL    HW125700   4.418   3.435  10.297 -1.2529 -2.8009 -1.2727
 4747SOL    HW225701   4.496   3.399  10.174  0.2994  0.0526  0.6080
 4748SOL     OW25702   3.750   2.182   6.774 -0.8107 -0.3118 -0.6645
 4748SOL    HW125703   3.786   2.271   6.765  0.5936 -1.0166 -1.9798
 4748SOL    HW225704   3.687   2.194   6.845  0.6173 -1.2062  0.7399
 4749SOL     OW25705   4.201   2.498   5.992  0.1985 -0.4361  0.4002
 4749SOL    HW125706   4.233   2.586   6.014 -1.4398  0.2935 -0.1283
 4749SOL    HW225707   4.236   2.436   6.056  0.7512  0.8720  1.3794
 4750SOL     OW25708   0.730   0.356   6.357 -0.1155 -0.4326  0.1203
 4750SOL    HW125709   0.715   0.267   6.324  1.2469 -0.0945 -1.4191
 4750SOL    HW225710   0.817   0.341   6.395 -0.5896 -0.5422  1.1553
 4751SOL     OW25711   2.068   4.348   8.322  0.5793 -0.0267  0.2143
 4751SOL    HW125712   2.135   4.403   8.281  1.4860 -1.5099 -0.3021
 4751SOL    HW225713   2.026   4.411   8.380 -0.7910 -1.3107  0.5886
 4752SOL     OW25714   2.004   2.817   6.455  0.5722 -0.1475 -0.1942
 4752SOL    HW125715   1.990   2.894   6.510  1.6479 -0.0929  0.0052
 4752SOL    HW225716   2.087   2.786   6.491  1.1239 -0.0745 -1.4067
 4753SOL     OW25717   4.262   4.148   4.345 -0.2928 -0.1564 -0.0133
 4753SOL    HW125718   4.344   4.100   4.332 -0.2166  0.2562 -1.0866
 4753SOL    HW225719   4.241   4.161   4.252 -0.5614  1.8293  0.3330
 4754SOL     OW25720   2.451   4.131   2.706 -0.1672 -0.0018  0.4245
 4754SOL    HW125721   2.364   4.110   2.740 -1.0994  3.1772  0.0506
 4754SOL    HW225722   2.488   4.047   2.682  3.6102  2.1806 -1.2998
 4755SOL     OW25723   4.609   2.223   2.217  0.0273  0.0497 -0.2999
 4755SOL    HW125724   4.679   2.283   2.245 -0.6989  1.1595 -0.8470
 4755SOL    HW225725   4.652   2.188   2.140 -1.7101 -2.3224 -0.1700
 4756SOL     OW25726   3.783   4.312  10.579 -0.1043 -0.6386 -0.0401
 4756SOL    HW125727   3.769   4.278  10.667 -0.1180 -0.1169  0.1588
 4756SOL    HW225728   3.828   4.243  10.530 -0.2704  0.7769 -2.2111
 4757SOL     OW25729   2.700   2.505   4.762  0.2247 -1.1287  0.3444
 4757SOL    HW125730   2.790   2.475   4.748  1.1967  1.3834  1.1484
 4757SOL    HW225731   2.652   2.425   4.742 -0.2434 -0.5101 -1.0416
 4758SOL     OW25732   3.095   1.246  11.218  0.3315 -0.5113 -0.3688
 4758SOL    HW125733   3.149   1.281  11.288  1.1114 -0.6847 -0.8742
 4758SOL    HW225734   3.127   1.158  11.236  0.6350  0.0748  1.8623
 4759SOL     OW25735   1.682   3.671   4.321 -0.6164 -0.0499  0.3132
 4759SOL    HW125736   1.679   3.598   4.259  0.1216  1.3327 -1.3569
 4759SOL    HW225737   1.623   3.736   4.282  1.9469  1.7885 -0.4967
 4760SOL     OW25738   0.151   1.779   3.899  0.1963  1.0762 -0.5171
 4760SOL    HW125739   0.243   1.756   3.891  0.1901  1.3765 -1.4077
 4760SOL    HW225740   0.130   1.701   3.949 -0.5680  1.8891  0.4491
 4761SOL     OW25741   3.752   1.553   6.850 -0.7705  0.1765  0.5800
 4761SOL    HW125742   3.784   1.462   6.855  0.7971  0.6959 -0.1408
 4761SOL    HW225743   3.818   1.597   6.797  0.0874  0.0956  1.5747
 4762SOL     OW25744   4.558   2.111  10.156 -0.6394 -0.1032 -0.1335
 4762SOL    HW125745   4.503   2.121  10.078  0.7943  0.8832 -1.0092
 4762SOL    HW225746   4.502   2.142  10.227 -0.2776 -0.5762  0.3546
 4763SOL     OW25747   0.516   2.322   4.260 -0.0451  0.6162 -0.2155
 4763SOL    HW125748   0.571   2.393   4.227  2.1388 -0.7141  0.5631
 4763SOL    HW225749   0.576   2.304   4.332  0.9291 -0.2160 -1.2428
 4764SOL     OW25750   2.332   2.099   8.225  0.8897 -0.2182  0.3280
 4764SOL    HW125751   2.354   2.144   8.143 -3.7791 -2.9735 -2.4179
 4764SOL    HW225752   2.265   2.153   8.265  0.6251  0.2436 -0.7490
 4765SOL     OW25753   2.820   1.460  15.887 -0.1955 -0.6406  0.0549
 4765SOL    HW125754   2.774   1.487  15.808 -2.1250  3.5980  2.6120
 4765SOL    HW225755   2.883   1.394  15.858 -1.9864 -1.8185 -1.1754
 4766SOL     OW25756   2.147   2.062  10.758  0.7641  1.0435  0.6316
 4766SOL    HW125757   2.141   2.139  10.701  0.3700  0.9315  0.5156
 4766SOL    HW225758   2.238   2.069  10.784  1.1908 -0.9875 -0.3393
 4767SOL     OW25759   1.678   2.579   3.652 -0.4865  0.0585 -0.3387
 4767SOL    HW125760   1.611   2.579   3.721 -1.7853  0.3202 -1.6113
 4767SOL    HW225761   1.702   2.489   3.672 -0.2163  0.1078 -0.4502
 4768SOL     OW25762   3.469   1.236   8.570 -0.3603 -0.0471  0.0934
 4768SOL    HW125763   3.403   1.173   8.541  0.4745 -0.6749 -0.4345
 4768SOL    HW225764   3.440   1.315   8.524  2.6440  1.5682  0.9608
 4769SOL     OW25765   4.166   0.488   7.187  0.3135 -0.5576 -0.0811
 4769SOL    HW125766   4.122   0.564   7.225  0.8384  0.6688 -1.8970
 4769SOL    HW225767   4.198   0.440   7.263 -0.2392  0.7015  0.9527
 4770SOL     OW25768   1.157   4.403   6.432  0.3491  0.3466  0.2032
 4770SOL    HW125769   1.230   4.454   6.467  1.3728 -0.7633 -0.2956
 4770SOL    HW225770   1.191   4.319   6.463  0.1910  0.1896 -0.0476
 4771SOL     OW25771   2.585   0.819   7.118  0.5331  0.3749  0.0154
 4771SOL    HW125772   2.615   0.728   7.128  2.9248  0.8697 -2.5141
 4771SOL    HW225773   2.663   0.874   7.120  1.2948 -0.7744  1.7545
 4772SOL     OW25774   2.768   0.373  16.088  0.1339  0.5242 -0.1832
 4772SOL    HW125775   2.805   0.325  16.163 -2.7940 -0.3506  0.6848
 4772SOL    HW225776   2.686   0.326  16.077  0.9012 -0.5745 -1.2248
 4773SOL     OW25777   0.395   0.053   8.303 -0.0276 -0.4740  0.2972
 4773SOL    HW125778   0.358   0.141   8.299 -1.6465 -1.0787  2.0585
 4773SOL    HW225779   0.429   0.043   8.214 -2.2048 -1.3180 -0.4346
 4774SOL     OW25780   0.775   1.051   5.346  0.0403 -0.6763 -0.0778
 4774SOL    HW125781   0.715   0.986   5.381  0.8425 -0.5361  1.5437
 4774SOL    HW225782   0.860   1.026   5.382 -0.6477 -0.8343  1.4451
 4775SOL     OW25783   1.365   1.663   4.065  0.0796  0.0398  0.6376
 4775SOL    HW125784   1.338   1.754   4.067  0.3417  0.1442 -0.5744
 4775SOL    HW225785   1.461   1.670   4.060  0.1102  1.1015  2.7402
 4776SOL     OW25786   0.242   3.897  12.258  0.5405 -0.3124  0.6896
 4776SOL    HW125787   0.231   3.983  12.299 -0.5457  0.5789 -1.4064
 4776SOL    HW225788   0.267   3.920  12.168  0.1418 -0.3495  0.5685
 4777SOL     OW25789   4.266   2.059  13.201 -0.0456  0.3822  0.4504
 4777SOL    HW125790   4.331   2.020  13.142  1.0364  2.7402  0.0777
 4777SOL    HW225791   4.260   2.145  13.158 -1.5914 -0.3344 -0.7824
 4778SOL     OW25792   4.315   1.669   8.519 -0.1493  0.0667 -0.2391
 4778SOL    HW125793   4.327   1.578   8.493  1.8307  0.3879 -0.4629
 4778SOL    HW225794   4.278   1.647   8.604 -1.2552  2.3517 -0.1337
 4779SOL     OW25795   2.009   2.539   8.414 -0.6793 -0.0127 -0.2833
 4779SOL    HW125796   2.007   2.474   8.484  0.1379 -1.6925 -1.8306
 4779SOL    HW225797   2.100   2.565   8.426 -0.6006 -1.5629  2.4520
 4780SOL     OW25798   4.536   3.933   4.656 -0.7488  0.4552  0.5026
 4780SOL    HW125799   4.500   4.012   4.696  2.0558  0.1692  3.5877
 4780SOL    HW225800   4.629   3.952   4.666 -0.6241 -0.3919  0.9750
 4781SOL     OW25801   1.691   0.839   6.076  0.0523  0.1566  0.0263
 4781SOL    HW125802   1.687   0.884   6.160 -1.3416  0.9473 -0.4500
 4781SOL    HW225803   1.630   0.766   6.090 -0.8930  1.4832  2.7423
 4782SOL     OW25804   4.120   4.129  11.196  0.7702  0.3420 -0.3279
 4782SOL    HW125805   4.195   4.069  11.203  2.2378  2.2969  0.5878
 4782SOL    HW225806   4.052   4.073  11.158  0.3348  0.3966  0.3509
 4783SOL     OW25807   0.207   4.101   2.447  0.3260 -0.0610  0.6311
 4783SOL    HW125808   0.147   4.050   2.501 -1.8874  0.3520 -1.4505
 4783SOL    HW225809   0.157   4.183   2.445  1.2451  0.4922  0.1631
 4784SOL     OW25810   3.782   2.709  10.689 -0.5830  0.2697  0.4392
 4784SOL    HW125811   3.866   2.707  10.644 -0.8384  0.9339 -0.0755
 4784SOL    HW225812   3.713   2.696  10.624  0.2566 -0.5090 -0.3084
 4785SOL     OW25813   2.862   2.704   5.839 -0.0980  0.2082 -0.4606
 4785SOL    HW125814   2.797   2.761   5.800 -2.1033 -1.9758 -0.2814
 4785SOL    HW225815   2.833   2.619   5.806  0.9411  0.7162 -2.6460
 4786SOL     OW25816   1.402   0.082  11.315  0.1895  0.0873  0.3371
 4786SOL    HW125817   1.389   0.160  11.262  0.9103 -0.9868 -1.4480
 4786SOL    HW225818   1.451   0.113  11.391 -0.6556  1.6402  0.2447
 4787SOL     OW25819   0.911   0.940   4.877 -0.1810 -0.0394  0.4525
 4787SOL    HW125820   0.890   1.025   4.915  2.3612 -0.1589  2.0960
 4787SOL    HW225821   0.933   0.903   4.963 -2.7860  0.5461  1.3760
 4788SOL     OW25822   2.612   2.545   3.886 -0.3453  0.0797 -0.3418
 4788SOL    HW125823   2.541   2.575   3.942 -1.0426 -0.0465 -1.1464
 4788SOL    HW225824   2.690   2.565   3.938 -0.3071  0.5480 -0.5745
 4789SOL     OW25825   4.652   2.804   9.305 -0.2986 -0.5686 -0.4083
 4789SOL    HW125826   4.646   2.766   9.393 -1.4022 -0.2239 -0.3362
 4789SOL    HW225827   4.609   2.887   9.323 -0.8690 -1.0209  0.3704
 4790SOL     OW25828   0.915   1.687   9.816 -0.3912  0.0421  0.4333
 4790SOL    HW125829   0.966   1.651   9.889  1.4677 -0.8758 -1.3403
 4790SOL    HW225830   0.951   1.775   9.804  0.8223 -0.4934  0.2261
 4791SOL     OW25831   1.105   4.055   2.466 -0.2892  0.1237  0.1724
 4791SOL    HW125832   1.110   3.959   2.468 -1.9048  0.0402  0.2665
 4791SOL    HW225833   1.150   4.075   2.384  0.3406  0.0313  0.4997
 4792SOL     OW25834   4.673   1.892  10.770 -0.4909 -0.1451 -0.6133
 4792SOL    HW125835   4.604   1.876  10.834 -0.1552 -0.6087 -0.3690
 4792SOL    HW225836   4.684   1.987  10.758  2.1710 -0.6386 -2.3088
 4793SOL     OW25837   0.958   3.229   4.659 -0.2228 -0.3214  0.0117
 4793SOL    HW125838   0.897   3.157   4.641 -0.5538  0.1325 -0.6401
 4793SOL    HW225839   0.899   3.287   4.707 -0.6490  0.1077 -1.0426
 4794SOL     OW25840   2.637   0.942  10.820  0.0190  0.0993  0.1371
 4794SOL    HW125841   2.690   1.004  10.869  0.6587 -0.3758  0.0536
 4794SOL    HW225842   2.616   0.871  10.881  0.1034  2.0486  2.4060
 4795SOL     OW25843   3.391   2.329   4.343  0.0513  0.7620  0.4148
 4795SOL    HW125844   3.415   2.352   4.433 -1.2919  1.4832  0.5858
 4795SOL    HW225845   3.448   2.386   4.292  0.7484  1.0648  1.5343
 4796SOL     OW25846   3.441   2.483   3.490  0.6596  0.5484  0.2226
 4796SOL    HW125847   3.505   2.463   3.422  0.7225 -0.7734  0.6844
 4796SOL    HW225848   3.486   2.459   3.570 -0.1600  0.0602  0.5416
 4797SOL     OW25849   3.715   1.860   8.858 -0.0887 -0.0032  0.1915
 4797SOL    HW125850   3.624   1.867   8.828 -0.1853 -1.8616  0.0940
 4797SOL    HW225851   3.754   1.784   8.815 -1.1978 -0.8914  0.7725
 4798SOL     OW25852   1.212   2.785  11.185 -0.0669 -0.0103 -0.1083
 4798SOL    HW125853   1.139   2.726  11.166 -1.0601  1.0532  0.4488
 4798SOL    HW225854   1.258   2.723  11.242 -0.0092 -0.8485 -1.0717
 4799SOL     OW25855   0.530   3.734   0.404  0.4140 -0.0086  0.1169
 4799SOL    HW125856   0.498   3.807   0.458  0.8102  2.7010 -3.3541
 4799SOL    HW225857   0.464   3.739   0.335  1.4911  1.1444 -0.8210
 4800SOL     OW25858   0.326   4.385   7.160  0.0325 -0.3650 -0.0433
 4800SOL    HW125859   0.281   4.316   7.210 -0.2211  0.7444  1.2670
 4800SOL    HW225860   0.269   4.402   7.086  1.6439  3.0583 -0.4816
 4801SOL     OW25861   2.228   3.811   0.061  0.3104 -0.0103  0.3463
 4801SOL    HW125862   2.268   3.831  17.677 -0.1536 -0.5471 -0.0034
 4801SOL    HW225863   2.263   3.874   0.124  0.7180  2.1929 -2.1121
 4802SOL     OW25864   3.035   0.636   8.305  0.3561 -0.3109 -0.6980
 4802SOL    HW125865   3.036   0.565   8.241 -0.3936 -1.7016  0.8200
 4802SOL    HW225866   2.971   0.697   8.269 -0.5790 -1.1347 -0.4587
 4803SOL     OW25867   1.587   0.977   3.601  0.3736  0.4137  0.3742
 4803SOL    HW125868   1.570   0.883   3.604  0.0240  0.4875  0.8449
 4803SOL    HW225869   1.674   0.977   3.561 -0.0338  0.3135 -0.4946
 4804SOL     OW25870   1.466   2.684   6.845  0.0879  0.5656  0.5755
 4804SOL    HW125871   1.458   2.746   6.918  2.2077  3.2859 -1.5241
 4804SOL    HW225872   1.524   2.744   6.799  0.1763  1.1070  1.3806
 4805SOL     OW25873   1.063   3.979   4.514 -0.6463  0.3354 -0.0148
 4805SOL    HW125874   1.061   4.060   4.463 -2.0593  0.5134  0.3170
 4805SOL    HW225875   1.128   4.006   4.579  0.2317  0.6376 -1.0210
 4806SOL     OW25876   3.503   0.879   6.254 -0.0725  0.2138 -0.0550
 4806SOL    HW125877   3.559   0.924   6.191  0.6996 -1.7952 -0.8031
 4806SOL    HW225878   3.549   0.911   6.331 -2.2104  1.1951  0.8037
 4807SOL     OW25879   2.905   2.788   2.772 -0.2057 -0.4576  0.4985
 4807SOL    HW125880   2.904   2.751   2.684 -1.4915  0.5066  0.1163
 4807SOL    HW225881   2.813   2.786   2.800  0.1621  4.6223  1.9779
 4808SOL     OW25882   2.382   1.328  15.209 -0.0302 -0.5975  0.2919
 4808SOL    HW125883   2.320   1.276  15.158  1.0307  1.4564 -3.0851
 4808SOL    HW225884   2.364   1.408  15.160  0.9821  0.8781  2.3093
 4809SOL     OW25885   3.243   0.874   5.425  0.2159  0.2180 -0.1223
 4809SOL    HW125886   3.191   0.799   5.397  1.9704 -1.3107  0.7529
 4809SOL    HW225887   3.256   0.917   5.340  1.2761 -2.8163 -1.4897
 4810SOL     OW25888   2.655   3.253  14.323  0.2970  0.2145 -0.8511
 4810SOL    HW125889   2.669   3.160  14.306  1.7795  0.5096 -1.2812
 4810SOL    HW225890   2.744   3.288  14.312  1.4970 -2.4102  0.4239
 4811SOL     OW25891   4.558   2.637  16.291 -0.3233 -0.5189 -0.1899
 4811SOL    HW125892   4.557   2.719  16.242  0.2457 -0.2156  0.3074
 4811SOL    HW225893   4.584   2.578  16.220 -0.4685  0.4668 -1.0629
 4812SOL     OW25894   0.736   2.135  13.293 -0.3494  0.2514  0.1801
 4812SOL    HW125895   0.810   2.189  13.265  0.0603 -0.7357 -0.6232
 4812SOL    HW225896   0.680   2.195  13.343  0.0624  0.8366 -0.0701
 4813SOL     OW25897   3.309   2.623   8.194  0.6571 -0.4116 -0.4675
 4813SOL    HW125898   3.227   2.667   8.217  1.4734  0.3597  0.9604
 4813SOL    HW225899   3.349   2.686   8.134  0.7920  1.6120  1.7304
 4814SOL     OW25900   4.033   1.863  15.278 -0.3803 -0.2136 -0.0095
 4814SOL    HW125901   4.088   1.862  15.199 -2.4553 -1.4742 -1.4495
 4814SOL    HW225902   3.952   1.834  15.235 -0.2815 -0.6930  0.1288
 4815SOL     OW25903   0.346   0.888   8.836 -0.4597  0.3733  0.5717
 4815SOL    HW125904   0.302   0.929   8.911 -0.0100  2.4741 -0.3113
 4815SOL    HW225905   0.386   0.808   8.869  1.4204  0.4962 -1.4085
 4816SOL     OW25906   4.270   0.752   8.515 -0.1124 -0.0918  0.1194
 4816SOL    HW125907   4.235   0.746   8.604 -1.9732  2.0044 -0.4616
 4816SOL    HW225908   4.337   0.820   8.518 -0.2352 -0.0046  0.9076
 4817SOL     OW25909   1.122   2.945   1.387 -0.3729 -0.0494 -0.3864
 4817SOL    HW125910   1.157   2.888   1.319  1.3994 -0.5778  0.9562
 4817SOL    HW225911   1.039   2.977   1.353  0.2340  0.9170 -0.9859
 4818SOL     OW25912   1.936   1.631   4.876  0.8586  0.1750 -0.2630
 4818SOL    HW125913   1.964   1.624   4.785 -0.8487  0.0620 -0.7803
 4818SOL    HW225914   1.901   1.545   4.899 -0.7937  1.4101  1.8252
 4819SOL     OW25915   2.201   3.732   2.351  1.1046 -0.2249  0.3918
 4819SOL    HW125916   2.219   3.641   2.329 -0.2896 -0.7436  1.3559
 4819SOL    HW225917   2.106   3.730   2.363  1.2051  1.0095  1.4077
 4820SOL     OW25918   0.874   1.249   5.640 -0.0691 -0.1009 -0.1717
 4820SOL    HW125919   0.898   1.164   5.677  0.5300 -0.2568 -0.9216
 4820SOL    HW225920   0.966   1.274   5.629 -0.8146  2.1678 -1.3437
 4821SOL     OW25921   1.102   1.828   4.625  0.0262  0.6909 -0.0628
 4821SOL    HW125922   1.043   1.877   4.682 -1.9257 -1.0435 -0.6036
 4821SOL    HW225923   1.096   1.895   4.556 -0.7232  0.5462 -0.1408
 4822SOL     OW25924   0.557   1.047   2.023 -0.6000 -0.2443  0.1089
 4822SOL    HW125925   0.589   0.973   1.972 -0.5003  1.6311 -2.5430
 4822SOL    HW225926   0.528   1.102   1.950  2.6603  0.4358 -0.6612
 4823SOL     OW25927   3.810   3.147  15.176  0.0542 -0.2787  0.3243
 4823SOL    HW125928   3.817   3.090  15.253  0.8979  0.1961  0.5949
 4823SOL    HW225929   3.715   3.158  15.169  0.2038  1.3752  0.9131
 4824SOL     OW25930   4.056   0.428   3.868 -0.5128  0.3896 -0.6677
 4824SOL    HW125931   3.981   0.371   3.849 -1.5455  1.2744  0.7903
 4824SOL    HW225932   4.053   0.492   3.796 -0.3141  2.5336  1.2281
 4825SOL     OW25933   0.361   2.607  12.003  0.3801 -0.1385  0.1416
 4825SOL    HW125934   0.436   2.551  11.983  0.7108 -0.2428  1.6825
 4825SOL    HW225935   0.341   2.650  11.920 -0.7414 -1.9303 -0.5031
 4826SOL     OW25936   2.523   3.250   5.810 -0.2938 -0.0414 -0.1301
 4826SOL    HW125937   2.578   3.233   5.887 -2.1877 -3.4465  0.4656
 4826SOL    HW225938   2.499   3.161   5.786 -0.6618 -0.1247  0.5502
 4827SOL     OW25939   3.945   0.928   3.977  0.2227  0.5290  0.2063
 4827SOL    HW125940   3.953   0.952   3.885 -1.4155 -0.7823 -0.2791
 4827SOL    HW225941   3.899   0.844   3.969 -2.2313  1.9463 -0.7192
 4828SOL     OW25942   2.880   3.954   1.580  0.1909 -0.2272 -0.1797
 4828SOL    HW125943   2.805   3.965   1.639 -0.4586 -2.0374 -0.6643
 4828SOL    HW225944   2.918   4.042   1.581 -2.3564  0.8939 -0.8653
 4829SOL     OW25945   4.591   0.616   4.127  0.1713 -0.0901 -0.1217
 4829SOL    HW125946   4.617   0.586   4.039  0.5627 -0.5146  0.1409
 4829SOL    HW225947   4.513   0.667   4.106  0.0694  0.4769  1.6653
 4830SOL     OW25948   1.793   0.596   3.539  0.4406  0.4240 -0.5173
 4830SOL    HW125949   1.822   0.506   3.550 -4.0357 -1.2780 -2.7092
 4830SOL    HW225950   1.854   0.617   3.468 -0.6644  0.5734 -1.4332
 4831SOL     OW25951   2.007   1.566  11.738  0.1459  0.2415 -0.2901
 4831SOL    HW125952   1.969   1.618  11.809 -0.9363 -0.6856 -0.1872
 4831SOL    HW225953   1.927   1.528  11.701  0.2143  0.3656 -0.5642
 4832SOL     OW25954   4.019   2.716  10.591 -0.2906  0.3725  0.0396
 4832SOL    HW125955   4.063   2.631  10.593 -0.9841  0.0137  0.3153
 4832SOL    HW225956   4.072   2.753  10.521 -0.7548 -0.7191 -0.8879
 4833SOL     OW25957   2.804   3.116   2.567 -0.1218 -0.0019 -0.2618
 4833SOL    HW125958   2.854   3.048   2.520  0.0711  0.7447 -1.1409
 4833SOL    HW225959   2.827   3.089   2.656 -0.1970 -0.9806 -0.5427
 4834SOL     OW25960   2.672   0.630   6.613  0.0344 -0.1324 -0.4257
 4834SOL    HW125961   2.629   0.688   6.551 -0.5291  1.6954  1.6601
 4834SOL    HW225962   2.649   0.543   6.581  1.0630 -0.2375 -0.8827
 4835SOL     OW25963   0.255   0.971  16.449 -0.0301  0.0148  0.0468
 4835SOL    HW125964   0.311   0.915  16.395  1.1015  2.2044 -1.0761
 4835SOL    HW225965   0.255   0.919  16.529 -1.1179  0.7739  0.5353
 4836SOL     OW25966   4.456   3.118   1.913 -0.1192  0.1665 -0.0208
 4836SOL    HW125967   4.537   3.126   1.962 -0.9140  1.4006  1.0993
 4836SOL    HW225968   4.405   3.064   1.974  0.3438  1.9927  2.0054
 4837SOL     OW25969   0.787   2.465  11.435  0.0323  0.2395 -0.4512
 4837SOL    HW125970   0.810   2.406  11.364 -1.2633  0.7353 -1.2904
 4837SOL    HW225971   0.778   2.403  11.508 -1.6324 -0.3478 -1.1425
 4838SOL     OW25972   4.520   3.266   3.015 -0.0547  0.7107  0.2682
 4838SOL    HW125973   4.506   3.324   3.089  0.2834  1.5222 -0.3094
 4838SOL    HW225974   4.478   3.306   2.939  0.2064 -1.1134 -0.8469
 4839SOL     OW25975   1.413   2.882   8.517  0.0176  0.2803 -0.5343
 4839SOL    HW125976   1.371   2.950   8.571 -1.4779  0.2379 -1.6577
 4839SOL    HW225977   1.497   2.925   8.505  0.1767  0.3149  0.6424
 4840SOL     OW25978   2.911   3.956   5.996 -0.5104 -0.0067 -0.0561
 4840SOL    HW125979   2.850   4.010   6.047 -1.4255 -1.1766  0.0774
 4840SOL    HW225980   2.986   3.962   6.054 -0.8109 -0.9290  0.4262
 4841SOL     OW25981   1.657   3.600  13.322 -0.1915 -0.3647 -0.2198
 4841SOL    HW125982   1.609   3.678  13.350  2.3645  1.4017 -0.7417
 4841SOL    HW225983   1.607   3.522  13.345  0.0410 -0.1367  1.0192
 4842SOL     OW25984   2.766   1.411   0.912 -0.0267  0.0346 -0.3073
 4842SOL    HW125985   2.819   1.490   0.925 -0.8361  0.2282  1.7344
 4842SOL    HW225986   2.697   1.433   0.974  0.1902  1.3590 -0.5307
 4843SOL     OW25987   3.958   3.761  16.906 -0.2850 -0.0410 -0.0256
 4843SOL    HW125988   3.907   3.784  16.983  1.4009 -2.1941  1.7306
 4843SOL    HW225989   3.967   3.843  16.857 -2.5839  1.2534  1.7464
 4844SOL     OW25990   3.960   2.100   9.177  0.3410  0.5046  0.0004
 4844SOL    HW125991   3.994   2.064   9.259  3.0719  0.6680 -1.0573
 4844SOL    HW225992   3.916   2.020   9.150  0.0605  0.9677 -0.9041
 4845SOL     OW25993   0.604   2.536  16.718  0.4678 -0.3899  0.9050
 4845SOL    HW125994   0.527   2.592  16.710  0.1438 -0.8660  0.6626
 4845SOL    HW225995   0.606   2.495  16.632  0.7992  0.1438  0.6638
 4846SOL     OW25996   3.663   0.640   4.869  0.1582 -0.4820  0.1136
 4846SOL    HW125997   3.581   0.688   4.868  0.7652  0.5402 -1.1348
 4846SOL    HW225998   3.704   0.683   4.944 -2.0097  1.6285  0.0834
 4847SOL     OW25999   2.022   0.817  10.639 -0.4745 -0.0770 -0.4924
 4847SOL    HW126000   2.080   0.764  10.695 -1.4105 -0.5656  0.0081
 4847SOL    HW226001   1.937   0.791  10.675  1.0889 -3.9683  0.4215
 4848SOL     OW26002   4.587   4.607   2.560  0.6027 -0.1307 -0.7626
 4848SOL    HW126003   4.629   4.621   2.645 -1.1231  2.1456 -0.2837
 4848SOL    HW226004   4.650   4.659   2.510 -0.9393  2.6408  0.2197
 4849SOL     OW26005   1.964   0.776   9.588  0.3353  0.6715  0.3065
 4849SOL    HW126006   2.028   0.716   9.550 -1.7185 -0.6906 -1.0139
 4849SOL    HW226007   1.889   0.717   9.579 -0.3736  1.7081 -0.6097
 4850SOL     OW26008   0.765   3.514   7.442  0.1339  0.1463  0.8798
 4850SOL    HW126009   0.671   3.513   7.460  0.1828  0.1587  1.1358
 4850SOL    HW226010   0.791   3.422   7.433 -3.0747 -0.7969  1.2271
 4851SOL     OW26011   1.865   4.596   4.960 -0.1713 -0.4025 -0.4048
 4851SOL    HW126012   1.792   4.539   4.982  1.1947 -2.0228 -0.0734
 4851SOL    HW226013   1.815   4.658   4.907 -0.2208 -0.3348 -0.2794
 4852SOL     OW26014   0.872   4.512   4.533 -0.1166 -0.0214 -0.0874
 4852SOL    HW126015   0.826   4.557   4.462  0.5463 -0.1381 -0.5904
 4852SOL    HW226016   0.951   4.481   4.488  0.7173  3.1810 -0.8386
 4853SOL     OW26017   1.080   1.230   3.364 -0.4223 -0.3706  0.0921
 4853SOL    HW126018   0.989   1.234   3.333 -0.9679 -0.9868  1.5742
 4853SOL    HW226019   1.087   1.308   3.418  1.6713 -0.6865  0.2643
 4854SOL     OW26020   2.715   1.281   2.143  0.0189 -0.6790  0.3304
 4854SOL    HW126021   2.802   1.251   2.168  0.1957  0.8113  1.4250
 4854SOL    HW226022   2.698   1.234   2.061 -0.6134  1.1271 -0.5672
 4855SOL     OW26023   2.557   3.333   3.212  0.1726 -0.4394  0.0579
 4855SOL    HW126024   2.590   3.402   3.270  0.8678 -0.0224 -0.8313
 4855SOL    HW226025   2.552   3.254   3.264  0.4038  0.2195  1.0759
 4856SOL     OW26026   2.986   1.664  10.568 -0.4530 -0.1692  0.2100
 4856SOL    HW126027   3.073   1.647  10.604 -0.0618  0.1317 -0.5961
 4856SOL    HW226028   2.971   1.589  10.510  1.5120 -1.3925  1.2726
 4857SOL     OW26029   0.437   1.822   8.884 -0.0645 -0.0665  0.1910
 4857SOL    HW126030   0.417   1.912   8.908 -0.9997  0.1518 -1.3881
 4857SOL    HW226031   0.516   1.818   8.829 -0.6569  0.7123 -0.7021
 4858SOL     OW26032   0.678   2.417  17.479  0.0458  0.1465  0.0113
 4858SOL    HW126033   0.721   2.366  17.410  0.3153 -0.3724  0.5659
 4858SOL    HW226034   0.628   2.346  17.518  0.5912  0.4570  1.2667
 4859SOL     OW26035   0.878   1.106  17.556  0.2688  0.2191 -0.2288
 4859SOL    HW126036   0.840   1.191  17.534  0.3430  0.0635 -0.9373
 4859SOL    HW226037   0.844   1.051  17.486 -0.5120 -0.6587  0.8373
 4860SOL     OW26038   3.974   2.458   9.531 -0.2157  0.3173 -0.2867
 4860SOL    HW126039   3.893   2.407   9.528  0.2410 -0.3394 -1.7759
 4860SOL    HW226040   3.969   2.484   9.439 -2.8596 -0.7797 -0.4821
 4861SOL     OW26041   1.271   0.406  11.072 -0.2768  0.4528  0.4261
 4861SOL    HW126042   1.304   0.356  11.147 -1.7861 -1.3463 -0.1286
 4861SOL    HW226043   1.312   0.491  11.091  4.1031 -2.0349  2.0194
 4862SOL     OW26044   3.084   3.175   2.004 -0.0557  0.0221 -0.1697
 4862SOL    HW126045   3.070   3.124   2.084  0.3622 -0.6561 -0.5251
 4862SOL    HW226046   3.091   3.263   2.041 -0.0459 -0.1772  0.3072
 4863SOL     OW26047   2.223   1.485   5.427  0.0788  0.0081  0.2422
 4863SOL    HW126048   2.232   1.494   5.522  0.6892  0.8683  0.1025
 4863SOL    HW226049   2.130   1.467   5.412 -0.0131  1.4973 -0.9598
 4864SOL     OW26050   3.800   3.571  16.584  0.5331 -0.2318 -0.3084
 4864SOL    HW126051   3.805   3.537  16.673 -0.3730  0.0705 -0.1413
 4864SOL    HW226052   3.819   3.665  16.592  0.3531 -0.4605  2.8078
 4865SOL     OW26053   2.915   0.156   1.349  0.3011 -0.3575  0.3027
 4865SOL    HW126054   2.876   0.091   1.291 -0.4868  0.2275  0.1815
 4865SOL    HW226055   3.002   0.116   1.362  0.3808  0.3130  1.8595
 4866SOL     OW26056   0.036   2.062   3.338  0.2782  0.0535  0.3548
 4866SOL    HW126057   4.710   1.988   3.371 -0.9591  0.6758 -0.1627
 4866SOL    HW226058   4.698   2.124   3.300 -0.9984 -0.8964  0.9139
 4867SOL     OW26059   2.344   1.507  16.495  0.0867 -0.7471  0.2004
 4867SOL    HW126060   2.358   1.486  16.403 -0.9913 -2.2725  0.3864
 4867SOL    HW226061   2.323   1.421  16.531 -2.6482 -0.1672 -0.0038
 4868SOL     OW26062   1.614   0.622   5.710  0.1869  0.4109 -0.1404
 4868SOL    HW126063   1.546   0.565   5.745  0.6519 -0.6860 -1.0627
 4868SOL    HW226064   1.604   0.700   5.766  1.1928 -0.0562  0.6989
 4869SOL     OW26065   2.372   2.457   2.393 -0.1614  0.0671 -0.1090
 4869SOL    HW126066   2.374   2.371   2.351 -1.9281 -0.6742  1.3098
 4869SOL    HW226067   2.279   2.482   2.397  0.1536  1.2265  0.0390
 4870SOL     OW26068   1.885   0.482   1.908  0.0217  0.4260  0.3452
 4870SOL    HW126069   1.869   0.494   1.814  2.0559 -0.5834 -0.1181
 4870SOL    HW226070   1.834   0.555   1.943  0.8110  0.8275  0.6403
 4871SOL     OW26071   1.908   0.752   0.010  0.3134  0.4259 -0.7542
 4871SOL    HW126072   1.820   0.783   0.029  0.7490  0.8558  0.5255
 4871SOL    HW226073   1.888   0.696  17.635 -0.1074 -0.5649  0.0902
 4872SOL     OW26074   1.782   0.890   2.552 -0.1509 -0.3151  0.4343
 4872SOL    HW126075   1.759   0.969   2.504  2.5061  1.7479  2.5561
 4872SOL    HW226076   1.827   0.837   2.487  0.7855 -0.8589  1.5265
 4873SOL     OW26077   3.744   4.213   4.127  0.1558  0.2012 -0.1644
 4873SOL    HW126078   3.808   4.143   4.111 -0.6048 -0.7351  0.8498
 4873SOL    HW226079   3.669   4.158   4.148  1.8885 -2.2530 -0.2787
 4874SOL     OW26080   1.121   4.399   2.601  0.2746  0.8501 -0.1129
 4874SOL    HW126081   1.097   4.314   2.639  2.0657  0.8819  1.0778
 4874SOL    HW226082   1.151   4.439   2.682  0.3104  1.8188 -0.6068
 4875SOL     OW26083   4.249   0.261   8.307 -0.1445 -0.0086 -0.3607
 4875SOL    HW126084   4.338   0.259   8.274  0.6639  0.1875  1.7732
 4875SOL    HW226085   4.265   0.316   8.384 -0.2925 -0.2940 -0.1227
 4876SOL     OW26086   3.057   1.782   7.237 -0.4764  0.3183  0.4346
 4876SOL    HW126087   3.002   1.764   7.161  1.0976 -2.6988  0.0005
 4876SOL    HW226088   3.002   1.764   7.312 -1.8546 -1.3711 -0.9830
 4877SOL     OW26089   2.443   3.815   8.054 -0.0224  0.0139  0.5353
 4877SOL    HW126090   2.455   3.870   8.131 -0.1010 -0.2738  0.7557
 4877SOL    HW226091   2.449   3.876   7.981  0.8907  1.3088  1.7181
 4878SOL     OW26092   0.791   2.351   2.740  0.3814  0.3445  0.4204
 4878SOL    HW126093   0.862   2.401   2.700 -0.1589 -0.5170 -1.6394
 4878SOL    HW226094   0.774   2.398   2.822 -1.6887 -1.8201  1.2212
 4879SOL     OW26095   2.962   0.451   8.784 -0.7339 -0.5014  0.3368
 4879SOL    HW126096   3.032   0.395   8.749  0.4235 -0.1002  2.0052
 4879SOL    HW226097   2.892   0.406   8.737 -1.4082  1.4217 -0.4957
 4880SOL     OW26098   4.157   1.934   6.749  0.8255 -0.5720  0.1830
 4880SOL    HW126099   4.062   1.935   6.762  0.7920 -2.9869  0.1256
 4880SOL    HW226100   4.189   1.954   6.837 -0.7654  0.6639  0.4858
 4881SOL     OW26101   4.043   3.616   7.924 -0.6001  0.1128 -0.4467
 4881SOL    HW126102   4.073   3.527   7.909  0.9963  0.6309 -0.3471
 4881SOL    HW226103   4.006   3.635   7.838 -2.6703 -1.6336  0.0565
 4882SOL     OW26104   1.161   4.447   9.586  0.4432  0.1284  0.1052
 4882SOL    HW126105   1.238   4.487   9.545 -0.9548 -0.0792 -2.7250
 4882SOL    HW226106   1.118   4.527   9.617  0.8388  1.0806 -1.8088
 4883SOL     OW26107   4.438   4.575   6.533 -0.0440 -0.2313  0.2345
 4883SOL    HW126108   4.345   4.585   6.554  0.2983  0.5217  1.3988
 4883SOL    HW226109   4.478   4.659   6.557  1.5053 -0.7174 -0.6521
 4884SOL     OW26110   4.232   2.398   1.337  0.1042  0.3735  0.4463
 4884SOL    HW126111   4.157   2.448   1.303  1.7426  2.2497 -0.4287
 4884SOL    HW226112   4.299   2.400   1.269 -0.4754 -1.5943 -0.1734
 4885SOL     OW26113   2.515   0.555  16.601 -0.5713  0.2958  0.0388
 4885SOL    HW126114   2.449   0.491  16.628 -0.0870 -0.6042 -0.9240
 4885SOL    HW226115   2.528   0.529  16.510 -0.6128 -1.5607  0.5528
 4886SOL     OW26116   3.521   1.315   7.522  0.8809 -0.0613 -0.5468
 4886SOL    HW126117   3.606   1.357   7.516  1.0769 -0.2665  0.8288
 4886SOL    HW226118   3.462   1.387   7.501  0.0711 -0.3937  0.5800
 4887SOL     OW26119   0.723   1.252   2.102  0.1350  0.1751  0.6553
 4887SOL    HW126120   0.671   1.172   2.094  1.0481 -0.6797  3.1312
 4887SOL    HW226121   0.671   1.318   2.056  1.0380 -0.1378 -0.8267
 4888SOL     OW26122   0.531   4.651   5.972 -0.4884  0.3966  0.3093
 4888SOL    HW126123   0.451   4.611   6.006 -0.0227 -0.0316  0.9173
 4888SOL    HW226124   0.582   4.574   5.948  0.8623  0.9678  1.3152
 4889SOL     OW26125   4.054   0.581  14.307 -0.0860 -0.3657  0.2414
 4889SOL    HW126126   4.005   0.505  14.274 -0.9151 -0.3242  1.4052
 4889SOL    HW226127   4.111   0.596  14.231 -0.4839 -1.3956 -0.2633
 4890SOL     OW26128   2.893   3.500  15.780  0.3629 -0.0476 -0.3179
 4890SOL    HW126129   2.977   3.544  15.785 -0.1040  0.6527  1.3043
 4890SOL    HW226130   2.850   3.583  15.801  1.2388  0.7150 -1.5111
 4891SOL     OW26131   4.074   2.507   2.033 -0.6018  0.3056 -0.4443
 4891SOL    HW126132   4.091   2.422   2.072 -0.3058  0.1595 -0.8854
 4891SOL    HW226133   4.161   2.519   1.996 -0.9929 -1.0404 -1.8045
 4892SOL     OW26134   4.125   1.334   1.370  0.5119  0.4832 -0.5108
 4892SOL    HW126135   4.178   1.292   1.438  1.4524 -0.5480 -1.8642
 4892SOL    HW226136   4.107   1.264   1.307  1.1359  0.9891 -1.2536
 4893SOL     OW26137   0.477   0.100   3.899 -0.3129 -0.0442 -0.1982
 4893SOL    HW126138   0.455   0.015   3.937 -0.0840  0.4473  1.0290
 4893SOL    HW226139   0.411   0.117   3.832  0.4715 -0.6135 -1.1156
 4894SOL     OW26140   3.593   4.113   2.192  0.4935 -0.0423 -0.1781
 4894SOL    HW126141   3.579   4.146   2.103  1.4245 -0.1660 -0.3727
 4894SOL    HW226142   3.688   4.106   2.204  0.1797 -1.5972  1.4275
 4895SOL     OW26143   4.075   2.333   4.884  0.6434  0.3889 -0.2512
 4895SOL    HW126144   4.061   2.341   4.978 -1.4000 -0.8948 -0.4398
 4895SOL    HW226145   4.168   2.356   4.875  0.0507  2.6339 -0.5611
 4896SOL     OW26146   0.062   3.360   4.885  0.2046  0.5627 -0.0014
 4896SOL    HW126147   0.148   3.341   4.921 -0.4837  1.3883  2.0915
 4896SOL    HW226148   0.043   3.443   4.930 -0.3248  0.1045  0.6119
 4897SOL     OW26149   4.077   1.903   2.784 -0.0258 -0.4746 -0.0378
 4897SOL    HW126150   4.156   1.954   2.768 -1.3384  1.2652 -1.1034
 4897SOL    HW226151   4.038   1.942   2.862  0.8157  0.9785 -0.3475
 4898SOL     OW26152   3.196   3.783   2.578 -0.3530 -0.4505 -0.2006
 4898SOL    HW126153   3.201   3.826   2.663  1.8601 -2.6411  0.7805
 4898SOL    HW226154   3.198   3.861   2.523 -2.2104  0.7604  1.4462
 4899SOL     OW26155   0.759   1.534   8.782 -0.4322  0.5268  0.0576
 4899SOL    HW126156   0.790   1.558   8.869  1.3948 -1.5876 -0.0194
 4899SOL    HW226157   0.684   1.480   8.809 -0.0629  0.6654  1.3638
 4900SOL     OW26158   2.041   4.683   3.222 -0.5737  0.1577  0.4893
 4900SOL    HW126159   1.989   4.715   3.295  1.1052 -0.2140  1.8410
 4900SOL    HW226160   2.010   4.593   3.215 -2.6467  0.8690  0.6369
 4901SOL     OW26161   1.446   3.806   6.744  0.2534  0.5871  0.2431
 4901SOL    HW126162   1.509   3.862   6.697 -0.7775 -0.6304 -2.6076
 4901SOL    HW226163   1.470   3.816   6.836 -0.5604  0.1623  0.5016
 4902SOL     OW26164   2.371   3.261   0.713  0.0641 -0.6408  0.8110
 4902SOL    HW126165   2.303   3.194   0.702  0.4039 -0.7614 -0.5630
 4902SOL    HW226166   2.382   3.270   0.808  1.5572 -0.3819  0.6116
 4903SOL     OW26167   3.690   2.029  15.715 -0.0088  0.1004  0.0435
 4903SOL    HW126168   3.785   2.030  15.709  0.1259 -0.8800  1.9158
 4903SOL    HW226169   3.684   2.039  15.620  1.0626  0.1410 -0.0179
 4904SOL     OW26170   1.821   1.925   8.504  0.2605 -0.0544 -0.3629
 4904SOL    HW126171   1.879   1.999   8.487 -0.8110  0.4772 -1.6744
 4904SOL    HW226172   1.776   1.931   8.420  1.0563  2.8069 -0.5902
 4905SOL     OW26173   2.931   1.003  16.382 -0.0633 -0.5748 -0.1431
 4905SOL    HW126174   2.906   1.082  16.430  0.1184  0.8708 -2.4164
 4905SOL    HW226175   2.850   0.955  16.368 -1.6739  1.6972  1.3275
 4906SOL     OW26176   4.319   3.429   4.285 -0.1357 -0.2472  0.2887
 4906SOL    HW126177   4.389   3.390   4.232 -1.7574 -0.2590 -1.8646
 4906SOL    HW226178   4.373   3.472   4.351 -2.3020  1.6691  0.8324
 4907SOL     OW26179   2.104   2.050   4.478  0.1762 -0.1339  0.4623
 4907SOL    HW126180   2.134   1.959   4.483  0.8967  0.1684  1.6477
 4907SOL    HW226181   2.013   2.036   4.456  0.6850 -1.4660 -0.7754
 4908SOL     OW26182   3.117   1.384  16.037  0.0335  0.5925  0.5809
 4908SOL    HW126183   3.081   1.457  15.987 -0.4888 -0.9787 -1.3624
 4908SOL    HW226184   3.205   1.379  16.000  0.2792  0.2288  1.2272
 4909SOL     OW26185   1.135   0.546   2.573  0.1477 -0.1422 -0.1866
 4909SOL    HW126186   1.135   0.488   2.497 -0.9800 -1.8785  1.1453
 4909SOL    HW226187   1.197   0.492   2.623  0.6756  0.5341 -0.1088
 4910SOL     OW26188   4.139   0.489  15.308 -0.3934 -0.3586  0.1887
 4910SOL    HW126189   4.117   0.495  15.401 -1.2057 -0.2144 -0.0059
 4910SOL    HW226190   4.159   0.397  15.295  1.0035 -0.2105  1.3332
 4911SOL     OW26191   0.711   2.061   7.792  0.1065 -0.1478 -0.0659
 4911SOL    HW126192   0.688   2.035   7.882 -0.5445 -3.4646 -1.2105
 4911SOL    HW226193   0.631   2.060   7.741  0.5334  0.3979 -0.7435
 4912SOL     OW26194   0.770   0.789   2.538 -0.0521 -0.2782  0.3612
 4912SOL    HW126195   0.773   0.697   2.564  1.6020 -0.8753 -1.9029
 4912SOL    HW226196   0.746   0.842   2.614  2.4979 -0.3328  1.2225
 4913SOL     OW26197   1.179   4.308  11.910 -0.2457 -0.3302  0.0205
 4913SOL    HW126198   1.186   4.229  11.857  0.0078 -0.3195  0.0377
 4913SOL    HW226199   1.169   4.266  11.995  2.0805 -0.1386  0.4001
 4914SOL     OW26200   1.006   3.460   1.906 -0.1795  0.8173  0.1712
 4914SOL    HW126201   1.097   3.467   1.877 -0.6936  0.5187 -1.4971
 4914SOL    HW226202   1.021   3.482   1.998 -1.5551 -0.0219  0.6106
 4915SOL     OW26203   0.564   2.573   5.713  0.3587 -0.0303 -0.3566
 4915SOL    HW126204   0.600   2.487   5.689  1.1023 -0.8453  3.6527
 4915SOL    HW226205   0.470   2.553   5.717  0.5972 -1.3975 -1.7043
 4916SOL     OW26206   4.454   3.051   4.163  0.4148 -0.0389  0.2544
 4916SOL    HW126207   4.507   3.093   4.230  1.4175 -2.4317  0.9735
 4916SOL    HW226208   4.466   2.959   4.188 -2.8118 -0.4859  0.2498
 4917SOL     OW26209   4.052   0.763   9.558  0.2062  1.0034  0.2872
 4917SOL    HW126210   3.979   0.730   9.611  0.6459  0.9331  0.8473
 4917SOL    HW226211   4.074   0.851   9.588 -0.6961  0.6960  1.8732
 4918SOL     OW26212   2.073   3.616  17.427  0.3483  0.6341  0.1123
 4918SOL    HW126213   2.151   3.665  17.454 -0.1630  0.6152  1.6475
 4918SOL    HW226214   2.096   3.535  17.474 -1.5105 -0.1532 -0.3315
 4919SOL     OW26215   1.863   4.692   3.874 -0.1802 -0.1699  0.4023
 4919SOL    HW126216   1.881   0.024   3.798  1.3270  1.2473  1.8176
 4919SOL    HW226217   1.940   4.635   3.864 -0.3048 -0.2326 -0.2065
 4920SOL     OW26218   0.865   0.869   8.023  0.2207 -0.1674 -0.2489
 4920SOL    HW126219   0.900   0.919   7.949 -1.3511 -0.6894 -1.3401
 4920SOL    HW226220   0.947   0.859   8.071  0.3321  2.8170  0.1730
 4921SOL     OW26221   0.630   1.733   9.584  0.4850 -0.5467  0.5229
 4921SOL    HW126222   0.580   1.806   9.621  0.8206 -0.7223  1.3092
 4921SOL    HW226223   0.629   1.752   9.490  1.2962  1.9324  1.0245
 4922SOL     OW26224   3.534   0.156   2.953  0.5123  0.5690  0.1996
 4922SOL    HW126225   3.506   0.234   3.001 -1.2096 -1.1012  1.9477
 4922SOL    HW226226   3.580   0.204   2.885 -0.4240  1.0865 -0.0679
 4923SOL     OW26227   1.239   1.939   1.761  0.2012 -0.2992 -0.2123
 4923SOL    HW126228   1.242   2.013   1.700  0.3669  1.7193  2.2295
 4923SOL    HW226229   1.327   1.902   1.755  1.0094  1.3860  1.2240
 4924SOL     OW26230   4.574   2.252   1.625 -0.2503  0.1440 -0.3653
 4924SOL    HW126231   4.516   2.316   1.586 -1.4030 -0.7719 -0.1456
 4924SOL    HW226232   4.607   2.305   1.698 -1.9448  1.4812 -0.5916
 4925SOL     OW26233   4.440   3.904   9.214  0.5108 -0.0462 -0.4639
 4925SOL    HW126234   4.356   3.940   9.241  0.2549 -0.8368 -0.2077
 4925SOL    HW226235   4.501   3.961   9.260  0.5210 -1.9127  1.8596
 4926SOL     OW26236   0.171   1.387   3.238  0.0067  0.3915  0.3573
 4926SOL    HW126237   0.116   1.370   3.161 -0.5478  1.0384  0.6064
 4926SOL    HW226238   0.226   1.310   3.228 -0.6378 -0.1560  0.9564
 4927SOL     OW26239   3.982   3.938   6.698  0.4783  0.0614  0.5309
 4927SOL    HW126240   4.031   3.922   6.617  1.6014  2.3335  0.7553
 4927SOL    HW226241   3.991   3.851   6.738  1.4185 -0.0429  0.0961
 4928SOL     OW26242   3.352   4.462   1.694  0.0027 -0.0806  0.0015
 4928SOL    HW126243   3.284   4.418   1.643  0.6569 -0.1035 -0.8599
 4928SOL    HW226244   3.343   4.414   1.776  1.4278 -1.7360 -0.8053
 4929SOL     OW26245   1.363   0.520  13.950  0.5136  0.0569  0.3355
 4929SOL    HW126246   1.449   0.562  13.953  0.4010  0.5037 -2.2580
 4929SOL    HW226247   1.338   0.531  14.042 -0.4297  0.9380 -0.0223
 4930SOL     OW26248   4.057   4.653   5.537  0.0296  0.6003 -0.0509
 4930SOL    HW126249   4.091   4.682   5.622  1.1431  1.0393 -0.6494
 4930SOL    HW226250   4.127   4.684   5.480  0.2542 -0.0530 -0.1309
 4931SOL     OW26251   4.308   0.823   4.504 -0.3090  0.2134 -0.0320
 4931SOL    HW126252   4.257   0.744   4.521 -0.4728 -0.0640 -1.7715
 4931SOL    HW226253   4.289   0.856   4.591 -0.1837 -2.0658  0.8639
 4932SOL     OW26254   0.641   1.676  14.213 -0.6038 -0.7980  0.2244
 4932SOL    HW126255   0.583   1.630  14.153 -0.5099 -1.8340  0.9293
 4932SOL    HW226256   0.619   1.625  14.290 -1.5127  1.0072  1.1506
 4933SOL     OW26257   3.958   0.357   7.535  0.5499  0.1498  0.2458
 4933SOL    HW126258   3.882   0.311   7.570  2.7862 -2.2891  1.8661
 4933SOL    HW226259   4.027   0.360   7.601 -0.7090 -1.1795  1.6369
 4934SOL     OW26260   3.530   2.050  11.946 -0.4393  0.0649  0.0757
 4934SOL    HW126261   3.538   2.145  11.930 -1.2697 -0.3406 -2.7399
 4934SOL    HW226262   3.490   2.045  12.032 -0.1337 -1.1764  0.1339
 4935SOL     OW26263   2.769   3.649   4.223  0.2438 -0.0053  0.0004
 4935SOL    HW126264   2.843   3.627   4.166 -0.2568 -1.3823 -0.1178
 4935SOL    HW226265   2.817   3.692   4.294 -0.8997  1.7246 -0.3021
 4936SOL     OW26266   1.481   3.653   3.157  0.6823  0.6345 -0.5419
 4936SOL    HW126267   1.561   3.601   3.149  0.0370 -0.1768 -1.7446
 4936SOL    HW226268   1.475   3.658   3.252  1.4627 -1.3336 -0.3944
 4937SOL     OW26269   2.890   3.994   5.557 -0.2930  0.3807  1.0337
 4937SOL    HW126270   2.874   4.035   5.642  0.1152  2.1407  0.2660
 4937SOL    HW226271   2.935   4.058   5.501  1.0984 -0.6343  0.9785
 4938SOL     OW26272   1.858   3.505   2.517  0.4545 -0.1282 -0.1439
 4938SOL    HW126273   1.889   3.447   2.448  2.2138  3.0365 -2.0376
 4938SOL    HW226274   1.852   3.453   2.597 -2.4945  1.1812  0.4600
 4939SOL     OW26275   2.720   0.714  16.496  0.1530 -0.4676  0.2752
 4939SOL    HW126276   2.758   0.628  16.513 -0.3304 -0.4125  1.6175
 4939SOL    HW226277   2.641   0.695  16.547  0.2492 -1.1473  0.1665
 4940SOL     OW26278   2.653   1.564   8.777  0.2553 -0.3974 -0.5782
 4940SOL    HW126279   2.640   1.654   8.808 -2.6364 -0.9860 -0.1548
 4940SOL    HW226280   2.580   1.553   8.717 -0.1184 -2.3261  0.2536
 4941SOL     OW26281   3.433   2.729   8.491 -0.2022 -0.1614  0.1566
 4941SOL    HW126282   3.478   2.807   8.457 -1.0571 -0.1718 -1.0041
 4941SOL    HW226283   3.349   2.771   8.507 -0.0143  0.4803 -0.5602
 4942SOL     OW26284   4.154   4.365  11.929 -0.0231  0.6910  0.8586
 4942SOL    HW126285   4.146   4.277  11.892  2.2165  0.6554  0.4129
 4942SOL    HW226286   4.115   4.361  12.016 -1.9707 -0.1194 -0.0496
 4943SOL     OW26287   0.393   1.416   2.144  0.4225  0.0061 -0.2065
 4943SOL    HW126288   0.465   1.419   2.080  0.7934  1.9866  0.2855
 4943SOL    HW226289   0.375   1.510   2.148  1.4849  0.2367 -0.7430
 4944SOL     OW26290   2.183   1.952   7.692 -0.4468 -0.0283 -0.2289
 4944SOL    HW126291   2.227   1.882   7.739 -2.3246 -1.8287 -1.1490
 4944SOL    HW226292   2.232   1.947   7.610 -0.0842  1.0905 -0.0913
 4945SOL     OW26293   0.401   0.448  10.568  0.5279  0.3287 -0.7975
 4945SOL    HW126294   0.436   0.528  10.609  1.5715 -0.1209 -0.8082
 4945SOL    HW226295   0.336   0.431  10.636  1.3344 -1.9777 -0.6122
 4946SOL     OW26296   4.059   0.152  12.019  0.6327  0.2034  0.5306
 4946SOL    HW126297   4.052   0.120  11.929 -1.7797 -1.5840  1.3390
 4946SOL    HW226298   4.094   0.238  11.997 -2.3381  1.3793  0.3644
 4947SOL     OW26299   1.937   2.777   1.639 -0.4300 -0.1412  0.1827
 4947SOL    HW126300   1.948   2.871   1.628  0.9280 -0.3558 -0.2839
 4947SOL    HW226301   2.027   2.746   1.645 -1.8307 -4.3884 -0.9114
 4948SOL     OW26302   2.455   1.059   4.290  0.1558 -0.6349 -0.6879
 4948SOL    HW126303   2.499   1.120   4.231  1.4376 -0.9369 -0.0454
 4948SOL    HW226304   2.383   1.031   4.234 -0.2555 -3.5873  1.3492
 4949SOL     OW26305   0.561   0.117  10.381  0.1952 -0.1969  0.0888
 4949SOL    HW126306   0.576   0.122  10.476  0.0963 -0.2394  0.1074
 4949SOL    HW226307   0.529   0.205  10.363 -2.0034 -0.6000  1.9436
 4950SOL     OW26308   3.433   0.517   2.857  0.2556 -0.4351  0.3061
 4950SOL    HW126309   3.362   0.469   2.814  0.6144 -1.5193  0.9205
 4950SOL    HW226310   3.440   0.583   2.788  1.3209 -2.7942 -1.8631
 4951SOL     OW26311   3.410   1.134  16.559 -0.1501 -0.1415 -0.2942
 4951SOL    HW126312   3.336   1.192  16.540  0.0611  0.5708  1.0580
 4951SOL    HW226313   3.486   1.193  16.554  0.5819 -0.9696  1.0854
 4952SOL     OW26314   0.802   0.485   8.626 -0.1058 -0.1410 -0.7273
 4952SOL    HW126315   0.878   0.543   8.618  0.6561 -1.1474 -0.6999
 4952SOL    HW226316   0.784   0.479   8.720  1.7074  0.4551 -0.3302
 4953SOL     OW26317   3.174   1.380   6.536 -0.2035  0.2004 -0.3418
 4953SOL    HW126318   3.089   1.400   6.574 -0.4483  0.4956 -1.0571
 4953SOL    HW226319   3.156   1.327   6.458 -0.5038 -0.0752 -0.0835
 4954SOL     OW26320   3.688   1.155   5.718 -0.1626 -0.1347 -0.0166
 4954SOL    HW126321   3.673   1.234   5.666  1.8920  1.9855  2.5530
 4954SOL    HW226322   3.595   1.133   5.720 -1.3148  4.6567  0.4997
 4955SOL     OW26323   2.351   3.337   7.088  0.5013  0.2287  0.4559
 4955SOL    HW126324   2.397   3.254   7.102  0.3081 -0.0771 -0.6995
 4955SOL    HW226325   2.369   3.360   6.997  0.0057 -0.2314  0.2437
 4956SOL     OW26326   0.712   3.613   0.081  0.3964  0.4736  0.5859
 4956SOL    HW126327   0.658   3.631   0.004  1.4117 -2.9793 -0.9441
 4956SOL    HW226328   0.658   3.548   0.127  0.5001  0.2746  0.4266
 4957SOL     OW26329   2.124   1.662  13.008  0.3000  0.3978  0.1773
 4957SOL    HW126330   2.157   1.751  12.993  0.7063  0.2717  0.3162
 4957SOL    HW226331   2.039   1.669  12.964 -0.5306  1.4304  1.9332
 4958SOL     OW26332   2.341   0.281   3.260  0.1677 -0.0714 -0.4671
 4958SOL    HW126333   2.417   0.334   3.285  0.6647 -0.3765 -1.3203
 4958SOL    HW226334   2.285   0.301   3.334 -0.2427  0.5284 -0.9354
 4959SOL     OW26335   1.670   2.312   8.265 -0.0070  0.4218  0.0893
 4959SOL    HW126336   1.743   2.262   8.301  0.0539  1.0135  0.7683
 4959SOL    HW226337   1.708   2.399   8.260  1.4005 -0.0978  1.6987
 4960SOL     OW26338   2.444   1.243  11.879  0.4601  0.3440  0.3889
 4960SOL    HW126339   2.375   1.299  11.843  0.8083  0.3296 -0.2955
 4960SOL    HW226340   2.505   1.313  11.900  1.9837 -0.6775 -0.6477
 4961SOL     OW26341   2.087   2.173   3.126 -0.1432  0.0082  0.3130
 4961SOL    HW126342   2.142   2.247   3.099 -0.8348 -0.5814 -2.6506
 4961SOL    HW226343   2.002   2.202   3.095 -0.1651 -1.0039 -0.5634
 4962SOL     OW26344   2.531   0.032   3.463  0.1123 -0.6046 -0.6406
 4962SOL    HW126345   2.532   4.723   3.374  1.0931  1.7132 -1.5253
 4962SOL    HW226346   2.604   0.093   3.452 -1.1622  0.7173 -1.7701
 4963SOL     OW26347   1.938   4.251   8.084 -0.4734  0.0920  0.3366
 4963SOL    HW126348   1.946   4.335   8.129 -1.8105 -0.4777  1.5990
 4963SOL    HW226349   1.905   4.197   8.155  1.8178 -3.6386 -1.4361
 4964SOL     OW26350   3.633   4.461  16.663  0.4431 -0.3286 -0.5225
 4964SOL    HW126351   3.576   4.487  16.735  1.6715  1.4207 -0.1878
 4964SOL    HW226352   3.669   4.378  16.696 -0.5333 -0.9049 -0.8988
 4965SOL     OW26353   1.929   3.193   5.217 -0.8528  0.0536 -0.0120
 4965SOL    HW126354   1.922   3.098   5.217  0.5588 -0.0343  0.4506
 4965SOL    HW226355   2.016   3.202   5.179 -1.3800  0.4359 -1.1416
 4966SOL     OW26356   3.318   1.492   7.578 -0.7787  0.2477 -0.0122
 4966SOL    HW126357   3.285   1.524   7.494  2.2944  0.5001 -1.1259
 4966SOL    HW226358   3.250   1.527   7.635  1.6139  0.8117  2.4610
 4967SOL     OW26359   1.076   0.113   3.490 -0.2146 -0.0668 -0.5398
 4967SOL    HW126360   0.996   0.107   3.542  0.9970  0.3931  1.3776
 4967SOL    HW226361   1.101   0.030   3.451 -0.4817 -0.5800  0.3804
 4968SOL     OW26362   0.615   2.197   4.763  0.4150 -0.0212  0.3013
 4968SOL    HW126363   0.634   2.290   4.757  1.6653 -0.2578  0.7402
 4968SOL    HW226364   0.540   2.180   4.705 -1.3718 -0.1026  2.5944
 4969SOL     OW26365   4.437   3.059   1.628 -0.1029 -0.4049  0.0470
 4969SOL    HW126366   4.439   3.088   1.719 -2.1950 -1.2901  0.3689
 4969SOL    HW226367   4.349   3.084   1.600  0.2303 -0.1205 -0.7719
 4970SOL     OW26368   3.164   1.644   8.751 -0.0884 -0.2876  0.1240
 4970SOL    HW126369   3.243   1.669   8.797  0.0125 -1.9574  0.8530
 4970SOL    HW226370   3.154   1.553   8.780  0.6410 -0.9383 -1.6293
 4971SOL     OW26371   3.190   4.161  10.355 -0.2959 -0.1788  0.2555
 4971SOL    HW126372   3.262   4.210  10.395  0.8515 -1.8077  0.1539
 4971SOL    HW226373   3.197   4.086  10.414 -1.1176 -0.7703 -0.4061
 4972SOL     OW26374   2.668   3.570  12.551 -0.1156 -0.5598 -0.6317
 4972SOL    HW126375   2.601   3.636  12.568 -0.7770 -1.4045  0.0918
 4972SOL    HW226376   2.636   3.503  12.612  1.6329 -2.0474 -1.3303
 4973SOL     OW26377   1.027   0.369   8.240 -0.7605  0.5226  0.4774
 4973SOL    HW126378   0.963   0.434   8.268  0.1027  1.9244 -0.7753
 4973SOL    HW226379   0.976   0.290   8.256  1.4927 -1.2977 -1.1958
 4974SOL     OW26380   3.561   3.676   6.412 -0.6190 -0.3223 -0.1253
 4974SOL    HW126381   3.652   3.668   6.382 -0.5503 -0.0336 -0.0000
 4974SOL    HW226382   3.567   3.746   6.477  1.8767 -1.7322  1.1647
 4975SOL     OW26383   2.453   4.052  15.937 -0.3607 -0.3110 -0.2656
 4975SOL    HW126384   2.404   4.125  15.974 -0.6577 -0.3020 -0.6685
 4975SOL    HW226385   2.421   4.056  15.847  1.4205 -1.6464 -0.9613
 4976SOL     OW26386   2.890   2.741   3.969  0.1135 -0.3571 -0.0772
 4976SOL    HW126387   2.985   2.747   3.955 -0.2115  1.4352 -1.3981
 4976SOL    HW226388   2.845   2.781   3.895  0.0092  0.6749  0.5546
 4977SOL     OW26389   4.505   4.135   8.962 -0.6753  0.0168  0.1868
 4977SOL    HW126390   4.468   4.163   8.879  0.8198 -1.2346 -0.9005
 4977SOL    HW226391   4.425   4.148   9.013 -1.2057  1.4925 -1.0078
 4978SOL     OW26392   2.245   1.833   6.968 -0.2370  0.1811  0.3061
 4978SOL    HW126393   2.287   1.919   6.958 -2.1341  1.1854  1.0949
 4978SOL    HW226394   2.161   1.843   6.924  0.1111  0.7972 -0.2142
 4979SOL     OW26395   1.716   3.019   8.780 -0.4543  0.2156  0.4847
 4979SOL    HW126396   1.809   3.014   8.758 -0.7341 -0.7037 -0.4716
 4979SOL    HW226397   1.673   2.939   8.750  0.4478 -1.8337  4.6396
 4980SOL     OW26398   0.286   3.801   7.136 -0.3977  0.3724  0.2657
 4980SOL    HW126399   0.220   3.765   7.078  0.2561 -2.5068  1.3025
 4980SOL    HW226400   0.321   3.878   7.091  0.3484 -0.7063 -0.9743
 4981SOL     OW26401   3.487   3.821   5.545  0.2633 -0.1395 -0.1667
 4981SOL    HW126402   3.487   3.898   5.487 -2.0619 -0.7964 -1.0595
 4981SOL    HW226403   3.434   3.766   5.487  0.9893 -0.0288 -0.9398
 4982SOL     OW26404   2.997   4.445   8.112 -0.2192 -0.1697  0.1701
 4982SOL    HW126405   2.949   4.388   8.050  1.3921 -1.6905  0.3135
 4982SOL    HW226406   3.050   4.381   8.159  0.5860  0.0836 -0.3877
 4983SOL     OW26407   3.533   4.406  15.761  0.2459 -0.2369  0.0577
 4983SOL    HW126408   3.533   4.490  15.715 -0.7149 -0.9267 -1.2040
 4983SOL    HW226409   3.483   4.423  15.841  0.5954 -1.8462  0.6044
 4984SOL     OW26410   3.449   1.326   4.515 -0.1637 -0.0385  0.0687
 4984SOL    HW126411   3.519   1.278   4.560 -1.0324  0.8535  2.3231
 4984SOL    HW226412   3.494   1.376   4.447 -2.0380 -1.1272 -1.9821
 4985SOL     OW26413   4.336   3.373   4.812  0.1122  0.2252  0.2973
 4985SOL    HW126414   4.307   3.317   4.884 -3.4343 -0.9383 -2.0704
 4985SOL    HW226415   4.373   3.441   4.868  0.0104 -1.2385  2.1345
 4986SOL     OW26416   3.676   3.995   6.968 -0.4505 -0.3343 -0.0768
 4986SOL    HW126417   3.715   4.020   7.052  0.1205  1.9043 -1.0117
 4986SOL    HW226418   3.747   4.032   6.916  0.8856 -0.2954  1.7749
 4987SOL     OW26419   4.077   3.469  10.430 -0.5695  0.2084  0.9354
 4987SOL    HW126420   4.037   3.403  10.488 -1.4521 -2.1585 -2.3729
 4987SOL    HW226421   4.167   3.451  10.458 -1.3085 -2.3559  1.6948
 4988SOL     OW26422   2.433   0.510   7.257  0.3900 -0.8642  0.5378
 4988SOL    HW126423   2.478   0.432   7.224  0.6853 -0.8092  0.8089
 4988SOL    HW226424   2.506   0.560   7.292  1.0269 -1.6289  0.3088
 4989SOL     OW26425   0.867   0.593   6.255  0.3738 -0.0435  0.3512
 4989SOL    HW126426   0.791   0.653   6.255  1.6246  1.5382 -0.5224
 4989SOL    HW226427   0.827   0.516   6.295 -1.6401  0.8305  0.0455
 4990SOL     OW26428   3.706   1.824  16.670 -0.0286 -0.0482 -0.0245
 4990SOL    HW126429   3.799   1.846  16.675 -0.4337  1.6480  0.0828
 4990SOL    HW226430   3.670   1.911  16.654  0.8340  0.0056 -1.6050
 4991SOL     OW26431   0.979   0.099  16.740 -0.1349  0.1511 -0.0655
 4991SOL    HW126432   0.990   0.147  16.658 -0.1679  0.0326 -0.1396
 4991SOL    HW226433   1.065   0.112  16.781 -1.3787  2.0135  1.9706
 4992SOL     OW26434   4.465   0.127   6.963 -0.1016  0.3907 -0.4843
 4992SOL    HW126435   4.554   0.156   6.979  0.2107 -1.0736  0.4787
 4992SOL    HW226436   4.429   0.136   7.052  1.5587 -1.2210  0.3371
 4993SOL     OW26437   2.925   2.604   6.466 -0.0940 -1.4100 -0.7198
 4993SOL    HW126438   2.846   2.572   6.422 -3.2839  1.3310  3.0499
 4993SOL    HW226439   2.944   2.678   6.409  1.4501 -0.6990  0.6964
 4994SOL     OW26440   3.940   2.574   5.953 -0.2719  0.1841 -0.0762
 4994SOL    HW126441   4.029   2.539   5.956  0.1158  1.2413  0.9631
 4994SOL    HW226442   3.960   2.657   5.909  1.8898 -0.0411  0.4543
 4995SOL     OW26443   3.850   2.538  10.369 -0.3441  0.2178 -0.0802
 4995SOL    HW126444   3.907   2.612  10.349 -0.5844 -0.0577 -1.7640
 4995SOL    HW226445   3.774   2.589  10.396  0.2756  0.3842  1.3680
 4996SOL     OW26446   1.391   1.433   2.490 -0.5016 -0.2626 -0.1192
 4996SOL    HW126447   1.432   1.385   2.418 -3.3587 -0.8553 -1.3213
 4996SOL    HW226448   1.475   1.461   2.527 -0.4841  0.4655 -0.6948
 4997SOL     OW26449   0.308   1.799   6.984  0.0624  0.7508 -0.3196
 4997SOL    HW126450   0.266   1.743   6.918  1.0393  0.3507 -0.5954
 4997SOL    HW226451   0.364   1.736   7.029 -1.1512 -0.5903 -0.6894
 4998SOL     OW26452   4.438   1.767  14.544 -0.9611 -0.2289  0.3416
 4998SOL    HW126453   4.385   1.742  14.468 -1.2928 -1.4403  0.9687
 4998SOL    HW226454   4.469   1.851  14.511  0.0754 -0.2310  1.3149
 4999SOL     OW26455   0.681   4.700   3.782  0.8422  0.1933 -0.1173
 4999SOL    HW126456   0.616   0.031   3.826 -1.3921  0.4494 -3.7182
 4999SOL    HW226457   0.627   4.631   3.743 -0.5016 -0.4860  2.9217
 5000SOL     OW26458   3.650   1.079  16.032  0.0715  0.2200 -0.2474
 5000SOL    HW126459   3.655   1.165  15.991  1.8332  0.4494  0.4324
 5000SOL    HW226460   3.575   1.095  16.090  2.7236  0.8964  3.0268
 5001SOL     OW26461   0.836   1.955  11.577  0.1729 -0.3072 -0.0029
 5001SOL    HW126462   0.768   1.889  11.562  0.9789 -0.6059 -2.2526
 5001SOL    HW226463   0.792   2.038  11.560 -0.7872 -0.7167  0.4612
 5002SOL     OW26464   2.594   4.115   9.377  0.2735 -0.0053 -0.4549
 5002SOL    HW126465   2.505   4.085   9.394  0.2446  0.4529  0.2466
 5002SOL    HW226466   2.644   4.069   9.445  0.5448  1.2551  0.2034
 5003SOL     OW26467   0.292   2.584   3.495  0.0421 -0.1010 -0.6586
 5003SOL    HW126468   0.303   2.491   3.480 -0.1145 -0.3839  1.0103
 5003SOL    HW226469   0.209   2.588   3.543  0.9111 -1.4600  0.9462
 5004SOL     OW26470   4.694   2.012   9.340  0.3781  0.6748  0.1548
 5004SOL    HW126471   4.599   2.013   9.324  0.1030 -1.7550  1.5340
 5004SOL    HW226472   4.702   1.964   9.423  0.5353  0.2741 -0.0895
 5005SOL     OW26473   4.571   1.785   4.711 -0.0108  0.4007  0.2327
 5005SOL    HW126474   4.644   1.743   4.666 -0.3038  1.4383 -1.2270
 5005SOL    HW226475   4.540   1.857   4.655  0.2195  1.4164  1.4007
 5006SOL     OW26476   2.917   3.270   7.195  0.2951 -0.0282 -0.1596
 5006SOL    HW126477   2.992   3.250   7.139  0.6414  1.2102 -0.1253
 5006SOL    HW226478   2.964   3.322   7.260  1.4260 -1.2540 -0.0017
 5007SOL     OW26479   2.388   2.296   6.236  0.4396  0.0390  0.5648
 5007SOL    HW126480   2.355   2.253   6.315 -1.1957  1.3751  0.6111
 5007SOL    HW226481   2.434   2.217   6.206 -1.1385 -1.3433  1.7769
 5008SOL     OW26482   0.046   0.584  15.168  1.4448 -0.2777  0.0323
 5008SOL    HW126483   0.059   0.672  15.203  0.4895  0.0886 -0.5505
 5008SOL    HW226484   0.068   0.535  15.248  1.7630  1.5608  1.0552
 5009SOL     OW26485   0.282   4.257   2.697 -0.1626  0.2036 -0.8488
 5009SOL    HW126486   0.241   4.300   2.622  1.0057  2.4678 -0.1692
 5009SOL    HW226487   0.319   4.327   2.750 -0.9026 -0.6432  0.7792
 5010SOL     OW26488   0.172   4.113   0.894 -0.2109 -0.6754 -0.1350
 5010SOL    HW126489   0.127   4.179   0.946  0.6961  0.0469 -0.2699
 5010SOL    HW226490   0.121   4.033   0.907 -0.8792 -0.0524  1.0830
 5011SOL     OW26491   4.075   3.738   4.724 -0.0166 -0.1148  0.1394
 5011SOL    HW126492   4.118   3.665   4.768 -0.0154 -0.9594 -1.2684
 5011SOL    HW226493   4.138   3.778   4.663 -1.0790 -2.2025 -2.3067
 5012SOL     OW26494   4.470   2.213  15.483  0.3591 -0.0643  0.0213
 5012SOL    HW126495   4.476   2.285  15.420 -2.6346  0.4801  0.3622
 5012SOL    HW226496   4.547   2.244  15.529  0.3660  0.2348 -0.1847
 5013SOL     OW26497   4.594   1.439  17.207 -0.0855 -0.6998  0.7918
 5013SOL    HW126498   4.531   1.370  17.226 -0.6171 -0.5124 -0.2896
 5013SOL    HW226499   4.675   1.408  17.247  1.7511  1.0904 -1.5171
 5014SOL     OW26500   2.690   2.082   7.209  0.3510  0.2545 -0.3018
 5014SOL    HW126501   2.612   2.026   7.220 -0.3754  2.1625  4.0984
 5014SOL    HW226502   2.653   2.161   7.169 -1.8584 -0.4768  0.3055
 5015SOL     OW26503   3.755   2.868   0.354 -0.0521  0.1061  0.0363
 5015SOL    HW126504   3.765   2.799   0.288 -0.0282  1.5463 -1.4458
 5015SOL    HW226505   3.840   2.867   0.398  0.0409 -2.2526 -0.1671
 5016SOL     OW26506   4.071   2.742   5.760  0.6008 -0.2141  0.5215
 5016SOL    HW126507   4.125   2.778   5.690  0.6577 -3.4079 -1.0714
 5016SOL    HW226508   3.996   2.801   5.754  0.5433 -0.3344  0.0534
 5017SOL     OW26509   0.572   2.711   5.410  0.0558  0.2224  0.0087
 5017SOL    HW126510   0.572   2.676   5.499 -1.4490  0.2949  0.0377
 5017SOL    HW226511   0.478   2.712   5.387  0.3900  0.7059 -1.3460
 5018SOL     OW26512   0.442   4.650   7.442 -0.3733 -0.3023 -0.8623
 5018SOL    HW126513   0.415   4.574   7.494  0.3116 -0.1827 -0.3281
 5018SOL    HW226514   0.427   4.724   7.501 -1.6070  0.0078 -1.5600
 5019SOL     OW26515   1.993   1.797   5.371 -0.1549  0.8641 -0.1973
 5019SOL    HW126516   1.966   1.821   5.282  1.6429 -2.9248 -1.7762
 5019SOL    HW226517   1.910   1.760   5.401  0.3323  0.2498  0.4084
 5020SOL     OW26518   3.851   0.313   5.672  0.4357  0.5227  0.1994
 5020SOL    HW126519   3.853   0.242   5.608  0.3459 -0.4454  1.2586
 5020SOL    HW226520   3.760   0.340   5.666 -0.3692 -1.8003  1.8493
 5021SOL     OW26521   4.708   3.648   4.090  0.0845 -0.1807  0.1911
 5021SOL    HW126522   0.030   3.576   4.133  1.4078  2.0861  2.5656
 5021SOL    HW226523   0.055   3.680   4.035  0.9418  2.2945  2.7297
 5022SOL     OW26524   2.997   0.698  10.510 -0.2480 -0.1577 -0.4664
 5022SOL    HW126525   3.009   0.625  10.572 -0.6528  0.5978  0.4895
 5022SOL    HW226526   2.933   0.752  10.555 -0.2034  0.3159 -0.9662
 5023SOL     OW26527   3.404   3.668   8.429  0.0952 -0.3971 -0.5288
 5023SOL    HW126528   3.416   3.691   8.337 -1.8706  1.5303 -0.3103
 5023SOL    HW226529   3.482   3.712   8.465 -0.0537  0.0901 -0.8087
 5024SOL     OW26530   3.340   2.259   7.702  0.4098  0.0727 -0.4813
 5024SOL    HW126531   3.364   2.190   7.765 -0.9737 -0.4183 -0.4840
 5024SOL    HW226532   3.246   2.257   7.720  0.4478 -0.1118 -0.2926
 5025SOL     OW26533   0.460   2.391  10.592 -0.6197 -0.1208  0.2283
 5025SOL    HW126534   0.533   2.420  10.647  1.7467 -0.5212 -2.6730
 5025SOL    HW226535   0.402   2.350  10.656  0.5709  0.5750  1.7670
 5026SOL     OW26536   1.038   1.243   6.219 -0.0482 -0.0034 -0.1281
 5026SOL    HW126537   1.132   1.262   6.223  0.4040 -1.9418 -1.3209
 5026SOL    HW226538   1.029   1.220   6.126 -0.7861  0.5374 -0.1888
 5027SOL     OW26539   4.448   2.131   2.952  0.0994 -0.2932 -0.3854
 5027SOL    HW126540   4.420   2.101   2.865 -1.3743  0.0005 -0.0053
 5027SOL    HW226541   4.473   2.222   2.932 -0.9297 -0.5465 -2.8481
 5028SOL     OW26542   3.126   4.589   2.605 -0.0805 -0.5183  0.2386
 5028SOL    HW126543   3.163   4.551   2.684 -0.2784 -2.2941 -0.5022
 5028SOL    HW226544   3.164   4.531   2.539  0.7364  1.2634 -0.8618
 5029SOL     OW26545   2.903   4.207   3.649 -0.5288 -0.2349 -0.4003
 5029SOL    HW126546   2.918   4.228   3.741  0.3440  0.5514 -0.7201
 5029SOL    HW226547   2.983   4.245   3.612  0.8487 -1.6743  1.0476
 5030SOL     OW26548   2.971   0.588   2.440  0.7792 -0.0694  0.1791
 5030SOL    HW126549   3.046   0.586   2.381 -0.9767  0.3459 -2.0803
 5030SOL    HW226550   2.915   0.516   2.410  0.8908  0.2595 -0.8175
 5031SOL     OW26551   2.847   0.294   5.893 -0.2859 -0.0337  0.4762
 5031SOL    HW126552   2.914   0.252   5.948 -0.8192  0.1702  1.2908
 5031SOL    HW226553   2.877   0.278   5.804 -0.4530 -1.5252  0.6786
 5032SOL     OW26554   4.369   3.478   0.753  0.2136 -0.4606 -0.1104
 5032SOL    HW126555   4.357   3.545   0.686  1.0423 -1.9689 -1.7508
 5032SOL    HW226556   4.329   3.404   0.708  0.9551  0.7492 -2.7455
 5033SOL     OW26557   1.012   2.288  16.766 -0.3838 -0.6227  0.3183
 5033SOL    HW126558   1.032   2.323  16.853 -1.1865 -1.3747  0.8095
 5033SOL    HW226559   1.097   2.268  16.727  0.1168 -0.3198  1.2493
 5034SOL     OW26560   1.323   3.117   2.362  0.1320  0.2982  0.1305
 5034SOL    HW126561   1.275   3.065   2.426  0.3516  0.2576  0.2619
 5034SOL    HW226562   1.254   3.172   2.325  2.4633  2.6069 -0.8057
 5035SOL     OW26563   4.623   3.320  16.777  0.2945 -0.3205  0.9723
 5035SOL    HW126564   4.691   3.350  16.837  1.9791 -2.4268  0.1226
 5035SOL    HW226565   4.603   3.249  16.839  1.3392 -1.3757  0.1091
 5036SOL     OW26566   0.683   2.618   0.846 -0.4847  0.4372  0.3690
 5036SOL    HW126567   0.760   2.666   0.816 -0.0131 -0.3734  0.2947
 5036SOL    HW226568   0.618   2.654   0.786  0.5580 -1.4587 -1.8950
 5037SOL     OW26569   3.128   3.672   1.843 -0.5324  0.0835 -0.1738
 5037SOL    HW126570   3.036   3.659   1.819 -0.8241  0.1358  0.9235
 5037SOL    HW226571   3.119   3.752   1.894 -0.3462  0.7677 -1.2033
 5038SOL     OW26572   0.046   1.366   9.124  0.4367 -0.2019  0.2144
 5038SOL    HW126573   0.083   1.443   9.168 -0.3728  0.2980  0.0217
 5038SOL    HW226574   0.079   1.295   9.178 -0.2895  0.6588  1.8023
 5039SOL     OW26575   4.408   2.315   4.053 -0.0291 -0.0320 -0.1241
 5039SOL    HW126576   4.471   2.358   4.110  0.4722 -1.5039  0.4303
 5039SOL    HW226577   4.445   2.229   4.034 -0.1278 -0.0270 -0.3425
 5040SOL     OW26578   1.242   3.210   0.363  0.1056 -0.4791 -0.0590
 5040SOL    HW126579   1.228   3.116   0.361 -1.1129 -0.2787 -0.9070
 5040SOL    HW226580   1.299   3.206   0.440 -1.4023 -1.6237  1.0056
 5041SOL     OW26581   2.390   1.006   6.461  0.0224 -0.3769  0.2909
 5041SOL    HW126582   2.324   0.941   6.485  0.0305 -0.4737  0.0543
 5041SOL    HW226583   2.352   1.054   6.388 -1.2795  0.8497  1.8002
 5042SOL     OW26584   2.884   0.442  11.962  0.4210  0.8838  0.0801
 5042SOL    HW126585   2.936   0.508  12.008 -1.2528  2.4998 -0.3307
 5042SOL    HW226586   2.792   0.464  11.979  0.2648 -0.3411  0.8172
 5043SOL     OW26587   3.406   4.384   7.569 -0.3978  0.0212 -0.0125
 5043SOL    HW126588   3.381   4.399   7.660 -1.3641 -1.5046 -0.0234
 5043SOL    HW226589   3.486   4.332   7.572 -0.3423  0.0718 -0.6202
 5044SOL     OW26590   4.179   4.172   6.301  0.5056 -0.4896  0.0167
 5044SOL    HW126591   4.265   4.167   6.259  0.0211 -1.2640 -0.8887
 5044SOL    HW226592   4.138   4.085   6.299 -0.0080 -0.2456  0.0669
 5045SOL     OW26593   4.021   1.597  10.996 -0.1304  0.6946  0.7225
 5045SOL    HW126594   3.956   1.554  10.941  0.7279  2.0129 -1.3114
 5045SOL    HW226595   4.009   1.688  10.968 -0.5871  0.2626 -0.4496
 5046SOL     OW26596   1.592   3.314  13.354  0.8419  0.3505 -0.3805
 5046SOL    HW126597   1.625   3.303  13.444 -0.2063  1.3196  0.1257
 5046SOL    HW226598   1.497   3.300  13.362  0.5891  1.9398 -0.5222
 5047SOL     OW26599   3.169   3.937   5.676 -0.4624  0.3253 -0.5353
 5047SOL    HW126600   3.229   3.933   5.750  1.0423  1.7769 -1.6790
 5047SOL    HW226601   3.114   3.858   5.683 -0.3225  0.4569  1.7716
 5048SOL     OW26602   4.484   4.055  10.620 -0.7780 -0.1166  0.4734
 5048SOL    HW126603   4.542   4.088  10.551 -1.2408  0.6102  0.4351
 5048SOL    HW226604   4.398   4.063  10.579 -0.3562  0.1336 -0.3433
 5049SOL     OW26605   0.515   3.753   7.711 -0.6593 -0.6655 -0.3394
 5049SOL    HW126606   0.609   3.745   7.694 -0.3101 -1.0870  1.7351
 5049SOL    HW226607   0.495   3.846   7.699 -0.3332 -0.6940 -1.1199
 5050SOL     OW26608   4.370   3.927  17.033 -0.2123  0.0084 -0.0580
 5050SOL    HW126609   4.316   4.006  17.040 -0.7561 -0.6955  3.8442
 5050SOL    HW226610   4.438   3.952  17.095 -1.4597  2.3128  0.3802
 5051SOL     OW26611   2.120   2.711  12.800  0.0625 -0.4959 -0.3170
 5051SOL    HW126612   2.118   2.806  12.817  1.4531 -0.5751  0.2611
 5051SOL    HW226613   2.213   2.702  12.784 -0.1933 -2.7941 -0.4492
 5052SOL     OW26614   2.387   2.401   5.012 -0.0420  0.6611  0.0393
 5052SOL    HW126615   2.446   2.329   4.990  1.8864  1.7428  1.6796
 5052SOL    HW226616   2.365   2.446   4.930  1.5810 -0.1109 -0.8279
 5053SOL     OW26617   1.810   1.135  13.290 -0.2782  0.0981  0.4989
 5053SOL    HW126618   1.868   1.137  13.366 -0.4312 -0.3802  0.6246
 5053SOL    HW226619   1.868   1.090  13.229 -0.0723 -0.1437  0.8741
 5054SOL     OW26620   0.228   4.330   4.502 -0.0486 -0.2586 -0.9478
 5054SOL    HW126621   0.259   4.411   4.461  3.6184  0.1029  2.4945
 5054SOL    HW226622   0.294   4.320   4.570 -0.1597  0.1179 -0.7859
 5055SOL     OW26623   0.985   2.736  11.378 -0.1741 -0.3766 -0.1008
 5055SOL    HW126624   1.039   2.662  11.403 -0.1869 -0.6439 -0.8534
 5055SOL    HW226625   0.980   2.722  11.284 -0.3483 -0.2364 -0.1137
 5056SOL     OW26626   1.033   3.144  17.610 -0.3579 -0.4438 -0.0296
 5056SOL    HW126627   1.049   3.100  17.527  1.8880 -0.7623  0.5686
 5056SOL    HW226628   1.043   3.237  17.592  1.4301 -0.7950 -0.9200
 5057SOL     OW26629   2.824   2.334   6.344  0.1480 -0.1019 -0.3573
 5057SOL    HW126630   2.779   2.418   6.343 -0.1091 -0.2577 -1.5976
 5057SOL    HW226631   2.920   2.339   6.344  0.0669  1.5172  1.3810
 5058SOL     OW26632   1.018   2.397   7.213 -0.1691 -0.1428 -0.4080
 5058SOL    HW126633   1.039   2.414   7.121 -2.1298  2.1534 -0.3919
 5058SOL    HW226634   0.928   2.428   7.212 -0.1903 -0.1697  0.2989
 5059SOL     OW26635   3.816   1.973   2.274 -0.3266  0.2538  0.1742
 5059SOL    HW126636   3.865   1.912   2.219  0.1328 -0.7519  1.6989
 5059SOL    HW226637   3.735   1.923   2.267 -0.5950  0.8641 -1.1080
 5060SOL     OW26638   3.634   2.553   2.580  0.4416 -0.2799 -0.3268
 5060SOL    HW126639   3.549   2.529   2.617  1.0152 -0.9939  0.5273
 5060SOL    HW226640   3.699   2.517   2.641 -0.4895  0.2143  0.9451
 5061SOL     OW26641   0.505   3.614   6.759  0.5060 -0.5113 -1.1617
 5061SOL    HW126642   0.600   3.620   6.764  0.2194  3.4576 -0.4994
 5061SOL    HW226643   0.483   3.707   6.771 -0.7881 -1.0182  0.3431
 5062SOL     OW26644   1.315   0.993   5.348 -0.2491 -0.5896 -0.0730
 5062SOL    HW126645   1.402   0.952   5.354 -0.1713 -0.5527 -0.9730
 5062SOL    HW226646   1.319   1.046   5.268  1.6604  1.5580  1.4472
 5063SOL     OW26647   0.340   1.608   4.720 -0.9733 -0.4905 -0.3003
 5063SOL    HW126648   0.416   1.665   4.731 -0.6215 -1.0833  0.3256
 5063SOL    HW226649   0.383   1.538   4.671 -0.0406 -1.2103  1.5617
 5064SOL     OW26650   2.550   4.364   9.392  0.5729  0.4354 -0.2242
 5064SOL    HW126651   2.604   4.390   9.317 -0.6140 -3.6090 -2.4814
 5064SOL    HW226652   2.570   4.270   9.394  1.9611  0.7437  0.1077
 5065SOL     OW26653   4.504   3.575  10.966 -0.3135 -0.8670 -0.1490
 5065SOL    HW126654   4.551   3.646  10.922 -3.5603  0.6447 -1.2014
 5065SOL    HW226655   4.441   3.559  10.896 -0.4768  0.8194 -0.3940
 5066SOL     OW26656   1.646   4.369   7.100  0.7896 -0.2514 -0.2804
 5066SOL    HW126657   1.735   4.376   7.068  1.1922  1.2881  1.1841
 5066SOL    HW226658   1.650   4.300   7.166  0.0931  1.9405  2.0620
 5067SOL     OW26659   2.890   3.886  15.013 -0.2621  0.3542 -0.1051
 5067SOL    HW126660   2.977   3.854  14.987 -0.3266 -0.6928  0.9690
 5067SOL    HW226661   2.838   3.808  15.034  1.4731 -0.4153  1.3261
 5068SOL     OW26662   3.850   0.644   4.007  0.4030 -0.1456 -0.2923
 5068SOL    HW126663   3.766   0.685   3.988 -0.3212 -0.2859  2.6446
 5068SOL    HW226664   3.826   0.569   4.061 -0.4491 -0.5092 -1.1821
 5069SOL     OW26665   3.916   1.855   4.806 -0.1205 -0.5010  0.5890
 5069SOL    HW126666   3.866   1.789   4.853 -0.4565 -0.0291  0.8945
 5069SOL    HW226667   3.970   1.896   4.874  0.0146 -4.6619  2.9766
 5070SOL     OW26668   4.449   3.841   8.771 -0.2870 -0.0463 -0.7693
 5070SOL    HW126669   4.435   3.930   8.738  2.6851  0.6520 -0.1664
 5070SOL    HW226670   4.393   3.834   8.848  1.8671 -2.0722  0.5982
 5071SOL     OW26671   0.735   3.605   0.525  0.5134  0.5471 -0.3290
 5071SOL    HW126672   0.674   3.654   0.470  0.1405  1.8282  1.2173
 5071SOL    HW226673   0.756   3.671   0.592  1.1718 -1.1264  1.1161
 5072SOL     OW26674   3.726   0.218   4.923 -0.4973 -0.2934  0.6632
 5072SOL    HW126675   3.648   0.252   4.878 -0.0498  0.2176  0.2697
 5072SOL    HW226676   3.691   0.237   5.009  0.6601  0.1430  1.0346
 5073SOL     OW26677   2.981   0.789  11.621  0.7198 -0.3398  0.3346
 5073SOL    HW126678   2.928   0.869  11.625  1.9430  0.3264  3.5314
 5073SOL    HW226679   3.058   0.816  11.571  1.1119  1.2438  1.7754
 5074SOL     OW26680   3.487   1.609  16.831  0.3346 -0.5094  0.1357
 5074SOL    HW126681   3.394   1.602  16.810 -0.1114 -0.2791  1.9648
 5074SOL    HW226682   3.512   1.701  16.840  0.0636 -0.3186 -1.0560
 5075SOL     OW26683   3.829   0.773   5.029 -0.0295 -0.3821  0.1439
 5075SOL    HW126684   3.898   0.716   5.063  1.5613  1.8832  0.6928
 5075SOL    HW226685   3.886   0.850   5.037 -0.4649  0.1492 -1.9397
 5076SOL     OW26686   2.032   4.642   6.170 -0.0726  0.5591 -0.0829
 5076SOL    HW126687   2.073   4.610   6.089 -2.1684  0.1604 -0.9647
 5076SOL    HW226688   1.946   4.665   6.136 -0.2749 -1.0947 -0.6921
 5077SOL     OW26689   2.261   2.214   9.396 -0.5546 -0.3719  0.5996
 5077SOL    HW126690   2.211   2.140   9.432 -1.0068  0.1988  1.1387
 5077SOL    HW226691   2.242   2.284   9.458 -2.4756 -2.4600  2.3573
 5078SOL     OW26692   0.277   0.210   9.833 -0.8470 -0.5689 -0.2223
 5078SOL    HW126693   0.355   0.227   9.886 -0.1637 -1.0897 -1.0568
 5078SOL    HW226694   0.268   0.291   9.784  1.3030  0.7879  1.5907
 5079SOL     OW26695   1.284   3.895   4.028 -0.2981  0.0985 -0.2902
 5079SOL    HW126696   1.273   3.846   3.946  0.5524  3.3300 -2.3306
 5079SOL    HW226697   1.310   3.980   3.993 -1.6875  1.0818  1.1006
 5080SOL     OW26698   2.217   0.500   2.831 -0.8393  0.0807 -0.2903
 5080SOL    HW126699   2.208   0.538   2.743  0.2346  0.7298 -0.1125
 5080SOL    HW226700   2.286   0.558   2.861  2.3646 -4.3709  0.9286
 5081SOL     OW26701   1.406   3.023  16.744  0.1609 -0.8490 -0.1252
 5081SOL    HW126702   1.466   3.064  16.807  0.3564 -0.3436 -0.6448
 5081SOL    HW226703   1.327   3.076  16.744  0.7870  0.0955 -0.2628
 5082SOL     OW26704   3.663   3.628  16.094 -0.2678  0.3176  0.2735
 5082SOL    HW126705   3.696   3.699  16.039 -0.0717 -0.5612 -0.7361
 5082SOL    HW226706   3.695   3.649  16.182 -0.9716 -1.7748  1.0119
 5083SOL     OW26707   2.534   2.695   7.871  0.0197 -0.1128  0.2536
 5083SOL    HW126708   2.488   2.775   7.897  0.4097  0.3187 -0.4131
 5083SOL    HW226709   2.488   2.671   7.791  2.6679 -0.1057 -1.2415
 5084SOL     OW26710   0.700   3.840   0.223  0.1209  0.1693 -0.1088
 5084SOL    HW126711   0.657   3.802   0.300  1.7394  0.0437  0.7391
 5084SOL    HW226712   0.700   3.770   0.158  1.6850  1.0542 -1.0485
 5085SOL     OW26713   4.315   3.218   8.477 -0.6646  0.1895 -0.3819
 5085SOL    HW126714   4.241   3.275   8.454 -2.6269 -1.1361  2.6532
 5085SOL    HW226715   4.321   3.237   8.571 -0.9828 -0.1673 -0.2896
 5086SOL     OW26716   0.441   0.546   6.003 -0.3691 -0.2420 -0.1978
 5086SOL    HW126717   0.372   0.557   5.937 -2.0205 -0.3956  1.5171
 5086SOL    HW226718   0.511   0.600   5.967  0.4570 -2.1674 -1.4619
 5087SOL     OW26719   0.459   4.368   4.181  0.3308 -0.2235 -0.0146
 5087SOL    HW126720   0.370   4.400   4.184 -0.4478 -2.3778  0.1401
 5087SOL    HW226721   0.459   4.305   4.253 -0.9050  0.4788  0.5749
 5088SOL     OW26722   1.119   4.207   7.048 -0.0716  0.4062  0.0582
 5088SOL    HW126723   1.206   4.222   7.011 -1.1323 -0.1325 -2.6490
 5088SOL    HW226724   1.084   4.141   6.988  1.2452 -0.3240  0.0770
 5089SOL     OW26725   0.069   0.092   9.135  0.0983 -0.3374 -0.4657
 5089SOL    HW126726   4.710   0.138   9.143  0.6096  0.6737 -0.8623
 5089SOL    HW226727   0.067   0.078   9.041 -1.7812 -0.1732 -0.4475
 5090SOL     OW26728   2.229   4.101   7.457  0.1320 -0.0974  0.2918
 5090SOL    HW126729   2.239   4.107   7.362  1.4442 -0.5922  0.3998
 5090SOL    HW226730   2.204   4.190   7.482 -2.4461 -0.4442 -1.0174
 5091SOL     OW26731   1.729   0.281   5.296 -0.2297  0.0389 -0.6165
 5091SOL    HW126732   1.696   0.361   5.337 -0.0496 -0.8651  1.2643
 5091SOL    HW226733   1.716   0.302   5.204 -3.7981  1.3357  0.1985
 5092SOL     OW26734   2.338   2.818   1.419 -0.1274 -0.1195  0.2298
 5092SOL    HW126735   2.316   2.747   1.480 -1.0823  0.0073  0.0327
 5092SOL    HW226736   2.333   2.772   1.336  0.6450  0.5548 -0.1917
 5093SOL     OW26737   1.489   2.519   4.698 -0.1189 -0.4485 -0.1064
 5093SOL    HW126738   1.564   2.522   4.758 -1.3025 -0.0496  1.3396
 5093SOL    HW226739   1.516   2.590   4.639 -0.5881  0.4710  0.8078
 5094SOL     OW26740   1.641   4.132   2.370  0.7093  0.6157  0.3921
 5094SOL    HW126741   1.569   4.184   2.335 -0.4883 -1.7773 -0.7556
 5094SOL    HW226742   1.722   4.180   2.353  0.3154  1.9907  2.4340
 5095SOL     OW26743   2.436   2.282   0.404 -0.0754 -0.1864  0.0248
 5095SOL    HW126744   2.425   2.356   0.464  0.4064  0.3879 -0.5869
 5095SOL    HW226745   2.354   2.290   0.356 -0.9564 -0.3765  1.5176
 5096SOL     OW26746   3.201   4.016   5.414  0.1878  0.0013 -0.1184
 5096SOL    HW126747   3.276   4.073   5.428 -0.5754  1.0627 -0.3044
 5096SOL    HW226748   3.184   4.001   5.507  1.1678 -1.5990 -0.2111
 5097SOL     OW26749   4.617   2.839   7.674 -0.2305 -1.3515 -0.1171
 5097SOL    HW126750   4.673   2.868   7.746 -2.2782  2.2823 -0.0191
 5097SOL    HW226751   4.531   2.880   7.684  2.2537  3.2377  2.5322
 5098SOL     OW26752   1.433   1.206   3.517 -0.2542 -0.1784 -0.0262
 5098SOL    HW126753   1.353   1.198   3.569 -0.1148  0.3324  0.2640
 5098SOL    HW226754   1.475   1.121   3.534  0.9788  0.3166 -0.6074
 5099SOL     OW26755   1.601   4.367   1.775 -0.4159 -0.5983 -0.0584
 5099SOL    HW126756   1.677   4.312   1.794 -0.7614 -1.4696 -1.1927
 5099SOL    HW226757   1.546   4.368   1.853  0.3729  1.6179  0.4574
 5100SOL     OW26758   4.206   0.892   5.011 -0.1456 -0.6142  0.1035
 5100SOL    HW126759   4.152   0.956   5.057 -0.1329  0.1120 -0.8977
 5100SOL    HW226760   4.154   0.818   5.043 -0.8042  0.0706  0.6075
 5101SOL     OW26761   0.232   1.323   8.879  0.2470  0.4342 -0.2506
 5101SOL    HW126762   0.191   1.398   8.835  0.9176  0.9688  0.0350
 5101SOL    HW226763   0.181   1.321   8.959  2.3460  3.1991  1.1437
 5102SOL     OW26764   3.735   2.879  15.684 -0.6021 -0.0096  0.1854
 5102SOL    HW126765   3.703   2.789  15.684 -0.0756 -0.1849  2.4083
 5102SOL    HW226766   3.758   2.887  15.777 -0.0897  2.7187 -0.1579
 5103SOL     OW26767   2.935   1.158   4.161  0.4189 -0.0371  0.0549
 5103SOL    HW126768   3.025   1.187   4.178 -0.3909  2.2259  0.5661
 5103SOL    HW226769   2.895   1.244   4.148  1.1935  0.3224  0.0476
 5104SOL     OW26770   0.730   1.721  17.142  0.3225  0.2012 -0.2564
 5104SOL    HW126771   0.709   1.764  17.225 -1.0319 -1.3262  0.1796
 5104SOL    HW226772   0.698   1.789  17.082 -1.8006 -0.6793 -0.0871
 5105SOL     OW26773   1.966   1.805  12.613  0.5182  0.3374 -0.0456
 5105SOL    HW126774   1.928   1.792  12.700  0.5449 -1.2379 -0.2726
 5105SOL    HW226775   1.949   1.898  12.594 -0.6140  0.0386 -0.4831
 5106SOL     OW26776   3.233   2.660   3.618  0.8462 -0.0718  0.3183
 5106SOL    HW126777   3.302   2.627   3.560 -0.9627 -1.5997 -0.9518
 5106SOL    HW226778   3.277   2.725   3.673  0.4100  0.7111 -0.2610
 5107SOL     OW26779   3.175   2.655   3.968  0.1207 -0.5144 -0.5838
 5107SOL    HW126780   3.256   2.650   4.019  1.7250  1.4260 -2.9170
 5107SOL    HW226781   3.122   2.585   4.006  0.4668  0.0931  1.0479
 5108SOL     OW26782   1.227   1.669  15.961 -0.0479  0.5759  0.1432
 5108SOL    HW126783   1.177   1.699  15.886 -0.9145 -2.7297 -0.6080
 5108SOL    HW226784   1.277   1.751  15.966  0.5617  0.3261 -1.7685
 5109SOL     OW26785   3.448   4.536  10.891  0.4233  0.3240 -0.0873
 5109SOL    HW126786   3.484   4.624  10.883 -0.2799  0.4884 -1.4266
 5109SOL    HW226787   3.394   4.536  10.813  0.5426 -1.4957 -0.1640
 5110SOL     OW26788   3.840   4.295   6.337  0.2011 -0.3289 -0.2557
 5110SOL    HW126789   3.919   4.348   6.349  0.4353 -0.6287 -0.4609
 5110SOL    HW226790   3.877   4.227   6.281 -0.9724 -1.0461 -0.1512
 5111SOL     OW26791   3.184   3.992   5.149 -0.0500 -0.4247  0.0942
 5111SOL    HW126792   3.092   4.017   5.136  0.2940  0.2055 -1.1703
 5111SOL    HW226793   3.182   4.007   5.243 -0.9295  0.9935 -0.1381
 5112SOL     OW26794   0.561   2.810  12.178 -0.2130  0.0031 -0.0894
 5112SOL    HW126795   0.545   2.902  12.199  0.2195 -0.4191  1.9820
 5112SOL    HW226796   0.574   2.828  12.084 -1.7321 -2.1086 -0.6998
 5113SOL     OW26797   0.023   3.225   8.564 -0.0674  0.2305  0.1940
 5113SOL    HW126798   4.690   3.170   8.617  0.9058 -0.1830  0.8249
 5113SOL    HW226799   0.092   3.240   8.629  1.6959  0.1348 -1.6356
 5114SOL     OW26800   4.089   2.743   5.373  0.1080  0.3511 -0.6058
 5114SOL    HW126801   4.161   2.775   5.427  0.4318 -0.8740 -0.3094
 5114SOL    HW226802   4.136   2.711   5.297  0.8958 -0.1521  0.0921
 5115SOL     OW26803   0.617   0.649   3.749 -0.0767 -0.2017 -0.0381
 5115SOL    HW126804   0.535   0.663   3.795  0.4184  0.8001  0.5603
 5115SOL    HW226805   0.647   0.566   3.787  0.7803 -0.0212 -0.3243
 5116SOL     OW26806   0.453   1.285   1.607  0.7382 -0.2015 -0.1240
 5116SOL    HW126807   0.537   1.294   1.564 -0.0028  0.2738 -1.4642
 5116SOL    HW226808   0.396   1.282   1.530 -2.6346 -1.2096  2.4037
 5117SOL     OW26809   3.565   0.273   0.248 -0.2288  0.1374 -0.5883
 5117SOL    HW126810   3.637   0.215   0.275 -0.1233  0.2421 -0.6438
 5117SOL    HW226811   3.491   0.212   0.248 -0.5446  0.5219 -0.3729
 5118SOL     OW26812   1.250   3.723   8.903  0.3933  0.7935  0.1877
 5118SOL    HW126813   1.300   3.651   8.940  1.1001 -0.9223 -4.1591
 5118SOL    HW226814   1.289   3.741   8.818  0.3688 -0.4131 -0.0656
 5119SOL     OW26815   2.515   2.126   8.471  0.0682 -0.9646  0.4153
 5119SOL    HW126816   2.535   2.035   8.493  0.9921 -0.5864  1.1137
 5119SOL    HW226817   2.449   2.109   8.404  0.7545 -0.2565 -0.4186
 5120SOL     OW26818   1.733   1.783   3.522 -0.7824  0.5524  0.1923
 5120SOL    HW126819   1.805   1.843   3.544 -0.4671  0.1690  0.2008
 5120SOL    HW226820   1.738   1.725   3.598  0.0582 -1.0513 -1.0823
 5121SOL     OW26821   0.227   4.508  17.487  0.1001 -0.0083  0.1689
 5121SOL    HW126822   0.297   4.574  17.490 -1.1432  1.2790  1.1778
 5121SOL    HW226823   0.226   4.484  17.394  0.7352  2.7972 -0.5800
 5122SOL     OW26824   4.032   0.122  16.328  0.1446  0.0655 -0.6468
 5122SOL    HW126825   4.085   0.177  16.387 -0.1751  0.4926 -0.7606
 5122SOL    HW226826   3.942   0.149  16.346  0.4961  0.9165 -0.1535
 5123SOL     OW26827   4.564   0.817   6.693  0.2311 -0.1501  0.2959
 5123SOL    HW126828   4.617   0.859   6.625  1.1321  0.4090  1.3407
 5123SOL    HW226829   4.473   0.849   6.692  0.0735 -0.5855  0.7782
 5124SOL     OW26830   1.751   1.852   6.835 -0.1357  0.0432 -0.0960
 5124SOL    HW126831   1.694   1.871   6.909 -1.3817 -0.7013 -0.8694
 5124SOL    HW226832   1.697   1.786   6.791 -2.3356  0.0902  2.5250
 5125SOL     OW26833   3.770   2.912  11.117  0.2197 -0.1224  0.1709
 5125SOL    HW126834   3.752   2.925  11.024  0.7161 -0.3639  0.0376
 5125SOL    HW226835   3.802   2.995  11.153 -1.4427  0.3383  0.5624
 5126SOL     OW26836   1.215   2.852   6.722  0.3816 -0.1446  0.4389
 5126SOL    HW126837   1.187   2.805   6.801  1.5153 -2.5344 -0.5768
 5126SOL    HW226838   1.300   2.816   6.698  1.0101  0.0715  2.3362
 5127SOL     OW26839   0.590   3.858  13.158  0.7280  0.4283 -0.0250
 5127SOL    HW126840   0.610   3.860  13.251  0.7506 -0.5862 -0.0085
 5127SOL    HW226841   0.525   3.788  13.162  1.5340 -0.4008 -1.6009
 5128SOL     OW26842   4.635   1.080  15.538 -0.1051  0.1691  0.3752
 5128SOL    HW126843   4.579   1.155  15.558 -1.1766 -0.4989 -0.0963
 5128SOL    HW226844   4.581   1.009  15.572 -0.3440  0.3712  0.4116
 5129SOL     OW26845   0.002   1.541   7.285  0.3204 -0.8386 -0.1058
 5129SOL    HW126846   0.025   1.472   7.348  0.0065 -0.2474  0.6554
 5129SOL    HW226847   0.079   1.598   7.292 -0.9646  0.7334  1.0559
 5130SOL     OW26848   2.952   3.562   5.462  0.5785 -0.1166  0.1974
 5130SOL    HW126849   3.018   3.631   5.454 -0.0851  0.5813  0.6372
 5130SOL    HW226850   2.973   3.504   5.389  0.6157 -0.6646  0.6434
 5131SOL     OW26851   0.402   3.190   0.944  0.7047  0.2839  0.4657
 5131SOL    HW126852   0.377   3.176   0.853 -1.1148  2.0135  0.6867
 5131SOL    HW226853   0.461   3.264   0.935  1.3434  0.0614  2.7028
 5132SOL     OW26854   1.078   1.477   3.099  0.4401 -0.1127 -0.1415
 5132SOL    HW126855   1.078   1.417   3.025 -1.1486 -0.4211  0.1091
 5132SOL    HW226856   1.168   1.471   3.133  0.6508  1.5411 -0.3834
 5133SOL     OW26857   2.389   1.609   2.676 -0.4058  0.0562 -0.0579
 5133SOL    HW126858   2.358   1.693   2.709  3.0941  1.8121 -1.2800
 5133SOL    HW226859   2.388   1.552   2.753 -2.1884 -1.7146 -1.3750
 5134SOL     OW26860   2.769   4.425  12.351 -0.5451  0.2153  0.3137
 5134SOL    HW126861   2.707   4.393  12.284 -0.1973 -0.5925  0.3762
 5134SOL    HW226862   2.713   4.495  12.384  0.5402  1.2407 -0.0375
 5135SOL     OW26863   4.104   0.681   5.416 -0.0551 -0.9782  0.9125
 5135SOL    HW126864   4.042   0.735   5.366  2.5456  0.6533 -0.5092
 5135SOL    HW226865   4.178   0.716   5.367 -1.0281  0.9647  0.8054
 5136SOL     OW26866   1.106   2.100   8.194 -0.3078 -0.5178  0.0907
 5136SOL    HW126867   1.163   2.092   8.271 -3.4302  0.2273  2.4733
 5136SOL    HW226868   1.066   2.186   8.201  2.0598  0.7063 -1.6296
 5137SOL     OW26869   1.296   3.753  15.990  0.0680 -0.0754  0.1305
 5137SOL    HW126870   1.281   3.666  15.952  1.9754 -1.5112  2.6452
 5137SOL    HW226871   1.390   3.760  15.974  0.0492 -0.4601 -0.1530
 5138SOL     OW26872   3.415   4.592   2.206  0.0594 -0.0533 -0.0335
 5138SOL    HW126873   3.457   4.515   2.168  0.1199  0.4988 -1.0721
 5138SOL    HW226874   3.475   4.613   2.278 -0.8961  0.2883  0.6619
 5139SOL     OW26875   4.462   0.159  10.757 -0.0384  0.3114 -0.4468
 5139SOL    HW126876   4.431   0.172  10.847  0.1362 -1.8642 -0.0637
 5139SOL    HW226877   4.530   0.097  10.784  1.1087  1.7157 -0.0969
 5140SOL     OW26878   1.957   3.525   1.077  0.3178  0.1852 -0.3337
 5140SOL    HW126879   2.042   3.542   1.037  0.3425  0.2501 -0.2546
 5140SOL    HW226880   1.913   3.609   1.070  0.9588  0.5118 -0.4940
 5141SOL     OW26881   2.312   2.739   2.305 -0.2362  0.0378 -0.4493
 5141SOL    HW126882   2.238   2.796   2.326  0.3882  1.3499 -1.8292
 5141SOL    HW226883   2.368   2.742   2.383  2.0840 -0.1167 -2.0963
 5142SOL     OW26884   1.796   1.575   0.825  0.4717  0.2391 -0.2792
 5142SOL    HW126885   1.878   1.567   0.776  0.8566 -0.7361  0.5139
 5142SOL    HW226886   1.823   1.650   0.879 -0.6881  1.7513 -1.8040
 5143SOL     OW26887   3.990   3.239   5.859 -0.6259 -0.0771 -0.1778
 5143SOL    HW126888   4.009   3.292   5.937 -0.8203 -0.2130 -0.0393
 5143SOL    HW226889   3.953   3.166   5.908 -1.8963  0.4504 -0.3462
 5144SOL     OW26890   3.644   1.381  16.017  0.2874  0.2342  0.0514
 5144SOL    HW126891   3.615   1.420  15.935  2.4549  1.5978 -0.0620
 5144SOL    HW226892   3.571   1.390  16.079 -0.7643 -2.9818 -0.7205
 5145SOL     OW26893   0.908   2.140  10.270 -0.2105  0.0362  0.2182
 5145SOL    HW126894   0.976   2.072  10.271 -0.5790 -0.3269  0.5900
 5145SOL    HW226895   0.838   2.079  10.245  1.1986 -1.1727 -0.8669
 5146SOL     OW26896   2.340   3.516   1.734 -0.6411  0.3699  0.0780
 5146SOL    HW126897   2.406   3.586   1.736 -1.0936  0.7660  1.2567
 5146SOL    HW226898   2.380   3.431   1.748 -1.1607  0.3440  1.4673
 5147SOL     OW26899   1.048   4.215   3.891  0.4972  0.0738 -0.0510
 5147SOL    HW126900   0.976   4.279   3.893  0.7999  0.4166 -0.0998
 5147SOL    HW226901   1.050   4.209   3.795  0.9431  2.2890 -0.1950
 5148SOL     OW26902   1.338   3.064  10.111  0.3608  0.4711 -0.0891
 5148SOL    HW126903   1.414   3.010  10.091  2.0969  2.8511 -0.0207
 5148SOL    HW226904   1.332   3.098  10.021 -0.8149  1.1703  0.2489
 5149SOL     OW26905   0.431   3.580   3.778  0.0717  0.3206  0.8775
 5149SOL    HW126906   0.500   3.643   3.801 -0.1064  0.8995 -0.1525
 5149SOL    HW226907   0.479   3.523   3.717  0.9945 -0.4020  2.2815
 5150SOL     OW26908   2.771   2.661   1.342 -0.6592 -0.7952  0.2796
 5150SOL    HW126909   2.780   2.748   1.379 -0.4314 -0.7232  0.0599
 5150SOL    HW226910   2.736   2.664   1.253  0.6402  0.1634 -0.2038
 5151SOL     OW26911   0.720   2.399   9.320  0.1469 -0.0419  0.3542
 5151SOL    HW126912   0.772   2.329   9.282  2.6642  1.4895  0.9967
 5151SOL    HW226913   0.691   2.447   9.242  0.3697  1.3231  1.1156
 5152SOL     OW26914   0.984   0.723   2.986 -0.0219 -0.0957 -0.1852
 5152SOL    HW126915   1.016   0.798   2.937 -0.9369 -0.4981 -1.4163
 5152SOL    HW226916   1.049   0.721   3.056  1.1612  1.0926 -1.2519
 5153SOL     OW26917   4.145   3.370   8.934 -0.9172 -0.1787 -0.1639
 5153SOL    HW126918   4.163   3.282   8.967 -1.2306 -0.1286  0.1409
 5153SOL    HW226919   4.051   3.370   8.918 -0.9539  1.6613  0.0508
 5154SOL     OW26920   2.259   4.081   7.179  0.3499 -0.5522 -0.3062
 5154SOL    HW126921   2.216   4.128   7.107  0.2553  0.7900  0.6312
 5154SOL    HW226922   2.329   4.038   7.130  1.7156  0.3988  0.8433
 5155SOL     OW26923   4.123   2.547   3.818  0.4128 -0.6730  0.7243
 5155SOL    HW126924   4.213   2.577   3.828  0.5017  0.1501 -2.4252
 5155SOL    HW226925   4.150   2.457   3.800 -2.0799 -1.6066  1.6663
 5156SOL     OW26926   3.246   4.544   7.396 -1.0826 -0.0047 -0.5658
 5156SOL    HW126927   3.293   4.518   7.317  0.2753  1.4914 -0.2419
 5156SOL    HW226928   3.231   4.457   7.434 -0.9150  0.1645 -0.1053
 5157SOL     OW26929   4.269   1.050   0.719  0.6262  0.0826  0.9467
 5157SOL    HW126930   4.182   1.070   0.687  1.6456  0.9665 -1.2422
 5157SOL    HW226931   4.277   0.956   0.700  0.3340 -0.1767  2.0947
 5158SOL     OW26932   1.908   3.004   2.912  0.0745 -0.3885 -0.4833
 5158SOL    HW126933   1.906   2.910   2.927  1.5861 -0.0028  2.1994
 5158SOL    HW226934   1.958   3.005   2.831  1.0045 -0.8999  0.0937
 5159SOL     OW26935   2.183   3.454   4.253 -0.1745  0.2954 -0.2194
 5159SOL    HW126936   2.094   3.480   4.231 -0.8150 -2.4006 -0.8533
 5159SOL    HW226937   2.182   3.359   4.239 -2.4901  0.1970  0.7156
 5160SOL     OW26938   0.156   0.845   5.927  0.0688 -0.4219  0.4174
 5160SOL    HW126939   0.212   0.801   5.864 -0.8613 -1.0769  0.0505
 5160SOL    HW226940   0.097   0.780   5.965  0.5134 -0.0350  1.7849
 5161SOL     OW26941   0.491   0.010   4.240  0.1104 -0.7685 -0.1840
 5161SOL    HW126942   0.502   0.091   4.191 -0.4101 -1.1985 -1.0185
 5161SOL    HW226943   0.495   4.678   4.162  2.9919  2.2128 -2.2001
 5162SOL     OW26944   1.822   2.793   4.787  0.1034 -0.0476  0.4568
 5162SOL    HW126945   1.807   2.701   4.812  0.5449 -0.4925 -0.8981
 5162SOL    HW226946   1.850   2.777   4.697  0.1466 -0.4618  0.5438
 5163SOL     OW26947   3.289   2.780   7.907  0.4520 -0.4229  0.3413
 5163SOL    HW126948   3.318   2.702   7.858  1.6764  0.0687  0.2834
 5163SOL    HW226949   3.207   2.792   7.858  0.7335  0.2344  0.0311
 5164SOL     OW26950   1.996   2.008   3.580  0.6980  0.6266  0.2351
 5164SOL    HW126951   2.036   2.093   3.566  1.0171  0.4461  0.0638
 5164SOL    HW226952   1.997   1.979   3.489  2.2435 -0.2429  0.5295
 5165SOL     OW26953   2.340   0.432  11.106 -0.3318 -0.4917  0.0520
 5165SOL    HW126954   2.334   0.471  11.019 -2.9553 -1.5607 -0.2713
 5165SOL    HW226955   2.322   0.505  11.164 -0.6588 -1.4564  1.1684
 5166SOL     OW26956   2.166   3.009  14.753 -0.2416 -0.3721  0.3952
 5166SOL    HW126957   2.227   3.081  14.770 -1.6563  1.4744 -2.1653
 5166SOL    HW226958   2.153   3.026  14.659 -0.5003  4.3428  1.2547
 5167SOL     OW26959   1.087   1.849   3.967  0.1236  0.8478 -0.2584
 5167SOL    HW126960   1.022   1.781   3.981  0.7322 -0.0265 -1.7172
 5167SOL    HW226961   1.105   1.826   3.876 -2.8595  1.1058 -0.8972
 5168SOL     OW26962   4.119   2.966   0.910 -0.2342 -0.7424  0.7409
 5168SOL    HW126963   4.214   2.954   0.912 -0.1477  0.2449  2.9860
 5168SOL    HW226964   4.083   2.896   0.856 -1.1773 -0.6204  1.2187
 5169SOL     OW26965   2.912   2.917   1.448  0.3410  0.8254 -0.7325
 5169SOL    HW126966   2.980   2.853   1.429 -1.4750 -1.2872 -0.0888
 5169SOL    HW226967   2.966   2.996   1.446 -3.4079  3.4006 -0.4867
 5170SOL     OW26968   2.416   0.693  11.402 -0.1837 -0.0957  0.2596
 5170SOL    HW126969   2.364   0.614  11.388 -0.8017  0.7675 -2.1389
 5170SOL    HW226970   2.354   0.752  11.445  0.7125  0.4569  0.8174
 5171SOL     OW26971   3.454   1.992  17.465  0.3082 -0.0780  0.4008
 5171SOL    HW126972   3.421   2.081  17.454 -0.6656 -0.6644 -1.3586
 5171SOL    HW226973   3.376   1.948  17.431 -0.5329  2.3752 -0.7581
 5172SOL     OW26974   2.715   1.176   7.990 -0.2874 -0.0888 -0.1084
 5172SOL    HW126975   2.631   1.206   8.024 -0.4551 -1.2547  0.5396
 5172SOL    HW226976   2.783   1.228   8.032  0.9389 -0.9618 -0.9740
 5173SOL     OW26977   3.193   4.565   2.868 -0.2125  0.3845  0.4453
 5173SOL    HW126978   3.107   4.559   2.909  1.0105 -0.0525  2.9427
 5173SOL    HW226979   3.233   4.628   2.928  0.8259 -0.6659  0.8629
 5174SOL     OW26980   3.174   1.707   9.304 -0.6655 -0.1409  0.9755
 5174SOL    HW126981   3.258   1.709   9.350  0.4903 -0.6903 -1.1084
 5174SOL    HW226982   3.113   1.676   9.371 -2.6181 -0.3294 -0.8999
 5175SOL     OW26983   3.337   4.472   6.490 -0.0617 -0.4129  0.0926
 5175SOL    HW126984   3.259   4.451   6.438 -0.8991  1.2006  0.6959
 5175SOL    HW226985   3.316   4.548   6.544  0.4971  0.6877 -1.2299
 5176SOL     OW26986   3.412   0.303   6.864  0.4241  0.1326  0.5197
 5176SOL    HW126987   3.459   0.256   6.933  1.1862 -0.9096 -0.7028
 5176SOL    HW226988   3.484   0.356   6.829  0.3223 -0.2044 -0.2072
 5177SOL     OW26989   3.510   3.243   6.031  0.4184 -0.6359  0.3127
 5177SOL    HW126990   3.549   3.227   5.945  0.6031 -1.4183  0.5409
 5177SOL    HW226991   3.433   3.292   6.004 -0.2886 -1.3092  1.1063
 5178SOL     OW26992   1.383   4.397  11.753 -0.2574 -0.4361  0.3743
 5178SOL    HW126993   1.396   4.316  11.704 -0.6181 -0.3454  0.1315
 5178SOL    HW226994   1.309   4.369  11.807 -1.6923 -0.6662 -1.7332
 5179SOL     OW26995   0.448   4.692   6.904  0.6178  0.4755 -0.7373
 5179SOL    HW126996   0.499   4.632   6.849  0.5168 -0.5152  0.2491
 5179SOL    HW226997   0.466   4.655   6.991 -0.4033  0.5785 -0.4823
 5180SOL     OW26998   2.185   0.241   7.573 -0.1634 -0.1007  0.1770
 5180SOL    HW126999   2.169   0.336   7.569 -0.2830 -0.0756  1.5589
 5180SOL    HW227000   2.153   0.216   7.659  1.8556 -1.6335  0.4838
 5181SOL     OW27001   2.118   3.688  17.168 -0.2555 -0.2522 -0.3702
 5181SOL    HW127002   2.086   3.668  17.256 -2.0352  0.4889 -0.8563
 5181SOL    HW227003   2.118   3.597  17.140  0.1742 -0.1354 -0.7590
 5182SOL     OW27004   2.605   1.061   8.442 -0.0954 -0.4163  0.0527
 5182SOL    HW127005   2.564   1.131   8.493 -1.9936 -0.2299 -1.7330
 5182SOL    HW227006   2.613   0.992   8.508 -0.8988 -1.3618 -0.8448
 5183SOL     OW27007   0.877   0.671  13.393 -0.2725 -0.1281  0.5863
 5183SOL    HW127008   0.918   0.752  13.423  0.4926 -0.8484  1.4859
 5183SOL    HW227009   0.787   0.675  13.426 -0.1373  0.9075  0.8262
 5184SOL     OW27010   2.625   3.308  15.465  0.1915 -0.3143 -0.5578
 5184SOL    HW127011   2.714   3.341  15.456  0.5272 -1.0637 -0.0291
 5184SOL    HW227012   2.591   3.368  15.532  0.4629  1.1256 -1.7205
 5185SOL     OW27013   2.074   2.824  10.007 -0.4817  0.4436  0.0794
 5185SOL    HW127014   2.156   2.869  10.025 -0.6671  0.9919 -0.4309
 5185SOL    HW227015   2.101   2.733   9.997  2.2764  1.4964 -2.1684
 5186SOL     OW27016   2.942   4.688   6.276 -0.5010  0.4589  0.2115
 5186SOL    HW127017   2.919   0.026   6.344 -1.6289  1.4371 -1.0725
 5186SOL    HW227018   2.859   4.660   6.238  0.1169 -0.6524 -0.3196
 5187SOL     OW27019   1.052   4.141   3.070 -0.0885 -0.7352  0.5503
 5187SOL    HW127020   1.147   4.136   3.082 -0.1176 -1.6316  0.3938
 5187SOL    HW227021   1.027   4.049   3.066 -0.4101 -0.5229 -2.4433
 5188SOL     OW27022   3.571   2.040   9.793  0.4544  0.2897 -0.4337
 5188SOL    HW127023   3.515   1.966   9.770 -1.6750  1.9415 -0.6467
 5188SOL    HW227024   3.566   2.027   9.888 -1.3629  2.5897 -0.1933
 5189SOL     OW27025   2.323   3.017   6.058  0.1381  0.4113 -0.0490
 5189SOL    HW127026   2.309   2.952   6.127  1.0346 -0.0396 -0.2952
 5189SOL    HW227027   2.296   3.101   6.095 -0.1293 -0.1515  1.0391
 5190SOL     OW27028   2.993   0.238   9.331 -0.0325 -0.5856 -0.0869
 5190SOL    HW127029   2.995   0.143   9.344  1.9395 -0.1133  3.0444
 5190SOL    HW227030   2.973   0.244   9.238 -3.0204 -0.7951  0.5505
 5191SOL     OW27031   2.316   2.664  16.446 -0.5119  0.7438 -0.5237
 5191SOL    HW127032   2.299   2.570  16.435 -0.3344  0.4599  1.7011
 5191SOL    HW227033   2.307   2.687  16.538 -1.3497 -1.1815 -0.1166
 5192SOL     OW27034   1.172   4.074  13.803  0.1963  0.4230 -0.2128
 5192SOL    HW127035   1.139   4.163  13.786  1.4628  1.0354  0.5531
 5192SOL    HW227036   1.245   4.081  13.741  1.4225  2.5964  1.4990
 5193SOL     OW27037   1.443   4.292   6.709  0.3033  0.1374  0.2976
 5193SOL    HW127038   1.460   4.311   6.616 -2.2932  1.1696  0.0360
 5193SOL    HW227039   1.511   4.227   6.724 -0.1140 -0.5690 -0.9008
 5194SOL     OW27040   2.568   0.825  12.668  0.4573  0.1381 -0.2033
 5194SOL    HW127041   2.577   0.767  12.744  1.0706  1.1732  0.5126
 5194SOL    HW227042   2.490   0.878  12.686 -0.9857 -2.2363  0.6378
 5195SOL     OW27043   3.818   0.772   7.416  0.3173 -0.2341 -0.3702
 5195SOL    HW127044   3.903   0.735   7.393  1.2041  2.0506 -0.8330
 5195SOL    HW227045   3.805   0.744   7.506 -4.2544 -3.1840 -1.9277
 5196SOL     OW27046   0.244   3.636   8.823 -0.3497  0.5433  0.4867
 5196SOL    HW127047   0.269   3.616   8.914  1.3536 -0.8014 -0.2847
 5196SOL    HW227048   0.154   3.664   8.838 -0.1970  1.7478 -0.8268
 5197SOL     OW27049   1.582   2.563   7.462 -0.7889 -0.3753 -0.2491
 5197SOL    HW127050   1.547   2.479   7.430 -0.1304  0.1250 -2.2528
 5197SOL    HW227051   1.526   2.634   7.430  0.5615  0.1046 -1.5531
 5198SOL     OW27052   3.154   0.138  16.777  0.1357  0.2428  0.0377
 5198SOL    HW127053   3.247   0.133  16.754 -0.5050 -0.9655 -2.3531
 5198SOL    HW227054   3.142   0.225  16.815 -2.5121  0.9983 -2.5386
 5199SOL     OW27055   1.975   1.752   6.938  0.1599  0.0660  0.3976
 5199SOL    HW127056   1.962   1.659   6.924 -1.7776  0.2429  1.0382
 5199SOL    HW227057   1.890   1.780   6.903 -1.3595 -2.3051  2.2338
 5200SOL     OW27058   4.446   1.513   7.711  0.1404 -0.1861 -0.1201
 5200SOL    HW127059   4.443   1.510   7.615  5.0581  0.6190 -0.3021
 5200SOL    HW227060   4.504   1.443   7.743  1.6086  0.8399 -0.5598
 5201SOL     OW27061   1.522   2.696   2.326  0.9314  0.2425 -0.3048
 5201SOL    HW127062   1.511   2.602   2.309  1.5605 -0.2268  1.9048
 5201SOL    HW227063   1.463   2.733   2.260  1.1967 -0.2039 -0.7929
 5202SOL     OW27064   2.393   0.466  15.030 -0.2584 -0.3458 -0.7452
 5202SOL    HW127065   2.363   0.394  15.087 -1.0964 -0.2894 -1.1047
 5202SOL    HW227066   2.363   0.430  14.946 -0.6694 -1.8246  0.0343
 5203SOL     OW27067   2.153   3.267  11.051 -0.5874 -0.2021 -0.0707
 5203SOL    HW127068   2.175   3.195  10.992 -0.5658  0.5729 -1.0192
 5203SOL    HW227069   2.219   3.252  11.118  1.4664 -0.3205 -2.1361
 5204SOL     OW27070   1.457   0.705   3.725  0.0129 -0.8473 -0.4188
 5204SOL    HW127071   1.393   0.635   3.713  1.2684 -2.1845  0.6206
 5204SOL    HW227072   1.423   0.753   3.801  0.5262 -1.0033 -0.0894
 5205SOL     OW27073   3.616   1.041   0.492 -0.0761 -1.1207  0.3522
 5205SOL    HW127074   3.652   1.095   0.563 -0.4994  1.4290 -1.4093
 5205SOL    HW227075   3.563   1.104   0.443  0.3383  1.5477  3.2906
 5206SOL     OW27076   2.875   1.723   3.176  0.6048  0.0442  0.2693
 5206SOL    HW127077   2.954   1.756   3.218  0.4117  0.9198 -0.0502
 5206SOL    HW227078   2.842   1.796   3.124  0.6879 -0.9816 -1.2331
 5207SOL     OW27079   4.411   1.232   8.566 -0.4514 -0.4687 -0.3930
 5207SOL    HW127080   4.505   1.239   8.583 -0.5672 -1.4731  0.6768
 5207SOL    HW227081   4.402   1.295   8.494  0.3427  0.2319  0.1204
 5208SOL     OW27082   2.858   2.982   7.977 -0.0970 -0.2541  0.5263
 5208SOL    HW127083   2.938   3.032   7.990 -0.7860  1.4866 -1.8825
 5208SOL    HW227084   2.874   2.898   8.020 -0.1078 -0.8897 -0.6828
 5209SOL     OW27085   3.551   2.879   4.434 -1.1313  0.0707 -0.3154
 5209SOL    HW127086   3.645   2.885   4.416 -1.1867 -1.6767 -1.1308
 5209SOL    HW227087   3.526   2.791   4.408  0.7888 -0.1872 -1.3057
 5210SOL     OW27088   0.611   3.457   4.040 -0.4291  0.0716 -0.0431
 5210SOL    HW127089   0.599   3.543   3.998 -0.1284  0.6457  1.0463
 5210SOL    HW227090   0.688   3.423   3.995  1.5969 -2.2145  5.1904
 5211SOL     OW27091   1.999   4.547   9.715  0.0208 -0.4646 -0.2190
 5211SOL    HW127092   2.093   4.537   9.728 -0.1591  0.1570  1.5652
 5211SOL    HW227093   1.991   4.568   9.622 -2.9247  1.1553  0.3950
 5212SOL     OW27094   3.304   4.629   4.890  0.2517 -0.2685  0.4489
 5212SOL    HW127095   3.362   4.579   4.948  1.0928  0.0169 -0.1343
 5212SOL    HW227096   3.361   4.630   4.813  1.0761 -0.3502  1.0485
 5213SOL     OW27097   4.107   0.472   0.243 -0.1429 -0.0647  0.2726
 5213SOL    HW127098   4.075   0.463   0.332 -0.7993 -1.7312 -0.1494
 5213SOL    HW227099   4.170   0.539   0.271 -0.3548  0.2675 -0.0427
 5214SOL     OW27100   2.361   0.186   3.885  0.4962 -0.5087 -0.2750
 5214SOL    HW127101   2.390   0.178   3.794  0.3796 -2.1299 -0.1774
 5214SOL    HW227102   2.390   0.275   3.905  0.3918 -0.1621 -1.6702
 5215SOL     OW27103   1.507   1.272  10.285  0.5081 -0.2822  0.3339
 5215SOL    HW127104   1.513   1.193  10.339 -3.6269 -0.8387 -0.0248
 5215SOL    HW227105   1.434   1.315  10.329 -1.1888 -0.1865 -2.5491
 5216SOL     OW27106   4.469   0.203   9.108 -0.3728  0.0265  0.1275
 5216SOL    HW127107   4.467   0.167   9.197  2.8727  0.2922  0.3197
 5216SOL    HW227108   4.377   0.223   9.096 -0.7728 -3.0993 -2.0741
 5217SOL     OW27109   3.089   0.120   8.174 -0.0641 -0.1210  0.2254
 5217SOL    HW127110   3.008   0.073   8.157 -0.4911  0.7380 -0.1203
 5217SOL    HW227111   3.132   0.042   8.206 -1.7158 -2.4722 -3.2515
 5218SOL     OW27112   1.386   4.482   2.252  0.6087  0.8115  0.6922
 5218SOL    HW127113   1.428   4.567   2.262 -0.7737  1.6968 -0.9841
 5218SOL    HW227114   1.308   4.495   2.305  0.6040  2.0484  0.3808
 5219SOL     OW27115   1.156   1.449  10.644  0.4152  0.3728 -0.1113
 5219SOL    HW127116   1.173   1.479  10.733  1.8771 -0.6658 -0.0452
 5219SOL    HW227117   1.097   1.518  10.613  0.7999  0.7322 -0.0459
 5220SOL     OW27118   4.292   1.140   3.044 -0.0576 -0.9680  0.5217
 5220SOL    HW127119   4.208   1.179   3.069  0.0404  2.0346 -3.7599
 5220SOL    HW227120   4.332   1.113   3.126  1.2633  1.5891  0.7258
 5221SOL     OW27121   3.676   3.947   6.525 -0.9496  0.1667  0.0859
 5221SOL    HW127122   3.673   4.043   6.529 -1.5616  0.0845  1.7453
 5221SOL    HW227123   3.759   3.943   6.478 -1.2248 -1.2661 -0.2711
 5222SOL     OW27124   4.249   0.305   2.224 -0.1783  0.3381  0.2882
 5222SOL    HW127125   4.168   0.299   2.174  1.0131 -0.6102 -1.5297
 5222SOL    HW227126   4.235   0.239   2.292 -1.1792 -0.6354 -0.8696
 5223SOL     OW27127   0.576   2.009  13.095 -0.2629  0.0952  0.0115
 5223SOL    HW127128   0.630   2.048  13.164 -0.0751  0.3775 -0.2988
 5223SOL    HW227129   0.529   2.084  13.061 -1.1336 -0.0086  0.9984
 5224SOL     OW27130   2.931   1.112   1.890 -0.4895  0.7330  0.0918
 5224SOL    HW127131   3.021   1.139   1.909 -0.8376  0.3613  2.2437
 5224SOL    HW227132   2.936   1.017   1.887 -2.1792  0.5438  3.2396
 5225SOL     OW27133   0.527   2.955   9.924 -0.1372 -0.2455 -0.3358
 5225SOL    HW127134   0.475   2.886   9.882 -0.0168  1.3196 -3.0465
 5225SOL    HW227135   0.617   2.926   9.911  0.2837  0.4771  0.9711
 5226SOL     OW27136   0.173   4.335   6.253 -0.0252 -0.5064  0.1824
 5226SOL    HW127137   0.159   4.252   6.298  1.4076 -1.4739 -1.1548
 5226SOL    HW227138   0.264   4.338   6.224  0.0235 -2.8150  0.0702
 5227SOL     OW27139   2.751   1.896   2.994 -0.9018 -0.2507 -0.5130
 5227SOL    HW127140   2.772   1.881   2.902 -0.2958 -1.1175 -0.2332
 5227SOL    HW227141   2.662   1.864   3.007  0.5900 -4.0892  0.3751
 5228SOL     OW27142   4.539   3.116   0.656  0.0241  0.6517  0.0146
 5228SOL    HW127143   4.521   3.192   0.600  1.1564 -0.4350 -1.8187
 5228SOL    HW227144   4.630   3.143   0.667  0.4992 -1.2489  0.7257
 5229SOL     OW27145   0.551   4.219   0.906  0.0395 -0.1338  0.1155
 5229SOL    HW127146   0.531   4.250   0.817  1.0384 -1.4239 -0.5545
 5229SOL    HW227147   0.521   4.128   0.903  0.2136 -0.2129  0.8681
 5230SOL     OW27148   1.461   4.249   4.966 -0.3498 -0.1150 -0.4792
 5230SOL    HW127149   1.384   4.198   4.991 -0.3080  0.6289  1.1523
 5230SOL    HW227150   1.443   4.282   4.878  1.1931 -1.4431 -1.2953
 5231SOL     OW27151   4.237   3.385  15.674 -0.0144  0.6146 -0.1909
 5231SOL    HW127152   4.142   3.398  15.673  0.1377  1.7525 -0.2965
 5231SOL    HW227153   4.269   3.408  15.586 -0.8846  1.6624 -0.2314
 5232SOL     OW27154   3.567   1.093  10.640  0.4086 -0.4258 -0.1621
 5232SOL    HW127155   3.499   1.133  10.586  0.8824 -1.1481 -1.3172
 5232SOL    HW227156   3.627   1.072  10.568 -1.2403  1.9804 -2.2733
 5233SOL     OW27157   4.127   0.338   7.741  0.5736  0.3559 -0.2337
 5233SOL    HW127158   4.213   0.304   7.716  1.2495  1.7912  0.2085
 5233SOL    HW227159   4.120   0.306   7.831 -0.0328 -1.1463 -0.8091
 5234SOL     OW27160   2.687   3.512  13.233 -0.3073  0.1456 -0.1235
 5234SOL    HW127161   2.632   3.501  13.311  0.5597 -1.2011  0.2978
 5234SOL    HW227162   2.654   3.599  13.211  1.4456  0.6890 -0.6003
 5235SOL     OW27163   2.164   4.670   2.479 -0.2496  0.0876 -0.3818
 5235SOL    HW127164   2.079   4.695   2.516  0.0893  0.4728  0.1421
 5235SOL    HW227165   2.175   4.577   2.497 -0.9576  0.2662  0.9695
 5236SOL     OW27166   2.613   3.341  17.498 -0.3797  0.5505  0.1005
 5236SOL    HW127167   2.532   3.373  17.459  1.4418  2.9682 -1.6831
 5236SOL    HW227168   2.649   3.420  17.540  2.0816 -0.3597 -0.3073
 5237SOL     OW27169   0.152   3.832   9.362 -0.5616  0.4053  0.0554
 5237SOL    HW127170   0.184   3.845   9.451  0.6968  0.0705 -0.3462
 5237SOL    HW227171   0.179   3.913   9.320  2.2566 -1.8531 -2.5615
 5238SOL     OW27172   1.085   1.497   2.186  0.1042  0.6526 -0.3825
 5238SOL    HW127173   1.000   1.467   2.217 -0.2729  1.4770 -0.6107
 5238SOL    HW227174   1.138   1.452   2.252 -1.3344  0.4853  0.6395
 5239SOL     OW27175   4.070   3.295   1.994 -0.7238 -0.1028  0.1354
 5239SOL    HW127176   4.062   3.201   1.978  4.8996 -0.7689  1.3628
 5239SOL    HW227177   3.986   3.329   1.963 -1.0279 -0.5869  0.4286
 5240SOL     OW27178   4.595   4.061  14.758  0.5815  0.3981  0.5196
 5240SOL    HW127179   4.647   4.022  14.829 -0.8592 -2.2279  0.1306
 5240SOL    HW227180   4.532   3.990  14.748  1.0746 -0.2417  1.9243
 5241SOL     OW27181   4.412   1.240   6.086 -0.3888 -0.9532  0.6340
 5241SOL    HW127182   4.425   1.264   5.994  2.6493 -0.2658  1.2275
 5241SOL    HW227183   4.358   1.161   6.080  1.6358 -2.2580 -0.3241
 5242SOL     OW27184   0.136   2.283   8.289 -0.4621  0.4935  0.1073
 5242SOL    HW127185   0.165   2.351   8.229 -1.7087 -0.2082 -1.2917
 5242SOL    HW227186   0.174   2.325   8.366 -1.0484 -0.6528  1.0268
 5243SOL     OW27187   0.015   0.741   7.760  0.4519  0.4574  0.1693
 5243SOL    HW127188   0.104   0.728   7.729  0.7579  0.0317  1.2334
 5243SOL    HW227189   0.025   0.831   7.793 -0.8291  0.1050  1.5539
 5244SOL     OW27190   1.992   4.349   4.487 -0.2592  0.1331  0.1136
 5244SOL    HW127191   2.069   4.393   4.523  0.1220 -1.2206  0.9325
 5244SOL    HW227192   1.982   4.388   4.400  0.8666 -1.1652 -0.5904
 5245SOL     OW27193   4.025   0.608   8.125  0.4010  0.4315  0.2870
 5245SOL    HW127194   4.100   0.565   8.084 -0.3482 -1.8868  1.3277
 5245SOL    HW227195   4.002   0.535   8.183  0.1941 -0.4655 -0.9294
 5246SOL     OW27196   3.482   4.123  15.444  0.4434 -0.3375 -0.2257
 5246SOL    HW127197   3.490   4.158  15.533 -1.0284  0.7090 -0.5042
 5246SOL    HW227198   3.484   4.207  15.398 -2.4936 -0.9656 -1.5393
 5247SOL     OW27199   1.843   4.512   1.200 -1.2799  0.2928  0.1761
 5247SOL    HW127200   1.806   4.560   1.275 -0.7566  0.2027  0.4870
 5247SOL    HW227201   1.841   4.575   1.128 -1.9892 -0.5954 -0.5876
 5248SOL     OW27202   2.847   3.691  12.743  0.5252 -0.5449 -0.0393
 5248SOL    HW127203   2.788   3.626  12.781 -0.8146 -0.3166 -1.7106
 5248SOL    HW227204   2.882   3.726  12.825  0.9806  0.0917 -0.5148
 5249SOL     OW27205   1.620   3.947   8.102 -0.1476  0.1959 -0.2898
 5249SOL    HW127206   1.567   3.959   8.023 -0.4079 -1.4619 -0.3802
 5249SOL    HW227207   1.660   3.865   8.072 -3.7304 -1.4442 -0.6747
 5250SOL     OW27208   2.872   3.776   8.495 -0.1786 -0.2145 -0.4743
 5250SOL    HW127209   2.960   3.768   8.458 -0.4325  1.1329 -1.3444
 5250SOL    HW227210   2.863   3.688   8.531  2.5001  0.4414  1.8314
 5251SOL     OW27211   1.826   2.669   4.519  0.2647 -0.1737 -0.3023
 5251SOL    HW127212   1.858   2.674   4.429 -1.2094  1.2642 -0.7303
 5251SOL    HW227213   1.741   2.712   4.512  0.3589 -0.0842 -0.9531
 5252SOL     OW27214   0.744   4.687  12.626 -0.5980 -0.2359  0.1336
 5252SOL    HW127215   0.772   0.054  12.628 -2.4042  0.3095  0.6085
 5252SOL    HW227216   0.791   4.644  12.698 -1.4668 -0.3888  0.6052
 5253SOL     OW27217   0.300   1.685   0.541 -0.0277 -0.0669 -0.6585
 5253SOL    HW127218   0.371   1.631   0.507 -0.2081 -0.9273  0.3251
 5253SOL    HW227219   0.329   1.731   0.620 -2.0966 -0.1094  0.1409
 5254SOL     OW27220   4.237   4.065  10.511  0.0315  0.1244 -0.4414
 5254SOL    HW127221   4.212   3.998  10.447  1.8310 -0.6628 -0.3272
 5254SOL    HW227222   4.177   4.048  10.584  0.6715  0.6002  0.1908
 5255SOL     OW27223   2.052   2.054  13.035 -0.3777 -0.1417  0.4897
 5255SOL    HW127224   2.009   2.135  13.062  0.7138  0.1099  1.4581
 5255SOL    HW227225   2.142   2.079  13.014 -0.3168 -1.0741 -0.3416
 5256SOL     OW27226   2.603   3.503  15.648 -0.0275  0.2033 -0.3158
 5256SOL    HW127227   2.623   3.589  15.684 -1.4692  0.7751 -0.8662
 5256SOL    HW227228   2.554   3.467  15.723 -1.2049  0.9352 -0.7305
 5257SOL     OW27229   3.689   0.012   5.761 -0.4844 -0.0625 -0.1420
 5257SOL    HW127230   3.766   0.048   5.806 -0.9732  1.5951 -0.6051
 5257SOL    HW227231   3.729   0.013   5.674  1.6288  0.9941  0.8406
 5258SOL     OW27232   0.088   0.586   2.032  0.3014 -0.5907  0.1688
 5258SOL    HW127233   0.113   0.677   2.015 -0.9302 -0.0717  1.1641
 5258SOL    HW227234   0.150   0.536   1.979 -1.8463 -1.7429 -1.2685
 5259SOL     OW27235   2.294   4.019  12.865 -0.3304 -0.7305 -0.7490
 5259SOL    HW127236   2.214   4.029  12.814 -1.7965 -2.5862  1.2131
 5259SOL    HW227237   2.276   3.941  12.917  0.1928  0.0560  0.6113
 5260SOL     OW27238   1.190   0.038   2.269  0.6410 -0.1388 -0.4016
 5260SOL    HW127239   1.240   0.011   2.346 -1.7730 -3.0283  0.1159
 5260SOL    HW227240   1.258   0.077   2.214 -0.0483  0.3486 -0.9131
 5261SOL     OW27241   2.789   1.829   7.383  0.2327 -0.5319  0.1497
 5261SOL    HW127242   2.813   1.736   7.390  0.9356 -0.3156  0.6618
 5261SOL    HW227243   2.745   1.840   7.468 -0.0202  0.9159 -0.1809
 5262SOL     OW27244   1.256   0.047   5.746  0.1360  0.9176 -0.2560
 5262SOL    HW127245   1.177   4.723   5.723  0.2243  0.4926  0.3115
 5262SOL    HW227246   1.325   4.705   5.748 -0.1478  0.5769 -2.7918
 5263SOL     OW27247   1.844   1.517  15.378 -0.2145  0.1761 -0.1149
 5263SOL    HW127248   1.939   1.528  15.389 -0.0368  0.5540 -2.0999
 5263SOL    HW227249   1.821   1.583  15.313  1.0737  0.7229 -0.0236
 5264SOL     OW27250   2.662   3.573  12.932 -0.3171 -0.3303  0.0627
 5264SOL    HW127251   2.698   3.543  13.015 -0.3989 -1.5302 -0.3374
 5264SOL    HW227252   2.641   3.494  12.882  0.1639  0.4036 -1.3241
 5265SOL     OW27253   0.858   0.856   1.619 -0.5882  0.0311  0.0326
 5265SOL    HW127254   0.945   0.817   1.627 -0.7233 -0.1353  0.7475
 5265SOL    HW227255   0.884   0.938   1.578 -0.4930 -0.3677 -0.6945
 5266SOL     OW27256   2.549   1.042   2.287 -0.1344 -0.0424 -0.0340
 5266SOL    HW127257   2.626   1.040   2.229  1.0964 -2.2432  1.6582
 5266SOL    HW227258   2.483   1.076   2.227 -2.5223 -0.9205  2.1296
 5267SOL     OW27259   4.116   2.603   4.199  0.0162  0.3148  0.3490
 5267SOL    HW127260   4.046   2.602   4.264  0.8162 -2.7967  1.1858
 5267SOL    HW227261   4.123   2.512   4.170  0.3235 -0.1303  1.7922
 5268SOL     OW27262   3.961   3.504  10.150  0.1609 -0.1573  0.5042
 5268SOL    HW127263   4.050   3.514  10.117 -0.0312  1.3570  0.4511
 5268SOL    HW227264   3.982   3.476  10.239 -1.1659  1.7686  1.4300
 5269SOL     OW27265   4.208   0.894  12.144 -0.9328 -0.3182 -0.3170
 5269SOL    HW127266   4.121   0.860  12.164 -0.3775 -2.3158 -1.2945
 5269SOL    HW227267   4.210   0.962  12.211 -0.7504  0.3669 -1.0127
 5270SOL     OW27268   0.641   3.039   0.986 -0.2110 -0.2349  0.0900
 5270SOL    HW127269   0.547   3.056   0.995 -0.1549  0.2563 -0.2661
 5270SOL    HW227270   0.673   3.099   0.919 -0.4980  1.0592  1.1217
 5271SOL     OW27271   2.795   3.321   6.748 -0.4561  0.3157  0.5903
 5271SOL    HW127272   2.826   3.312   6.658 -1.3284 -0.0974  0.3301
 5271SOL    HW227273   2.860   3.270   6.796  1.8756  1.7223 -1.0582
 5272SOL     OW27274   2.059   2.583   4.640 -0.2966 -0.6549  0.0951
 5272SOL    HW127275   2.081   2.553   4.552 -1.9435  0.4529 -0.6941
 5272SOL    HW227276   1.973   2.619   4.619  0.9112  1.2871 -1.5461
 5273SOL     OW27277   2.157   0.596   1.973  0.3248  0.9296  0.2953
 5273SOL    HW127278   2.214   0.592   1.897 -1.2643 -1.7961 -0.7305
 5273SOL    HW227279   2.079   0.555   1.937  1.9935 -2.0318  0.0621
 5274SOL     OW27280   0.328   0.349  15.811 -0.7580  0.5419  0.1053
 5274SOL    HW127281   0.370   0.372  15.728  1.9526  2.1633  1.9153
 5274SOL    HW227282   0.395   0.288  15.842 -0.6795  0.1896 -0.7566
 5275SOL     OW27283   2.034   0.414   8.519 -0.2314 -0.2014  0.1028
 5275SOL    HW127284   2.100   0.344   8.517  1.7221  1.6636  0.1626
 5275SOL    HW227285   2.038   0.426   8.614 -0.3306 -1.0063  0.2091
 5276SOL     OW27286   2.168   2.672   0.382  0.2774 -0.0835  0.1966
 5276SOL    HW127287   2.079   2.651   0.356 -0.2061  0.0483  1.7482
 5276SOL    HW227288   2.165   2.767   0.397  0.5207 -0.3404  1.8770
 5277SOL     OW27289   3.704   4.264   2.448 -0.2948  0.0024  0.1169
 5277SOL    HW127290   3.793   4.300   2.442 -0.4960  0.5039  0.1208
 5277SOL    HW227291   3.722   4.171   2.439  0.3046  0.3841 -2.5968
 5278SOL     OW27292   2.246   0.239   5.571 -0.4435  0.4692  0.1893
 5278SOL    HW127293   2.245   0.145   5.590 -3.4078  0.2665 -1.0874
 5278SOL    HW227294   2.166   0.276   5.607  0.0754  1.8014 -0.0550
 5279SOL     OW27295   0.901   1.538   8.529  0.4510  0.3677 -0.3161
 5279SOL    HW127296   0.936   1.475   8.592  0.5579 -0.0651 -0.8073
 5279SOL    HW227297   0.876   1.610   8.587 -0.5462 -0.6826  0.5532
 5280SOL     OW27298   3.309   1.166   7.666  0.1966 -0.4432  0.2738
 5280SOL    HW127299   3.377   1.229   7.642  1.6543 -1.4120  1.9043
 5280SOL    HW227300   3.366   1.140   7.738  0.9164 -0.0318 -0.1393
 5281SOL     OW27301   1.612   1.475   2.627 -0.0877  0.1085  0.2046
 5281SOL    HW127302   1.688   1.492   2.683  0.1564  0.8153 -0.3430
 5281SOL    HW227303   1.639   1.494   2.537  1.6775 -0.5607  0.5913
 5282SOL     OW27304   2.424   0.144   8.222 -0.2478  0.0794 -0.3625
 5282SOL    HW127305   2.429   0.065   8.276  1.8462  0.8304  0.5472
 5282SOL    HW227306   2.367   0.199   8.276  0.4437 -0.3624  0.8346
 5283SOL     OW27307   0.344   3.509   5.368 -0.0504 -0.1441  0.5055
 5283SOL    HW127308   0.320   3.443   5.432  1.5103  0.5763  1.8285
 5283SOL    HW227309   0.331   3.585   5.424  2.8763  0.8921 -0.2003
 5284SOL     OW27310   2.428   2.504   0.236  0.3405 -0.3944  0.8678
 5284SOL    HW127311   2.451   2.517   0.144 -2.1768 -0.3325  0.2205
 5284SOL    HW227312   2.353   2.447   0.218 -0.3683  0.9038 -0.2862
 5285SOL     OW27313   4.387   3.201  11.243  0.6676 -0.8098  0.0358
 5285SOL    HW127314   4.385   3.235  11.153 -2.0415 -1.4659 -0.1659
 5285SOL    HW227315   4.455   3.257  11.280 -1.9972  0.8823  2.3530
 5286SOL     OW27316   3.707   1.055   5.989  0.2623  0.5169 -0.2138
 5286SOL    HW127317   3.687   1.107   5.911 -1.0287  0.2154 -0.0923
 5286SOL    HW227318   3.760   0.983   5.957  3.7033  1.9715  2.2785
 5287SOL     OW27319   2.413   0.656   6.152  0.1730 -0.3280 -0.6009
 5287SOL    HW127320   2.389   0.564   6.157  0.3184 -0.2527  1.4933
 5287SOL    HW227321   2.344   0.687   6.093  0.3381  0.1691 -0.5320
 5288SOL     OW27322   4.588   1.632   4.348  0.1862  0.5815  0.4172
 5288SOL    HW127323   4.579   1.721   4.384 -3.1986 -1.0136  3.5613
 5288SOL    HW227324   4.680   1.644   4.327  0.0204  1.6073  0.2393
 5289SOL     OW27325   1.588   1.168   7.431 -0.1343 -0.0625  0.8059
 5289SOL    HW127326   1.546   1.137   7.511  0.4863 -1.5507  0.5644
 5289SOL    HW227327   1.596   1.087   7.380 -2.5446 -0.9429  1.8361
 5290SOL     OW27328   0.235   0.329   9.457  0.2403  0.0810 -0.2726
 5290SOL    HW127329   0.212   0.385   9.531  0.2171  3.2946 -2.7543
 5290SOL    HW227330   0.210   0.241   9.486 -1.0422  0.1002 -1.3063
 5291SOL     OW27331   2.705   0.284   5.259  0.3739 -0.4790  0.5213
 5291SOL    HW127332   2.730   0.200   5.221 -1.8953 -1.2771  0.8092
 5291SOL    HW227333   2.610   0.274   5.263  0.1465  1.5032  0.4559
 5292SOL     OW27334   0.121   1.244   1.685 -0.1369  0.1184  0.1799
 5292SOL    HW127335   0.199   1.238   1.630  0.6366 -0.9649  1.3794
 5292SOL    HW227336   0.140   1.319   1.742  0.1562 -2.3834  3.4202
 5293SOL     OW27337   4.257   2.649  16.085  0.0147  0.0659  0.2133
 5293SOL    HW127338   4.202   2.572  16.068 -1.5947  1.4224 -0.6646
 5293SOL    HW227339   4.341   2.605  16.099  0.4064  0.4130 -1.1009
 5294SOL     OW27340   0.823   3.412   6.678 -0.2160  0.1794 -0.1034
 5294SOL    HW127341   0.772   3.488   6.650 -0.7055 -0.0405  0.1847
 5294SOL    HW227342   0.912   3.428   6.647 -0.3155  1.5490  0.3359
 5295SOL     OW27343   2.353   1.444   6.184 -0.0766 -0.1088  0.0594
 5295SOL    HW127344   2.316   1.462   6.271 -0.9439  0.2928 -0.3934
 5295SOL    HW227345   2.435   1.404   6.214  0.9329 -0.1792 -2.7446
 5296SOL     OW27346   3.744   4.651  17.176  0.1245 -0.5408  0.0909
 5296SOL    HW127347   3.833   4.682  17.193 -0.3467  1.2233 -0.6475
 5296SOL    HW227348   3.698   4.666  17.258  1.0547  3.1290 -0.0838
 5297SOL     OW27349   3.622   3.350   7.994  0.3731  0.0478 -0.1545
 5297SOL    HW127350   3.620   3.278   7.932  0.5290 -1.3092  1.4203
 5297SOL    HW227351   3.708   3.326   8.030 -0.8117 -1.1648  1.8437
 5298SOL     OW27352   0.979   2.576   2.739  1.0513  0.3429  0.2260
 5298SOL    HW127353   0.960   2.652   2.684  3.0426  0.1780 -0.6921
 5298SOL    HW227354   1.060   2.545   2.699  0.4138 -0.3482 -0.5602
 5299SOL     OW27355   4.511   0.126   9.377  0.1816  0.4650  0.1204
 5299SOL    HW127356   4.454   0.049   9.385  0.6171  0.1105 -0.1698
 5299SOL    HW227357   4.587   0.093   9.426  1.0774 -0.4488 -1.8885
 5300SOL     OW27358   2.170   4.173   4.331 -0.3078  0.6396  0.5709
 5300SOL    HW127359   2.128   4.248   4.374 -0.9834  0.3848  0.3415
 5300SOL    HW227360   2.258   4.167   4.368 -0.2554 -2.2316 -0.0333
 5301SOL     OW27361   3.210   2.203   5.088  0.6982  0.3006 -0.6046
 5301SOL    HW127362   3.182   2.174   5.175  1.6152  1.1857 -0.0109
 5301SOL    HW227363   3.220   2.126   5.032 -0.2340  0.0056 -0.3595
 5302SOL     OW27364   1.127   1.783  17.235 -0.5750  0.5032 -0.6422
 5302SOL    HW127365   1.154   1.844  17.303  0.4616  1.2669 -1.7358
 5302SOL    HW227366   1.168   1.822  17.158 -0.2998  0.5410 -0.4749
 5303SOL     OW27367   0.296   2.925   7.511 -0.3167  0.5116 -0.2227
 5303SOL    HW127368   0.277   3.015   7.536  1.0137  0.5483  0.6943
 5303SOL    HW227369   0.212   2.903   7.471 -2.6269  1.0261  4.3912
 5304SOL     OW27370   0.459   1.856   2.770  0.2649 -0.6229  0.8158
 5304SOL    HW127371   0.420   1.924   2.826 -1.1218  1.3221 -2.4729
 5304SOL    HW227372   0.467   1.909   2.690  1.3305 -1.1367  0.5837
 5305SOL     OW27373   0.832   3.942  15.062  0.1161  0.4433  0.2326
 5305SOL    HW127374   0.838   3.996  15.141 -0.7105  1.5390 -0.4431
 5305SOL    HW227375   0.810   4.009  14.997 -1.8262 -0.8773 -0.4831
 5306SOL     OW27376   4.308   3.926   7.785  0.4139  0.2529  0.4224
 5306SOL    HW127377   4.318   3.859   7.853  0.1668  1.4584  1.6552
 5306SOL    HW227378   4.227   3.896   7.744 -0.3882  0.6513  1.7209
 5307SOL     OW27379   3.455   0.118   8.651 -0.6970  0.7102  0.1957
 5307SOL    HW127380   3.480   0.202   8.690  0.4965 -0.2748  1.5632
 5307SOL    HW227381   3.407   0.079   8.724  0.9802  0.7838  1.3282
 5308SOL     OW27382   2.177   3.505   0.770  0.7080 -0.3086 -0.0432
 5308SOL    HW127383   2.122   3.511   0.691 -0.1367  0.8334  0.6223
 5308SOL    HW227384   2.240   3.435   0.754  0.4575 -0.8911  1.5541
 5309SOL     OW27385   1.307   0.719   8.202  0.9192  0.0211 -0.0439
 5309SOL    HW127386   1.390   0.735   8.156 -0.0162  0.0827 -1.6921
 5309SOL    HW227387   1.261   0.655   8.147 -2.0902  2.1482  0.0481
 5310SOL     OW27388   0.742   1.412   2.730  0.4807 -0.5508  0.3287
 5310SOL    HW127389   0.733   1.335   2.786 -0.4125 -0.2691  0.5729
 5310SOL    HW227390   0.655   1.421   2.689  0.5361  1.0020  0.5378
 5311SOL     OW27391   0.414   2.062   8.298  0.6144  0.5593  0.2998
 5311SOL    HW127392   0.446   2.075   8.387 -1.3987 -1.2953  1.3119
 5311SOL    HW227393   0.333   2.016   8.321  0.3395 -0.7351 -3.1630
 5312SOL     OW27394   3.032   2.730  16.922 -0.4265  0.8103  0.2736
 5312SOL    HW127395   3.117   2.771  16.934 -0.9202  2.1244 -0.6744
 5312SOL    HW227396   3.039   2.652  16.977 -1.6468  1.3469  1.1991
 5313SOL     OW27397   2.216   1.364   1.977 -0.3095 -0.0715 -0.2862
 5313SOL    HW127398   2.293   1.314   1.948 -0.2162  0.3996 -0.8622
 5313SOL    HW227399   2.156   1.293   1.997  0.3042 -0.8169 -1.0914
 5314SOL     OW27400   2.599   3.754  11.596 -0.1865 -0.2653  0.1713
 5314SOL    HW127401   2.623   3.846  11.609 -1.0667  0.2741 -1.9668
 5314SOL    HW227402   2.664   3.719  11.534 -0.4944 -1.1836  0.3675
 5315SOL     OW27403   0.049   0.583   8.966 -0.4156 -0.0997  1.1003
 5315SOL    HW127404   0.090   0.611   8.884  0.3736 -1.1827  1.1218
 5315SOL    HW227405   0.098   0.502   8.979 -0.4589 -0.2734  0.2199
 5316SOL     OW27406   3.579   0.644   2.489  0.2312  0.1827 -0.2252
 5316SOL    HW127407   3.533   0.678   2.566  1.4553  2.4138 -0.4716
 5316SOL    HW227408   3.532   0.677   2.412  0.7947 -0.3361 -0.7845
 5317SOL     OW27409   4.650   0.419   9.863 -0.0298 -0.4645 -0.0178
 5317SOL    HW127410   4.612   0.493   9.911 -0.0245  0.4779 -1.4788
 5317SOL    HW227411   4.690   0.371   9.935 -1.6052 -2.1125 -0.2406
 5318SOL     OW27412   2.524   0.681   5.053 -0.1922 -0.4024 -0.7688
 5318SOL    HW127413   2.597   0.619   5.046 -0.8228 -1.2336  0.0648
 5318SOL    HW227414   2.450   0.624   5.034 -1.4063  1.4196 -1.5845
 5319SOL     OW27415   4.074   4.481   6.337  0.0083 -0.4577  0.3164
 5319SOL    HW127416   4.153   4.452   6.291  1.5192  1.0734  1.9824
 5319SOL    HW227417   4.080   4.576   6.344 -1.1999 -0.5194  2.0643
 5320SOL     OW27418   0.627   1.443   3.349  0.1739 -0.3305 -0.5336
 5320SOL    HW127419   0.551   1.473   3.299  1.2255  0.3051 -1.7393
 5320SOL    HW227420   0.679   1.523   3.346  1.9538 -1.4667 -0.2330
 5321SOL     OW27421   4.375   1.621   2.919  0.5950  0.1239 -0.1709
 5321SOL    HW127422   4.298   1.598   2.867 -0.5995  0.8252  1.2583
 5321SOL    HW227423   4.355   1.588   3.007  0.1740  1.3486  0.1924
 5322SOL     OW27424   0.262   4.059   7.871 -0.5544 -0.1535  0.5721
 5322SOL    HW127425   0.267   4.055   7.776 -1.5994  0.3524  0.4951
 5322SOL    HW227426   0.355   4.076   7.887 -0.5060  0.6621 -0.5804
 5323SOL     OW27427   3.156   0.372   5.713  0.0255 -0.1398 -0.4905
 5323SOL    HW127428   3.138   0.456   5.755  0.4553 -0.1003 -0.3868
 5323SOL    HW227429   3.071   0.359   5.672 -0.7599 -0.7964  1.3430
 5324SOL     OW27430   2.206   2.130   3.842 -0.2581 -0.7130  0.4244
 5324SOL    HW127431   2.193   2.035   3.844 -2.2808 -0.4471  0.2750
 5324SOL    HW227432   2.263   2.129   3.919 -1.6268  1.3987  1.4691
 5325SOL     OW27433   1.030   2.771   2.525  0.8449 -0.1854  0.3024
 5325SOL    HW127434   0.999   2.769   2.434  2.9891  3.1272 -0.4866
 5325SOL    HW227435   1.120   2.800   2.510  0.9450 -0.7705 -0.2058
 5326SOL     OW27436   2.929   1.000  10.868  0.2359  0.0997 -0.1843
 5326SOL    HW127437   2.881   1.004  10.951 -0.7296  1.0375 -0.7863
 5326SOL    HW227438   3.017   0.986  10.902  0.0728 -0.8096 -0.1471
 5327SOL     OW27439   0.611   4.484   5.344  0.6100  0.5888 -0.2436
 5327SOL    HW127440   0.578   4.573   5.334  2.1384  1.3720  1.8497
 5327SOL    HW227441   0.698   4.483   5.304 -0.4977  0.6596 -2.6404
 5328SOL     OW27442   4.247   1.148  13.696  0.2929  0.1937  0.2753
 5328SOL    HW127443   4.216   1.196  13.619 -1.6680  0.8664  1.5008
 5328SOL    HW227444   4.173   1.150  13.756 -0.4321  1.1099 -0.6513
 5329SOL     OW27445   2.038   0.365  12.463  0.0821  0.3041  0.2890
 5329SOL    HW127446   1.965   0.361  12.402  0.0920  1.4928  0.2032
 5329SOL    HW227447   2.004   0.420  12.533  0.6074  2.5273 -1.1923
 5330SOL     OW27448   0.890   2.421   2.273  0.7812  0.5746  0.3033
 5330SOL    HW127449   0.895   2.333   2.310 -0.3510  1.9491  3.8167
 5330SOL    HW227450   0.896   2.406   2.179 -0.4985  0.7104  0.2036
 5331SOL     OW27451   0.403   0.173   7.299 -0.6894  0.0006 -0.1615
 5331SOL    HW127452   0.398   0.096   7.354  2.6968 -0.3827 -0.4011
 5331SOL    HW227453   0.470   0.156   7.232 -0.9044 -0.2030 -0.3273
 5332SOL     OW27454   0.789   3.959   2.856  0.0365 -0.0694 -0.1568
 5332SOL    HW127455   0.769   3.924   2.943 -2.1124 -0.7873 -0.9272
 5332SOL    HW227456   0.852   3.896   2.820 -0.7376 -0.1430 -1.3786
 5333SOL     OW27457   0.096   3.493   5.839 -0.2397 -0.0979  0.8334
 5333SOL    HW127458   0.119   3.560   5.903 -0.5985  1.0445 -0.2332
 5333SOL    HW227459   0.176   3.483   5.788 -0.3925  2.2406  0.1189
 5334SOL     OW27460   0.013   2.155   4.932  0.1904 -0.2879 -0.2261
 5334SOL    HW127461   0.109   2.149   4.935  0.3281  0.6398 -2.6897
 5334SOL    HW227462   4.710   2.072   4.970  0.1349  0.4861  1.3985
 5335SOL     OW27463   3.832   3.910   3.404  0.5140 -0.0260  0.2772
 5335SOL    HW127464   3.866   3.884   3.319 -1.7880 -0.4990 -0.4867
 5335SOL    HW227465   3.848   4.005   3.412  1.6430 -0.1646 -0.3471
 5336SOL     OW27466   2.711   4.466   2.878 -0.0269  0.1748  0.1867
 5336SOL    HW127467   2.657   4.442   2.954  0.8087 -2.1226  0.0565
 5336SOL    HW227468   2.645   4.508   2.824 -0.7279 -0.6935  0.3698
 5337SOL     OW27469   4.624   4.113   3.516  0.7333  0.3194 -0.4723
 5337SOL    HW127470   4.694   4.069   3.564  0.5425  0.9685  0.4013
 5337SOL    HW227471   4.674   4.163   3.451  0.9467 -0.4100 -0.8717
 5338SOL     OW27472   3.625   3.754   1.088 -0.0923  0.0411 -0.3583
 5338SOL    HW127473   3.664   3.811   1.155  0.1621 -1.0097  0.4022
 5338SOL    HW227474   3.626   3.663   1.119 -1.2929  0.3207  0.4917
 5339SOL     OW27475   1.992   2.667   7.039  0.2879 -0.3803 -0.1211
 5339SOL    HW127476   2.009   2.727   7.111 -2.0105 -0.9894  0.9255
 5339SOL    HW227477   2.050   2.697   6.968 -0.5650  0.6253 -0.3809
 5340SOL     OW27478   2.003   0.745  14.159 -0.0578  0.0733  0.2259
 5340SOL    HW127479   1.996   0.732  14.253  0.7453 -0.2062  0.2474
 5340SOL    HW227480   1.914   0.733  14.128  0.0948  2.1741 -1.0102
 5341SOL     OW27481   2.606   3.188  14.813  0.2393 -0.1505 -0.6187
 5341SOL    HW127482   2.587   3.104  14.772 -0.5329 -0.3699  0.1825
 5341SOL    HW227483   2.688   3.213  14.770 -0.8156  1.3592 -1.7721
 5342SOL     OW27484   0.272   2.546   7.526  0.2465  0.4429 -0.1459
 5342SOL    HW127485   0.313   2.568   7.442 -0.8539  3.0968  0.0138
 5342SOL    HW227486   0.341   2.576   7.585 -1.4151 -1.4390  2.7216
 5343SOL     OW27487   0.825   3.667   2.687 -0.0449 -0.2396 -0.1148
 5343SOL    HW127488   0.804   3.700   2.600 -0.0715 -0.5505 -0.2258
 5343SOL    HW227489   0.891   3.725   2.726  0.5790 -1.2334  0.3089
 5344SOL     OW27490   2.090   1.606  12.226  0.4359  0.4326  0.4635
 5344SOL    HW127491   2.071   1.688  12.180  0.6989  1.5801  2.4127
 5344SOL    HW227492   2.036   1.616  12.304  0.0094 -0.7926  0.3207
 5345SOL     OW27493   1.847   4.301   1.819  0.3466 -0.5445 -0.1697
 5345SOL    HW127494   1.900   4.270   1.893  0.3026 -1.4237 -0.5113
 5345SOL    HW227495   1.905   4.372   1.791 -0.7214 -0.4724 -2.1478
 5346SOL     OW27496   1.218   0.642   9.075 -0.1510 -0.0750  0.2806
 5346SOL    HW127497   1.300   0.659   9.029 -0.8654 -0.1595 -1.0302
 5346SOL    HW227498   1.158   0.683   9.013  0.2267 -1.7837 -1.2357
 5347SOL     OW27499   2.182   2.333   9.619  0.1670  0.1567 -0.3929
 5347SOL    HW127500   2.235   2.395   9.669  0.7271  0.2211 -1.0548
 5347SOL    HW227501   2.172   2.264   9.685 -1.1869  1.3700  0.6626
 5348SOL     OW27502   1.466   2.137   8.193 -0.0809  0.5589  0.0590
 5348SOL    HW127503   1.526   2.201   8.233  0.2859  1.1079 -1.3658
 5348SOL    HW227504   1.403   2.192   8.147  1.4687  0.8933 -1.6951
 5349SOL     OW27505   2.628   0.156   8.826 -0.4223 -0.1778 -0.3180
 5349SOL    HW127506   2.665   0.078   8.867 -1.3545  0.1297  1.1120
 5349SOL    HW227507   2.537   0.127   8.820 -0.5655  0.6933 -2.6558
 5350SOL     OW27508   4.520   1.350   4.936  0.5854 -0.0460  0.3052
 5350SOL    HW127509   4.568   1.326   4.856 -1.3883  0.1018 -0.9226
 5350SOL    HW227510   4.457   1.416   4.909 -1.4147 -1.6117  1.1962
 5351SOL     OW27511   2.490   0.635   5.388  0.6904  0.1293  0.0429
 5351SOL    HW127512   2.540   0.584   5.452  1.7661 -1.5250 -2.1206
 5351SOL    HW227513   2.433   0.565   5.357 -1.2963  1.8734 -0.2409
 5352SOL     OW27514   1.049   0.803   6.314  0.0637 -0.2670 -0.1827
 5352SOL    HW127515   1.125   0.754   6.345  0.0310  2.1958  3.8026
 5352SOL    HW227516   0.986   0.734   6.292 -0.8775  0.8033 -0.8196
 5353SOL     OW27517   1.870   2.573   7.493 -0.3030 -0.0405  0.4435
 5353SOL    HW127518   1.916   2.524   7.561 -0.6260  1.3919  1.7056
 5353SOL    HW227519   1.780   2.541   7.499  0.3546 -2.0480 -0.7583
 5354SOL     OW27520   0.158   0.254   8.014 -0.3071  0.0704 -0.0273
 5354SOL    HW127521   0.251   0.271   7.999 -0.0914  1.5110  3.0397
 5354SOL    HW227522   0.126   0.332   7.969 -0.7031  0.9001  1.7104
 5355SOL     OW27523   3.259   4.343   0.406  0.0917 -0.0569  0.4672
 5355SOL    HW127524   3.345   4.308   0.384  1.0810  2.9916 -0.4835
 5355SOL    HW227525   3.235   4.288   0.481 -1.2735  1.1260  0.8908
 5356SOL     OW27526   3.456   3.146   1.018  0.3242  0.4469 -0.0186
 5356SOL    HW127527   3.437   3.147   1.112 -0.7172  1.8730 -0.2400
 5356SOL    HW227528   3.422   3.232   0.992 -0.4375  1.1677  3.3594
 5357SOL     OW27529   0.161   1.120   5.980 -0.0593  0.0969  0.3343
 5357SOL    HW127530   0.195   1.145   5.894  3.2929 -0.7655  1.4224
 5357SOL    HW227531   0.167   1.024   5.974 -1.4037  0.0480 -0.1909
 5358SOL     OW27532   3.202   3.236   5.528  0.4770  0.2800 -0.4999
 5358SOL    HW127533   3.230   3.157   5.482 -0.9224 -0.0087 -0.8521
 5358SOL    HW227534   3.193   3.297   5.454  0.8707  0.9212 -0.0183
 5359SOL     OW27535   4.393   2.359   7.776  0.2386  0.2232 -0.2313
 5359SOL    HW127536   4.442   2.435   7.743  0.6176  0.0254 -0.1153
 5359SOL    HW227537   4.457   2.288   7.782 -0.9793 -0.8891 -0.3382
 5360SOL     OW27538   4.482   2.827   8.541 -0.3461  0.7695 -0.4183
 5360SOL    HW127539   4.532   2.792   8.467  0.8080  0.2707  0.6014
 5360SOL    HW227540   4.486   2.750   8.597 -0.3384  0.9986 -0.1057
 5361SOL     OW27541   2.982   3.260   5.719  0.3180 -0.3532  0.8006
 5361SOL    HW127542   3.026   3.208   5.651  1.3871  0.0762  1.1571
 5361SOL    HW227543   2.948   3.186   5.770 -0.3853 -0.3760  0.3001
 5362SOL     OW27544   0.336   1.312  14.037 -0.0150 -0.2606  0.1589
 5362SOL    HW127545   0.247   1.282  14.021 -0.4573  0.0875  1.8713
 5362SOL    HW227546   0.394   1.265  13.979  1.2024  0.3221  0.8994
 5363SOL     OW27547   1.130   1.963  10.655 -0.4661  0.3575 -0.2171
 5363SOL    HW127548   1.203   2.020  10.676  0.1577 -0.1405 -1.0180
 5363SOL    HW227549   1.157   1.878  10.689  3.0790  1.9642  0.9143
 5364SOL     OW27550   3.939   0.823  12.194  0.1528 -0.0256 -0.1011
 5364SOL    HW127551   3.886   0.763  12.140 -0.9418  0.2419  0.6777
 5364SOL    HW227552   3.878   0.896  12.208  1.3176  1.0867 -0.8481
 5365SOL     OW27553   3.104   3.361   1.755 -0.4350 -0.4269  0.0600
 5365SOL    HW127554   3.074   3.452   1.758 -1.1691 -0.5639 -3.0469
 5365SOL    HW227555   3.176   3.373   1.816 -0.5646 -1.4356  0.4122
 5366SOL     OW27556   2.788   2.611   0.029 -0.3223 -0.5025 -0.0825
 5366SOL    HW127557   2.873   2.638  17.696 -1.6616  0.9423 -2.3209
 5366SOL    HW227558   2.746   2.694   0.050  0.9751  0.5309 -1.6083
 5367SOL     OW27559   3.267   2.992  16.625 -0.1378 -0.1750  0.6058
 5367SOL    HW127560   3.308   2.962  16.544 -0.6733 -2.3486  1.1455
 5367SOL    HW227561   3.183   2.948  16.633 -0.4834  0.1108 -1.5229
 5368SOL     OW27562   2.030   1.321  16.579  0.2382  0.1137 -0.4441
 5368SOL    HW127563   2.040   1.377  16.503  0.5085 -1.9271 -1.9192
 5368SOL    HW227564   2.020   1.391  16.644 -0.6049 -0.1484 -0.2969
 5369SOL     OW27565   2.874   2.290   4.550  0.2919 -0.9574 -0.1423
 5369SOL    HW127566   2.877   2.204   4.592  0.4828 -0.9653 -0.1728
 5369SOL    HW227567   2.924   2.348   4.607  0.5103 -0.9735 -0.3182
 5370SOL     OW27568   0.469   3.973   4.932  0.2856 -0.4045 -0.0932
 5370SOL    HW127569   0.409   4.048   4.924  0.6457 -0.2292 -1.0333
 5370SOL    HW227570   0.472   3.943   4.842  2.2741  0.1263 -0.1973
 5371SOL     OW27571   0.973   2.070   3.493 -0.3529 -0.1144  0.0034
 5371SOL    HW127572   0.945   2.147   3.541  2.3996  0.6407  0.4146
 5371SOL    HW227573   1.053   2.102   3.451 -0.1935 -2.7010 -1.7372
 5372SOL     OW27574   0.574   1.624   4.535  0.1132 -0.3448 -0.4745
 5372SOL    HW127575   0.595   1.718   4.538 -0.5561 -0.1889 -0.6346
 5372SOL    HW227576   0.654   1.597   4.579  0.1531 -1.4414 -1.2223
 5373SOL     OW27577   2.512   4.491  11.584 -0.4574 -0.3702  0.4459
 5373SOL    HW127578   2.468   4.563  11.538 -0.4550  0.3665  1.6067
 5373SOL    HW227579   2.596   4.530  11.608 -0.9531  0.2538  1.1691
 5374SOL     OW27580   3.379   1.959   9.453 -0.3471 -0.8276 -0.1142
 5374SOL    HW127581   3.407   1.870   9.430  1.3331  0.0744 -1.5941
 5374SOL    HW227582   3.455   2.014   9.473 -0.3377 -0.2630 -1.6877
 5375SOL     OW27583   3.451   1.387   6.007  0.4182 -0.0878  0.2191
 5375SOL    HW127584   3.390   1.449   5.968  0.8866  0.1964 -0.0523
 5375SOL    HW227585   3.451   1.420   6.097  0.0999 -0.2380  0.2726
 5376SOL     OW27586   3.239   4.038   6.618 -0.4099  0.4474 -0.0615
 5376SOL    HW127587   3.309   4.103   6.613  3.0763 -3.1932  2.0210
 5376SOL    HW227588   3.288   3.971   6.665 -2.3987  0.7896  2.5424
 5377SOL     OW27589   4.398   2.119  15.723  0.0676  0.7817  0.3656
 5377SOL    HW127590   4.487   2.125  15.758 -0.0787  1.5094  0.6232
 5377SOL    HW227591   4.405   2.155  15.635  1.0574  0.2152  0.2095
 5378SOL     OW27592   1.479   2.210   3.613  0.0498  0.5062  0.6144
 5378SOL    HW127593   1.410   2.276   3.612  0.0396  0.4519 -1.7931
 5378SOL    HW227594   1.524   2.235   3.532 -0.2615  1.3146  0.6873
 5379SOL     OW27595   2.710   1.284   1.820 -0.1240  0.3183  0.2655
 5379SOL    HW127596   2.639   1.221   1.816  0.2434  0.0497 -1.7642
 5379SOL    HW227597   2.780   1.224   1.845  0.5635  1.4215  1.0287
 5380SOL     OW27598   0.796   1.101   3.889 -0.1647  0.5225  0.5494
 5380SOL    HW127599   0.878   1.151   3.892  0.0501  0.4065 -2.9996
 5380SOL    HW227600   0.793   1.079   3.982 -0.4325 -0.5439  0.2868
 5381SOL     OW27601   3.938   2.708  16.342  0.2088 -0.0537 -0.7432
 5381SOL    HW127602   3.980   2.789  16.315 -0.8608  1.0535  0.9481
 5381SOL    HW227603   4.013   2.668  16.386 -0.5548 -1.7416 -0.9715
 5382SOL     OW27604   3.360   1.145   6.095 -0.2360  1.0310  0.3098
 5382SOL    HW127605   3.395   1.226   6.056  1.3703  0.6035  0.8942
 5382SOL    HW227606   3.351   1.085   6.021 -0.1030  0.1893  0.9855
 5383SOL     OW27607   2.006   2.487   7.747 -0.2747 -0.4560  1.1788
 5383SOL    HW127608   2.016   2.392   7.745 -0.3252 -0.4490  0.5717
 5383SOL    HW227609   1.951   2.492   7.826  1.7984  2.0215  2.4499
 5384SOL     OW27610   1.208   3.117   5.018 -0.2022  0.0821  0.3822
 5384SOL    HW127611   1.285   3.170   5.034  0.4382 -0.2688 -1.6358
 5384SOL    HW227612   1.133   3.173   5.036 -2.1681 -1.7322 -2.1326
 5385SOL     OW27613   0.237   2.539  11.263  0.4126 -0.0439 -0.3748
 5385SOL    HW127614   0.243   2.499  11.176 -0.3445 -0.0872 -0.3999
 5385SOL    HW227615   0.311   2.495  11.306 -0.7935 -1.1256  0.5804
 5386SOL     OW27616   2.372   1.603   3.693  0.3960  0.4552  0.0952
 5386SOL    HW127617   2.445   1.553   3.729 -0.4673 -1.2853 -0.5553
 5386SOL    HW227618   2.307   1.533   3.690  0.3196  0.5459 -0.2996
 5387SOL     OW27619   4.208   3.850   7.406  0.3152  0.3566  0.6254
 5387SOL    HW127620   4.126   3.825   7.364  0.3162  0.2580  0.6832
 5387SOL    HW227621   4.272   3.827   7.338  0.6952 -0.0685  1.1221
 5388SOL     OW27622   0.594   3.129   5.501 -0.3067 -0.1820 -0.7956
 5388SOL    HW127623   0.660   3.108   5.436 -2.1281 -1.6487 -2.1801
 5388SOL    HW227624   0.644   3.161   5.576 -1.7462  0.6887 -0.1989
 5389SOL     OW27625   1.548   1.958   7.716  0.6369  0.1467  0.1903
 5389SOL    HW127626   1.628   1.910   7.740 -0.1301 -0.2215  2.0152
 5389SOL    HW227627   1.498   1.974   7.796  1.3184  0.5861  0.5283
 5390SOL     OW27628   3.037   2.299   9.953 -0.0624  0.1672 -0.5752
 5390SOL    HW127629   3.037   2.279  10.046  2.5718  2.2116 -0.1158
 5390SOL    HW227630   3.112   2.358   9.948 -0.9881  1.2109 -1.9231
 5391SOL     OW27631   2.066   4.615   6.654  0.5550  0.4011 -0.6032
 5391SOL    HW127632   2.087   4.707   6.637 -1.2020  0.7093 -1.1411
 5391SOL    HW227633   2.084   4.573   6.570  1.8536 -2.0542  0.9009
 5392SOL     OW27634   3.554   0.429  16.917  0.7388 -0.4539 -0.1087
 5392SOL    HW127635   3.550   0.524  16.909  0.5537 -0.3532  1.3377
 5392SOL    HW227636   3.650   0.420  16.916  0.5441 -2.6297  4.1004
 5393SOL     OW27637   1.598   4.551   5.994  0.4988 -0.0294 -0.1865
 5393SOL    HW127638   1.513   4.515   6.018  0.3855  0.7811  0.6170
 5393SOL    HW227639   1.649   4.505   6.061  2.2726 -0.5751 -1.9010
 5394SOL     OW27640   2.437   2.406  14.580 -0.1932  0.0053 -0.2147
 5394SOL    HW127641   2.439   2.491  14.625 -1.6711  0.2095 -0.5225
 5394SOL    HW227642   2.343   2.390  14.576 -0.5801  2.3787 -0.3282
 5395SOL     OW27643   3.245   4.464   6.809  0.3490 -0.2394 -0.1260
 5395SOL    HW127644   3.336   4.468   6.781 -0.5337  0.3263 -2.9224
 5395SOL    HW227645   3.252   4.405   6.885 -1.7463 -1.1132 -0.5929
 5396SOL     OW27646   0.062   0.016   4.674  0.6308 -0.4114 -0.2745
 5396SOL    HW127647   0.154   0.042   4.664  0.3147  1.2992  1.4410
 5396SOL    HW227648   0.033   0.082   4.737  0.2880 -0.0657 -0.7951
 5397SOL     OW27649   2.368   1.738  13.297 -0.2594  0.2934  0.7185
 5397SOL    HW127650   2.301   1.802  13.320  0.7616  1.3105  0.8908
 5397SOL    HW227651   2.353   1.737  13.202  1.6029 -1.5432  0.4379
 5398SOL     OW27652   4.656   4.080   2.879  0.4639  0.8302  0.3960
 5398SOL    HW127653   4.713   4.038   2.814 -0.7778 -1.5223  0.8363
 5398SOL    HW227654   4.619   3.997   2.909 -0.2555  0.6449 -0.9613
 5399SOL     OW27655   4.405   2.193   2.426  0.5108 -0.0683 -0.1699
 5399SOL    HW127656   4.445   2.159   2.345 -0.6215  1.2708 -1.2858
 5399SOL    HW227657   4.454   2.275   2.432 -1.1498  0.7779  1.6713
 5400SOL     OW27658   1.499   2.463   5.868  0.1685  0.1134  0.3420
 5400SOL    HW127659   1.544   2.511   5.799  0.7602 -2.3729 -0.9903
 5400SOL    HW227660   1.512   2.375   5.832 -1.4452 -0.6300  1.5603
 5401SOL     OW27661   1.837   3.595   4.535  0.7748 -0.3667 -0.2049
 5401SOL    HW127662   1.877   3.678   4.558 -1.2067 -0.2267  2.6889
 5401SOL    HW227663   1.784   3.631   4.465  0.9702  0.0060 -0.1577
 5402SOL     OW27664   1.271   4.286   7.363 -0.0513  0.4328  0.4983
 5402SOL    HW127665   1.357   4.327   7.358 -0.8588  2.0928  0.3079
 5402SOL    HW227666   1.286   4.196   7.334  0.2319  0.6683 -0.0890
 5403SOL     OW27667   1.246   4.666  15.807  0.1486 -0.1106 -0.4224
 5403SOL    HW127668   1.167   4.647  15.858 -0.3862  0.9995 -0.8507
 5403SOL    HW227669   1.281   4.719  15.878 -0.4675 -1.6869  1.0491
 5404SOL     OW27670   2.873   3.055   5.869 -0.6178  0.1103  0.2402
 5404SOL    HW127671   2.824   3.013   5.798  1.5096  0.3518 -1.3776
 5404SOL    HW227672   2.814   3.043   5.943  0.8783  0.1693  1.4342
 5405SOL     OW27673   4.721   3.277   9.971 -0.6215  0.2073 -1.8080
 5405SOL    HW127674   4.722   3.373   9.972 -1.0117  0.1893  0.8885
 5405SOL    HW227675   0.000   3.254  10.064  0.9133 -0.6430 -2.0895
 5406SOL     OW27676   0.070   0.509   6.324 -0.0165 -0.0504  0.2841
 5406SOL    HW127677   0.080   0.542   6.414  0.9035 -0.6385  0.3903
 5406SOL    HW227678   0.128   0.570   6.279 -1.9139  0.7551 -1.0564
 5407SOL     OW27679   4.379   1.725   5.903  0.5906  0.0738 -0.2425
 5407SOL    HW127680   4.308   1.759   5.848  0.6387  1.2150  0.3930
 5407SOL    HW227681   4.452   1.774   5.865  0.6533  0.5421  0.4872
 5408SOL     OW27682   0.938   0.941  10.748 -0.3077 -0.6022  0.3626
 5408SOL    HW127683   0.986   1.021  10.725 -0.7958 -0.5219 -0.3730
 5408SOL    HW227684   0.887   0.934  10.667  0.4118  1.6210 -0.2956
 5409SOL     OW27685   2.357   1.200  15.963  0.1423  0.3712  0.1340
 5409SOL    HW127686   2.266   1.213  15.991 -0.3524  0.9899 -1.7961
 5409SOL    HW227687   2.396   1.152  16.036  1.5506  1.2121 -0.0841
 5410SOL     OW27688   2.820   0.232   8.644 -0.1646 -0.1805  0.5922
 5410SOL    HW127689   2.756   0.187   8.699 -1.2994 -1.2035 -1.5358
 5410SOL    HW227690   2.791   0.205   8.557 -1.3573  0.3450  0.8207
 5411SOL     OW27691   1.564   4.508  15.386  0.7203  0.5145  0.2154
 5411SOL    HW127692   1.585   4.600  15.368  0.9406  0.3716 -0.2724
 5411SOL    HW227693   1.499   4.518  15.456 -0.6429 -2.5471 -0.6377
 5412SOL     OW27694   0.706   0.348   7.966  0.5203  0.2271 -0.1849
 5412SOL    HW127695   0.670   0.260   7.975 -2.0151  1.2118 -0.5717
 5412SOL    HW227696   0.641   0.397   8.018  0.9206  0.1813  0.3551
 5413SOL     OW27697   3.375   0.510   5.443 -0.1629 -0.0559 -0.4928
 5413SOL    HW127698   3.288   0.539   5.471  0.1158  0.9821 -0.6769
 5413SOL    HW227699   3.381   0.569   5.367  0.3320  0.3307 -0.1548
 5414SOL     OW27700   2.764   3.393   1.970 -0.0981 -0.0203 -0.4524
 5414SOL    HW127701   2.732   3.467   1.918 -1.5105 -0.0829  0.3083
 5414SOL    HW227702   2.850   3.418   2.003 -1.3673  2.6916  0.8428
 5415SOL     OW27703   3.167   1.086   1.112 -0.1468  0.6920 -0.4858
 5415SOL    HW127704   3.107   1.151   1.077 -1.3318 -0.8444 -1.3154
 5415SOL    HW227705   3.133   1.080   1.201 -1.6732 -0.5246 -1.1564
 5416SOL     OW27706   1.509   3.208   0.995 -0.2857  0.0147  0.1419
 5416SOL    HW127707   1.516   3.127   0.944  0.5067  0.3077 -0.2193
 5416SOL    HW227708   1.418   3.235   0.981  0.4100  1.6644 -1.3034
 5417SOL     OW27709   2.196   2.200  14.014 -0.2179  0.1113 -0.6363
 5417SOL    HW127710   2.114   2.151  14.015 -0.1624  0.0662  1.5895
 5417SOL    HW227711   2.256   2.147  13.963 -0.0939 -0.9216  0.5937
 5418SOL     OW27712   2.192   1.644   3.088  0.1085  0.1535  0.5954
 5418SOL    HW127713   2.221   1.602   3.169 -0.4393  1.8110  1.6661
 5418SOL    HW227714   2.224   1.734   3.101  0.3130  0.0884  0.5375
 5419SOL     OW27715   0.809   1.540   4.671 -0.0251  0.1678  0.0883
 5419SOL    HW127716   0.904   1.536   4.685 -0.2342  0.2264  1.4739
 5419SOL    HW227717   0.808   1.469   4.606  0.5996 -1.0168  1.3836
 5420SOL     OW27718   2.234   3.832   7.610 -0.0514 -0.5685 -0.5305
 5420SOL    HW127719   2.241   3.918   7.652  2.7244 -0.4917 -1.1667
 5420SOL    HW227720   2.217   3.863   7.521  0.7498 -1.7211 -1.0709
 5421SOL     OW27721   1.615   2.850   1.176 -0.3505  0.4356 -0.2019
 5421SOL    HW127722   1.643   2.817   1.090  0.3507 -1.2473  0.6791
 5421SOL    HW227723   1.520   2.852   1.165 -0.4501 -0.9449  0.5163
 5422SOL     OW27724   0.843   0.663   4.443  0.6362 -0.8670  0.0602
 5422SOL    HW127725   0.861   0.753   4.469 -0.6893 -0.1409 -1.5428
 5422SOL    HW227726   0.819   0.627   4.528  1.2704 -0.3112  0.4801
 5423SOL     OW27727   0.962   2.440   3.945 -0.2179 -0.1349  0.9175
 5423SOL    HW127728   0.901   2.408   3.878 -1.0966 -1.3005  2.2609
 5423SOL    HW227729   1.045   2.435   3.898 -0.2563 -0.0046  0.8357
 5424SOL     OW27730   3.557   4.054   4.292 -0.3694 -0.3218 -0.5600
 5424SOL    HW127731   3.601   4.031   4.374  0.9266  2.8317 -0.3568
 5424SOL    HW227732   3.506   3.975   4.273 -0.8574  0.3128 -1.8317
 5425SOL     OW27733   2.401   3.556  11.906  0.1354 -0.4245 -0.3620
 5425SOL    HW127734   2.484   3.522  11.938  0.3551  1.3004  0.9046
 5425SOL    HW227735   2.377   3.611  11.980  0.1669 -0.6783 -0.1619
 5426SOL     OW27736   2.499   3.677   2.320  0.3806 -0.3801  0.1485
 5426SOL    HW127737   2.569   3.700   2.382  1.0045 -0.5656 -0.4868
 5426SOL    HW227738   2.425   3.721   2.362  1.3272 -0.2052  1.6357
 5427SOL     OW27739   2.860   2.378   9.754  0.5717  0.2374 -0.1467
 5427SOL    HW127740   2.937   2.371   9.811  1.0616 -1.9853 -1.0940
 5427SOL    HW227741   2.796   2.341   9.815  1.1080 -1.4980 -0.6483
 5428SOL     OW27742   4.305   2.179   6.971  0.2367 -0.0025  0.1080
 5428SOL    HW127743   4.394   2.156   7.000 -0.0877 -0.0700  1.0349
 5428SOL    HW227744   4.317   2.257   6.916  1.4070 -1.2317 -1.3887
 5429SOL     OW27745   3.334   3.683  13.730  0.2601  0.0102 -0.1402
 5429SOL    HW127746   3.370   3.767  13.757  0.0165  0.4825 -1.2577
 5429SOL    HW227747   3.302   3.701  13.641  2.1732 -1.1271 -1.0775
 5430SOL     OW27748   3.897   1.780   4.222 -0.5092 -0.2012 -0.2707
 5430SOL    HW127749   3.988   1.807   4.225  0.5825 -3.8861 -0.1073
 5430SOL    HW227750   3.884   1.740   4.307 -3.3451 -1.1962 -1.1819
 5431SOL     OW27751   4.351   3.730   6.945  0.0686 -0.4884 -0.2457
 5431SOL    HW127752   4.430   3.712   6.894  0.7163 -0.5936  0.7964
 5431SOL    HW227753   4.278   3.708   6.888 -0.5663  0.6376  0.1279
 5432SOL     OW27754   4.164   3.091   7.969 -0.4419  0.3364 -0.8492
 5432SOL    HW127755   4.083   3.052   7.935  0.0494 -2.0786  0.7899
 5432SOL    HW227756   4.155   3.099   8.064  0.0023  1.6242 -0.9165
 5433SOL     OW27757   2.637   2.087   3.660  0.0524  0.5173 -0.2623
 5433SOL    HW127758   2.664   1.996   3.670  1.2979  1.0939  1.4662
 5433SOL    HW227759   2.666   2.121   3.744 -1.2901  0.8346  0.0747
 5434SOL     OW27760   3.827   2.152   7.124  0.0304 -0.0242 -0.6319
 5434SOL    HW127761   3.793   2.242   7.131  0.0291 -0.0398 -0.4455
 5434SOL    HW227762   3.916   2.174   7.096 -0.6529  2.4910 -0.8692
 5435SOL     OW27763   3.417   3.797   4.158 -0.3234 -0.1023  0.0687
 5435SOL    HW127764   3.511   3.777   4.163 -0.1553  1.0470  1.3866
 5435SOL    HW227765   3.383   3.723   4.208  0.8402 -0.0398  0.9492
 5436SOL     OW27766   2.076   2.879  16.631  0.1424 -0.4135 -0.2430
 5436SOL    HW127767   2.125   2.802  16.661 -0.7338 -1.3297 -1.1426
 5436SOL    HW227768   2.007   2.834  16.582  0.5000 -1.5809  0.3213
 5437SOL     OW27769   1.200   1.282   7.874 -0.2775 -0.3463  0.0464
 5437SOL    HW127770   1.120   1.271   7.926 -0.0487 -1.0604  0.2554
 5437SOL    HW227771   1.165   1.249   7.791 -1.4348  0.3734  0.2492
 5438SOL     OW27772   1.509   1.353   5.361 -0.2402  0.7636  0.3430
 5438SOL    HW127773   1.548   1.414   5.424 -0.5623 -0.4025  1.6880
 5438SOL    HW227774   1.520   1.401   5.279 -0.7496  0.2204 -0.0457
 5439SOL     OW27775   2.174   0.916   4.251  0.3485 -0.0139 -0.3447
 5439SOL    HW127776   2.159   0.987   4.189  0.3466 -0.2704 -0.6390
 5439SOL    HW227777   2.168   0.844   4.189  1.6573 -0.5551  0.1483
 5440SOL     OW27778   2.221   0.008   7.403 -0.8300  0.1971  0.0513
 5440SOL    HW127779   2.203   0.089   7.451 -0.6980 -0.1952  0.7524
 5440SOL    HW227780   2.317   0.013   7.408 -0.9735  1.9760  1.1344
 5441SOL     OW27781   3.908   4.490   1.821  0.1510  0.0364  0.1058
 5441SOL    HW127782   3.968   4.445   1.880  2.7479  0.8294 -1.9369
 5441SOL    HW227783   3.889   4.570   1.870  1.2830 -0.7280  1.8060
 5442SOL     OW27784   1.525   1.355  16.587  0.0247  0.3858 -0.2557
 5442SOL    HW127785   1.565   1.269  16.577  2.5470  1.2820  2.0414
 5442SOL    HW227786   1.595   1.413  16.617  0.3988 -0.6310  0.8368
 5443SOL     OW27787   2.811   1.929   1.892  0.0373  0.0595  0.4241
 5443SOL    HW127788   2.769   1.843   1.885  0.1459 -0.0119  0.6554
 5443SOL    HW227789   2.760   1.987   1.834 -1.3345  0.0492  1.6226
 5444SOL     OW27790   2.102   2.891   9.621  0.4193 -0.0639  0.6346
 5444SOL    HW127791   2.020   2.841   9.627  0.5892 -0.3923  0.2568
 5444SOL    HW227792   2.093   2.941   9.540  0.9671  1.4351  1.4976
 5445SOL     OW27793   2.595   3.980   1.435 -0.1434  0.3259 -0.2583
 5445SOL    HW127794   2.647   4.001   1.357  0.7181  2.4478  0.8819
 5445SOL    HW227795   2.605   4.067   1.475 -0.8519  0.2003  0.1898
 5446SOL     OW27796   1.513   4.488  13.915 -0.0997  0.2465 -0.1918
 5446SOL    HW127797   1.477   4.408  13.876  0.9489  0.7492 -2.2108
 5446SOL    HW227798   1.582   4.505  13.851  1.0115  1.8268  1.4228
 5447SOL     OW27799   3.824   2.847   5.331  0.0600  0.1616 -0.1064
 5447SOL    HW127800   3.907   2.812   5.363  0.9346  2.8066  0.5314
 5447SOL    HW227801   3.853   2.893   5.253 -0.1731 -3.2206 -2.1629
 5448SOL     OW27802   2.405   0.749  14.879 -0.2161  0.8920  0.2117
 5448SOL    HW127803   2.314   0.720  14.885 -0.2852  0.6137 -2.0540
 5448SOL    HW227804   2.412   0.779  14.788  0.3305  3.0220  0.9545
 5449SOL     OW27805   0.150   3.442  13.608  0.7089  0.2623  0.1447
 5449SOL    HW127806   0.194   3.527  13.607  0.1385  0.5672  0.9955
 5449SOL    HW227807   0.188   3.387  13.540  0.5629  0.0476  0.2356
 5450SOL     OW27808   1.755   3.673   1.962 -0.1144  0.2954  0.3058
 5450SOL    HW127809   1.830   3.632   2.006  0.1608 -0.5397 -0.9223
 5450SOL    HW227810   1.804   3.741   1.915  0.8108 -0.7572 -0.2750
 5451SOL     OW27811   1.630   0.609   7.850 -0.5978  0.4466  0.1047
 5451SOL    HW127812   1.690   0.540   7.822 -0.5690  0.2928  0.5408
 5451SOL    HW227813   1.694   0.680   7.846 -0.4148  0.2804  0.0742
 5452SOL     OW27814   4.710   0.876   3.496  0.6132 -0.5858  0.6541
 5452SOL    HW127815   0.047   0.948   3.484 -1.2980  0.8744 -0.4207
 5452SOL    HW227816   4.723   0.825   3.417  1.0527  1.2239 -0.4366
 5453SOL     OW27817   4.201   4.102   5.309 -0.2914 -0.4071  0.5544
 5453SOL    HW127818   4.246   4.180   5.276  0.0681 -0.6126  0.5592
 5453SOL    HW227819   4.227   4.105   5.401  0.9624  0.3535  0.1666
 5454SOL     OW27820   2.456   3.555  13.416 -0.3091  0.3951 -0.1937
 5454SOL    HW127821   2.428   3.638  13.454  1.1149 -0.0288  1.7352
 5454SOL    HW227822   2.374   3.506  13.409  0.0798 -0.4425  1.0480
 5455SOL     OW27823   0.184   0.303  11.257 -0.2609 -0.2884 -0.4333
 5455SOL    HW127824   0.170   0.366  11.186  0.1048 -0.7736 -0.9381
 5455SOL    HW227825   0.093   0.281  11.273  0.9165 -3.6962  1.3244
 5456SOL     OW27826   2.641   1.911  13.508 -0.2225 -0.0368 -0.4817
 5456SOL    HW127827   2.707   1.967  13.467  1.3067 -1.4324  0.0582
 5456SOL    HW227828   2.561   1.921  13.456 -1.6602 -1.2278  1.4934
 5457SOL     OW27829   3.385   0.827   0.549  0.0051  0.7313  0.6355
 5457SOL    HW127830   3.417   0.806   0.637 -1.9030 -1.0766  0.8805
 5457SOL    HW227831   3.456   0.885   0.520  0.5545  0.0033  0.5191
 5458SOL     OW27832   3.039   0.355   4.338 -0.3453  0.6879  0.0242
 5458SOL    HW127833   3.095   0.342   4.414 -0.6377  0.8816  0.2748
 5458SOL    HW227834   3.003   0.266   4.332 -0.0255  0.6021 -0.6509
 5459SOL     OW27835   1.485   3.494   4.762  0.2082 -0.0452 -0.6280
 5459SOL    HW127836   1.476   3.513   4.668 -1.7992 -1.0981 -0.6285
 5459SOL    HW227837   1.422   3.424   4.774  0.9964 -1.0688 -2.4534
 5460SOL     OW27838   3.855   2.448   6.898 -0.5904 -0.0646 -0.1502
 5460SOL    HW127839   3.928   2.417   6.953 -1.1044  2.2335  1.8522
 5460SOL    HW227840   3.901   2.467   6.817  2.7943 -0.5695  1.6319
 5461SOL     OW27841   2.613   0.610  15.061 -0.0395 -0.0862 -0.0767
 5461SOL    HW127842   2.536   0.563  15.029 -0.2986 -0.7299  1.4555
 5461SOL    HW227843   2.682   0.543  15.059 -0.6030 -0.5951 -2.1453
 5462SOL     OW27844   0.221   2.529  16.459  0.4500 -0.4209 -0.4604
 5462SOL    HW127845   0.244   2.621  16.443 -0.4567 -0.2547 -0.8010
 5462SOL    HW227846   0.127   2.531  16.442  0.7374  3.0476 -1.7099
 5463SOL     OW27847   1.731   4.020   2.024  0.1616  0.1697  0.4903
 5463SOL    HW127848   1.822   4.014   2.052  0.6809  0.9726 -1.0545
 5463SOL    HW227849   1.698   3.952   2.084 -1.6399  0.6811  0.0834
 5464SOL     OW27850   3.377   2.914   6.982 -0.0013  0.2721  0.6710
 5464SOL    HW127851   3.401   2.844   6.921 -2.5066 -1.1327  1.3184
 5464SOL    HW227852   3.286   2.890   7.000  0.6149 -4.4389 -2.8289
 5465SOL     OW27853   2.899   3.064   5.197 -0.5135  0.3655 -0.8934
 5465SOL    HW127854   2.867   2.974   5.195 -3.5359  1.3921 -0.0889
 5465SOL    HW227855   2.974   3.056   5.138  0.5438 -3.0506  0.9627
 5466SOL     OW27856   4.624   0.648   7.385  0.3658 -0.9246  0.4684
 5466SOL    HW127857   4.545   0.612   7.344  0.3551 -0.6978  0.2880
 5466SOL    HW227858   4.606   0.738   7.411 -1.0103 -1.5050  1.4753
 5467SOL     OW27859   1.946   4.490  12.295 -0.1032 -0.6165  0.6630
 5467SOL    HW127860   1.922   4.401  12.321 -0.3147 -0.3544  1.3546
 5467SOL    HW227861   1.867   4.522  12.253  1.3901  0.3415 -1.4153
 5468SOL     OW27862   3.402   0.711   4.797  0.1598  0.4287  0.0524
 5468SOL    HW127863   3.450   0.659   4.732  0.5580 -0.2277  0.8824
 5468SOL    HW227864   3.318   0.717   4.750  0.1177  0.9581  0.1980
 5469SOL     OW27865   2.034   3.615   6.516 -0.2688  0.0218 -0.2877
 5469SOL    HW127866   2.000   3.687   6.569  2.0668  1.3976 -0.6765
 5469SOL    HW227867   1.957   3.590   6.465 -0.8809  1.6374 -0.1482
 5470SOL     OW27868   2.623   0.796   7.604  0.2536 -0.1316 -0.2730
 5470SOL    HW127869   2.549   0.762   7.553  1.2261  1.1801 -2.5478
 5470SOL    HW227870   2.674   0.716   7.614 -0.6567 -0.8713 -1.5595
 5471SOL     OW27871   2.594   1.361   3.668 -0.0543  0.6793  0.3259
 5471SOL    HW127872   2.675   1.334   3.625  0.5230  2.1291  0.5011
 5471SOL    HW227873   2.571   1.283   3.719 -1.3395  1.3815  0.8084
 5472SOL     OW27874   0.061   1.243  12.162  0.5713 -0.3640 -0.1973
 5472SOL    HW127875   0.092   1.316  12.216 -0.3988 -0.0093 -0.1279
 5472SOL    HW227876   0.077   1.166  12.217 -1.9079  0.7627  2.1343
 5473SOL     OW27877   0.457   2.904   7.744 -0.1500  0.4143  0.0672
 5473SOL    HW127878   0.435   2.874   7.656 -0.3998 -1.8876  0.9170
 5473SOL    HW227879   0.365   2.891   7.770 -0.5056 -1.4136 -2.0704
 5474SOL     OW27880   3.737   3.635   0.177 -0.3461 -0.1910 -0.6880
 5474SOL    HW127881   3.692   3.551   0.174  2.1711 -1.5393 -0.7069
 5474SOL    HW227882   3.770   3.622   0.266 -0.7097  0.1063 -0.5081
 5475SOL     OW27883   2.118   4.388  10.682  0.2673 -0.3389  0.2004
 5475SOL    HW127884   2.210   4.411  10.670  0.6125 -2.2586 -0.8607
 5475SOL    HW227885   2.119   4.334  10.761 -0.8770  0.4157  0.7403
 5476SOL     OW27886   2.420   2.039  13.183  0.1414 -0.7867 -0.4879
 5476SOL    HW127887   2.338   2.043  13.135 -0.8641  0.7074  1.3783
 5476SOL    HW227888   2.458   1.960  13.145  0.5024 -0.5505 -0.6236
 5477SOL     OW27889   4.436   4.294   4.136 -0.0136 -0.1378 -0.0973
 5477SOL    HW127890   4.503   4.265   4.199  1.0832  0.7021 -0.8677
 5477SOL    HW227891   4.396   4.215   4.100 -1.4732 -0.2618  1.8382
 5478SOL     OW27892   1.616   0.145   0.650  0.8620  0.0484 -0.3336
 5478SOL    HW127893   1.548   0.131   0.716  1.7216  2.0360  0.9973
 5478SOL    HW227894   1.583   0.116   0.565 -0.0622 -1.7922  0.6491
 5479SOL     OW27895   1.598   3.092   8.441  0.6844 -0.0688  0.3833
 5479SOL    HW127896   1.680   3.116   8.485  0.8073  0.6186 -0.2203
 5479SOL    HW227897   1.551   3.173   8.420 -0.2438 -0.1990  1.9859
 5480SOL     OW27898   2.172   3.983   8.566  0.3944 -0.4439 -0.5546
 5480SOL    HW127899   2.154   3.994   8.473 -2.9582 -1.0518  0.0226
 5480SOL    HW227900   2.259   4.019   8.579  0.4919 -0.8178 -0.1304
 5481SOL     OW27901   0.417   3.054   5.828  0.4746  0.1207 -0.1087
 5481SOL    HW127902   0.360   3.096   5.892 -0.1715  1.2734 -1.4600
 5481SOL    HW227903   0.398   2.961   5.842 -0.1464  0.2813  0.1005
 5482SOL     OW27904   4.193   3.103   3.976 -0.6188  0.3012  0.6572
 5482SOL    HW127905   4.156   3.016   3.994 -1.0655  0.4850  0.6075
 5482SOL    HW227906   4.259   3.106   4.046  0.0104  3.3104 -0.0905
 5483SOL     OW27907   3.125   0.664   0.231 -0.2387 -0.8184 -0.0367
 5483SOL    HW127908   3.096   0.716   0.156  0.4404  1.3212  1.1886
 5483SOL    HW227909   3.166   0.589   0.189  2.0361  0.0658  0.5876
 5484SOL     OW27910   0.322   3.421   5.699 -0.5240  0.8453 -0.0999
 5484SOL    HW127911   0.327   3.333   5.663 -1.2846  1.2605 -1.1895
 5484SOL    HW227912   0.405   3.442   5.744 -0.4579  0.1796  0.0890
 5485SOL     OW27913   3.548   4.532   2.428  0.0302 -0.3664 -0.0520
 5485SOL    HW127914   3.607   4.577   2.487 -0.9157  2.4610 -1.2632
 5485SOL    HW227915   3.564   4.439   2.446  1.2517  0.0099  0.8081
 5486SOL     OW27916   3.644   1.049   7.650  0.3299  0.2150  0.0418
 5486SOL    HW127917   3.584   1.097   7.592 -0.1457  0.9184  1.1238
 5486SOL    HW227918   3.722   1.103   7.636  0.0682  1.0483  1.7635
 5487SOL     OW27919   1.519   0.345  11.265 -0.0550 -0.3798  0.1355
 5487SOL    HW127920   1.529   0.298  11.182 -0.9965  0.3420 -0.3884
 5487SOL    HW227921   1.577   0.419  11.250  0.5787 -0.5562  1.7487
 5488SOL     OW27922   2.129   3.853   7.288  0.0722  0.0819  0.4365
 5488SOL    HW127923   2.160   3.942   7.270 -2.5035  1.0187  0.6500
 5488SOL    HW227924   2.203   3.795   7.303  0.6415  0.8772  0.7520
 5489SOL     OW27925   0.324   0.542   6.481 -0.0012  0.1338  0.5590
 5489SOL    HW127926   0.338   0.637   6.475 -0.0146  0.2136  1.6317
 5489SOL    HW227927   0.380   0.516   6.408 -0.6584 -0.7808  0.3872
 5490SOL     OW27928   1.742   1.844   2.914 -0.3142  0.1884  0.3725
 5490SOL    HW127929   1.701   1.797   2.842 -2.6272 -1.2902  2.6330
 5490SOL    HW227930   1.755   1.770   2.973  0.0948  1.4109  1.8390
 5491SOL     OW27931   3.748   1.550   3.334 -0.4466 -0.1215  0.6295
 5491SOL    HW127932   3.708   1.633   3.307  1.5103  0.5959 -0.0527
 5491SOL    HW227933   3.767   1.517   3.246 -0.2168  0.5514  0.4204
 5492SOL     OW27934   3.182   1.019  12.691  0.2137 -0.7124 -0.4567
 5492SOL    HW127935   3.155   0.936  12.652 -1.1909  0.0168 -1.0381
 5492SOL    HW227936   3.101   1.043  12.735  0.4042  0.2078 -0.5979
 5493SOL     OW27937   3.184   3.636  15.806 -0.1141  0.4891 -0.1871
 5493SOL    HW127938   3.248   3.578  15.847 -0.6055 -0.1306 -0.3003
 5493SOL    HW227939   3.218   3.642  15.716 -0.8490  2.5344 -0.3279
 5494SOL     OW27940   3.481   0.387  12.526  0.3291 -0.4497 -0.2636
 5494SOL    HW127941   3.480   0.301  12.483 -0.3274 -0.0913 -0.9563
 5494SOL    HW227942   3.499   0.364  12.617 -0.5781  1.1745  0.3237
 5495SOL     OW27943   2.585   3.134   2.914  0.1521  0.0582  0.2629
 5495SOL    HW127944   2.520   3.202   2.898 -2.1965 -3.1821 -3.8236
 5495SOL    HW227945   2.531   3.064   2.951 -0.9619 -0.6332 -2.6858
 5496SOL     OW27946   3.728   0.270   6.375 -0.7467 -0.6628 -0.3673
 5496SOL    HW127947   3.782   0.202   6.414  2.3151  1.2995 -1.2257
 5496SOL    HW227948   3.758   0.279   6.285  2.3836 -0.5041  0.6831
 5497SOL     OW27949   0.333   1.816  10.097 -0.2553 -0.6346 -0.0699
 5497SOL    HW127950   0.305   1.808  10.189  1.7988 -1.9667  0.4230
 5497SOL    HW227951   0.394   1.743  10.098  1.4978  0.8334 -0.1719
 5498SOL     OW27952   3.357   1.376   8.942 -0.0440 -0.1492 -0.3086
 5498SOL    HW127953   3.322   1.365   9.030 -0.0825 -1.0498 -0.4364
 5498SOL    HW227954   3.277   1.393   8.893  0.6929  1.6194 -0.8978
 5499SOL     OW27955   4.066   2.010  15.501  0.2240  0.5569  0.0188
 5499SOL    HW127956   4.122   2.079  15.465  1.2081 -0.7886 -1.0289
 5499SOL    HW227957   4.080   1.946  15.432 -1.7836 -0.4646  0.5613
 5500SOL     OW27958   3.523   1.980   7.360 -0.1340 -0.5517 -0.2368
 5500SOL    HW127959   3.601   1.990   7.414 -0.0219 -1.6577 -0.1751
 5500SOL    HW227960   3.536   1.901   7.306 -0.9707 -1.6272  1.1297
 5501SOL     OW27961   0.129   1.294  11.634 -0.7525  0.0775 -0.3125
 5501SOL    HW127962   0.149   1.205  11.606 -1.3249 -0.4397  0.8844
 5501SOL    HW227963   0.202   1.310  11.694  0.5535 -0.9816 -1.6259
 5502SOL     OW27964   4.611   1.878   3.118  0.0825 -0.7116  0.4051
 5502SOL    HW127965   4.564   1.948   3.073  0.7460 -0.0915  0.6845
 5502SOL    HW227966   4.585   1.882   3.210 -1.6864 -0.3245 -0.1060
 5503SOL     OW27967   3.988   4.290   6.632  0.6077 -0.6167 -0.1937
 5503SOL    HW127968   4.041   4.264   6.557  1.1140  1.5165 -0.5780
 5503SOL    HW227969   4.041   4.359   6.671 -1.7065  1.5229 -0.8404
 5504SOL     OW27970   1.618   4.101  16.128 -0.4795 -0.1531  0.2753
 5504SOL    HW127971   1.680   4.028  16.138  2.0956  1.6561 -2.4543
 5504SOL    HW227972   1.534   4.064  16.154 -1.0775 -0.2006 -1.6974
 5505SOL     OW27973   0.561   3.356   5.787  0.0318 -0.0293 -0.2047
 5505SOL    HW127974   0.558   3.394   5.875 -1.1557  0.0848 -0.2986
 5505SOL    HW227975   0.529   3.268   5.803 -2.1968  1.3519  2.9507
 5506SOL     OW27976   3.643   2.918   9.831 -0.4673 -0.2915 -1.0343
 5506SOL    HW127977   3.681   2.985   9.776  0.6074  1.1590  1.4756
 5506SOL    HW227978   3.707   2.903   9.901 -1.6382  1.2313  0.3739
 5507SOL     OW27979   3.136   2.189  14.193 -0.2430  0.6945 -0.2061
 5507SOL    HW127980   3.082   2.165  14.268  0.3892 -1.8601 -0.5549
 5507SOL    HW227981   3.184   2.106  14.189 -1.1288  0.1560  0.3963
 5508SOL     OW27982   1.446   2.567   5.112 -0.2749  0.2438 -0.2427
 5508SOL    HW127983   1.449   2.656   5.077 -0.7388  0.7039  0.9050
 5508SOL    HW227984   1.470   2.578   5.204  1.3006 -0.3404 -0.5777
 5509SOL     OW27985   1.477   3.868   2.954 -0.0164 -0.3322 -0.5471
 5509SOL    HW127986   1.573   3.873   2.955 -0.0375  0.2747 -1.2549
 5509SOL    HW227987   1.469   3.782   2.994  1.4065 -0.5227 -0.6616
 5510SOL     OW27988   4.658   1.953   3.875  0.4578  0.1861  0.3538
 5510SOL    HW127989   4.719   1.881   3.895  1.7119  0.4625 -2.4797
 5510SOL    HW227990   4.628   1.929   3.788  1.1342 -2.0767  0.7240
 5511SOL     OW27991   2.876   2.577   9.031 -0.1064  0.3975 -0.1779
 5511SOL    HW127992   2.902   2.545   9.118 -1.6508 -2.5424 -0.7945
 5511SOL    HW227993   2.810   2.514   9.002 -2.2217  1.8435  1.5589
 5512SOL     OW27994   0.782   2.540   1.317  0.3374 -0.4617  0.0229
 5512SOL    HW127995   0.816   2.627   1.296  0.0151 -0.4200 -0.3264
 5512SOL    HW227996   0.749   2.507   1.233 -0.3174 -1.4212  0.6591
 5513SOL     OW27997   4.103   4.119   2.428 -0.9639  0.7001  0.4300
 5513SOL    HW127998   4.193   4.096   2.404 -1.7192 -0.0410 -1.7524
 5513SOL    HW227999   4.101   4.213   2.412  2.2515  0.5527 -0.8832
 5514SOL     OW28000   3.419   4.440   2.778  0.1692  0.4445  0.9353
 5514SOL    HW128001   3.485   4.509   2.772 -0.3662  1.0552  2.0363
 5514SOL    HW228002   3.350   4.494   2.816 -1.4236 -2.4043  2.0784
 5515SOL     OW28003   3.776   4.302  15.748  0.5463 -0.2182 -0.2226
 5515SOL    HW128004   3.683   4.328  15.747  0.6514  0.1013 -2.2099
 5515SOL    HW228005   3.796   4.270  15.660 -0.0339 -0.8372 -0.1338
 5516SOL     OW28006   0.674   1.241   6.068 -0.1849  0.4450 -0.2876
 5516SOL    HW128007   0.597   1.273   6.116  0.9074 -0.7267  2.2579
 5516SOL    HW228008   0.629   1.207   5.991 -1.3958 -0.0756  0.6453
 5517SOL     OW28009   1.552   0.543   4.327 -0.2609  0.0573  0.0204
 5517SOL    HW128010   1.557   0.526   4.233  1.4701  2.2437 -0.2595
 5517SOL    HW228011   1.585   0.632   4.332 -0.0823 -0.1301  1.9521
 5518SOL     OW28012   4.238   2.566   2.412 -0.7115 -0.6039  0.2548
 5518SOL    HW128013   4.257   2.576   2.506  2.5434  1.6108 -0.6398
 5518SOL    HW228014   4.145   2.543   2.423 -0.7517 -0.5512  0.0189
 5519SOL     OW28015   0.636   0.760   8.318  0.0833 -0.5292 -0.1155
 5519SOL    HW128016   0.726   0.790   8.306  0.6705 -2.2956 -0.1614
 5519SOL    HW228017   0.650   0.683   8.262 -3.2156 -0.1920 -1.3840
 5520SOL     OW28018   3.529   1.831   5.653 -0.0812  0.1837 -0.8115
 5520SOL    HW128019   3.556   1.800   5.567 -0.1518  0.9468 -1.1092
 5520SOL    HW228020   3.443   1.791   5.645 -0.2700  0.3382  0.4618
 5521SOL     OW28021   3.914   4.361   2.909  0.6135 -0.1233 -0.5143
 5521SOL    HW128022   3.852   4.311   2.855  0.6789  1.5854 -2.1821
 5521SOL    HW228023   3.995   4.309   2.909  1.7668  1.6974  2.0478
 5522SOL     OW28024   3.880   1.955  12.772  0.0728 -1.2611 -0.1519
 5522SOL    HW128025   3.879   1.984  12.681 -0.2468 -2.2582 -0.4680
 5522SOL    HW228026   3.954   2.008  12.803 -0.6743  1.3229 -2.7130
 5523SOL     OW28027   4.224   3.742  12.573  0.0818 -0.0823 -0.3072
 5523SOL    HW128028   4.272   3.683  12.631 -1.1732  0.8615  1.7102
 5523SOL    HW228029   4.282   3.778  12.507  2.5922  0.2681  2.0896
 5524SOL     OW28030   3.535   2.664   6.861 -0.0760 -0.4127 -0.7351
 5524SOL    HW128031   3.614   2.686   6.910  0.4032  0.8117 -2.0258
 5524SOL    HW228032   3.570   2.598   6.802 -0.3110 -1.3061  0.1292
 5525SOL     OW28033   0.695   2.334  15.962  0.6444  0.2726 -0.6021
 5525SOL    HW128034   0.664   2.325  16.053  1.5698  1.6370 -0.1583
 5525SOL    HW228035   0.748   2.254  15.956  1.6802  0.9137  0.0599
 5526SOL     OW28036   0.803   2.740  16.345  0.3507  0.4625 -0.1935
 5526SOL    HW128037   0.804   2.652  16.383 -0.6227 -0.2267 -1.7739
 5526SOL    HW228038   0.720   2.750  16.298  0.6624  0.2600 -0.7849
 5527SOL     OW28039   1.298   1.527   7.787 -0.2546  0.2175 -0.1570
 5527SOL    HW128040   1.275   1.441   7.823  1.8872 -0.2327  0.1592
 5527SOL    HW228041   1.210   1.561   7.770 -0.2166 -0.2539 -1.2890
 5528SOL     OW28042   2.897   3.969   2.440 -0.5272  0.1048  0.6382
 5528SOL    HW128043   2.913   4.063   2.441 -0.6539  0.1382 -0.1326
 5528SOL    HW228044   2.956   3.954   2.365 -1.5058 -1.1140  0.1092
 5529SOL     OW28045   3.892   1.200   2.110  0.2991  0.3891  0.3421
 5529SOL    HW128046   3.977   1.214   2.069  0.2728  1.6224  0.7343
 5529SOL    HW228047   3.919   1.157   2.191 -1.5020  0.2200  0.8603
 5530SOL     OW28048   2.157   2.683  17.226 -0.0322 -0.0421 -0.5997
 5530SOL    HW128049   2.091   2.635  17.177  0.9210 -0.0411 -1.9103
 5530SOL    HW228050   2.220   2.616  17.254 -0.3682  0.4234  1.2490
 5531SOL     OW28051   3.300   2.032   5.585  0.1641 -0.2762  0.2068
 5531SOL    HW128052   3.265   1.966   5.524  1.9901  0.2822 -1.4341
 5531SOL    HW228053   3.389   2.004   5.606  0.2816  2.3950  3.1469
 5532SOL     OW28054   2.453   4.190   2.009  0.1692  0.3109  0.2683
 5532SOL    HW128055   2.418   4.215   2.094 -1.2236  2.3014 -0.8749
 5532SOL    HW228056   2.389   4.228   1.948 -1.2470 -0.7324  1.1301
 5533SOL     OW28057   1.320   3.379  11.769  0.3145 -0.3351 -0.3282
 5533SOL    HW128058   1.294   3.447  11.707  2.3446  1.3083  0.6333
 5533SOL    HW228059   1.345   3.304  11.714  0.3492  0.3737 -1.2874
 5534SOL     OW28060   3.091   4.209   2.142 -0.3984 -0.4439  0.0557
 5534SOL    HW128061   3.127   4.203   2.053  1.6489 -2.4906  1.0273
 5534SOL    HW228062   3.132   4.290   2.174  1.8568 -1.6139  0.0997
 5535SOL     OW28063   3.698   4.111   0.273  0.1813  0.0720  0.2649
 5535SOL    HW128064   3.738   4.024   0.286 -0.0269 -0.1326 -0.5019
 5535SOL    HW228065   3.692   4.122   0.179 -1.3288 -1.0148  0.2390
 5536SOL     OW28066   0.153   4.705   3.960  0.1930  0.3666  0.5080
 5536SOL    HW128067   0.202   0.039   3.902  1.0990 -1.2283 -0.3409
 5536SOL    HW228068   0.075   0.033   3.978 -0.1372 -0.1660  0.6111
 5537SOL     OW28069   2.260   2.654   8.801  0.0675 -0.1202  0.0099
 5537SOL    HW128070   2.316   2.669   8.725 -0.7702 -0.6463 -0.7229
 5537SOL    HW228071   2.307   2.699   8.871 -0.6015  1.0061 -0.2768
 5538SOL     OW28072   1.769   4.061   4.026 -0.1387 -0.0486  0.6110
 5538SOL    HW128073   1.831   4.127   4.057 -1.4947  1.2577  0.5309
 5538SOL    HW228074   1.746   4.028   4.112  0.3638  2.6443  1.7837
 5539SOL     OW28075   4.150   2.671   3.067  0.0506  0.2284 -0.5810
 5539SOL    HW128076   4.122   2.728   3.138  2.6275  0.6952  0.0795
 5539SOL    HW228077   4.171   2.598   3.125 -1.5986 -0.3410 -0.7147
 5540SOL     OW28078   3.667   2.078   5.626  0.1938 -0.0981  0.1174
 5540SOL    HW128079   3.651   1.985   5.643 -1.3636  0.2024  0.2357
 5540SOL    HW228080   3.706   2.100   5.710  1.8668  0.7722 -0.8784
 5541SOL     OW28081   1.350   1.928   3.652  0.1397 -0.0095  0.0859
 5541SOL    HW128082   1.297   1.933   3.572  1.2855  0.0036 -0.6633
 5541SOL    HW228083   1.414   1.995   3.631  2.8400 -2.0312  1.7940
 5542SOL     OW28084   0.055   0.597   1.187 -0.5963  0.1718 -0.0574
 5542SOL    HW128085   0.075   0.680   1.230 -1.1092  1.2641 -1.9260
 5542SOL    HW228086   0.145   0.569   1.170  0.6816  3.0011  2.1230
 5543SOL     OW28087   4.098   4.517   8.265 -0.3319 -0.2772  0.2945
 5543SOL    HW128088   4.102   4.455   8.337 -0.2869 -1.5855 -0.8275
 5543SOL    HW228089   4.022   4.573   8.282  0.0719  0.2928  0.2369
 5544SOL     OW28090   3.897   3.999  16.372 -0.2255 -0.7406 -0.2753
 5544SOL    HW128091   3.850   4.073  16.411  0.6264 -0.5596  0.4064
 5544SOL    HW228092   3.910   4.040  16.286 -0.4353 -2.5188 -1.1553
 5545SOL     OW28093   4.229   1.753   4.995  0.6932  0.3339  0.5946
 5545SOL    HW128094   4.205   1.842   4.970  0.8572 -0.2763 -1.7079
 5545SOL    HW228095   4.189   1.743   5.081  1.1411  1.3000  0.9224
 5546SOL     OW28096   3.046   2.232   2.474 -0.3526 -0.2037  0.2238
 5546SOL    HW128097   3.014   2.287   2.403  3.0510  0.0836 -1.0652
 5546SOL    HW228098   2.988   2.263   2.543 -0.4389  1.1286 -0.4609
 5547SOL     OW28099   1.988   4.123  17.124  0.2565 -0.4882 -0.0607
 5547SOL    HW128100   1.932   4.182  17.174 -0.8078 -0.6121 -1.0856
 5547SOL    HW228101   1.977   4.046  17.180  0.3790  1.7522  3.0064
 5548SOL     OW28102   2.909   1.474   0.250 -0.1444  0.8913 -0.1678
 5548SOL    HW128103   2.916   1.559   0.207  0.6853  0.7411 -0.3371
 5548SOL    HW228104   2.814   1.467   0.245 -0.3190  1.4548  2.3249
 5549SOL     OW28105   1.703   1.899   2.395  0.6889 -0.6244  0.1644
 5549SOL    HW128106   1.751   1.841   2.335 -0.2234 -1.3432  0.1295
 5549SOL    HW228107   1.742   1.887   2.481  2.4293  1.4470 -0.3363
 5550SOL     OW28108   4.641   0.213   0.824  0.0975  0.6989  0.4367
 5550SOL    HW128109   4.555   0.200   0.785 -0.5801  0.2579  2.0658
 5550SOL    HW228110   4.673   0.123   0.819 -2.6246 -0.1421 -1.4232
 5551SOL     OW28111   1.837   3.272   7.521 -0.3052  0.3863 -0.2800
 5551SOL    HW128112   1.892   3.226   7.457 -0.8509  0.2239 -0.6309
 5551SOL    HW228113   1.887   3.345   7.559 -1.4238  1.1398 -0.2496
 5552SOL     OW28114   0.062   0.744  16.851  0.5798 -0.1451  0.2341
 5552SOL    HW128115   4.708   0.704  16.887  0.4197 -1.0588 -1.1223
 5552SOL    HW228116   0.035   0.835  16.864 -1.2000 -0.4361 -1.4536
 5553SOL     OW28117   4.660   0.236   6.337  0.0159  0.2572 -0.0841
 5553SOL    HW128118   4.595   0.285   6.387  0.6450  0.3982  0.6083
 5553SOL    HW228119   0.000   0.301   6.309  0.1122 -0.4194 -1.4562
 5554SOL     OW28120   0.056   2.427  16.223  0.0876 -0.0552 -1.1227
 5554SOL    HW128121   4.693   2.419  16.184 -0.3825  0.7948 -0.2329
 5554SOL    HW228122   0.076   2.520  16.227 -1.6796  0.1643  2.7930
 5555SOL     OW28123   3.384   4.292  10.454 -0.2791 -0.2308 -0.3115
 5555SOL    HW128124   3.471   4.276  10.418 -0.4245  1.2843 -1.3380
 5555SOL    HW228125   3.403   4.257  10.541 -1.0375  0.2998  0.0625
 5556SOL     OW28126   1.140   1.388   2.430  0.4911  0.1965  0.0205
 5556SOL    HW128127   1.097   1.382   2.516  1.0614  2.8352  0.4843
 5556SOL    HW228128   1.230   1.414   2.450  0.4464 -0.5644  1.2360
 5557SOL     OW28129   4.252   0.467   6.921  0.0060  0.1820 -0.2360
 5557SOL    HW128130   4.337   0.507   6.901 -0.8111  0.5687 -3.0118
 5557SOL    HW228131   4.232   0.503   7.007 -0.8295  0.9089 -0.7378
 5558SOL     OW28132   3.533   0.352  14.936 -0.4989  0.5307 -0.2391
 5558SOL    HW128133   3.596   0.423  14.948  1.6276 -0.8779 -3.0933
 5558SOL    HW228134   3.573   0.274  14.975  1.2945  1.8890  0.6564
 5559SOL     OW28135   0.099   4.039   4.149 -0.1648 -0.4644  0.3924
 5559SOL    HW128136   0.135   4.096   4.216  0.3065 -2.0224  1.4629
 5559SOL    HW228137   0.167   4.046   4.082 -0.1059 -2.5396  0.2407
 5560SOL     OW28138   2.185   1.572   1.613 -0.0650 -0.6831  0.5238
 5560SOL    HW128139   2.098   1.607   1.634  0.2526  1.5227 -1.8741
 5560SOL    HW228140   2.181   1.486   1.656 -2.2385 -0.8349  0.0355
 5561SOL     OW28141   2.004   0.379   5.626  0.3686 -0.4841  0.0627
 5561SOL    HW128142   1.983   0.326   5.703  1.4795 -0.4542  0.3795
 5561SOL    HW228143   1.970   0.464   5.653  2.9737  0.5698  0.0498
 5562SOL     OW28144   3.125   0.510  14.927 -0.1200  0.4980  0.4072
 5562SOL    HW128145   3.102   0.573  14.859  0.0531  1.2133  1.0117
 5562SOL    HW228146   3.123   0.426  14.881 -1.4546  0.1520  1.0947
 5563SOL     OW28147   0.451   2.951   5.152 -0.0447  0.0242  0.6170
 5563SOL    HW128148   0.362   2.955   5.117  0.0650 -0.0223  0.3271
 5563SOL    HW228149   0.472   3.043   5.169 -1.7607  0.3033  1.1978
 5564SOL     OW28150   0.412   0.907   7.355  0.2032  0.0573 -0.1876
 5564SOL    HW128151   0.359   0.847   7.303  1.1545  0.6106 -1.8058
 5564SOL    HW228152   0.340   0.968   7.372 -1.2583 -1.8490  0.4575
 5565SOL     OW28153   1.242   1.357   7.465  0.2867  0.1047 -0.1895
 5565SOL    HW128154   1.255   1.361   7.370  0.4052 -0.5653 -0.1984
 5565SOL    HW228155   1.329   1.375   7.502  1.0293 -0.7513 -1.5447
 5566SOL     OW28156   1.135   1.720   8.345 -0.0499 -0.2034 -0.4029
 5566SOL    HW128157   1.199   1.784   8.376 -0.0261 -0.6838  0.5503
 5566SOL    HW228158   1.121   1.679   8.430  1.7692  0.2124  0.0959
 5567SOL     OW28159   0.594   2.121   3.406 -0.2480  0.1263  0.2892
 5567SOL    HW128160   0.540   2.080   3.339  2.5601  1.6465 -2.9239
 5567SOL    HW228161   0.595   2.054   3.474 -1.7127 -0.8728 -0.6936
 5568SOL     OW28162   1.985   1.772  15.411 -0.0479  0.3804 -0.1883
 5568SOL    HW128163   2.030   1.824  15.479 -0.5709  0.6362 -0.0396
 5568SOL    HW228164   2.032   1.688  15.418  2.5221  1.8973  0.8169
 5569SOL     OW28165   1.401   3.001   0.852  0.1057  0.0023 -0.4932
 5569SOL    HW128166   1.354   2.972   0.929  0.5064 -0.0942 -0.2857
 5569SOL    HW228167   1.326   3.048   0.814  1.8237  1.5497 -2.0182
 5570SOL     OW28168   2.040   2.582  10.441 -0.4077 -0.8527 -0.5442
 5570SOL    HW128169   1.962   2.636  10.448  0.2623 -0.4577  3.5235
 5570SOL    HW228170   2.094   2.595  10.519 -1.0365  1.1827 -0.4682
 5571SOL     OW28171   4.648   3.917  14.098 -0.1309  0.4164 -0.0393
 5571SOL    HW128172   4.590   3.933  14.024 -0.8211  0.2579  0.4718
 5571SOL    HW228173   4.702   3.996  14.088  0.3096 -0.1052 -1.7800
 5572SOL     OW28174   0.139   4.708   9.788 -0.5689  0.2161 -0.2926
 5572SOL    HW128175   0.200   0.056   9.777  1.0551 -0.9639  1.0172
 5572SOL    HW228176   0.158   4.694   9.880  2.4141 -1.7510 -1.2117
 5573SOL     OW28177   2.831   0.804   5.624  0.1708 -0.3787  0.3252
 5573SOL    HW128178   2.739   0.815   5.648 -0.5381  0.9917 -3.0603
 5573SOL    HW228179   2.812   0.768   5.537  1.2864 -1.9019  0.7132
 5574SOL     OW28180   1.077   3.125   7.629 -0.2744 -0.3304 -0.1214
 5574SOL    HW128181   1.150   3.183   7.609 -0.3471 -0.2318 -0.1003
 5574SOL    HW228182   1.138   3.055   7.652 -1.2159 -0.4774  1.9481
 5575SOL     OW28183   3.764   1.612   1.653  0.2590 -0.2967  0.1212
 5575SOL    HW128184   3.715   1.577   1.579  1.2591  0.2548 -0.8176
 5575SOL    HW228185   3.792   1.701   1.630  0.8639 -0.2183  1.1331
 5576SOL     OW28186   3.819   3.608   3.419  0.3796 -0.3513 -0.2940
 5576SOL    HW128187   3.892   3.670   3.412 -1.3262  1.4522 -1.9071
 5576SOL    HW228188   3.752   3.664   3.456  2.8521  1.9070  0.7885
 5577SOL     OW28189   3.080   0.681   4.354  0.3177  0.1286  0.1135
 5577SOL    HW128190   3.170   0.692   4.322  0.6590 -0.3678  0.8789
 5577SOL    HW228191   3.087   0.735   4.433  0.6070 -1.3277  1.0873
 5578SOL     OW28192   0.879   2.899   1.664 -0.2953  0.7061 -0.0803
 5578SOL    HW128193   0.902   2.910   1.756 -0.6524  1.2284 -0.0564
 5578SOL    HW228194   0.856   2.806   1.665  2.2184  0.1089  0.8598
 5579SOL     OW28195   0.673   2.008  10.151  0.4033  0.2207  0.0048
 5579SOL    HW128196   0.625   1.946  10.205 -0.1300  1.1475  0.5996
 5579SOL    HW228197   0.702   1.948  10.082 -1.3945 -1.2165  0.5016
 5580SOL     OW28198   4.393   4.099  11.142 -0.5739  0.2274 -0.0651
 5580SOL    HW128199   4.390   4.005  11.126 -0.8778  0.5395 -1.8719
 5580SOL    HW228200   4.381   4.131  11.052 -3.3909 -0.5520  0.0454
 5581SOL     OW28201   4.299   4.697   2.687  0.5291 -0.4198  0.0168
 5581SOL    HW128202   4.363   4.677   2.756  0.5086  1.1469  0.4884
 5581SOL    HW228203   4.285   0.067   2.694  1.6439 -0.5066  3.5718
 5582SOL     OW28204   4.362   2.152  10.331 -0.6268  0.2152  0.0858
 5582SOL    HW128205   4.328   2.147  10.421 -1.6292 -0.0739 -0.3098
 5582SOL    HW228206   4.291   2.113  10.281 -0.1564 -1.0944  0.4567
 5583SOL     OW28207   0.278   3.202  13.771  0.4590 -0.3728 -0.2197
 5583SOL    HW128208   0.243   3.290  13.763 -0.2181 -0.5530  0.9153
 5583SOL    HW228209   0.317   3.200  13.858  2.3120  1.1622 -0.9837
 5584SOL     OW28210   0.203   1.491   7.893  0.4204  0.4848  0.2299
 5584SOL    HW128211   0.214   1.398   7.913  0.6548  0.0987 -1.7157
 5584SOL    HW228212   0.153   1.495   7.812  0.9650 -0.2629 -0.1466
 5585SOL     OW28213   0.860   4.301  11.989 -0.0672  0.8034 -0.0835
 5585SOL    HW128214   0.907   4.382  12.011 -0.4120  0.9958 -0.0664
 5585SOL    HW228215   0.854   4.248  12.068  0.0496  2.1481  0.8198
 5586SOL     OW28216   0.458   0.828  16.370 -0.2318 -0.4479 -0.1820
 5586SOL    HW128217   0.501   0.827  16.284  0.5944  0.9240  0.2247
 5586SOL    HW228218   0.518   0.785  16.431  1.0567  0.0702 -1.0578
 5587SOL     OW28219   3.889   0.089   4.712 -0.1780 -0.2852  0.6719
 5587SOL    HW128220   3.939   0.008   4.704  1.7119  0.8617  0.7464
 5587SOL    HW228221   3.817   0.062   4.769  2.0374 -2.1626  2.5774
 5588SOL     OW28222   3.768   0.236   7.744  0.2853  0.2134  0.5175
 5588SOL    HW128223   3.861   0.255   7.744  0.4564 -0.7704 -2.1110
 5588SOL    HW228224   3.751   0.193   7.828  0.2310 -0.5405  0.1158
 5589SOL     OW28225   3.863   2.865   8.132 -0.2106  0.5196  0.2336
 5589SOL    HW128226   3.917   2.902   8.202  0.6021 -1.1860  0.5221
 5589SOL    HW228227   3.783   2.836   8.177 -0.6103 -0.8216 -1.3364
 5590SOL     OW28228   3.158   0.828   2.938 -0.4556  0.2708  0.1908
 5590SOL    HW128229   3.128   0.837   3.029  0.0477 -1.0005  0.4935
 5590SOL    HW228230   3.247   0.801   2.963 -0.4566  1.1124  1.0814
 5591SOL     OW28231   0.750   2.538   6.284 -0.2363 -0.1641  0.1554
 5591SOL    HW128232   0.675   2.597   6.291 -0.5352 -0.5400  0.0553
 5591SOL    HW228233   0.740   2.521   6.190  1.3902  2.0715 -0.4190
 5592SOL     OW28234   3.360   0.470   7.517  0.2609 -0.6381 -0.4898
 5592SOL    HW128235   3.438   0.422   7.546 -0.2929 -0.2372  1.6645
 5592SOL    HW228236   3.379   0.561   7.541  2.4325 -0.6983 -2.0476
 5593SOL     OW28237   0.966   0.043  10.203 -0.1587 -0.0509 -0.4508
 5593SOL    HW128238   0.948   0.068  10.294  0.4169  1.1489 -0.6719
 5593SOL    HW228239   0.888   0.074  10.156  0.8009  0.7494 -1.5053
 5594SOL     OW28240   2.807   1.754  17.111 -0.0645  0.2970  0.0630
 5594SOL    HW128241   2.858   1.762  17.192  0.6876 -1.7870 -0.2143
 5594SOL    HW228242   2.772   1.843  17.100 -1.9788 -0.6965 -1.9979
 5595SOL     OW28243   1.520   3.069   7.688  0.2624  0.6326  0.3098
 5595SOL    HW128244   1.508   3.107   7.775  0.3065  0.9283  0.1862
 5595SOL    HW228245   1.492   2.978   7.691 -1.4154  1.2009  2.0472
 5596SOL     OW28246   4.659   2.288  15.676 -0.0932  0.1049 -0.7437
 5596SOL    HW128247   4.711   2.368  15.664 -1.8428  1.0987 -1.7466
 5596SOL    HW228248   4.600   2.318  15.745 -0.4121 -2.0045 -0.1076
 5597SOL     OW28249   1.120   2.589   4.273 -0.1487 -0.0832  0.2764
 5597SOL    HW128250   1.065   2.628   4.205 -0.2249 -2.4356 -0.9963
 5597SOL    HW228251   1.162   2.669   4.305 -0.8009 -0.3237  1.7554
 5598SOL     OW28252   2.709   3.839  11.236  0.5625  0.2126  0.1581
 5598SOL    HW128253   2.735   3.774  11.301 -2.7955  0.5375  1.8496
 5598SOL    HW228254   2.633   3.884  11.273 -1.6366 -2.8483 -0.7358
 5599SOL     OW28255   0.192   1.012  11.888  0.1787 -0.3169  0.1859
 5599SOL    HW128256   0.285   1.011  11.866 -0.0671  0.6284 -0.9264
 5599SOL    HW228257   0.188   1.108  11.886  0.7899 -0.3010 -0.5435
 5600SOL     OW28258   1.994   1.089   3.828 -0.6627  0.1254 -0.6668
 5600SOL    HW128259   2.011   1.136   3.746 -1.4908 -1.2057 -1.6084
 5600SOL    HW228260   1.914   1.041   3.805  0.3625 -1.2908 -1.3559
 5601SOL     OW28261   1.120   0.443  13.892  0.1268  0.3089 -0.1210
 5601SOL    HW128262   1.212   0.469  13.898 -0.4479  2.2264  0.4836
 5601SOL    HW228263   1.106   0.450  13.798  0.2658 -1.1350 -0.2543
 5602SOL     OW28264   1.360   1.393  15.958 -0.4493 -0.2714  0.1566
 5602SOL    HW128265   1.350   1.486  15.977  0.3393  0.1062 -1.3259
 5602SOL    HW228266   1.446   1.400  15.917 -1.0373 -2.4238 -1.4670
 5603SOL     OW28267   4.597   3.832   6.339 -0.0420  0.1244 -0.3467
 5603SOL    HW128268   4.640   3.749   6.357  0.5559  0.2855 -1.0626
 5603SOL    HW228269   4.640   3.868   6.262 -1.8505  1.2506 -0.8264
 5604SOL     OW28270   2.314   0.470  10.837  0.5233 -0.3266 -0.1390
 5604SOL    HW128271   2.258   0.419  10.777 -1.2230  1.8881 -0.3988
 5604SOL    HW228272   2.388   0.495  10.782 -1.1437  0.6797 -1.9318
 5605SOL     OW28273   2.914   4.090   0.433  0.2376 -0.5098  0.2858
 5605SOL    HW128274   2.853   4.018   0.450  2.3823 -2.2113  0.8203
 5605SOL    HW228275   2.991   4.062   0.483  0.4354  2.2432  1.5524
 5606SOL     OW28276   0.931   4.395   2.961 -0.2005 -0.8112 -0.5170
 5606SOL    HW128277   0.984   4.326   2.921 -2.1724 -2.3658 -0.4978
 5606SOL    HW228278   0.849   4.346   2.973 -1.4914  1.7829  1.3054
 5607SOL     OW28279   0.587   3.955  11.922 -0.0075 -0.3917 -0.1255
 5607SOL    HW128280   0.645   3.926  11.993 -0.4955  0.9080  0.8172
 5607SOL    HW228281   0.505   3.908  11.939 -0.7584  1.1441  0.5346
 5608SOL     OW28282   0.788   3.814   6.587 -0.2381 -0.2342  0.0390
 5608SOL    HW128283   0.759   3.724   6.573 -0.1847  0.1089 -2.2451
 5608SOL    HW228284   0.774   3.853   6.500 -0.3934 -0.8733 -0.2222
 5609SOL     OW28285   4.101   1.083   7.623  0.3638  0.0936 -0.0001
 5609SOL    HW128286   4.040   1.075   7.550 -0.3862  0.3936  0.5979
 5609SOL    HW228287   4.059   1.023   7.684 -0.8158  0.7784 -0.1284
 5610SOL     OW28288   4.550   2.448   0.923 -0.6136 -0.1121 -0.2724
 5610SOL    HW128289   4.556   2.524   0.865  0.2621 -0.4877 -0.6650
 5610SOL    HW228290   4.624   2.461   0.984  1.0727  0.0583 -2.3577
 5611SOL     OW28291   1.369   1.475   5.741 -0.5874  0.0976  0.0119
 5611SOL    HW128292   1.341   1.549   5.689 -2.9123 -1.6393 -1.2026
 5611SOL    HW228293   1.357   1.496   5.834 -3.1264  0.9154 -0.5111
 5612SOL     OW28294   3.674   3.520  10.056  0.0484  0.4707  0.0626
 5612SOL    HW128295   3.659   3.425  10.048  0.0282  0.4289  0.6159
 5612SOL    HW228296   3.769   3.527  10.068  0.2072 -1.3577 -0.1192
 5613SOL     OW28297   2.939   1.113  17.486 -0.3176 -0.0792 -0.1623
 5613SOL    HW128298   3.020   1.144  17.526  0.4021 -1.0158 -0.8821
 5613SOL    HW228299   2.983   1.070  17.413  0.4755 -0.2613  0.4278
 5614SOL     OW28300   1.830   3.606   9.593  0.6829  0.2979 -0.0022
 5614SOL    HW128301   1.816   3.528   9.539  0.8870 -0.5308  1.1299
 5614SOL    HW228302   1.863   3.566   9.673 -0.8379  0.0975  0.5356
 5615SOL     OW28303   4.345   2.782   2.264 -0.0061  0.2493 -0.5852
 5615SOL    HW128304   4.430   2.796   2.306 -0.6666  1.2168  0.4353
 5615SOL    HW228305   4.307   2.714   2.319  1.8873 -0.7657 -0.5341
 5616SOL     OW28306   2.512   0.895   5.513  0.1462  0.0171 -0.2390
 5616SOL    HW128307   2.484   0.817   5.465  0.0158 -0.3181  0.3828
 5616SOL    HW228308   2.510   0.865   5.604 -0.9057 -0.9125 -0.5575
 5617SOL     OW28309   2.715   2.219   9.275 -0.0263 -0.0653 -0.1821
 5617SOL    HW128310   2.726   2.286   9.342 -1.5543 -1.5942  1.6281
 5617SOL    HW228311   2.667   2.163   9.337 -1.4197  1.6009  0.2417
 5618SOL     OW28312   2.009   2.886   2.415 -0.1702  0.4458 -0.4873
 5618SOL    HW128313   1.926   2.859   2.377 -0.3718 -0.6770  0.7504
 5618SOL    HW228314   2.030   2.805   2.461 -2.5607  1.3989  2.2987
 5619SOL     OW28315   0.739   4.253  13.361  0.5245 -0.5691  0.5460
 5619SOL    HW128316   0.824   4.277  13.398  0.2109  1.1423  0.1986
 5619SOL    HW228317   0.691   4.333  13.386 -1.2466 -1.6109  0.4830
 5620SOL     OW28318   3.674   4.020   6.088 -0.1569  0.2810 -0.3698
 5620SOL    HW128319   3.588   3.978   6.100  0.7876 -1.1007  1.5608
 5620SOL    HW228320   3.700   4.021   6.180  0.6819  0.7113 -0.6184
 5621SOL     OW28321   1.068   1.208  14.788  0.2009 -0.3732  0.0032
 5621SOL    HW128322   1.137   1.235  14.728 -0.0076 -0.2969 -0.2027
 5621SOL    HW228323   0.985   1.228  14.744  1.0023  0.8602 -0.9217
 5622SOL     OW28324   1.912   3.104   6.078 -0.0272 -0.2006 -0.3187
 5622SOL    HW128325   1.925   3.132   6.168  1.2640 -1.7939 -0.0177
 5622SOL    HW228326   1.954   3.019   6.080 -0.0387 -0.0809  4.2632
 5623SOL     OW28327   0.702   3.855   3.096 -0.3178 -0.2364  0.4996
 5623SOL    HW128328   0.659   3.769   3.098 -0.4663 -0.1633  0.4182
 5623SOL    HW228329   0.739   3.860   3.184  1.5023 -2.0860 -0.1582
 5624SOL     OW28330   2.316   4.120   4.574  0.3773  0.4598  0.7658
 5624SOL    HW128331   2.245   4.126   4.638  0.6306  1.7565  0.9298
 5624SOL    HW228332   2.364   4.039   4.591  0.8460  0.9533  1.8274
 5625SOL     OW28333   0.808   0.079  15.981  0.5640  0.1709  0.0665
 5625SOL    HW128334   0.832   0.148  15.919  0.3868 -0.5924 -0.8468
 5625SOL    HW228335   0.850   4.723  15.953 -2.9141 -1.7849  0.4869
 5626SOL     OW28336   0.121   4.527   3.065  0.2575  0.2560 -0.1557
 5626SOL    HW128337   0.026   4.540   3.075 -0.1504 -1.8628 -1.2767
 5626SOL    HW228338   0.132   4.432   3.059 -1.6199  0.1196 -1.6177
 5627SOL     OW28339   0.032   3.565   8.638 -0.1746  0.2856 -0.0108
 5627SOL    HW128340   4.679   3.510   8.630  0.3931 -0.4918 -0.1591
 5627SOL    HW228341   0.067   3.543   8.724 -1.7917 -3.0527 -0.2353
 5628SOL     OW28342   3.863   3.532   5.257  0.1106  0.1792  0.3317
 5628SOL    HW128343   3.907   3.535   5.172  1.6922  2.3118  1.2075
 5628SOL    HW228344   3.778   3.566   5.231  0.5921  1.1067 -0.0291
 5629SOL     OW28345   3.780   2.800   4.075 -0.4080  0.6579  0.0953
 5629SOL    HW128346   3.742   2.888   4.070  0.2441  0.7891 -2.5720
 5629SOL    HW228347   3.797   2.805   4.169  0.4101 -0.8004  0.0312
 5630SOL     OW28348   4.299   2.019   4.909  0.5431  0.3142 -0.4665
 5630SOL    HW128349   4.210   2.051   4.926  0.8230  1.1124 -0.5360
 5630SOL    HW228350   4.356   2.094   4.923  1.0725 -0.2654  0.4536
 5631SOL     OW28351   0.479   1.506   9.591 -0.1380 -0.2823 -0.4166
 5631SOL    HW128352   0.462   1.491   9.684 -0.5747  0.3869 -0.3860
 5631SOL    HW228353   0.528   1.588   9.599  1.7827 -1.7036  2.5339
 5632SOL     OW28354   0.066   2.357  17.384 -0.5009 -0.2435 -0.2831
 5632SOL    HW128355   0.050   2.269  17.417  3.5128 -1.6423 -2.0504
 5632SOL    HW228356   0.117   2.352  17.303  0.5921 -1.3637  0.4716
 5633SOL     OW28357   2.140   0.687   2.231  0.0606  0.1125  0.0692
 5633SOL    HW128358   2.145   0.650   2.143  0.3785  2.1096 -0.7457
 5633SOL    HW228359   2.182   0.617   2.282  0.5380 -1.0576 -1.9411
 5634SOL     OW28360   1.926   3.325   4.208  0.5701 -0.0661  0.0381
 5634SOL    HW128361   1.927   3.327   4.113  1.2119  1.3343  0.0736
 5634SOL    HW228362   1.982   3.253   4.237 -0.5626 -1.4880 -1.2597
 5635SOL     OW28363   2.833   1.466   5.307 -0.3071  0.2857  0.1899
 5635SOL    HW128364   2.791   1.450   5.392  1.6587  0.0398  1.1128
 5635SOL    HW228365   2.788   1.399   5.256 -0.0879  1.3475 -1.3917
 5636SOL     OW28366   3.559   0.288  12.757 -0.3491 -0.2281 -0.2772
 5636SOL    HW128367   3.639   0.316  12.802 -1.3676  1.8517  0.2132
 5636SOL    HW228368   3.520   0.218  12.810 -0.0126 -0.2236 -0.0266
 5637SOL     OW28369   2.365   3.097   4.538 -0.3774  0.3174 -0.2791
 5637SOL    HW128370   2.419   3.091   4.616  0.6873 -1.0039 -1.1141
 5637SOL    HW228371   2.427   3.140   4.478  0.6016 -0.2675  0.3237
 5638SOL     OW28372   3.183   3.970   3.395  0.6266  0.4189  0.0223
 5638SOL    HW128373   3.234   3.889   3.402  1.9221  1.1520 -1.1185
 5638SOL    HW228374   3.214   4.024   3.467 -0.3303  1.4939 -0.3759
 5639SOL     OW28375   2.357   4.609   3.643  0.0603  0.0272 -0.5115
 5639SOL    HW128376   2.423   4.662   3.599  0.0595  1.3626  1.1489
 5639SOL    HW228377   2.346   4.523   3.600  3.3237 -0.3962 -0.4842
 5640SOL     OW28378   4.547   2.434   2.466 -0.1194 -0.0136  0.5244
 5640SOL    HW128379   4.638   2.451   2.442 -1.1004  2.4782 -1.5013
 5640SOL    HW228380   4.501   2.516   2.446 -2.2677 -1.2663  0.3843
 5641SOL     OW28381   4.035   1.061   4.208  0.2272  0.1014  0.1742
 5641SOL    HW128382   4.123   1.031   4.185 -0.8380 -1.5460 -1.7877
 5641SOL    HW228383   3.995   1.037   4.124 -0.2534 -2.5613  1.1713
 5642SOL     OW28384   3.113   4.501   4.734  0.1383 -0.3591 -0.2160
 5642SOL    HW128385   3.172   4.528   4.805  1.2256  1.3207 -1.7539
 5642SOL    HW228386   3.129   4.566   4.665 -1.8202 -0.0844 -0.4300
 5643SOL     OW28387   0.782   2.378   5.349  0.1290 -0.1172  0.1784
 5643SOL    HW128388   0.742   2.305   5.302  0.7639  0.6085 -1.4898
 5643SOL    HW228389   0.750   2.358   5.436  1.3398  0.1076  0.6772
 5644SOL     OW28390   4.440   1.001   3.229 -0.0756 -0.2281  0.4568
 5644SOL    HW128391   4.520   0.973   3.185 -0.4445  1.0107 -1.0031
 5644SOL    HW228392   4.405   0.917   3.258 -0.5751 -0.1832  0.0057
 5645SOL     OW28393   3.708   0.989   2.001  0.1638  0.0710  0.0279
 5645SOL    HW128394   3.780   1.030   2.050 -1.4347  0.5693  1.9820
 5645SOL    HW228395   3.664   1.068   1.970 -0.8121 -1.3376 -2.1462
 5646SOL     OW28396   4.296   0.392   5.302 -0.2724  0.2677 -0.4352
 5646SOL    HW128397   4.213   0.418   5.341 -0.8964 -1.7787 -0.3823
 5646SOL    HW228398   4.285   0.414   5.210 -0.0862 -2.1389 -1.0360
 5647SOL     OW28399   3.686   4.274   8.712 -0.5222 -0.2712 -0.1111
 5647SOL    HW128400   3.731   4.312   8.787  1.4191 -2.2229 -0.2890
 5647SOL    HW228401   3.630   4.344   8.678 -0.5717 -0.8792 -1.2748
 5648SOL     OW28402   2.083   1.294  16.010 -0.1135 -0.1184  0.0979
 5648SOL    HW128403   1.996   1.307  16.047 -0.7288  0.7059 -1.6524
 5648SOL    HW228404   2.080   1.369  15.951  0.8253 -0.4165 -0.3335
 5649SOL     OW28405   3.676   0.039   8.544  0.4981  0.5371  0.1806
 5649SOL    HW128406   3.596   0.065   8.589  0.9997 -1.2796  2.1398
 5649SOL    HW228407   3.652   4.696   8.480 -2.6606  1.5070  0.3584
 5650SOL     OW28408   3.735   1.439   3.996 -1.1237 -0.0932 -0.0907
 5650SOL    HW128409   3.710   1.495   3.923 -1.6492 -1.7624 -1.1991
 5650SOL    HW228410   3.820   1.412   3.962 -0.4816  2.3072 -0.3774
 5651SOL     OW28411   2.867   0.570  11.523 -0.1872  0.2998 -0.2528
 5651SOL    HW128412   2.878   0.510  11.597  3.9171 -2.1879 -2.8368
 5651SOL    HW228413   2.930   0.636  11.554 -2.8193  1.5281  2.4886
 5652SOL     OW28414   0.158   1.972   8.720  0.8243 -0.1379  0.6239
 5652SOL    HW128415   0.231   1.936   8.670 -0.3655 -2.1457  0.3330
 5652SOL    HW228416   0.073   1.945   8.685  0.0437 -0.0581  2.4784
 5653SOL     OW28417   1.826   3.951   5.136  0.2984 -0.0712 -0.5517
 5653SOL    HW128418   1.887   3.947   5.210  1.1537  1.0497 -1.2130
 5653SOL    HW228419   1.845   3.867   5.094 -2.3152 -0.4216 -1.0696
 5654SOL     OW28420   3.458   3.512   3.059 -0.1314 -0.1598 -0.1230
 5654SOL    HW128421   3.468   3.491   3.152  0.2225  1.9723  0.3409
 5654SOL    HW228422   3.366   3.539   3.055 -0.0049  0.3934  0.7508
 5655SOL     OW28423   2.271   3.798  14.101 -0.0344 -0.2541  0.2077
 5655SOL    HW128424   2.207   3.807  14.031 -0.6272  0.3757  0.8284
 5655SOL    HW228425   2.298   3.889  14.111 -0.3655  0.1025 -2.2955
 5656SOL     OW28426   3.932   4.582   6.908  0.5512  0.5202 -0.4373
 5656SOL    HW128427   4.015   4.546   6.877  1.1960  0.3238  1.5536
 5656SOL    HW228428   3.871   4.508   6.906  0.7998  0.3171 -0.5641
 5657SOL     OW28429   3.111   0.629   7.438  0.9357  0.1849 -0.4108
 5657SOL    HW128430   3.167   0.656   7.365 -0.5291  1.4866 -1.0601
 5657SOL    HW228431   3.178   0.646   7.504 -0.5016 -0.7509  1.2889
 5658SOL     OW28432   0.381   0.541   0.709 -0.0063 -0.2126 -0.3635
 5658SOL    HW128433   0.381   0.565   0.802 -0.5579 -0.8654 -0.1966
 5658SOL    HW228434   0.451   0.476   0.710 -1.0001 -1.1932  4.2819
 5659SOL     OW28435   1.050   0.957   3.361  0.0160  0.1974 -0.2060
 5659SOL    HW128436   1.061   1.052   3.366  1.3455  0.1022 -1.1028
 5659SOL    HW228437   0.960   0.955   3.393 -0.5452 -2.0020 -1.9247
 5660SOL     OW28438   0.561   2.915   0.142 -0.1511 -0.7461  0.3988
 5660SOL    HW128439   0.609   2.977   0.196 -0.0386 -0.2948 -0.2167
 5660SOL    HW228440   0.615   2.926   0.063  1.9097  1.1396  2.0824
 5661SOL     OW28441   2.990   0.218  11.963  0.2482 -0.2766  0.1873
 5661SOL    HW128442   2.938   0.298  11.960 -0.2025 -0.5584  0.4269
 5661SOL    HW228443   3.010   0.216  12.057  0.0790  0.7975  0.2477
 5662SOL     OW28444   3.750   4.216   2.743 -0.0700  0.2577 -0.1147
 5662SOL    HW128445   3.766   4.279   2.672 -0.7712 -0.6514 -1.0697
 5662SOL    HW228446   3.753   4.135   2.692 -0.2244 -0.3287  0.8200
 5663SOL     OW28447   0.929   0.927  13.537 -0.1541  0.6126 -0.1812
 5663SOL    HW128448   0.984   0.855  13.566 -0.3391  1.2334  1.7236
 5663SOL    HW228449   0.845   0.887  13.560 -0.3464  0.7200 -0.6885
 5664SOL     OW28450   0.980   4.273  14.516  0.0565 -0.6938  0.3161
 5664SOL    HW128451   1.013   4.353  14.557 -1.8423 -0.6566  1.7811
 5664SOL    HW228452   0.921   4.232  14.579 -1.2816  0.8013  0.0265
 5665SOL     OW28453   1.281   3.150  13.149 -0.2516 -0.1560 -0.2763
 5665SOL    HW128454   1.350   3.084  13.144 -0.0969 -0.0057 -0.1133
 5665SOL    HW228455   1.263   3.174  13.058 -0.3448  0.6285 -0.0464
 5666SOL     OW28456   4.213   1.083   3.443  0.7857  0.1229 -0.6449
 5666SOL    HW128457   4.266   1.129   3.378  0.5679 -0.7576 -1.4491
 5666SOL    HW228458   4.241   0.998   3.407 -0.7064 -0.1922 -1.0403
 5667SOL     OW28459   0.634   0.920   1.456 -0.0177 -0.0982  0.9955
 5667SOL    HW128460   0.647   0.852   1.390  0.5647  0.4967  0.5015
 5667SOL    HW228461   0.700   0.895   1.521 -0.6928 -1.7458  1.0455
 5668SOL     OW28462   2.998   2.573  10.798  0.0744  0.1842 -0.2153
 5668SOL    HW128463   2.995   2.483  10.765 -1.6864  0.9994 -2.2960
 5668SOL    HW228464   3.016   2.560  10.891 -0.4207  0.7443 -0.0471
 5669SOL     OW28465   1.380   2.841   2.144  0.2905 -0.6081 -0.4629
 5669SOL    HW128466   1.296   2.884   2.160  0.3717 -0.4015 -0.6006
 5669SOL    HW228467   1.359   2.782   2.072 -1.5707 -1.3655  0.6970
 5670SOL     OW28468   0.891   3.142  15.972  0.4230 -0.6338  0.3290
 5670SOL    HW128469   0.806   3.182  15.992  0.4084  1.0324 -3.0780
 5670SOL    HW228470   0.902   3.078  16.043 -0.5649  0.4144  1.4305
 5671SOL     OW28471   2.098   1.226   3.611  0.3891  0.2018  0.0992
 5671SOL    HW128472   2.191   1.230   3.590  0.5196 -2.2751  0.3114
 5671SOL    HW228473   2.074   1.289   3.543  1.1812  0.3491 -0.0432
 5672SOL     OW28474   1.931   3.545   1.379 -0.0202  0.1148  0.4642
 5672SOL    HW128475   1.948   3.551   1.285  1.3444  0.7223  0.7478
 5672SOL    HW228476   1.951   3.453   1.396  0.5309  0.2237  0.4075
 5673SOL     OW28477   1.083   3.184   2.264 -0.5084 -0.0770 -0.0117
 5673SOL    HW128478   1.104   3.263   2.215 -0.9462 -0.7254 -1.2538
 5673SOL    HW228479   0.988   3.185   2.258 -0.3079  0.3368 -2.7996
 5674SOL     OW28480   0.273   0.739   5.020 -0.3193  0.6808 -0.3902
 5674SOL    HW128481   0.339   0.749   4.952 -0.2926 -1.8394 -0.7162
 5674SOL    HW228482   0.237   0.828   5.027  0.7459  1.1513 -0.8880
 5675SOL     OW28483   1.686   2.474   3.950 -0.1756  0.1276 -0.6532
 5675SOL    HW128484   1.732   2.556   3.930 -1.1271  0.0914 -2.9505
 5675SOL    HW228485   1.599   2.483   3.911 -0.0213 -0.6658 -1.1840
 5676SOL     OW28486   2.859   0.125  12.386 -0.2719  0.3098  0.3361
 5676SOL    HW128487   2.919   0.083  12.324 -0.9196  0.4393 -0.3876
 5676SOL    HW228488   2.906   0.200  12.422 -1.2344  1.4933 -0.8313
 5677SOL     OW28489   1.129   2.656   5.266  0.2656  0.1514  0.3450
 5677SOL    HW128490   1.146   2.750   5.273  0.7295  0.3179 -2.9725
 5677SOL    HW228491   1.194   2.619   5.325 -0.5318 -0.5687  0.7754
 5678SOL     OW28492   1.209   3.616   4.071  0.3144 -0.1428 -0.0726
 5678SOL    HW128493   1.265   3.694   4.070  0.3028 -0.1223  1.3529
 5678SOL    HW228494   1.153   3.629   4.147  1.6440  1.9769  0.5305
 5679SOL     OW28495   2.846   1.425   0.559  0.0975 -0.3327 -0.3882
 5679SOL    HW128496   2.801   1.404   0.477 -0.3507 -0.7044 -0.0459
 5679SOL    HW228497   2.870   1.516   0.544  1.2607 -0.7324 -0.9310
 5680SOL     OW28498   0.220   3.565   9.101 -0.1616  0.2529  0.1180
 5680SOL    HW128499   0.241   3.497   9.166 -0.7360 -1.4881 -1.5302
 5680SOL    HW228500   0.125   3.558   9.100  0.0282 -1.6910 -3.1168
 5681SOL     OW28501   1.854   0.465  16.883 -0.2413 -0.0822  0.2265
 5681SOL    HW128502   1.877   0.477  16.790 -0.9793 -0.7273 -0.0376
 5681SOL    HW228503   1.888   0.378  16.903 -0.9348 -0.5104 -0.4509
 5682SOL     OW28504   1.995   4.192   7.669  0.1527  0.1737 -0.6030
 5682SOL    HW128505   1.948   4.161   7.747 -0.0782 -0.2262 -0.9038
 5682SOL    HW228506   2.007   4.282   7.698 -0.1301  0.0613 -0.1345
 5683SOL     OW28507   4.379   4.653   9.505 -0.1133  0.5159  0.1201
 5683SOL    HW128508   4.362   4.723   9.569  0.0078 -0.9863  1.7954
 5683SOL    HW228509   4.400   4.573   9.552  0.2590  0.3877 -0.2678
 5684SOL     OW28510   1.255   0.116  15.478 -0.3177  0.1579  0.0553
 5684SOL    HW128511   1.347   0.140  15.465 -0.2975 -0.8204 -1.6035
 5684SOL    HW228512   1.215   0.201  15.499 -0.7391 -0.0691  0.1669
 5685SOL     OW28513   0.792   1.339   4.471  0.2112 -0.4548  0.7511
 5685SOL    HW128514   0.822   1.391   4.397 -1.6271  0.1507  0.4363
 5685SOL    HW228515   0.857   1.269   4.471  0.1280 -0.5309 -0.9704
 5686SOL     OW28516   0.214   2.378   8.960 -0.2876 -0.9833  0.1189
 5686SOL    HW128517   0.176   2.291   8.973 -1.7960 -0.2029  0.9350
 5686SOL    HW228518   0.132   2.421   8.935  0.1166 -0.7572 -0.8210
 5687SOL     OW28519   1.906   2.408  11.431  0.1250 -0.3067  0.2009
 5687SOL    HW128520   1.954   2.354  11.494  1.2808  2.1348  1.4191
 5687SOL    HW228521   1.982   2.459  11.402  0.2950 -1.0424 -0.6485
 5688SOL     OW28522   4.381   1.576   6.151 -0.1630 -0.0546 -0.3844
 5688SOL    HW128523   4.424   1.490   6.156 -0.1254 -0.0654 -0.9038
 5688SOL    HW228524   4.385   1.601   6.059 -0.2634  0.4224 -0.2591
 5689SOL     OW28525   2.158   4.299   5.547  0.1992 -0.2367  0.3281
 5689SOL    HW128526   2.071   4.272   5.520 -0.1124  1.4688 -0.3214
 5689SOL    HW228527   2.151   4.390   5.574 -0.4577  0.3282 -1.7941
 5690SOL     OW28528   2.013   3.000   4.862  0.0490  0.2698 -0.1892
 5690SOL    HW128529   1.959   2.924   4.842  0.9361 -0.7150  1.1656
 5690SOL    HW228530   2.033   3.029   4.773 -0.9316  0.3140 -0.3951
 5691SOL     OW28531   0.117   4.316   7.996  0.4007  0.4113  0.0407
 5691SOL    HW128532   0.163   4.240   7.963  3.0047  1.3490  1.4881
 5691SOL    HW228533   0.077   4.361   7.922 -0.3151  1.3797  0.9961
 5692SOL     OW28534   3.603   2.581   8.037  0.1896 -0.1765 -0.8745
 5692SOL    HW128535   3.542   2.529   8.089 -0.3616  0.9681 -0.3798
 5692SOL    HW228536   3.592   2.667   8.078  1.5144 -0.9781  1.1957
 5693SOL     OW28537   2.227   3.002   7.165 -0.3278 -0.0122 -0.0494
 5693SOL    HW128538   2.237   2.907   7.170  0.1600 -0.0640 -2.0141
 5693SOL    HW228539   2.315   3.039   7.162  0.0264 -0.9728 -1.4545
 5694SOL     OW28540   4.476   1.417   1.114  0.4997 -0.1652 -0.6652
 5694SOL    HW128541   4.471   1.500   1.067 -0.3068 -0.0953 -0.4441
 5694SOL    HW228542   4.470   1.351   1.045  1.3799  1.4205 -2.2429
 5695SOL     OW28543   4.366   1.719  13.335  0.2973 -0.4520 -0.4168
 5695SOL    HW128544   4.406   1.677  13.259 -2.5836 -0.4300 -1.9467
 5695SOL    HW228545   4.277   1.713  13.301  1.1905 -1.0063 -2.6261
 5696SOL     OW28546   0.509   0.434   7.594  0.3359 -0.4575 -0.0135
 5696SOL    HW128547   0.421   0.396   7.589  0.7226 -1.6301  2.3009
 5696SOL    HW228548   0.524   0.450   7.501 -2.1706  2.3495  0.0502
 5697SOL     OW28549   3.632   0.482   5.500 -0.2304  0.9101 -0.0807
 5697SOL    HW128550   3.691   0.504   5.428 -1.8408 -2.0158 -2.3227
 5697SOL    HW228551   3.545   0.487   5.459  0.0860 -1.6178 -1.0482
 5698SOL     OW28552   0.085   3.507   0.336  0.0808  0.5962  0.0029
 5698SOL    HW128553   0.142   3.439   0.372 -1.8675  0.6754  3.1719
 5698SOL    HW228554   0.147   3.578   0.318 -0.9179  1.0833 -1.4742
 5699SOL     OW28555   3.889   1.657  12.938 -0.2050 -0.2016  0.0396
 5699SOL    HW128556   3.904   1.585  12.999 -2.0702  0.9895  1.8976
 5699SOL    HW228557   3.898   1.610  12.855  0.6722 -0.6063  0.3588
 5700SOL     OW28558   2.321   4.090   5.888  0.2257  0.1235  0.3130
 5700SOL    HW128559   2.387   4.148   5.926 -0.6360 -0.3805  2.6440
 5700SOL    HW228560   2.345   4.083   5.796 -1.8996  0.6072 -0.2843
 5701SOL     OW28561   1.488   2.943   5.784  0.1226 -0.0107 -0.1105
 5701SOL    HW128562   1.555   2.904   5.840 -0.1742 -0.2826  0.0537
 5701SOL    HW228563   1.545   2.977   5.715  0.0627 -2.1429 -1.2349
 5702SOL     OW28564   2.422   0.729  11.127 -0.0465  0.3763 -0.1352
 5702SOL    HW128565   2.506   0.773  11.116 -0.0376  1.1030  2.8229
 5702SOL    HW228566   2.426   0.720  11.222  0.1315 -1.7607 -0.3457
 5703SOL     OW28567   1.790   4.407   2.616 -0.1483 -0.1687  0.2338
 5703SOL    HW128568   1.699   4.410   2.647 -0.2490 -1.9388  0.1351
 5703SOL    HW228569   1.779   4.430   2.524 -0.7028 -0.0502  0.3319
 5704SOL     OW28570   2.724   4.623  12.527  0.1941 -0.0664  0.6147
 5704SOL    HW128571   2.649   4.675  12.557  0.2517  0.7329 -0.6258
 5704SOL    HW228572   2.776   4.693  12.486 -0.1143 -0.9408 -1.2905
 5705SOL     OW28573   2.592   3.909   8.643 -0.2936 -0.2317  0.1669
 5705SOL    HW128574   2.563   3.823   8.672  0.4519 -0.3272  0.6117
 5705SOL    HW228575   2.682   3.885   8.623  0.1841  1.0961  0.7256
 5706SOL     OW28576   1.815   3.774   1.056  0.1683  0.1828  0.0709
 5706SOL    HW128577   1.766   3.856   1.055 -0.5566 -0.2612 -1.0841
 5706SOL    HW228578   1.784   3.735   0.974  0.0491 -0.3180  0.3492
 5707SOL     OW28579   3.231   2.942  15.581  0.3951  0.7533 -0.5872
 5707SOL    HW128580   3.197   3.031  15.593  1.6846  1.1447  0.1827
 5707SOL    HW228581   3.234   2.937  15.486  0.4853  1.3705 -0.6187
 5708SOL     OW28582   0.321   2.335  16.244  0.1252 -0.1458  0.4346
 5708SOL    HW128583   0.336   2.310  16.335 -3.3188 -1.3535  0.6938
 5708SOL    HW228584   0.225   2.331  16.240  0.0566  1.4911  0.3547
 5709SOL     OW28585   0.370   2.080  10.476  0.4108 -0.2954 -0.5955
 5709SOL    HW128586   0.371   1.993  10.516 -0.5542 -0.1120 -0.1713
 5709SOL    HW228587   0.317   2.118  10.546  0.5496 -1.3293  0.0695
 5710SOL     OW28588   3.623   1.227   9.452 -0.0579  0.4742 -0.3129
 5710SOL    HW128589   3.695   1.208   9.391 -0.6366 -1.1458 -0.4969
 5710SOL    HW228590   3.572   1.146   9.460  0.2696 -0.0374 -3.1210
 5711SOL     OW28591   3.801   0.994   3.147 -0.0571 -0.0647  0.1820
 5711SOL    HW128592   3.861   0.920   3.143  0.7446  0.6406 -1.0262
 5711SOL    HW228593   3.794   1.020   3.055  1.4203  1.8853  0.6214
 5712SOL     OW28594   4.049   1.144   4.716 -0.1202 -0.1645 -0.2152
 5712SOL    HW128595   4.041   1.142   4.620  1.6519  1.2084 -0.3982
 5712SOL    HW228596   4.109   1.218   4.724 -0.2029 -0.0870 -0.3217
 5713SOL     OW28597   2.162   0.381   4.620  0.6621  0.1311  0.0828
 5713SOL    HW128598   2.193   0.313   4.560  1.6062  0.1886  0.5110
 5713SOL    HW228599   2.103   0.336   4.680  0.9399  0.6175  0.7118
 5714SOL     OW28600   0.335   1.645   1.916 -0.1600 -0.8163 -0.0542
 5714SOL    HW128601   0.422   1.660   1.879 -0.7448  2.4709 -0.1477
 5714SOL    HW228602   0.336   1.670   2.008 -2.3700  0.7002 -0.4358
 5715SOL     OW28603   2.703   2.653  14.788 -0.1908  0.2783  0.2692
 5715SOL    HW128604   2.726   2.668  14.880 -1.7059 -0.1594  0.7177
 5715SOL    HW228605   2.770   2.590  14.760 -0.7009 -0.6047  1.0071
 5716SOL     OW28606   1.273   2.626   9.806  0.7482 -0.1092 -0.5036
 5716SOL    HW128607   1.262   2.560   9.738  1.4086 -2.6244  1.8428
 5716SOL    HW228608   1.339   2.588   9.864  1.3189  0.8202 -0.5333
 5717SOL     OW28609   1.754   3.078  13.374  0.7084  0.3875  0.0678
 5717SOL    HW128610   1.739   2.995  13.327  0.2553  0.0294  0.8570
 5717SOL    HW228611   1.699   3.141  13.328 -0.8752 -0.5865  0.6521
 5718SOL     OW28612   3.415   0.558   0.372  0.0465  0.0013 -0.4987
 5718SOL    HW128613   3.421   0.473   0.328  1.8838 -0.9920  1.6669
 5718SOL    HW228614   3.383   0.535   0.459  2.7190 -0.6278  0.3110
 5719SOL     OW28615   3.959   2.143   7.899  0.3324  0.2104 -0.3377
 5719SOL    HW128616   4.052   2.165   7.898  1.0628 -2.7614  0.6886
 5719SOL    HW228617   3.920   2.210   7.843  0.1458 -0.4171 -0.9680
 5720SOL     OW28618   2.820   1.415  10.969  0.3060 -0.2931  0.7002
 5720SOL    HW128619   2.885   1.405  10.899  0.9026 -2.4281  1.5634
 5720SOL    HW228620   2.740   1.366  10.948 -0.7759  2.1881 -1.0694
 5721SOL     OW28621   3.299   4.397   4.455  0.6539 -0.2680 -0.3434
 5721SOL    HW128622   3.269   4.349   4.533 -0.4502 -0.0627 -0.6337
 5721SOL    HW228623   3.238   4.366   4.388 -0.8187  0.8666  0.4787
 5722SOL     OW28624   0.443   0.293   6.077  0.3795 -0.0450  0.0066
 5722SOL    HW128625   0.498   0.302   6.155 -0.8481  0.8568  0.7563
 5722SOL    HW228626   0.453   0.379   6.037 -0.3262  0.1574  0.2698
 5723SOL     OW28627   2.948   1.913   0.974  0.1527  0.1319 -0.0601
 5723SOL    HW128628   2.955   2.006   0.994 -0.8860 -0.4290  2.8917
 5723SOL    HW228629   2.903   1.876   1.050  0.0506  2.1650  0.8644
 5724SOL     OW28630   4.329   3.514  10.773 -0.1738  0.3383  0.0191
 5724SOL    HW128631   4.248   3.563  10.785 -0.6238 -0.2477 -0.6121
 5724SOL    HW228632   4.332   3.506  10.677 -1.0866 -2.2734  0.2055
 5725SOL     OW28633   0.761   1.708   8.072  0.8289  0.0741  0.1916
 5725SOL    HW128634   0.725   1.713   8.161  0.0363 -1.4103 -0.0298
 5725SOL    HW228635   0.833   1.771   8.077 -1.4111  2.5961  0.2960
 5726SOL     OW28636   2.179   4.565   6.416 -0.3078 -0.2971 -0.0355
 5726SOL    HW128637   2.260   4.609   6.392 -0.3677 -0.3602 -0.3543
 5726SOL    HW228638   2.139   4.541   6.332 -2.1751  0.7900  0.5343
 5727SOL     OW28639   4.401   3.797   2.270 -0.9300  0.5491 -0.5252
 5727SOL    HW128640   4.418   3.792   2.175  2.0046 -3.4432  0.1940
 5727SOL    HW228641   4.314   3.834   2.285 -0.8177  0.0857  1.1959
 5728SOL     OW28642   3.871   2.712   0.167 -0.0380 -0.0611  0.1234
 5728SOL    HW128643   3.963   2.715   0.143  0.4834 -1.8798  1.8491
 5728SOL    HW228644   3.845   2.627   0.130  0.4699 -0.0221 -0.3190
 5729SOL     OW28645   1.222   4.437   2.865 -0.0298 -0.6670 -0.4436
 5729SOL    HW128646   1.243   4.419   2.956 -2.6660  0.6393  0.4069
 5729SOL    HW228647   1.214   4.346   2.834  1.8634 -0.7671 -0.6578
 5730SOL     OW28648   3.374   3.151   3.534  0.2393 -0.2194 -0.4385
 5730SOL    HW128649   3.412   3.106   3.609  0.2967  0.5540  0.0020
 5730SOL    HW228650   3.341   3.078   3.483  0.1974  1.7052 -3.1686
 5731SOL     OW28651   0.581   4.389   4.470  0.8353 -0.6513  0.0318
 5731SOL    HW128652   0.517   4.460   4.472  0.3763 -1.0966  1.2580
 5731SOL    HW228653   0.627   4.413   4.389  0.3897  1.1628  0.3031
 5732SOL     OW28654   2.023   1.910   1.587  0.3014  0.0335 -0.2700
 5732SOL    HW128655   1.969   1.833   1.603 -0.1729  0.8349  2.0460
 5732SOL    HW228656   1.959   1.972   1.552 -1.0322 -1.5046 -0.5164
 5733SOL     OW28657   2.598   1.135   6.864 -0.3122  0.0711 -0.1362
 5733SOL    HW128658   2.669   1.189   6.898  1.8936 -1.9633 -1.4744
 5733SOL    HW228659   2.643   1.085   6.796  0.8924  1.3302 -0.2505
 5734SOL     OW28660   1.228   2.142   6.674  0.0405  0.1655  0.5880
 5734SOL    HW128661   1.245   2.109   6.586 -1.5464  1.2856 -0.1309
 5734SOL    HW228662   1.288   2.091   6.729  0.2026 -1.2757 -0.9158
 5735SOL     OW28663   3.496   0.458   3.425  0.4438  0.8407 -0.1281
 5735SOL    HW128664   3.571   0.415   3.385  0.2302  0.4975 -0.1623
 5735SOL    HW228665   3.539   0.474   3.509  0.3178  1.2609 -0.1449
 5736SOL     OW28666   1.185   3.296  17.076 -0.6694  0.1073 -0.2108
 5736SOL    HW128667   1.223   3.380  17.052 -0.7453  0.4680  0.9413
 5736SOL    HW228668   1.105   3.289  17.024 -0.0956 -1.9763 -0.8295
 5737SOL     OW28669   0.932   4.136   7.669  0.2754  0.5726 -0.4426
 5737SOL    HW128670   0.963   4.224   7.651  2.3914  0.0023  0.4260
 5737SOL    HW228671   1.008   4.100   7.713 -1.0937  0.7439  2.0697
 5738SOL     OW28672   4.446   4.255   2.824  0.0847  0.0696 -0.2541
 5738SOL    HW128673   4.528   4.251   2.874  0.9368 -1.8863 -1.8160
 5738SOL    HW228674   4.484   4.290   2.743  0.3877 -2.0504 -1.0188
 5739SOL     OW28675   2.990   3.183   1.482 -0.0321  0.3948  0.1463
 5739SOL    HW128676   2.941   3.266   1.487  1.3792  1.1882  0.6583
 5739SOL    HW228677   3.057   3.199   1.548  1.8149  1.4602 -2.0018
 5740SOL     OW28678   4.568   3.935   6.794 -0.7533 -0.2978  0.3699
 5740SOL    HW128679   4.586   3.962   6.884  0.8404 -0.2073  0.0293
 5740SOL    HW228680   4.596   4.012   6.744 -0.3543  0.0596  1.1273
 5741SOL     OW28681   1.394   3.824   0.603  0.3473 -0.1294  0.2584
 5741SOL    HW128682   1.319   3.774   0.573 -0.7291  0.4273  2.0262
 5741SOL    HW228683   1.369   3.911   0.571 -1.2306 -1.7691 -2.9097
 5742SOL     OW28684   0.612   0.926   3.778  0.0870  0.3475 -0.1385
 5742SOL    HW128685   0.678   0.973   3.829  0.9449 -2.3095  1.2136
 5742SOL    HW228686   0.650   0.838   3.780 -4.0795 -1.4111  1.1942
 5743SOL     OW28687   2.217   1.684   6.753 -0.4317  0.1253 -0.0742
 5743SOL    HW128688   2.288   1.627   6.723  0.0296  1.0609 -0.7834
 5743SOL    HW228689   2.246   1.709   6.841 -1.0886  2.5083 -0.5138
 5744SOL     OW28690   0.488   0.288   4.133 -0.3541  0.3334 -0.4897
 5744SOL    HW128691   0.399   0.319   4.112 -0.9068  0.9149  2.7573
 5744SOL    HW228692   0.514   0.258   4.046 -0.3117 -0.4428 -0.2094
 5745SOL     OW28693   2.835   0.362   6.374 -0.4159  0.2488 -0.3660
 5745SOL    HW128694   2.904   0.428   6.379  1.0583 -1.3880  0.4518
 5745SOL    HW228695   2.768   0.388   6.438 -1.6018 -0.6279 -1.2565
 5746SOL     OW28696   0.853   3.796   4.002  0.0704 -0.2547  0.2059
 5746SOL    HW128697   0.892   3.864   4.057 -0.3681 -0.5266  0.8549
 5746SOL    HW228698   0.915   3.808   3.931 -1.5480  0.3786 -1.0873
 5747SOL     OW28699   1.744   3.606   4.819 -0.2869 -0.2014  0.0157
 5747SOL    HW128700   1.791   3.603   4.736 -0.9563  2.1444 -0.4414
 5747SOL    HW228701   1.656   3.583   4.791  0.3018 -1.0529 -1.1356
 5748SOL     OW28702   0.740   2.842   3.267 -0.4741 -0.2648  0.3731
 5748SOL    HW128703   0.691   2.768   3.302  1.0074 -1.2479  0.3794
 5748SOL    HW228704   0.699   2.848   3.181 -0.4067 -1.4626  0.2645
 5749SOL     OW28705   4.564   0.615  15.819  0.3001 -0.1651 -0.6858
 5749SOL    HW128706   4.581   0.682  15.753  1.0618  1.7207  1.4186
 5749SOL    HW228707   4.498   0.557  15.783  0.3546 -0.9614  0.4947
 5750SOL     OW28708   4.551   3.658   7.702 -0.3214 -0.6246  0.4132
 5750SOL    HW128709   4.645   3.657   7.684 -0.6205 -0.7159 -1.1806
 5750SOL    HW228710   4.541   3.629   7.793  0.3182  2.0945  1.3354
 5751SOL     OW28711   3.687   2.766  11.376  0.1838  0.6132 -0.2061
 5751SOL    HW128712   3.675   2.861  11.367 -1.3796  0.4436  0.0867
 5751SOL    HW228713   3.612   2.745  11.321 -1.9436  0.1048  2.9021
 5752SOL     OW28714   2.309   2.995   1.660 -0.5296 -0.4988 -0.0805
 5752SOL    HW128715   2.216   3.011   1.643 -0.6705 -0.7475  0.4701
 5752SOL    HW228716   2.331   2.930   1.593  1.1236  1.0234 -1.0093
 5753SOL     OW28717   4.051   0.821  14.447 -0.4827 -0.4097  0.0271
 5753SOL    HW128718   4.013   0.833  14.534 -0.2457 -0.2339  0.1060
 5753SOL    HW228719   4.044   0.727  14.431  0.3991 -0.5222  0.2718
 5754SOL     OW28720   0.625   2.989   4.287 -0.6322 -0.6740  0.2852
 5754SOL    HW128721   0.604   2.960   4.199  0.3871  1.3931 -0.6378
 5754SOL    HW228722   0.701   2.934   4.303 -1.2897 -1.4315  0.8028
 5755SOL     OW28723   2.498   0.119  12.583  0.0252  0.0247  0.3642
 5755SOL    HW128724   2.498   0.108  12.678 -0.5186 -0.1554  0.3433
 5755SOL    HW228725   2.404   0.127  12.565  0.4318  1.8048 -0.9059
 5756SOL     OW28726   0.175   1.307  12.979  0.1536 -0.0656 -0.4411
 5756SOL    HW128727   0.174   1.226  12.929 -3.2446 -0.4896  0.2712
 5756SOL    HW228728   0.193   1.374  12.914  1.2782  0.0371 -0.0171
 5757SOL     OW28729   0.650   1.331  14.051 -0.0778  0.1250 -0.0081
 5757SOL    HW128730   0.627   1.302  13.962 -1.1837 -1.4492  0.7895
 5757SOL    HW228731   0.684   1.418  14.030 -0.3634  0.1970 -0.1757
 5758SOL     OW28732   1.894   0.821   4.252  0.5005  0.1611  0.4430
 5758SOL    HW128733   1.956   0.892   4.264 -0.6656  1.4450 -1.1900
 5758SOL    HW228734   1.889   0.813   4.157  2.3733  0.0257  0.3537
 5759SOL     OW28735   1.060   0.522   5.564 -0.0470 -0.1191  0.4066
 5759SOL    HW128736   1.090   0.439   5.526  1.4126  0.6712 -0.1703
 5759SOL    HW228737   1.116   0.523   5.642  0.9411 -0.8859 -0.2903
 5760SOL     OW28738   2.866   0.194   9.719 -0.4488 -0.1077 -0.4278
 5760SOL    HW128739   2.847   0.235   9.635 -0.5052  0.1780 -0.2745
 5760SOL    HW228740   2.908   0.268   9.764  1.1702 -2.2532  1.6542
 5761SOL     OW28741   1.095   4.046   8.504  0.0737  0.1417  0.1057
 5761SOL    HW128742   1.124   3.956   8.491 -1.8007 -0.2634 -1.3192
 5761SOL    HW228743   1.106   4.058   8.598 -0.3978  0.3190  0.1374
 5762SOL     OW28744   4.212   2.135   5.592 -0.0309 -0.1358 -0.3990
 5762SOL    HW128745   4.242   2.114   5.504  0.8839 -1.2748  0.1843
 5762SOL    HW228746   4.119   2.113   5.589 -0.2584  1.0370 -1.7840
 5763SOL     OW28747   2.167   0.131   7.836  0.8816  0.7861 -0.2686
 5763SOL    HW128748   2.136   0.202   7.892 -2.0374  0.0333 -0.9493
 5763SOL    HW228749   2.219   0.086   7.903 -0.6536 -1.4436 -0.5818
 5764SOL     OW28750   3.216   0.783   6.635 -0.0821 -0.2434 -0.3543
 5764SOL    HW128751   3.161   0.860   6.653 -0.1287 -0.3856  0.1036
 5764SOL    HW228752   3.260   0.812   6.555  0.1674  0.7655  0.1504
 5765SOL     OW28753   3.035   4.019   7.872  0.2611  0.2772  0.1224
 5765SOL    HW128754   3.016   3.941   7.819  2.0808 -1.3906  1.9626
 5765SOL    HW228755   3.081   4.070   7.806 -1.1873  0.2090 -0.9489
 5766SOL     OW28756   0.030   1.268   3.004  0.0902 -0.5058 -0.0879
 5766SOL    HW128757   0.090   1.227   2.942 -1.6212 -2.8328 -0.2164
 5766SOL    HW228758   4.689   1.199   3.016  1.8339 -2.1953 -0.3293
 5767SOL     OW28759   4.001   3.554   2.232 -0.0423 -0.5133  0.4308
 5767SOL    HW128760   4.065   3.492   2.196 -0.5630  0.3732 -1.9748
 5767SOL    HW228761   3.955   3.503   2.299  0.9078 -0.3553  1.2102
 5768SOL     OW28762   4.561   0.361  13.463  0.7897 -0.4088  0.4235
 5768SOL    HW128763   4.541   0.284  13.410 -1.1798 -0.3294  1.0358
 5768SOL    HW228764   4.479   0.409  13.471  0.6579 -0.1348 -2.3067
 5769SOL     OW28765   1.314   3.251  10.300 -0.0183 -0.3513 -0.2034
 5769SOL    HW128766   1.310   3.169  10.252  1.3975 -1.0703  0.9018
 5769SOL    HW228767   1.335   3.301  10.221  2.7478  2.1904  2.1237
 5770SOL     OW28768   2.372   1.221   3.545  0.3909 -0.2518 -0.5481
 5770SOL    HW128769   2.414   1.266   3.618  1.0539 -0.0476 -1.0560
 5770SOL    HW228770   2.426   1.246   3.470  0.4295 -0.1976 -0.5017
 5771SOL     OW28771   0.658   2.054   0.577  0.1662 -0.3628  0.3509
 5771SOL    HW128772   0.624   2.140   0.550  1.9076  0.0891 -0.4276
 5771SOL    HW228773   0.627   2.055   0.668  1.1073  0.0390  0.6616
 5772SOL     OW28774   2.507   1.083  10.625 -0.5251 -0.6719  0.0133
 5772SOL    HW128775   2.415   1.057  10.615 -0.0699 -2.5069  0.4690
 5772SOL    HW228776   2.541   1.033  10.699  0.0662  3.0505  2.2288
 5773SOL     OW28777   2.497   2.034  16.243  0.6671 -0.3398 -0.2509
 5773SOL    HW128778   2.441   1.957  16.232  2.6230 -1.6927 -0.7118
 5773SOL    HW228779   2.581   1.991  16.228  0.6853  0.2599 -1.9438
 5774SOL     OW28780   4.615   4.347   3.244  0.5409  0.2682  0.0284
 5774SOL    HW128781   4.674   4.287   3.197  0.9439  0.1214  0.7296
 5774SOL    HW228782   4.531   4.302   3.230 -0.1649  2.0215 -1.2992
 5775SOL     OW28783   1.686   0.675  16.912  0.2157 -0.2907 -0.2688
 5775SOL    HW128784   1.739   0.597  16.895 -0.0959  0.0704 -2.8020
 5775SOL    HW228785   1.718   0.688  17.001  0.9981 -2.2136 -0.2527
 5776SOL     OW28786   2.349   0.753   4.717  0.2074  0.3159  0.4304
 5776SOL    HW128787   2.358   0.808   4.795 -2.5833  0.3384  0.7175
 5776SOL    HW228788   2.277   0.796   4.672  1.9604  2.7632 -0.0430
 5777SOL     OW28789   0.059   3.364   3.102 -0.0015  0.0588  0.0386
 5777SOL    HW128790   0.101   3.314   3.172  0.4009  2.1058  1.2780
 5777SOL    HW228791   4.717   3.304   3.068  1.6496 -0.4630 -2.2547
 5778SOL     OW28792   3.930   0.443   0.949 -0.1577 -0.1569  0.0157
 5778SOL    HW128793   3.860   0.482   1.001 -0.0674 -0.0895  0.0880
 5778SOL    HW228794   3.871   0.400   0.888 -0.5923  0.2810  0.1325
 5779SOL     OW28795   0.884   2.265   4.153  0.2514 -0.2366 -0.0666
 5779SOL    HW128796   0.906   2.173   4.134  0.7373 -0.5114  1.7592
 5779SOL    HW228797   0.917   2.313   4.078 -2.1383  1.2527 -0.1586
 5780SOL     OW28798   0.248   3.968   5.900  0.1473 -0.5469  0.0261
 5780SOL    HW128799   0.232   4.040   5.838  1.3894 -1.7026 -1.6319
 5780SOL    HW228800   0.314   3.913   5.856 -0.7090 -1.2359 -0.3925
 5781SOL     OW28801   1.251   1.643   8.590  0.7675  0.1422  0.4767
 5781SOL    HW128802   1.322   1.703   8.611 -0.0005  1.0542  0.4867
 5781SOL    HW228803   1.303   1.565   8.572 -0.6814 -0.8797  0.6900
 5782SOL     OW28804   3.081   2.896  11.488 -0.1044  0.1645  0.4613
 5782SOL    HW128805   3.160   2.862  11.529 -0.0054 -1.3991 -1.0258
 5782SOL    HW228806   3.089   2.851  11.404 -0.0015 -1.4277  1.3321
 5783SOL     OW28807   2.669   3.373   6.054 -0.6133  0.1172  0.3183
 5783SOL    HW128808   2.729   3.420   6.112  0.1545  0.3226 -0.6317
 5783SOL    HW228809   2.670   3.284   6.089  0.4232 -0.0658 -0.1975
 5784SOL     OW28810   0.118   1.427   9.732 -0.4485 -0.0230  0.3450
 5784SOL    HW128811   0.116   1.332   9.724 -4.7387  0.0779  0.1438
 5784SOL    HW228812   0.180   1.447   9.802  0.8757 -2.7348 -0.0437
 5785SOL     OW28813   4.600   1.856   3.424  0.4826  0.3352  0.0940
 5785SOL    HW128814   4.647   1.775   3.444  1.5569  0.7194 -0.8659
 5785SOL    HW228815   4.539   1.869   3.496  0.9311  0.9423  0.3671
 5786SOL     OW28816   3.729   3.189   4.577 -0.4047  0.2709  0.3804
 5786SOL    HW128817   3.650   3.145   4.543 -0.6811  1.1490 -0.1059
 5786SOL    HW228818   3.799   3.147   4.527 -1.1799 -1.7327  0.9714
 5787SOL     OW28819   4.226   3.510  10.033  0.2510 -0.3299  0.0075
 5787SOL    HW128820   4.260   3.594  10.001 -0.7964 -0.7271 -2.1234
 5787SOL    HW228821   4.293   3.478  10.093  0.9612 -0.9558 -1.1225
 5788SOL     OW28822   1.240   1.813   5.978 -0.3015 -0.2293 -0.4714
 5788SOL    HW128823   1.185   1.793   5.902 -0.4793  0.2177 -0.4583
 5788SOL    HW228824   1.178   1.797   6.049 -1.3034  1.8319 -0.9074
 5789SOL     OW28825   4.309   4.478   5.568  0.2889  0.0783 -0.3398
 5789SOL    HW128826   4.327   4.532   5.491 -1.6179 -0.1439 -0.9393
 5789SOL    HW228827   4.213   4.475   5.578  0.3484  1.1949  0.5556
 5790SOL     OW28828   0.268   0.407  13.266  0.1388 -0.0421  0.5948
 5790SOL    HW128829   0.184   0.394  13.310 -1.3668  1.0241 -1.8957
 5790SOL    HW228830   0.303   0.326  13.229 -0.4954 -0.2241  0.3932
 5791SOL     OW28831   2.803   0.334   4.169 -0.1780 -0.6765 -0.5555
 5791SOL    HW128832   2.721   0.313   4.214  0.0628 -0.2803  0.0642
 5791SOL    HW228833   2.833   0.251   4.131  1.2074 -1.4083  2.0916
 5792SOL     OW28834   4.309   4.416  10.868  0.1917 -0.2739  0.7793
 5792SOL    HW128835   4.297   4.469  10.790 -1.8518 -0.8164  0.7246
 5792SOL    HW228836   4.300   4.330  10.827  0.4907 -0.6103  1.3989
 5793SOL     OW28837   2.413   2.110   9.194  0.5533  0.2114 -0.1955
 5793SOL    HW128838   2.440   2.178   9.132 -0.0921 -0.9075 -1.7215
 5793SOL    HW228839   2.371   2.170   9.256  2.6538 -0.4150  1.8055
 5794SOL     OW28840   2.468   2.662   9.314  0.1989 -0.3711  0.5023
 5794SOL    HW128841   2.561   2.677   9.333  0.0844  1.0009  0.0072
 5794SOL    HW228842   2.450   2.597   9.381 -0.3629  0.2801  0.9887
 5795SOL     OW28843   2.952   4.381   5.906  0.3410 -0.2410 -0.2189
 5795SOL    HW128844   2.987   4.470   5.907 -1.0455  0.3091 -0.0125
 5795SOL    HW228845   3.005   4.336   5.971  0.3146  0.5001  0.3234
 5796SOL     OW28846   0.651   1.967   3.634  0.3629  0.0634  0.1020
 5796SOL    HW128847   0.721   1.965   3.700  1.0044  0.6695 -0.5558
 5796SOL    HW228848   0.619   1.877   3.632  1.0030 -0.1436 -0.8346
 5797SOL     OW28849   2.744   3.425   2.236  0.5335  0.1659 -0.1503
 5797SOL    HW128850   2.661   3.413   2.282  1.8993  0.9177  2.4896
 5797SOL    HW228851   2.711   3.423   2.146 -0.6875 -0.8119  0.3230
 5798SOL     OW28852   2.382   2.384  15.992 -0.0133  0.2452 -0.0645
 5798SOL    HW128853   2.428   2.465  16.014 -0.5389 -0.6474  4.3369
 5798SOL    HW228854   2.315   2.379  16.061 -0.7659 -0.5837 -0.8440
 5799SOL     OW28855   3.616   3.622   5.158  0.0514  0.1874  0.0542
 5799SOL    HW128856   3.570   3.701   5.129 -1.4579 -0.0762  1.7771
 5799SOL    HW228857   3.570   3.561   5.101  2.1764  0.1423 -1.6096
 5800SOL     OW28858   3.885   3.419   2.480 -1.3328 -0.1306 -0.1017
 5800SOL    HW128859   3.827   3.346   2.459 -1.4912  0.5501 -2.0358
 5800SOL    HW228860   3.822   3.491   2.484  1.0934  2.0374 -0.9023
 5801SOL     OW28861   1.234   1.701   2.082  0.0581 -0.3666  0.4898
 5801SOL    HW128862   1.173   1.637   2.120 -0.0458 -0.4404  0.1931
 5801SOL    HW228863   1.197   1.710   1.995  2.2072  0.2330 -0.3548
 5802SOL     OW28864   4.464   0.565   0.319 -0.6439 -0.3772 -0.2070
 5802SOL    HW128865   4.441   0.605   0.235  0.5309 -0.4477 -0.5615
 5802SOL    HW228866   4.429   0.631   0.379  1.6373  0.7012 -0.0309
 5803SOL     OW28867   4.134   1.517   2.833 -0.0466 -0.0088 -0.4411
 5803SOL    HW128868   4.047   1.556   2.831 -0.0125 -0.0035 -1.9058
 5803SOL    HW228869   4.114   1.427   2.860 -1.0423  1.0835  2.3730
 5804SOL     OW28870   3.675   2.340  16.027  0.9885  0.1010  0.3804
 5804SOL    HW128871   3.596   2.393  16.034 -0.9278 -3.0025  2.1145
 5804SOL    HW228872   3.731   2.395  16.082  2.5776 -1.4536  0.2950
 5805SOL     OW28873   2.626   4.258   8.435 -0.0609 -0.7528 -0.5047
 5805SOL    HW128874   2.674   4.176   8.431  0.5908 -0.3794 -0.3075
 5805SOL    HW228875   2.689   4.313   8.481 -0.5003  0.9021 -1.8755
 5806SOL     OW28876   1.470   1.608   0.525 -0.5435  0.3683 -0.0556
 5806SOL    HW128877   1.457   1.696   0.559 -0.1551  0.2832  0.3194
 5806SOL    HW228878   1.465   1.615   0.430 -0.4442 -0.9093 -0.1579
 5807SOL     OW28879   0.865   3.206   6.304  0.2236 -0.3007  0.3464
 5807SOL    HW128880   0.953   3.240   6.320 -0.7357  1.1570  2.5374
 5807SOL    HW228881   0.862   3.152   6.384  0.5626 -2.6976 -1.2603
 5808SOL     OW28882   3.190   2.747   3.163  0.1973  0.0805  0.4565
 5808SOL    HW128883   3.222   2.672   3.214 -2.5187 -2.3841 -1.4460
 5808SOL    HW228884   3.142   2.702   3.094  1.2670 -0.4178  0.0371
 5809SOL     OW28885   4.251   0.967   4.743 -0.3755 -0.0337 -0.1820
 5809SOL    HW128886   4.191   1.041   4.731 -0.4133 -0.0554 -0.1256
 5809SOL    HW228887   4.231   0.938   4.832  0.3308  0.8674  0.2686
 5810SOL     OW28888   3.525   4.525   4.106  0.0685  0.8055 -0.0671
 5810SOL    HW128889   3.454   4.528   4.042  1.1800  1.0814 -1.3033
 5810SOL    HW228890   3.611   4.522   4.064  0.7473  2.9535  1.1607
 5811SOL     OW28891   4.678   1.820   8.640 -0.6505 -0.3115 -0.1267
 5811SOL    HW128892   4.595   1.819   8.686 -1.8377  3.3633 -2.1743
 5811SOL    HW228893   4.685   1.725   8.631  0.5774 -0.1880 -0.5968
 5812SOL     OW28894   3.865   3.039   6.015 -0.3671  0.0022 -0.0957
 5812SOL    HW128895   3.855   2.945   6.003 -0.2672 -0.5119  3.7260
 5812SOL    HW228896   3.824   3.053   6.101 -0.6756  1.2934 -0.4487
 5813SOL     OW28897   2.148   3.163   4.231  0.1612  0.3107 -0.4080
 5813SOL    HW128898   2.199   3.097   4.183 -0.1234  1.2508 -2.0335
 5813SOL    HW228899   2.117   3.112   4.305  1.1707  0.0943 -0.1304
 5814SOL     OW28900   3.332   3.283   1.907  0.1464  0.0610 -0.3806
 5814SOL    HW128901   3.264   3.234   1.953  1.2189 -1.2931 -0.2380
 5814SOL    HW228902   3.396   3.220   1.873  0.4802  1.9635 -3.3322
 5815SOL     OW28903   4.143   3.287   7.637 -0.3286  0.1208 -0.8078
 5815SOL    HW128904   4.145   3.288   7.542 -2.4062  2.0073 -0.8331
 5815SOL    HW228905   4.237   3.272   7.648 -0.3856  2.7386  3.0783
 5816SOL     OW28906   3.278   2.849  16.910 -0.3227  0.0701 -0.2390
 5816SOL    HW128907   3.291   2.943  16.900  1.7319 -0.0596  1.0900
 5816SOL    HW228908   3.340   2.833  16.981  0.7302  2.3079 -0.6629
 5817SOL     OW28909   0.950   0.694   7.423 -0.1915  0.0836 -0.8494
 5817SOL    HW128910   0.897   0.714   7.501 -0.0743  1.4049 -1.1175
 5817SOL    HW228911   1.033   0.673   7.466 -1.1117 -1.0575  0.3609
 5818SOL     OW28912   1.489   2.959   5.283 -0.3430 -0.3305 -0.4336
 5818SOL    HW128913   1.575   2.958   5.323  1.1320  0.5511 -3.5873
 5818SOL    HW228914   1.466   3.050   5.299 -1.2548 -0.5933 -0.2207
 5819SOL     OW28915   0.167   2.419   8.540 -0.1910  0.0422 -0.2665
 5819SOL    HW128916   0.229   2.425   8.613 -0.7795  0.4849  0.2011
 5819SOL    HW228917   0.109   2.489   8.572  0.0764  0.1023  0.0881
 5820SOL     OW28918   2.776   0.682   4.210  0.5704 -0.1310 -0.1411
 5820SOL    HW128919   2.791   0.766   4.253 -1.3382  0.0377  0.1963
 5820SOL    HW228920   2.687   0.664   4.241 -0.4301 -0.7309 -3.3280
 5821SOL     OW28921   3.581   1.145   0.914 -0.3445  0.0223 -0.1361
 5821SOL    HW128922   3.605   1.055   0.896 -1.1682  0.1547 -1.8638
 5821SOL    HW228923   3.487   1.127   0.926 -0.0917 -0.4403  1.1783
 5822SOL     OW28924   3.524   3.684   5.859  0.3465 -0.1587 -0.3221
 5822SOL    HW128925   3.510   3.777   5.839 -3.7514 -0.8154 -0.5705
 5822SOL    HW228926   3.619   3.689   5.862  0.4091 -2.4236  1.0850
 5823SOL     OW28927   1.855   4.659   7.487  0.3731 -0.0207  0.2842
 5823SOL    HW128928   1.862   4.669   7.582  1.2705  0.1378  0.2081
 5823SOL    HW228929   1.928   4.712   7.454  0.1526  0.4195  0.5020
 5824SOL     OW28930   3.646   2.548   0.037 -0.2332  0.2095 -0.5165
 5824SOL    HW128931   3.676   2.486   0.103  1.7468 -1.8671 -3.3503
 5824SOL    HW228932   3.568   2.581   0.080 -0.4784 -0.6086 -0.3385
 5825SOL     OW28933   0.246   0.762   3.045 -0.3970 -0.1876  0.3069
 5825SOL    HW128934   0.277   0.671   3.041  1.8792  0.5878  0.2936
 5825SOL    HW228935   0.284   0.797   2.965 -0.9754  0.1137  0.1641
 5826SOL     OW28936   0.169   3.360   7.385 -0.5502 -0.3066  0.8846
 5826SOL    HW128937   0.184   3.447   7.421 -1.4168  0.6086 -0.9488
 5826SOL    HW228938   0.213   3.312   7.456  1.0108  2.0567  1.5195
 5827SOL     OW28939   3.624   3.821   4.870 -0.1190  0.4018  0.4182
 5827SOL    HW128940   3.583   3.735   4.879  1.0830  0.1091  2.9504
 5827SOL    HW228941   3.693   3.801   4.807 -2.2904 -2.2620 -1.1354
 5828SOL     OW28942   0.124   4.376   0.410 -0.1636  0.3262  0.7520
 5828SOL    HW128943   0.119   4.343   0.500 -0.7567 -0.8653  0.2909
 5828SOL    HW228944   0.197   4.434   0.428 -0.1689  0.5039  0.2151
 5829SOL     OW28945   0.503   3.781   3.528 -0.0102  0.6180  0.1263
 5829SOL    HW128946   0.480   3.780   3.435  1.2480  1.1179 -0.1887
 5829SOL    HW228947   0.592   3.746   3.524 -0.2979 -0.3830  2.5304
 5830SOL     OW28948   1.569   2.938  14.992 -1.0649  0.4365  0.2882
 5830SOL    HW128949   1.564   2.907  14.902  0.0383  1.1312 -0.0205
 5830SOL    HW228950   1.517   2.868  15.031  3.1088 -2.0697  1.3811
 5831SOL     OW28951   4.634   2.906   5.488  0.4956 -0.0818 -0.3707
 5831SOL    HW128952   4.670   2.951   5.565  1.0221 -0.9617 -0.1015
 5831SOL    HW228953   4.573   2.969   5.450 -2.2513 -1.4014  1.9036
 5832SOL     OW28954   4.059   3.804   2.281  0.2375  0.2337 -0.0781
 5832SOL    HW128955   4.020   3.718   2.265  0.0259  0.1348  0.9596
 5832SOL    HW228956   4.051   3.842   2.193 -4.0100  0.1984  0.2933
 5833SOL     OW28957   0.665   2.554   4.485 -0.1068  0.0475 -0.1168
 5833SOL    HW128958   0.695   2.469   4.453 -0.7098 -0.0404 -0.4508
 5833SOL    HW228959   0.694   2.547   4.576 -0.1157 -1.2505 -0.2106
 5834SOL     OW28960   1.226   0.761   7.817  0.0201  0.1208 -0.2638
 5834SOL    HW128961   1.249   0.693   7.881 -1.3795 -0.4517 -0.3732
 5834SOL    HW228962   1.172   0.714   7.754 -1.1938  0.8344  0.2466
 5835SOL     OW28963   1.790   2.468   8.948 -0.4345 -0.5134  0.2740
 5835SOL    HW128964   1.698   2.489   8.968 -0.0160  0.0445  1.6601
 5835SOL    HW228965   1.818   2.540   8.891  1.3291 -2.2725 -1.0783
 5836SOL     OW28966   0.918   0.227  12.972  1.0893 -0.2255  0.4319
 5836SOL    HW128967   0.958   0.233  13.059  0.5351  1.5237  0.5500
 5836SOL    HW228968   0.996   0.255  12.925  1.8588  0.4921  2.1370
 5837SOL     OW28969   2.076   2.802   2.895  0.3951  0.3628  0.5803
 5837SOL    HW128970   2.030   2.770   2.817  0.9716 -0.3944  0.5442
 5837SOL    HW228971   2.121   2.882   2.870  1.5424 -1.5087 -3.2504
 5838SOL     OW28972   2.402   4.636   5.947  0.0174  0.1281  0.0409
 5838SOL    HW128973   2.417   4.600   6.034 -0.2044 -0.6028 -0.2155
 5838SOL    HW228974   2.451   4.718   5.952  0.9251 -0.2539 -2.5841
 5839SOL     OW28975   0.169   4.470   1.076 -0.0611  0.0881 -0.0254
 5839SOL    HW128976   0.251   4.421   1.062 -0.7490 -0.6744 -1.3557
 5839SOL    HW228977   0.105   4.400   1.064  0.7105 -0.8462  1.2316
 5840SOL     OW28978   3.509   1.314   4.076  1.0698 -0.8237 -0.1494
 5840SOL    HW128979   3.576   1.382   4.063  2.5506 -2.1469  0.4784
 5840SOL    HW228980   3.560   1.235   4.060  4.0405  1.1393 -0.5362
 5841SOL     OW28981   1.995   3.593   2.031  0.4953  0.0889 -0.2654
 5841SOL    HW128982   2.057   3.577   1.959  2.5248  1.3418  1.2326
 5841SOL    HW228983   2.045   3.569   2.108  1.5434 -0.4477 -1.1118
 5842SOL     OW28984   3.179   0.405   2.732 -0.1711 -0.2026 -0.3690
 5842SOL    HW128985   3.184   0.310   2.732 -1.1278 -0.2473 -1.3272
 5842SOL    HW228986   3.187   0.438   2.643  0.7951 -1.7571 -0.8455
 5843SOL     OW28987   0.191   0.300   7.199 -0.6147  0.2554  0.0015
 5843SOL    HW128988   0.246   0.241   7.251 -1.5540  0.1394  0.8628
 5843SOL    HW228989   0.229   0.387   7.191  3.2154 -1.4055  0.2174
 5844SOL     OW28990   0.356   2.496   3.880  0.1244 -0.0777  0.4633
 5844SOL    HW128991   0.292   2.505   3.951 -1.4413  0.3108 -1.0024
 5844SOL    HW228992   0.345   2.405   3.852  1.7752 -1.1936  3.4066
 5845SOL     OW28993   1.569   2.048  17.489 -0.2735 -0.1809 -0.0547
 5845SOL    HW128994   1.567   2.035  17.584  1.5213  0.6057  0.0860
 5845SOL    HW228995   1.623   1.972  17.467 -0.2037 -0.3648  0.7332
 5846SOL     OW28996   1.108   2.901   2.160 -0.4140 -0.1844  0.0101
 5846SOL    HW128997   1.053   2.963   2.208  2.4192  1.3798  1.2069
 5846SOL    HW228998   1.076   2.816   2.190  0.7115 -0.2085  1.1395
 5847SOL     OW28999   1.202   2.279   2.884 -0.3951 -0.3336  0.0800
 5847SOL    HW129000   1.164   2.199   2.919  0.4659 -1.4628 -1.6104
 5847SOL    HW229001   1.137   2.344   2.912 -0.1653 -0.3667  0.6911
 5848SOL     OW29002   1.131   3.197  14.061 -0.0508  0.4290 -0.7187
 5848SOL    HW129003   1.106   3.133  13.995 -2.4108  0.0101  0.5719
 5848SOL    HW229004   1.170   3.145  14.131  0.2314  0.0515 -1.1580
 5849SOL     OW29005   4.137   4.222   4.082  0.6287  0.3031 -0.3523
 5849SOL    HW129006   4.174   4.146   4.038  0.0992 -1.6256  2.5322
 5849SOL    HW229007   4.072   4.260   4.023  0.7451 -0.7416 -1.1430
 5850SOL     OW29008   4.706   2.995   0.926  0.7955  0.3555  0.3165
 5850SOL    HW129009   4.711   3.071   0.985  0.0350  0.7218 -0.0954
 5850SOL    HW229010   4.719   3.033   0.839  0.8275  0.8055  0.5156
 5851SOL     OW29011   4.196   4.441   2.635  0.5219  0.8596 -0.1787
 5851SOL    HW129012   4.260   4.488   2.583  0.5951  0.1599 -0.7276
 5851SOL    HW229013   4.202   4.488   2.718 -1.1892 -0.8182  0.9171
 5852SOL     OW29014   4.094   0.104   5.211 -0.2119  0.0952 -0.7476
 5852SOL    HW129015   4.036   0.028   5.220  2.3269 -1.9780 -1.7032
 5852SOL    HW229016   4.163   0.070   5.268  0.7292 -0.9263 -2.4756
 5853SOL     OW29017   1.267   1.598  16.228 -0.4839 -0.2198  0.6342
 5853SOL    HW129018   1.277   1.626  16.137  1.8774  2.1680  1.6247
 5853SOL    HW229019   1.346   1.556  16.261  0.1951  0.9026  0.4428
 5854SOL     OW29020   4.542   0.087   1.133  0.0696 -0.0430  0.1500
 5854SOL    HW129021   4.636   0.104   1.135 -0.0082  0.5584 -1.1785
 5854SOL    HW229022   4.511   0.177   1.121 -0.3882  0.0464  2.0350
 5855SOL     OW29023   3.400   0.336   2.246 -0.2546 -0.2300 -0.4954
 5855SOL    HW129024   3.459   0.376   2.181 -0.0249  0.7412  0.3104
 5855SOL    HW229025   3.374   0.257   2.199  1.8885 -0.5894 -1.0740
 5856SOL     OW29026   1.010   1.414  12.144  0.5014 -0.1368  0.3123
 5856SOL    HW129027   1.050   1.456  12.220  1.2689  0.4073 -0.3882
 5856SOL    HW229028   0.963   1.493  12.119  1.3992 -0.5260 -2.6430
 5857SOL     OW29029   0.367   1.780   4.266  0.1529  0.8014  0.1400
 5857SOL    HW129030   0.453   1.822   4.272  1.0027 -1.5530  4.0728
 5857SOL    HW229031   0.309   1.855   4.282 -0.3203  0.4330  0.1465
 5858SOL     OW29032   0.722   3.342   8.385  0.2872 -0.1534 -0.0858
 5858SOL    HW129033   0.741   3.350   8.479  1.1471 -1.0232 -0.1854
 5858SOL    HW229034   0.627   3.348   8.376  0.1380  0.0100  1.4953
 5859SOL     OW29035   0.371   0.429   9.257  0.3600  0.3052  0.0801
 5859SOL    HW129036   0.326   0.409   9.339  0.0566  0.9791  0.0709
 5859SOL    HW229037   0.354   0.523   9.250  2.4816  0.8127  1.4930
 5860SOL     OW29038   3.183   3.998  12.227  0.5786  0.4579 -0.4591
 5860SOL    HW129039   3.277   3.988  12.242  0.3425 -3.5854 -1.5839
 5860SOL    HW229040   3.160   3.913  12.190 -0.3151  1.6178 -2.5843
 5861SOL     OW29041   4.720   0.133   4.252 -0.3078  0.1583  0.4512
 5861SOL    HW129042   0.017   0.209   4.198  0.2095 -0.6146 -0.4207
 5861SOL    HW229043   4.685   0.073   4.186  0.9341  1.9650 -1.8083
 5862SOL     OW29044   4.020   3.023   1.960  0.1607  0.5895  0.2013
 5862SOL    HW129045   3.992   3.050   1.873 -0.5544 -0.6449  0.0559
 5862SOL    HW229046   3.974   2.940   1.968 -1.3759  1.6455  2.2013
 5863SOL     OW29047   4.595   1.304   1.315 -0.0066 -0.2666 -0.2062
 5863SOL    HW129048   4.556   1.363   1.251 -1.7354  0.4886  1.5421
 5863SOL    HW229049   4.687   1.319   1.292  0.2655 -2.7685 -0.7160
 5864SOL     OW29050   2.688   3.967   4.268  0.1038  0.2767  0.1633
 5864SOL    HW129051   2.609   4.014   4.296  0.1772  1.8658 -2.3877
 5864SOL    HW229052   2.645   3.892   4.227 -1.2191  0.8556  0.4802
 5865SOL     OW29053   2.561   3.963   2.291  0.1758  0.3122 -0.2630
 5865SOL    HW129054   2.605   3.897   2.344 -3.1458 -1.9383 -0.3654
 5865SOL    HW229055   2.583   4.038   2.346 -0.2749  0.0805  0.2323
 5866SOL     OW29056   0.776   1.662   3.410  0.6134 -0.3055  0.9962
 5866SOL    HW129057   0.863   1.680   3.448  0.0906 -1.6240  2.8156
 5866SOL    HW229058   0.721   1.735   3.437  1.0171  0.4135 -0.0997
 5867SOL     OW29059   1.480   2.826   8.143 -0.4880  0.5587  0.1751
 5867SOL    HW129060   1.389   2.849   8.161 -0.7021 -1.9093  2.3435
 5867SOL    HW229061   1.523   2.908   8.119  1.4901 -0.4356  0.3215
 5868SOL     OW29062   4.396   4.165   8.396 -0.0403  0.7595 -0.3662
 5868SOL    HW129063   4.394   4.256   8.367  0.7478  0.5446 -1.1206
 5868SOL    HW229064   4.318   4.133   8.351 -0.1924 -1.4648  1.4897
 5869SOL     OW29065   0.132   2.435  12.000  0.1907 -0.7429 -0.7887
 5869SOL    HW129066   0.058   2.491  12.022  1.4441  1.5350 -2.3627
 5869SOL    HW229067   0.207   2.494  11.992  0.4368 -1.0560 -0.8074
 5870SOL     OW29068   0.042   2.542   0.642  0.5231  0.4878  0.0453
 5870SOL    HW129069   0.046   2.636   0.628  1.3812  0.4526  0.0802
 5870SOL    HW229070   4.692   2.523   0.585  1.1026  2.7657 -1.4486
 5871SOL     OW29071   3.189   4.159   7.697  0.3657 -0.5856 -0.3474
 5871SOL    HW129072   3.274   4.198   7.676 -0.4704  0.5528 -1.6611
 5871SOL    HW229073   3.154   4.122   7.616 -0.3492 -1.6138  0.4479
 5872SOL     OW29074   3.650   1.365   8.184 -0.5048 -0.2940 -0.2163
 5872SOL    HW129075   3.659   1.309   8.261 -0.4227 -0.2279 -0.1778
 5872SOL    HW229076   3.731   1.413   8.167 -1.5552  1.7895  0.6824
 5873SOL     OW29077   1.492   3.595   1.267  0.3569 -0.3349  0.1454
 5873SOL    HW129078   1.479   3.689   1.276  0.1555 -0.2732 -0.7658
 5873SOL    HW229079   1.445   3.591   1.184 -1.0849  1.5578  0.8818
 5874SOL     OW29080   2.987   1.195   3.819  0.5380 -0.6752 -0.2783
 5874SOL    HW129081   2.948   1.218   3.735 -1.2693 -1.8617  0.2281
 5874SOL    HW229082   3.011   1.284   3.843 -2.2631  0.1781 -0.6427
 5875SOL     OW29083   4.030   3.756   5.226 -0.4600  0.2250  0.5421
 5875SOL    HW129084   4.090   3.720   5.161 -1.0689  0.9068 -0.3889
 5875SOL    HW229085   3.980   3.680   5.258  0.9838 -0.2721  1.6422
 5876SOL     OW29086   1.077   2.778  17.415 -0.0027 -0.0876 -0.7425
 5876SOL    HW129087   1.064   2.722  17.492  0.5146  0.7992 -0.0027
 5876SOL    HW229088   1.172   2.768  17.414 -0.1037 -0.7464 -2.3545
 5877SOL     OW29089   4.602   2.174   7.714  0.1452  0.2046  0.2165
 5877SOL    HW129090   4.553   2.092   7.704 -0.7313  0.7373  0.1452
 5877SOL    HW229091   4.684   2.137   7.746 -0.3659  0.2264  1.5542
 5878SOL     OW29092   1.247   0.044   7.977 -0.6111 -0.0450 -0.6272
 5878SOL    HW129093   1.178   0.047   7.911 -0.6353 -2.0855 -0.6884
 5878SOL    HW229094   1.276   0.136   7.977 -2.2781  0.4801  2.8225
 5879SOL     OW29095   4.014   4.304  10.786 -0.6333 -0.8142  0.3148
 5879SOL    HW129096   4.009   4.391  10.747  0.3546 -1.1138 -0.4735
 5879SOL    HW229097   4.106   4.280  10.777 -1.0033 -1.7403 -0.9972
 5880SOL     OW29098   2.444   4.267  15.195 -0.6786  0.1893 -0.0451
 5880SOL    HW129099   2.467   4.359  15.202  1.7073 -0.3143 -1.1548
 5880SOL    HW229100   2.386   4.259  15.120  0.5058 -1.8222 -0.7663
 5881SOL     OW29101   2.599   1.028   1.797  0.0317  0.2327  0.1459
 5881SOL    HW129102   2.555   0.975   1.731  0.3087  0.5382 -0.2862
 5881SOL    HW229103   2.662   0.965   1.832 -1.3804 -0.3557  1.6137
 5882SOL     OW29104   2.188   2.197   7.485 -0.3305 -0.2156 -0.0738
 5882SOL    HW129105   2.190   2.251   7.405  0.6478 -0.6096 -0.3203
 5882SOL    HW229106   2.183   2.108   7.452  1.6497 -0.6916  0.8979
 5883SOL     OW29107   3.137   1.040   8.283  0.5456 -0.9359 -0.3654
 5883SOL    HW129108   3.112   0.992   8.363  1.3520  0.8593  0.9620
 5883SOL    HW229109   3.219   0.993   8.270  1.0704 -0.1133 -0.0242
 5884SOL     OW29110   2.069   4.159   2.541  0.0704 -0.3350 -0.2982
 5884SOL    HW129111   2.129   4.085   2.540 -2.5262 -2.4134 -1.4659
 5884SOL    HW229112   1.993   4.119   2.584 -0.0241 -1.4064 -1.4564
 5885SOL     OW29113   1.676   1.547  13.414  0.0051  0.4141 -0.1966
 5885SOL    HW129114   1.735   1.549  13.489 -2.2057  1.4676  1.4949
 5885SOL    HW229115   1.720   1.618  13.368  1.2607 -1.3831 -1.8141
 5886SOL     OW29116   1.845   2.750  15.601 -0.2318  0.0507  0.0560
 5886SOL    HW129117   1.860   2.800  15.682 -1.1748 -0.1033  0.3326
 5886SOL    HW229118   1.930   2.716  15.576  0.5862  1.2414  1.2192
 5887SOL     OW29119   3.149   3.965  16.253 -0.3357 -0.1908  0.2573
 5887SOL    HW129120   3.120   3.935  16.167  0.0983 -0.6312  0.2652
 5887SOL    HW229121   3.067   3.977  16.301  0.1440 -0.1713  1.0751
 5888SOL     OW29122   1.070   1.677   6.150 -0.6387 -0.5288  0.4628
 5888SOL    HW129123   1.065   1.602   6.210 -2.5218 -0.1963  0.7315
 5888SOL    HW229124   0.989   1.722   6.176 -0.8976 -0.8897  0.2893
 5889SOL     OW29125   1.203   0.088   6.145  0.1833 -0.0128 -0.2016
 5889SOL    HW129126   1.252   0.014   6.181 -2.9602 -1.2412  1.6391
 5889SOL    HW229127   1.224   0.157   6.207  1.3665  0.4992 -1.1698
 5890SOL     OW29128   0.267   3.545   3.082 -0.2610 -0.1014 -0.1258
 5890SOL    HW129129   0.278   3.539   3.177  0.9367 -1.4715 -0.3515
 5890SOL    HW229130   0.187   3.494   3.076  0.6270 -1.7010  1.9325
 5891SOL     OW29131   2.527   3.283   6.803  0.9037  0.5469 -0.2673
 5891SOL    HW129132   2.619   3.280   6.829  0.1403  1.8992  2.5779
 5891SOL    HW229133   2.517   3.202   6.753 -0.1650 -1.2016  2.8158
 5892SOL     OW29134   4.312   4.698   8.017  0.8021 -0.1735 -0.3649
 5892SOL    HW129135   4.265   0.020   7.948  1.9655  2.1328  0.3969
 5892SOL    HW229136   4.273   4.611   8.013  3.5500 -1.4134 -0.3698
 5893SOL     OW29137   2.386   1.998  14.153  0.0666 -0.0674  0.1157
 5893SOL    HW129138   2.476   1.968  14.164 -0.1337 -1.1069 -0.9767
 5893SOL    HW229139   2.369   1.984  14.059 -0.1614  0.8901  0.0209
 5894SOL     OW29140   2.462   1.825  12.383 -0.4405  0.6942 -0.1937
 5894SOL    HW129141   2.524   1.793  12.448 -0.3669 -0.3793 -0.7945
 5894SOL    HW229142   2.381   1.797  12.427 -0.7060 -1.1310 -1.8721
 5895SOL     OW29143   3.470   1.694   4.472 -0.2668  0.4744 -0.4689
 5895SOL    HW129144   3.483   1.704   4.378 -3.4406  0.6889 -0.8831
 5895SOL    HW229145   3.534   1.763   4.490 -1.9642  1.9524 -0.0670
 5896SOL     OW29146   3.159   1.108   8.656  0.1237 -0.8616  0.2700
 5896SOL    HW129147   3.229   1.070   8.604 -1.1456 -0.3511 -1.8014
 5896SOL    HW229148   3.080   1.093   8.604  0.2698 -1.1452  0.1302
 5897SOL     OW29149   0.942   1.926  15.408 -0.3019  0.2808 -0.4415
 5897SOL    HW129150   0.995   1.888  15.338  0.6638  1.2502 -0.2386
 5897SOL    HW229151   0.995   2.000  15.438 -0.1949 -0.7840  1.9812
 5898SOL     OW29152   2.537   2.146  13.388 -0.0199  0.0249  0.0536
 5898SOL    HW129153   2.473   2.214  13.410  1.7366  2.2881 -1.8833
 5898SOL    HW229154   2.505   2.102  13.309 -1.1683 -2.1203  1.7089
 5899SOL     OW29155   1.211   4.708  16.371  0.1403  0.3718  0.3485
 5899SOL    HW129156   1.268   0.056  16.395  0.4184  0.5126 -0.7679
 5899SOL    HW229157   1.276   4.638  16.373 -1.2505 -0.9664 -2.2373
 5900SOL     OW29158   4.052   3.963  10.260 -0.7102 -0.2134 -0.0959
 5900SOL    HW129159   4.023   4.025  10.327  2.4362  2.1960 -0.9250
 5900SOL    HW229160   4.049   3.886  10.317  1.4244 -0.3727 -0.1924
 5901SOL     OW29161   3.586   2.646  15.701 -0.1772  0.3283  0.0605
 5901SOL    HW129162   3.595   2.551  15.712  4.1634  0.5952 -1.2235
 5901SOL    HW229163   3.496   2.661  15.672 -0.2499  2.0582  1.1648
 5902SOL     OW29164   1.893   3.216  16.568  0.0421  0.2432 -0.0747
 5902SOL    HW129165   1.807   3.189  16.601 -0.0392  1.6492  0.8482
 5902SOL    HW229166   1.938   3.222  16.652  1.4532  0.2846 -0.8164
 5903SOL     OW29167   3.161   3.359   6.096 -0.1629 -1.0660 -0.1179
 5903SOL    HW129168   3.154   3.271   6.058  1.8297 -0.9173 -0.7947
 5903SOL    HW229169   3.241   3.396   6.059  0.6291 -1.6320  1.0081
 5904SOL     OW29170   3.454   0.361   3.091  0.3276 -0.2837 -0.3755
 5904SOL    HW129171   3.448   0.424   3.019  0.9765 -1.0578 -1.0898
 5904SOL    HW229172   3.530   0.393   3.140 -0.6638  1.4240  0.0819
 5905SOL     OW29173   3.854   3.203  15.898  0.0370  0.1870  0.0091
 5905SOL    HW129174   3.899   3.256  15.833  1.8419 -0.2675  0.8872
 5905SOL    HW229175   3.884   3.258  15.970 -0.4031  0.5497 -0.0869
 5906SOL     OW29176   0.054   0.684   3.328 -0.1164  0.1553 -0.5980
 5906SOL    HW129177   0.133   0.730   3.355 -0.6383 -0.9124  2.7638
 5906SOL    HW229178   0.096   0.614   3.279  1.8911 -1.1313  2.9290
 5907SOL     OW29179   0.277   1.177   8.398 -0.0240 -0.7160 -0.5559
 5907SOL    HW129180   0.301   1.151   8.487 -0.2195  1.8786  0.2391
 5907SOL    HW229181   0.183   1.162   8.397  0.2297 -2.2545 -0.7801
 5908SOL     OW29182   3.679   2.075   0.866  0.2904 -0.3103  0.0307
 5908SOL    HW129183   3.619   2.051   0.937  0.7733 -0.3431  0.4258
 5908SOL    HW229184   3.750   2.016   0.889 -2.1810 -2.1391  3.0159
 5909SOL     OW29185   0.186   1.395   4.986  0.4369 -0.2583 -0.7751
 5909SOL    HW129186   0.150   1.480   4.960  0.1307 -0.1073  0.1053
 5909SOL    HW229187   0.223   1.370   4.902  1.0869  2.4015 -1.2868
 5910SOL     OW29188   3.198   0.624   4.975  0.5908 -0.0200 -0.0059
 5910SOL    HW129189   3.286   0.628   4.939  0.7869 -0.7610  0.3873
 5910SOL    HW229190   3.162   0.543   4.938  1.9623 -0.4361 -0.3962
 5911SOL     OW29191   2.695   1.751   7.680  0.1039  0.0462  0.2212
 5911SOL    HW129192   2.677   1.659   7.664  1.5851 -0.2417  0.1714
 5911SOL    HW229193   2.791   1.747   7.680  0.1264  0.7140 -0.1211
 5912SOL     OW29194   3.013   3.260  15.895  0.3900 -0.1153  0.4359
 5912SOL    HW129195   3.050   3.232  15.811 -1.1858 -0.6318 -0.1008
 5912SOL    HW229196   2.950   3.328  15.871  2.5075  2.5483  2.3672
 5913SOL     OW29197   4.028   3.704   8.403 -0.7814  0.1126  0.0238
 5913SOL    HW129198   4.093   3.667   8.462  0.9330  0.8680 -1.4073
 5913SOL    HW229199   4.057   3.796   8.402 -0.5251  0.0351  0.4537
 5914SOL     OW29200   3.732   1.120  11.897  0.0545 -0.2026  0.3901
 5914SOL    HW129201   3.801   1.146  11.836  0.9147  0.6550  1.7206
 5914SOL    HW229202   3.658   1.168  11.861 -0.2429 -1.4942 -0.7328
 5915SOL     OW29203   1.533   3.962   1.314  0.1113  0.2280  0.3313
 5915SOL    HW129204   1.589   4.018   1.367 -0.2589  0.6670  0.2613
 5915SOL    HW229205   1.557   3.998   1.229 -0.3201  0.0340  0.1277
 5916SOL     OW29206   3.671   2.438   7.175  0.4183  0.1615 -0.5133
 5916SOL    HW129207   3.590   2.479   7.207 -0.1219  0.0734 -1.8025
 5916SOL    HW229208   3.734   2.505   7.202 -0.4223  0.6091  0.3718
 5917SOL     OW29209   3.702   0.454   6.979  0.0888 -0.4726  0.2089
 5917SOL    HW129210   3.731   0.487   6.894 -2.1836  3.2883  0.8647
 5917SOL    HW229211   3.789   0.431   7.012  0.0243  1.4499  1.7094
 5918SOL     OW29212   3.757   3.799   2.663  0.0380 -0.4851 -0.6241
 5918SOL    HW129213   3.839   3.775   2.705  1.9744  1.2475 -3.3861
 5918SOL    HW229214   3.698   3.805   2.738  0.2915 -1.2962 -0.3648
 5919SOL     OW29215   1.720   3.800   2.568  0.0027 -0.3749 -0.1290
 5919SOL    HW129216   1.727   3.729   2.632  2.0950  0.1575  0.2396
 5919SOL    HW229217   1.652   3.856   2.606  0.9709  0.8236 -0.1633
 5920SOL     OW29218   0.247   3.674   5.149  0.6285 -0.4238  0.5217
 5920SOL    HW129219   0.288   3.627   5.222  1.0075  0.6697  1.0138
 5920SOL    HW229220   0.233   3.756   5.195  0.7431  0.7348 -1.5070
 5921SOL     OW29221   1.400   3.872   2.244  0.1936 -0.2889  0.0391
 5921SOL    HW129222   1.388   3.844   2.153  2.6094  3.3033 -1.3676
 5921SOL    HW229223   1.494   3.858   2.249  0.4471  2.5123  2.9150
 5922SOL     OW29224   1.832   0.338   3.600  0.0545 -0.0651  0.5501
 5922SOL    HW129225   1.891   0.262   3.608  0.4432  0.3410  1.5269
 5922SOL    HW229226   1.761   0.298   3.650  0.5932 -3.4040 -1.3445
 5923SOL     OW29227   3.378   0.032   3.320 -0.4574  0.0102  0.1376
 5923SOL    HW129228   3.470   0.023   3.345 -0.4418 -1.6950 -0.5180
 5923SOL    HW229229   3.326   0.035   3.401 -0.0497  0.4198  0.3854
 5924SOL     OW29230   3.928   0.115   6.779  0.2937  0.1430 -0.3099
 5924SOL    HW129231   3.933   0.175   6.853 -0.6744 -1.6556  1.1970
 5924SOL    HW229232   3.913   0.032   6.824 -0.9945  0.7595  0.3999
 5925SOL     OW29233   1.285   2.906   8.960  0.6345  0.2124  0.0000
 5925SOL    HW129234   1.322   2.934   9.043  1.1434 -1.9651  0.5128
 5925SOL    HW229235   1.292   2.811   8.967  0.1602 -0.1374 -3.8118
 5926SOL     OW29236   4.537   0.193  12.668  0.3141 -0.1626  0.2814
 5926SOL    HW129237   4.540   0.169  12.575 -1.0357  0.1807  0.1474
 5926SOL    HW229238   4.604   0.136  12.706  1.6749  1.2358 -0.0217
 5927SOL     OW29239   3.268   4.089  15.870 -0.1214 -0.3238  0.1654
 5927SOL    HW129240   3.209   4.017  15.891 -1.5987  1.3877  1.9079
 5927SOL    HW229241   3.218   4.168  15.894  1.9537  0.4436  1.9563
 5928SOL     OW29242   0.604   0.033  14.434 -0.5321  0.1917  0.2164
 5928SOL    HW129243   0.512   0.053  14.450 -0.4044  0.1536  0.9789
 5928SOL    HW229244   0.631   0.107  14.380  2.6080  0.5062  2.1928
 5929SOL     OW29245   0.929   3.641  14.040  0.0802 -0.3761  0.1617
 5929SOL    HW129246   0.919   3.584  13.964 -0.2844  1.0497 -0.8513
 5929SOL    HW229247   0.983   3.585  14.096  0.8103 -0.8862 -1.0430
 5930SOL     OW29248   0.304   3.345  17.210  0.1715  0.0713  0.1422
 5930SOL    HW129249   0.220   3.330  17.167  0.6755  0.3714 -0.9539
 5930SOL    HW229250   0.321   3.267  17.263  1.1765 -0.6093 -1.1857
 5931SOL     OW29251   1.846   0.302   2.574  0.4230  0.1754 -0.3978
 5931SOL    HW129252   1.832   0.238   2.644 -1.4191  1.5557  0.4887
 5931SOL    HW229253   1.864   0.383   2.622  0.0112  0.3800 -0.5947
 5932SOL     OW29254   4.012   1.238  16.798 -0.4131 -0.1855 -0.9306
 5932SOL    HW129255   4.085   1.256  16.739  2.6529  0.5271  3.1398
 5932SOL    HW229256   4.037   1.147  16.817 -2.0352 -0.0339  1.8874
 5933SOL     OW29257   1.754   1.468  11.632  0.1301 -0.1294  0.1811
 5933SOL    HW129258   1.748   1.373  11.619 -2.7138 -0.1651  1.5842
 5933SOL    HW229259   1.669   1.498  11.665  0.3011 -0.0548  0.5551
 5934SOL     OW29260   2.357   0.372  14.781 -0.2317  0.2264 -0.5225
 5934SOL    HW129261   2.310   0.418  14.712 -1.0079  0.6899  0.3119
 5934SOL    HW229262   2.363   0.287  14.737  1.5933  0.5422 -0.8674
 5935SOL     OW29263   0.921   4.427  16.198  0.2977  0.0130  0.0443
 5935SOL    HW129264   0.916   4.490  16.269  1.9679 -1.1143  1.1486
 5935SOL    HW229265   0.861   4.359  16.228 -0.8549 -0.6767 -3.8238
 5936SOL     OW29266   2.348   1.633   4.820 -0.1189 -0.0346  0.0587
 5936SOL    HW129267   2.408   1.662   4.751 -0.6560  0.1792 -0.3117
 5936SOL    HW229268   2.309   1.718   4.838 -1.6484 -0.5997 -0.6270
 5937SOL     OW29269   3.612   1.680  11.566 -0.0910 -0.0497 -0.2960
 5937SOL    HW129270   3.531   1.691  11.516  0.9161 -1.7624 -2.3030
 5937SOL    HW229271   3.630   1.762  11.613 -0.5091  0.3497 -0.8239
 5938SOL     OW29272   1.239   1.980   5.065 -0.2717 -0.5566  0.2037
 5938SOL    HW129273   1.144   1.996   5.069 -0.2845 -1.0024  1.7320
 5938SOL    HW229274   1.265   2.018   4.981  1.1415 -0.8132  0.5345
 5939SOL     OW29275   3.721   4.697   0.136 -0.2818 -0.0536  0.1523
 5939SOL    HW129276   3.744   0.033   0.066 -1.8186 -0.7417 -0.9609
 5939SOL    HW229277   3.702   4.624   0.077 -0.3190  1.5749 -1.8477
 5940SOL     OW29278   2.090   0.728   3.113  0.1539  0.4299 -0.5829
 5940SOL    HW129279   2.174   0.747   3.156  0.8008 -0.4498 -1.4329
 5940SOL    HW229280   2.028   0.707   3.182  2.3120 -0.0078  1.2413
 5941SOL     OW29281   1.042   3.724  14.782 -0.1186 -0.3896  0.5071
 5941SOL    HW129282   1.102   3.798  14.779  0.1388 -0.6271 -0.2503
 5941SOL    HW229283   1.021   3.716  14.689 -4.5876  2.1050  1.2753
 5942SOL     OW29284   0.263   4.063  12.564 -0.4689  0.2927  0.0703
 5942SOL    HW129285   0.252   4.104  12.478 -2.9596 -1.5141 -0.4824
 5942SOL    HW229286   0.359   4.056  12.564 -0.3643  1.6280 -0.6892
 5943SOL     OW29287   1.114   4.316   3.436  0.2553  0.2636 -0.0231
 5943SOL    HW129288   1.102   4.411   3.435  3.5309  0.6787  0.2731
 5943SOL    HW229289   1.210   4.319   3.431  0.2140 -0.6981 -1.4975
 5944SOL     OW29290   1.811   1.289   2.099  0.0972 -0.2775 -0.6400
 5944SOL    HW129291   1.814   1.363   2.160 -1.8450  0.4137 -1.3743
 5944SOL    HW229292   1.813   1.329   2.012  2.8384  0.5134 -0.2121
 5945SOL     OW29293   2.102   1.551  15.405 -0.4678  0.5802  0.3094
 5945SOL    HW129294   2.123   1.499  15.483 -0.4845 -0.9316 -0.6951
 5945SOL    HW229295   2.189   1.556  15.366 -0.3115  2.0508  0.8564
 5946SOL     OW29296   4.483   3.640  10.446  0.4431  0.0020 -0.2453
 5946SOL    HW129297   4.540   3.633  10.522 -0.1667 -0.9789  0.1164
 5946SOL    HW229298   4.425   3.567  10.466  1.8282 -0.8039  0.8119
 5947SOL     OW29299   4.088   0.935   2.690  0.4262  0.0040 -0.9239
 5947SOL    HW129300   4.092   0.861   2.630 -1.8669 -0.8263 -0.0666
 5947SOL    HW229301   4.004   0.971   2.664 -0.2636 -0.9022  0.0220
 5948SOL     OW29302   3.767   0.860   6.425 -0.1050  0.1724  0.1705
 5948SOL    HW129303   3.771   0.775   6.381 -0.8670 -0.0537  0.5381
 5948SOL    HW229304   3.750   0.830   6.514 -2.7227 -2.1917 -1.1004
 5949SOL     OW29305   1.451   4.212   7.641 -0.1688 -0.0662  0.1148
 5949SOL    HW129306   1.356   4.208   7.635 -0.1606 -1.1213  0.6258
 5949SOL    HW229307   1.460   4.303   7.670  1.5270 -0.2089  0.0115
 5950SOL     OW29308   1.876   0.735  10.247 -0.9686  0.1020  0.8922
 5950SOL    HW129309   1.870   0.816  10.297  3.2347  0.6205  0.5573
 5950SOL    HW229310   1.797   0.743  10.195 -0.0646 -0.0345 -0.5121
 5951SOL     OW29311   2.714   0.221   3.410  0.1844 -0.1629 -0.1370
 5951SOL    HW129312   2.694   0.304   3.367  1.7928  2.2892  3.8391
 5951SOL    HW229313   2.809   0.226   3.413  0.1298  1.9549 -1.7280
 5952SOL     OW29314   3.226   4.447   2.346 -0.7601 -0.1127 -0.3937
 5952SOL    HW129315   3.305   4.501   2.337 -0.9154  0.4117  1.2197
 5952SOL    HW229316   3.264   4.369   2.386 -0.5440  0.1258 -0.1233
 5953SOL     OW29317   2.594   2.302  14.167  0.3108 -0.3711 -0.1290
 5953SOL    HW129318   2.548   2.384  14.184 -1.0213 -0.9566 -0.9055
 5953SOL    HW229319   2.597   2.264  14.254 -1.0290  1.0919  0.5650
 5954SOL     OW29320   0.761   4.258   7.441 -0.0894 -0.1845 -0.1668
 5954SOL    HW129321   0.728   4.172   7.469 -1.6092 -0.0847 -1.6789
 5954SOL    HW229322   0.739   4.308   7.519 -2.3206  1.4065 -1.8350
 5955SOL     OW29323   0.741   4.360   3.385  0.1091  0.3498  0.0356
 5955SOL    HW129324   0.792   4.285   3.356  1.1594  1.5435 -1.1865
 5955SOL    HW229325   0.783   4.430   3.334 -0.5997  1.4178  0.9106
 5956SOL     OW29326   1.379   2.726  14.241  0.1006  0.1806 -0.2140
 5956SOL    HW129327   1.307   2.666  14.258  0.1611  0.4351  0.9705
 5956SOL    HW229328   1.452   2.685  14.287 -0.0563 -0.0169 -0.1403
 5957SOL     OW29329   4.367   2.096   5.806 -0.1499 -0.3047 -0.4355
 5957SOL    HW129330   4.324   2.072   5.888  1.9756 -0.3860  0.6466
 5957SOL    HW229331   4.298   2.112   5.741 -1.4843  1.0479  1.2800
 5958SOL     OW29332   2.421   3.657   8.428  0.4757 -0.3261 -0.4491
 5958SOL    HW129333   2.386   3.649   8.517 -0.4841 -2.2588 -0.9746
 5958SOL    HW229334   2.345   3.685   8.377 -0.6077  0.0728  1.4059
 5959SOL     OW29335   1.688   0.979  16.234  0.9393 -0.2205 -0.2537
 5959SOL    HW129336   1.683   0.946  16.144 -0.4457 -0.6029 -0.0291
 5959SOL    HW229337   1.594   0.979  16.253  0.6135  1.0334 -1.9125
 5960SOL     OW29338   2.304   3.784   5.336  0.1391  0.2608  0.4421
 5960SOL    HW129339   2.377   3.816   5.389  0.6762  0.6598 -0.5332
 5960SOL    HW229340   2.299   3.697   5.375  1.4926  0.2245  0.5355
 5961SOL     OW29341   3.441   1.333  11.363  0.8454  0.4391  0.2109
 5961SOL    HW129342   3.524   1.348  11.319 -0.9637  1.5473 -2.8404
 5961SOL    HW229343   3.386   1.394  11.313 -1.3512 -1.2606  0.5398
 5962SOL     OW29344   1.184   3.922  14.507 -0.5475  0.1121  0.4781
 5962SOL    HW129345   1.224   3.914  14.594  2.2363  1.2150 -0.7031
 5962SOL    HW229346   1.135   3.840  14.505  0.5543 -0.4624 -2.5297
 5963SOL     OW29347   2.741   0.014   5.770 -0.0613  0.7532  0.2927
 5963SOL    HW129348   2.678   0.012   5.842  0.9251 -1.8360  1.0947
 5963SOL    HW229349   2.684   0.011   5.693 -1.1829  1.4943  1.0858
 5964SOL     OW29350   2.694   4.297   7.126 -0.5263  0.6061 -0.1075
 5964SOL    HW129351   2.679   4.245   7.047 -0.6404  2.3203 -1.2132
 5964SOL    HW229352   2.612   4.343   7.144 -1.3560 -1.2012  0.8006
 5965SOL     OW29353   3.824   0.335   0.710  0.1668  0.1674 -0.3240
 5965SOL    HW129354   3.795   0.247   0.689 -0.3384  0.3687 -0.4795
 5965SOL    HW229355   3.778   0.395   0.651 -0.9024 -1.2408 -0.9387
 5966SOL     OW29356   3.321   2.681  15.608 -0.6406  0.0146 -0.1818
 5966SOL    HW129357   3.291   2.768  15.632  0.1131  0.2065  0.0583
 5966SOL    HW229358   3.336   2.695  15.515  0.8106  3.5048  0.5958
 5967SOL     OW29359   2.015   3.980   2.216 -0.3417  0.5495 -0.0111
 5967SOL    HW129360   2.021   3.895   2.258  0.8334 -0.1078 -1.5295
 5967SOL    HW229361   2.106   3.997   2.191 -0.5101  0.7068 -0.5143
 5968SOL     OW29362   3.821   4.382   0.831  0.6589 -0.4171  0.1536
 5968SOL    HW129363   3.787   4.296   0.854 -0.6029  0.0561  0.0712
 5968SOL    HW229364   3.913   4.358   0.826  1.4980  1.8269  4.4850
 5969SOL     OW29365   3.788   4.201   3.799 -0.1894  0.3271  0.1651
 5969SOL    HW129366   3.703   4.238   3.777  0.1473  0.5819 -0.7180
 5969SOL    HW229367   3.779   4.106   3.794 -1.7296  0.3528  2.2495
 5970SOL     OW29368   0.906   3.619   5.909  0.1620  0.4828 -0.1843
 5970SOL    HW129369   0.991   3.591   5.875  0.2091 -1.1188  1.2670
 5970SOL    HW229370   0.879   3.542   5.959 -0.8624 -0.4333 -2.1225
 5971SOL     OW29371   0.696   3.627   1.977 -0.2328  0.6316 -0.1617
 5971SOL    HW129372   0.686   3.599   2.069 -2.5528 -2.3325 -1.3174
 5971SOL    HW229373   0.605   3.632   1.950  0.2376  0.8839 -1.7004
 5972SOL     OW29374   2.718   2.183   8.272 -0.2456  0.4374 -0.3883
 5972SOL    HW129375   2.664   2.174   8.351  1.2224  1.3930  0.7180
 5972SOL    HW229376   2.679   2.261   8.234  0.8575  0.3547 -1.6658
 5973SOL     OW29377   2.748   0.101   4.821  0.5378  0.5149 -0.8412
 5973SOL    HW129378   2.800   0.043   4.877 -3.2276 -1.2773  0.8054
 5973SOL    HW229379   2.812   0.098   4.750  1.8660 -1.5926  0.4005
 5974SOL     OW29380   0.772   1.579  13.988  0.0006  0.3877  0.1186
 5974SOL    HW129381   0.755   1.639  14.060 -4.6606 -1.1103  0.2706
 5974SOL    HW229382   0.867   1.584  13.976  0.2447 -1.0949  1.4933
 5975SOL     OW29383   1.107   1.033   0.150 -0.2379  0.4699 -0.2660
 5975SOL    HW129384   1.153   1.036   0.066  1.6584 -0.4418  0.7161
 5975SOL    HW229385   1.166   1.081   0.208 -2.0855  4.9619 -2.1162
 5976SOL     OW29386   1.162   3.008   0.183 -0.5226  0.1673  0.8728
 5976SOL    HW129387   1.209   2.935   0.142 -1.0472  0.8138 -0.9119
 5976SOL    HW229388   1.237   3.067   0.178 -2.2718  2.4021  1.0004
 5977SOL     OW29389   4.422   1.198   5.804  0.0042 -0.0872  0.3390
 5977SOL    HW129390   4.466   1.121   5.838  2.1952  1.0222 -0.0027
 5977SOL    HW229391   4.360   1.173   5.736 -1.6168  0.5949  1.5640
 5978SOL     OW29392   0.189   1.776  12.873 -0.0198  0.1324  0.5662
 5978SOL    HW129393   0.107   1.730  12.893 -0.3414  0.2762 -0.4534
 5978SOL    HW229394   0.238   1.700  12.844 -0.0675  0.0280  0.7551
 5979SOL     OW29395   1.277   2.562   6.594 -0.4575  0.2325 -0.5172
 5979SOL    HW129396   1.261   2.583   6.502 -0.9232  2.3425  0.0371
 5979SOL    HW229397   1.189   2.575   6.629  0.3929 -0.1568  1.7721
 5980SOL     OW29398   0.721   3.944  13.412 -0.2796 -0.1897 -0.3680
 5980SOL    HW129399   0.769   3.987  13.482 -0.6473 -0.5558  0.1104
 5980SOL    HW229400   0.677   4.015  13.365  0.6792  0.6646  0.0206
 5981SOL     OW29401   3.045   2.699   2.163  0.2485 -0.3931  0.7365
 5981SOL    HW129402   3.002   2.774   2.205 -1.0313 -0.0696 -1.1443
 5981SOL    HW229403   2.986   2.677   2.091  0.5026 -2.6342  1.1840
 5982SOL     OW29404   1.061   1.117   6.563 -0.7870  0.3156  0.5363
 5982SOL    HW129405   1.001   1.107   6.637  2.9696  0.5443  3.5971
 5982SOL    HW229406   1.006   1.091   6.489  0.3741  1.0561 -0.5760
 5983SOL     OW29407   2.293   4.708   8.036  0.7824 -0.2092  0.1090
 5983SOL    HW129408   2.363   0.025   8.086 -0.7752  2.8610 -0.3035
 5983SOL    HW229409   2.316   4.615   8.038 -0.7171 -0.6118 -0.6313
 5984SOL     OW29410   3.257   2.731   1.831 -0.1525 -0.2399  0.3931
 5984SOL    HW129411   3.298   2.719   1.917 -0.7248 -0.2621  0.6708
 5984SOL    HW229412   3.235   2.823   1.850 -2.0599 -0.5198 -0.4778
 5985SOL     OW29413   1.502   4.686   3.606 -0.3328 -0.3912  0.1739
 5985SOL    HW129414   1.426   4.628   3.600 -1.1501  0.5854  1.2194
 5985SOL    HW229415   1.487   0.011   3.525 -2.7879 -0.0612  0.8346
 5986SOL     OW29416   3.980   1.432  17.671 -0.2380 -0.1322 -0.0391
 5986SOL    HW129417   3.915   1.478   0.024  0.3061 -0.3251  0.8016
 5986SOL    HW229418   3.933   1.352  17.648 -1.8351  0.9745 -0.6005
 5987SOL     OW29419   1.230   0.558   5.075  0.2135 -0.0140 -0.4674
 5987SOL    HW129420   1.231   0.616   5.151  2.1906  0.6171 -0.9791
 5987SOL    HW229421   1.285   0.486   5.105  1.0938  1.9930  2.6651
 5988SOL     OW29422   0.560   1.999   1.937 -0.0007  0.1471 -0.2824
 5988SOL    HW129423   0.610   2.079   1.921 -0.9404  0.7503 -0.2196
 5988SOL    HW229424   0.622   1.926   1.936 -1.3897 -1.0338 -0.1979
 5989SOL     OW29425   2.844   1.483   2.625 -0.2216  0.5419  0.5647
 5989SOL    HW129426   2.911   1.465   2.559  0.5333 -0.7508  1.6705
 5989SOL    HW229427   2.822   1.393   2.648 -1.1929  0.6194 -0.0900
 5990SOL     OW29428   4.131   1.758   5.643  0.0035  0.2097 -0.4663
 5990SOL    HW129429   4.064   1.825   5.631  0.9376  1.2594  0.1458
 5990SOL    HW229430   4.107   1.690   5.580  0.6481  2.1186 -2.7866
 5991SOL     OW29431   0.015   0.125   5.109 -0.2333  0.7669 -0.4524
 5991SOL    HW129432   4.674   0.172   5.159 -0.2670  0.6661 -0.4005
 5991SOL    HW229433   0.017   0.170   5.025  0.2261  0.8647 -0.3895
 5992SOL     OW29434   2.780   4.520   8.470  0.0164 -0.0184 -0.0255
 5992SOL    HW129435   2.865   4.513   8.427 -1.0111  1.6419 -2.3022
 5992SOL    HW229436   2.796   4.473   8.552  0.5402  1.9360  0.9812
 5993SOL     OW29437   2.129   3.230   1.136 -0.0639  0.0542  0.5209
 5993SOL    HW129438   2.096   3.158   1.190  0.8100 -0.0517  0.9203
 5993SOL    HW229439   2.080   3.215   1.055 -0.1023 -1.8847  0.9070
 5994SOL     OW29440   1.925   1.841  12.897  0.0074 -0.6432 -0.4168
 5994SOL    HW129441   1.844   1.889  12.915 -0.1126 -1.4796  1.2873
 5994SOL    HW229442   1.984   1.892  12.951 -2.2834  1.2614  0.3108
 5995SOL     OW29443   0.310   0.696   6.756  0.5325 -0.3880  0.2361
 5995SOL    HW129444   0.290   0.684   6.664 -0.2113  0.1670  0.3252
 5995SOL    HW229445   0.356   0.780   6.749  0.9770 -0.5397  1.2546
 5996SOL     OW29446   2.874   0.617   7.994 -0.4651 -0.4770 -0.2934
 5996SOL    HW129447   2.810   0.688   7.999 -0.4117 -0.5043  0.8871
 5996SOL    HW229448   2.843   0.556   8.062 -1.0287  0.2287  0.0814
 5997SOL     OW29449   4.521   1.103   2.901 -0.4555 -0.4710 -0.1071
 5997SOL    HW129450   4.485   1.082   2.815 -0.0047  0.4000 -0.5095
 5997SOL    HW229451   4.454   1.152   2.946 -1.6159 -1.1658 -1.0728
 5998SOL     OW29452   4.350   4.288   2.270 -0.1519 -0.5453  0.0219
 5998SOL    HW129453   4.381   4.378   2.276  0.3423 -0.5499 -2.4166
 5998SOL    HW229454   4.434   4.245   2.255  0.3254  1.0081 -1.7886
 5999SOL     OW29455   1.301   0.256   6.931 -0.2321  0.3952  0.2818
 5999SOL    HW129456   1.302   0.216   6.844  3.1554 -0.5047  0.7592
 5999SOL    HW229457   1.372   0.210   6.974 -0.7895 -0.8127 -0.0990
 6000SOL     OW29458   3.721   1.801   8.420  0.7794 -0.0400  0.9602
 6000SOL    HW129459   3.803   1.799   8.470  1.6888  0.6230 -0.5026
 6000SOL    HW229460   3.741   1.743   8.347 -1.4010  2.5708 -1.7172
 6001SOL     OW29461   2.251   4.405   3.521  0.1404 -0.3718 -0.0803
 6001SOL    HW129462   2.234   4.319   3.559  0.6950 -0.3352  0.2454
 6001SOL    HW229463   2.303   4.381   3.444  1.7292 -1.7140  1.4145
 6002SOL     OW29464   0.699   4.427   5.933 -0.1367 -0.6549 -0.2992
 6002SOL    HW129465   0.755   4.464   6.001 -1.0036  0.2458 -0.0604
 6002SOL    HW229466   0.757   4.430   5.857 -0.4307 -0.0146 -0.5056
 6003SOL     OW29467   2.348   3.261   2.799  0.0722  0.5763 -0.6592
 6003SOL    HW129468   2.271   3.313   2.821 -0.5795 -1.0871  0.9005
 6003SOL    HW229469   2.371   3.301   2.715  1.6650 -1.5606 -1.2583
 6004SOL     OW29470   4.548   2.961   7.329 -0.3125  0.3220 -0.6681
 6004SOL    HW129471   4.459   2.987   7.303 -0.2026 -0.3142 -1.6731
 6004SOL    HW229472   4.556   3.003   7.415 -3.5379 -0.7233  0.1622
 6005SOL     OW29473   3.367   0.405   6.239 -0.2080 -0.8359 -0.4705
 6005SOL    HW129474   3.438   0.468   6.224 -0.8351 -0.1286 -0.4928
 6005SOL    HW229475   3.345   0.385   6.148 -1.6358 -3.0040  0.3506
 6006SOL     OW29476   3.809   2.028   1.358  0.4666 -0.0770 -0.1716
 6006SOL    HW129477   3.888   2.082   1.360  1.0759 -1.0026  1.1400
 6006SOL    HW229478   3.741   2.092   1.340 -1.1796 -0.8899  3.0808
 6007SOL     OW29479   3.883   3.501   3.940 -0.3443  0.6007  0.1727
 6007SOL    HW129480   3.804   3.471   3.985 -0.8537  1.1585 -0.3651
 6007SOL    HW229481   3.945   3.434   3.971 -1.5087 -0.4864  0.1874
 6008SOL     OW29482   3.265   0.267   9.222  0.4100 -0.1193  0.1868
 6008SOL    HW129483   3.353   0.257   9.258  0.3220  2.0864  1.0656
 6008SOL    HW229484   3.228   0.319   9.294  0.0859 -0.3660  0.1949
 6009SOL     OW29485   3.883   0.786   5.305 -0.3202 -0.0066  0.5864
 6009SOL    HW129486   3.805   0.834   5.333 -0.0743  0.2867  0.7698
 6009SOL    HW229487   3.834   0.721   5.254 -1.4997  1.7532 -0.5412
 6010SOL     OW29488   2.847   2.370   3.050 -0.1939 -0.1430  0.2764
 6010SOL    HW129489   2.850   2.289   3.100 -4.2462  0.5206  1.6727
 6010SOL    HW229490   2.919   2.365   2.988 -0.3474  0.4339  0.0423
 6011SOL     OW29491   4.401   2.511   3.860 -0.3828 -0.3184 -0.0649
 6011SOL    HW129492   4.476   2.484   3.808 -1.7113 -0.4009 -1.9493
 6011SOL    HW229493   4.399   2.438   3.923  0.8219 -0.8498 -0.6436
 6012SOL     OW29494   1.896   4.012  15.835 -0.0425 -0.2290  0.1836
 6012SOL    HW129495   1.925   3.988  15.923  0.8220 -0.4457 -0.1527
 6012SOL    HW229496   1.978   4.034  15.789 -0.9920  0.4379 -1.1785
 6013SOL     OW29497   2.173   4.178   3.184  0.3881  0.1951  0.0159
 6013SOL    HW129498   2.077   4.177   3.180  0.3666  2.5617 -0.0600
 6013SOL    HW229499   2.198   4.091   3.213  0.4677 -0.3900 -1.8784
 6014SOL     OW29500   2.481   1.178   3.814 -0.2241 -0.1080 -0.3642
 6014SOL    HW129501   2.405   1.123   3.834 -1.1920  2.5394  3.1994
 6014SOL    HW229502   2.541   1.133   3.874  1.1640  1.5304 -0.5349
 6015SOL     OW29503   4.689   2.595  16.517 -0.1102  0.4131  1.1344
 6015SOL    HW129504   4.658   2.636  16.437 -2.1590 -2.0732  0.6849
 6015SOL    HW229505   4.614   2.538  16.532  0.8214 -0.8863  0.8600
 6016SOL     OW29506   3.650   1.350   2.243 -0.0168 -0.1804 -1.2016
 6016SOL    HW129507   3.721   1.305   2.197 -1.0154 -0.7957 -2.1211
 6016SOL    HW229508   3.591   1.387   2.178  0.6860  2.4981 -0.3510
 6017SOL     OW29509   0.436   3.700   4.946  0.5619  0.2370 -0.0440
 6017SOL    HW129510   0.446   3.792   4.970  0.2665  0.7620 -1.8898
 6017SOL    HW229511   0.382   3.697   5.025  2.4074 -0.5957  1.1837
 6018SOL     OW29512   2.641   3.414   1.089  0.1947 -0.1299 -0.3010
 6018SOL    HW129513   2.565   3.471   1.085 -0.5432 -1.2327 -1.8636
 6018SOL    HW229514   2.678   3.410   1.001  1.2172 -1.0857  0.1775
 6019SOL     OW29515   0.573   0.434  11.496 -0.2423 -0.2820 -0.1895
 6019SOL    HW129516   0.487   0.429  11.453  0.4108  0.1059 -1.5537
 6019SOL    HW229517   0.555   0.392  11.580  2.1663  0.2229  0.5619
 6020SOL     OW29518   2.109   4.476   4.881  0.1862  0.4981 -0.5794
 6020SOL    HW129519   2.090   4.394   4.925 -2.2644  2.3340  1.7875
 6020SOL    HW229520   2.028   4.523   4.901  0.9016  1.2596  0.5474
 6021SOL     OW29521   2.620   0.351   5.693  0.3220 -0.0683  0.2665
 6021SOL    HW129522   2.694   0.333   5.751  1.8942  1.5179 -1.2606
 6021SOL    HW229523   2.619   0.268   5.646  2.6010 -0.3506  0.7463
 6022SOL     OW29524   0.434   4.061   7.167  0.1413 -0.1662 -0.3726
 6022SOL    HW129525   0.428   4.105   7.253  2.1263  1.4314 -1.0317
 6022SOL    HW229526   0.517   4.016   7.179  0.1743  0.0495  0.2405
 6023SOL     OW29527   1.716   1.504   6.587 -0.6835  0.2320  0.3258
 6023SOL    HW129528   1.720   1.478   6.495  0.2587 -0.0151  0.4317
 6023SOL    HW229529   1.642   1.448   6.610  0.4923 -0.9450  1.2146
 6024SOL     OW29530   0.446   3.318   3.636  0.2625  0.7087 -0.5958
 6024SOL    HW129531   0.360   3.348   3.665  1.8331  1.9503  2.7622
 6024SOL    HW229532   0.434   3.223   3.644 -4.3983  1.3230 -0.2896
 6025SOL     OW29533   4.608   2.704   4.958  0.4860 -0.2639 -0.2794
 6025SOL    HW129534   4.513   2.715   4.955  0.4170 -1.2877 -1.4585
 6025SOL    HW229535   4.629   2.632   5.017 -0.8615 -0.2085  0.2574
 6026SOL     OW29536   2.762   3.427   5.769 -0.1056  0.6657  0.2217
 6026SOL    HW129537   2.742   3.402   5.859  1.0014  0.1412  0.3292
 6026SOL    HW229538   2.804   3.350   5.732 -0.7688 -0.0947  1.0587
 6027SOL     OW29539   2.525   1.348  13.047 -0.4156 -0.4586 -0.1634
 6027SOL    HW129540   2.433   1.339  13.023 -0.1799 -3.0225 -0.0412
 6027SOL    HW229541   2.539   1.442  13.032 -0.1987 -0.5738 -0.7020
 6028SOL     OW29542   3.112   1.409  16.849  0.1091  0.1191 -0.3264
 6028SOL    HW129543   3.107   1.417  16.944 -0.4507  1.2687 -0.4532
 6028SOL    HW229544   3.139   1.317  16.844  1.7192  0.5836 -0.2202
 6029SOL     OW29545   3.563   3.624   4.362 -0.0477 -0.4469 -0.4831
 6029SOL    HW129546   3.638   3.576   4.398  1.3639  0.0317 -2.8408
 6029SOL    HW229547   3.495   3.556   4.359 -1.2907  0.8765 -2.1124
 6030SOL     OW29548   0.393   3.837   9.133  0.3837  0.1950 -0.6782
 6030SOL    HW129549   0.359   3.753   9.164  2.0083  0.2287  1.2121
 6030SOL    HW229550   0.376   3.835   9.039  0.2167  0.6115 -0.6583
 6031SOL     OW29551   0.759   2.560   7.163 -0.5237 -0.1008 -0.4039
 6031SOL    HW129552   0.742   2.557   7.069 -1.2214  2.1036 -0.3458
 6031SOL    HW229553   0.735   2.651   7.179  1.1458 -0.1271  2.2419
 6032SOL     OW29554   4.187   3.545   8.609 -0.2193 -0.5172 -0.1011
 6032SOL    HW129555   4.198   3.501   8.694  1.7662 -0.6797 -0.4385
 6032SOL    HW229556   4.177   3.474   8.546  0.4492 -0.5292 -0.1969
 6033SOL     OW29557   4.148   3.177   5.365 -0.4165  0.0514  0.0439
 6033SOL    HW129558   4.118   3.267   5.375  0.0083 -0.1759  3.3291
 6033SOL    HW229559   4.070   3.126   5.387 -0.6476 -0.3319 -1.6459
 6034SOL     OW29560   4.716   3.349  10.970  0.3877 -0.2280  0.0565
 6034SOL    HW129561   0.063   3.379  11.027 -1.4015  0.8366  1.7627
 6034SOL    HW229562   4.653   3.419  10.987  0.5587  0.2051 -1.1032
 6035SOL     OW29563   2.413   4.363   5.934 -0.1448 -0.1655 -0.1031
 6035SOL    HW129564   2.502   4.348   5.899  0.4522 -2.7924  2.5733
 6035SOL    HW229565   2.408   4.456   5.912 -2.0340 -1.0731 -3.5825
 6036SOL     OW29566   3.603   2.345   5.580  0.1814  0.8775 -0.1296
 6036SOL    HW129567   3.571   2.270   5.631  0.7464  2.0071  1.8910
 6036SOL    HW229568   3.695   2.345   5.605  0.2962 -0.3644 -0.5137
 6037SOL     OW29569   4.323   0.042   3.860  0.3248 -0.1587  0.2168
 6037SOL    HW129570   4.387   0.076   3.797 -0.5037  0.9752 -0.0093
 6037SOL    HW229571   4.359   4.678   3.865 -1.8658 -0.9205  2.3393
 6038SOL     OW29572   3.504   3.204  12.048 -0.2693  0.0608 -0.7313
 6038SOL    HW129573   3.505   3.132  11.984 -4.1874 -0.1806 -0.4944
 6038SOL    HW229574   3.551   3.171  12.124  1.1983 -0.5081 -1.8763
 6039SOL     OW29575   0.441   3.575   8.658 -0.0838  0.0337 -1.0306
 6039SOL    HW129576   0.371   3.604   8.717  2.0294  0.9571  1.0157
 6039SOL    HW229577   0.510   3.620   8.707 -0.4942  1.5348 -1.8471
 6040SOL     OW29578   2.185   0.343   0.783  0.2791  0.1817  0.3019
 6040SOL    HW129579   2.094   0.368   0.800  0.7788  2.4406 -0.3537
 6040SOL    HW229580   2.179   0.247   0.777  0.1453  0.0210  2.8636
 6041SOL     OW29581   3.150   3.907   3.850 -0.1528  0.2576 -0.1249
 6041SOL    HW129582   3.081   3.892   3.785 -2.9058 -1.0571  3.0414
 6041SOL    HW229583   3.210   3.955   3.794  1.7588 -0.9302  0.8993
 6042SOL     OW29584   4.598   0.143   5.758  0.4115  0.5445  0.2667
 6042SOL    HW129585   4.545   0.064   5.744 -0.1359  0.9383  0.1410
 6042SOL    HW229586   4.644   0.121   5.839  2.0526 -0.4107 -0.9078
 6043SOL     OW29587   0.020   1.161   8.000  0.3158 -0.8176 -0.7478
 6043SOL    HW129588   0.069   1.166   8.082  0.3062 -1.7808 -0.6889
 6043SOL    HW229589   4.696   1.081   8.017 -0.9637  0.0302 -0.4532
 6044SOL     OW29590   1.111   0.794   1.636  0.0874  0.2319 -0.3291
 6044SOL    HW129591   1.185   0.841   1.599  1.3614 -2.2787 -0.9317
 6044SOL    HW229592   1.123   0.710   1.591 -1.4983  0.3174 -0.9185
 6045SOL     OW29593   4.375   2.106   2.692  0.0553 -0.6472  0.2079
 6045SOL    HW129594   4.393   2.149   2.609  1.1615 -0.9688  0.2782
 6045SOL    HW229595   4.407   2.015   2.696 -0.7054 -0.9134  0.1676
 6046SOL     OW29596   0.830   0.143  16.260 -0.2953 -0.1593 -0.0631
 6046SOL    HW129597   0.873   0.068  16.301  1.4855  0.4573 -0.8169
 6046SOL    HW229598   0.837   0.125  16.167 -2.0555 -2.6675  0.2973
 6047SOL     OW29599   1.665   1.064   2.976 -0.0443 -0.0771  0.9038
 6047SOL    HW129600   1.612   1.046   2.898  0.3460  1.4167  0.2904
 6047SOL    HW229601   1.722   1.127   2.930  0.0933 -0.9590 -0.1497
 6048SOL     OW29602   0.926   0.638   5.989  0.3503  1.0957  0.6245
 6048SOL    HW129603   0.882   0.555   5.970  2.6365 -0.2544  1.2125
 6048SOL    HW229604   0.888   0.646   6.077 -1.1220  0.5019  0.0360
 6049SOL     OW29605   2.155   3.680   8.460  0.2925 -0.4422  0.0612
 6049SOL    HW129606   2.094   3.710   8.392  0.3034 -1.7284 -0.5173
 6049SOL    HW229607   2.153   3.747   8.528 -0.0755  0.3840 -0.7708
 6050SOL     OW29608   0.419   4.723  17.466  0.2794 -0.1307  0.0572
 6050SOL    HW129609   0.487   4.670  17.426 -0.6479 -0.3367 -1.2717
 6050SOL    HW229610   0.439   4.717  17.560 -1.0073 -0.3464  0.3192
 6051SOL     OW29611   1.963   1.203  14.564  0.2143  0.4850 -0.2231
 6051SOL    HW129612   1.922   1.121  14.590 -0.3525  1.5325  2.2687
 6051SOL    HW229613   2.023   1.226  14.635 -0.2145  1.1147 -0.0682
 6052SOL     OW29614   1.239   3.386  15.577 -0.2250  0.2668 -0.0434
 6052SOL    HW129615   1.323   3.424  15.550 -0.5959  0.3046 -1.1505
 6052SOL    HW229616   1.281   3.315  15.626  0.1907  0.0833 -0.6566
 6053SOL     OW29617   4.344   2.329   8.454 -0.5374 -0.3903 -0.0627
 6053SOL    HW129618   4.407   2.322   8.526  2.4124 -1.6986 -2.7626
 6053SOL    HW229619   4.280   2.262   8.477 -1.1407  0.1414 -0.2088
 6054SOL     OW29620   3.869   0.686  14.658  1.4438 -0.2668 -0.7396
 6054SOL    HW129621   3.874   0.768  14.708  2.2079  0.4389 -1.9771
 6054SOL    HW229622   3.856   0.626  14.732  1.3273  2.3788  1.3928
 6055SOL     OW29623   1.522   1.719   2.766 -0.4764 -0.2102  1.0586
 6055SOL    HW129624   1.571   1.653   2.717  0.0599  2.3159 -1.7339
 6055SOL    HW229625   1.448   1.730   2.707  0.7797 -1.4871 -0.7400
 6056SOL     OW29626   3.087   2.224  10.234 -0.0182  0.3997  0.4168
 6056SOL    HW129627   3.119   2.284  10.302 -0.6719  0.5747  0.5639
 6056SOL    HW229628   3.155   2.156  10.238  0.2597  0.5839 -1.0736
 6057SOL     OW29629   2.979   1.507  16.630 -0.0677  0.9253 -0.0105
 6057SOL    HW129630   3.040   1.457  16.685 -1.7515 -1.3398 -0.2042
 6057SOL    HW229631   2.892   1.469  16.635 -1.2144  3.1969 -2.5998
 6058SOL     OW29632   0.034   0.079   5.962  0.1335 -0.1936 -0.2558
 6058SOL    HW129633   0.062   0.161   6.002 -0.1052  0.2152 -0.9214
 6058SOL    HW229634   0.117   0.036   5.983 -0.7409 -1.0652  1.4105
 6059SOL     OW29635   2.869   2.692   1.950 -0.2346 -0.8960 -0.1115
 6059SOL    HW129636   2.779   2.725   1.945 -0.7238 -2.3364 -0.7723
 6059SOL    HW229637   2.866   2.618   1.890  3.0422 -1.5390  0.4988
 6060SOL     OW29638   4.439   1.004   1.820 -0.3201  0.1054  0.3626
 6060SOL    HW129639   4.413   1.090   1.853  2.1624  0.1121  2.2845
 6060SOL    HW229640   4.366   0.991   1.760 -1.3703 -2.3302  2.1519
 6061SOL     OW29641   2.325   3.026   2.492  0.3595  0.6050  0.0017
 6061SOL    HW129642   2.383   3.099   2.516  0.5400  0.3792  0.2583
 6061SOL    HW229643   2.378   2.948   2.509  1.1436  0.6704 -2.1852
 6062SOL     OW29644   0.836   3.021  10.821 -0.5739 -0.0551  0.1668
 6062SOL    HW129645   0.860   2.930  10.839  0.0387 -0.3554 -2.1230
 6062SOL    HW229646   0.884   3.048  10.743  0.1673  2.2585  1.4023
 6063SOL     OW29647   3.125   4.328   5.269 -0.0331  0.0252  0.0945
 6063SOL    HW129648   3.040   4.322   5.312  0.3207 -1.0913  0.6376
 6063SOL    HW229649   3.138   4.234   5.269  0.0706  0.0337  1.1378
 6064SOL     OW29650   3.976   0.471   3.580  0.5731  0.4577  0.2785
 6064SOL    HW129651   3.886   0.497   3.597  0.5536 -0.5190  1.6570
 6064SOL    HW229652   3.959   0.401   3.516 -1.8637  1.2249  0.1038
 6065SOL     OW29653   4.271   4.426   3.412 -0.0242  0.7124 -0.1509
 6065SOL    HW129654   4.354   4.457   3.447  0.4972 -2.0565  1.0893
 6065SOL    HW229655   4.221   4.467   3.482  0.8421 -0.3271  1.0791
 6066SOL     OW29656   0.741   2.359  10.082  0.8325 -0.1476  0.1284
 6066SOL    HW129657   0.797   2.414  10.027 -0.0629 -1.2461 -1.8596
 6066SOL    HW229658   0.787   2.363  10.166 -0.9717  0.0784  1.0921
 6067SOL     OW29659   0.644   3.533   2.220 -0.0900  0.7795  0.1829
 6067SOL    HW129660   0.555   3.541   2.253  0.4040 -1.2270  1.9711
 6067SOL    HW229661   0.682   3.480   2.290 -0.1534  2.6122  1.6007
 6068SOL     OW29662   1.559   0.272   7.285  1.0923  0.3182 -0.3393
 6068SOL    HW129663   1.548   0.274   7.380 -0.1669 -0.0512 -0.4705
 6068SOL    HW229664   1.542   0.364   7.265 -2.1703 -0.5690 -1.6657
 6069SOL     OW29665   0.362   2.510   8.727  0.0376  0.3049 -0.1187
 6069SOL    HW129666   0.333   2.481   8.814  0.8544 -0.3710 -0.0648
 6069SOL    HW229667   0.426   2.577   8.752  0.0309 -0.1057  1.0128
 6070SOL     OW29668   4.312   1.905   1.413 -0.0270 -0.0419  0.2387
 6070SOL    HW129669   4.356   1.927   1.495 -3.2981 -1.0432  2.2593
 6070SOL    HW229670   4.385   1.885   1.354 -1.4570  0.2895 -1.6337
 6071SOL     OW29671   3.907   4.476   5.725  0.3167  0.2247  0.1048
 6071SOL    HW129672   3.934   4.518   5.643 -0.3197  2.7011  1.1824
 6071SOL    HW229673   3.968   4.520   5.784 -1.9287  1.9803  1.1171
 6072SOL     OW29674   0.993   3.742   2.098 -0.4293 -0.1780  0.6401
 6072SOL    HW129675   1.023   3.825   2.136 -0.1880  0.6517 -1.3326
 6072SOL    HW229676   0.977   3.686   2.174  0.2685 -2.9615 -1.2758
 6073SOL     OW29677   1.389   4.133   8.772  0.1653 -0.3166 -0.0746
 6073SOL    HW129678   1.302   4.109   8.805  0.9592 -2.1002  0.7324
 6073SOL    HW229679   1.369   4.185   8.695 -1.1586  0.8263  1.0252
 6074SOL     OW29680   2.370   3.193  14.255 -0.5343 -0.4248 -0.1055
 6074SOL    HW129681   2.441   3.149  14.209  0.5811  1.2408  0.0210
 6074SOL    HW229682   2.346   3.260  14.190  1.6109  0.0506 -0.3963
 6075SOL     OW29683   2.303   2.563   9.724 -0.4971  0.2764  0.4766
 6075SOL    HW129684   2.247   2.599   9.655 -1.3676  1.5904  1.8652
 6075SOL    HW229685   2.248   2.563   9.802  0.0202  2.9860  0.8463
 6076SOL     OW29686   1.659   2.051  16.856  0.0095 -0.2226 -0.1017
 6076SOL    HW129687   1.633   2.130  16.810 -0.5750 -0.9692 -1.0533
 6076SOL    HW229688   1.649   2.064  16.950 -1.1249  0.9950 -0.3992
 6077SOL     OW29689   1.699   2.736   1.790  0.3267 -0.5180 -0.0996
 6077SOL    HW129690   1.785   2.745   1.749  0.5245 -0.7367  0.2671
 6077SOL    HW229691   1.666   2.826   1.784  0.7777 -0.4562 -1.7297
 6078SOL     OW29692   0.041   1.296   2.509 -0.3322  0.0151  0.1895
 6078SOL    HW129693   0.102   1.249   2.453 -0.3766  0.3246 -0.1231
 6078SOL    HW229694   0.042   1.388   2.481  0.6717 -0.1401 -0.2756
 6079SOL     OW29695   3.072   3.050   6.971 -0.0498  0.5413  0.0635
 6079SOL    HW129696   3.057   2.956   6.960  1.0969  0.4323 -0.5999
 6079SOL    HW229697   3.100   3.082   6.885  3.6064 -0.9362  0.7088
 6080SOL     OW29698   2.695   3.403   4.521 -0.1780 -0.1565  0.4406
 6080SOL    HW129699   2.681   3.311   4.543  0.0223 -0.8277 -2.1482
 6080SOL    HW229700   2.638   3.423   4.447  0.5005  0.8841  0.1990
 6081SOL     OW29701   1.748   0.638   9.584 -0.4192  0.8030 -0.0344
 6081SOL    HW129702   1.687   0.591   9.641  0.9731 -1.2953 -0.3076
 6081SOL    HW229703   1.697   0.713   9.554 -2.4385 -0.9870 -1.0108
 6082SOL     OW29704   4.389   3.969   2.790 -0.0911  0.7025  0.3934
 6082SOL    HW129705   4.405   4.062   2.808 -0.5545  0.5646  1.5500
 6082SOL    HW229706   4.339   3.938   2.865  1.7280 -1.9353  0.5140
 6083SOL     OW29707   0.817   1.788  11.093  0.3519 -0.3731  0.2000
 6083SOL    HW129708   0.772   1.705  11.081  2.7111 -1.3573 -1.8411
 6083SOL    HW229709   0.743   1.843  11.067  0.9994 -0.6362 -2.1629
 6084SOL     OW29710   0.849   3.246   1.807  1.0470 -0.2798 -0.6174
 6084SOL    HW129711   0.874   3.337   1.823 -0.8425  0.4083 -1.5715
 6084SOL    HW229712   0.786   3.224   1.875  2.3829  0.5585  0.8963
 6085SOL     OW29713   2.359   1.040   3.055 -0.2024  0.1584  0.2796
 6085SOL    HW129714   2.312   1.022   2.974 -0.7751  0.3821  0.5579
 6085SOL    HW229715   2.386   0.950   3.072  0.4986  0.6192  1.5976
 6086SOL     OW29716   3.455   2.779   2.406 -0.6103 -0.4302  0.4598
 6086SOL    HW129717   3.467   2.829   2.487  0.4545  2.1723 -1.3265
 6086SOL    HW229718   3.407   2.848   2.360 -1.6557 -1.9374 -0.7028
 6087SOL     OW29719   4.132   4.719   7.476  0.4049 -0.1799 -0.1695
 6087SOL    HW129720   4.183   0.055   7.529  1.9538 -0.8439 -0.8870
 6087SOL    HW229721   4.117   4.648   7.539  2.8658  1.4460  2.2061
 6088SOL     OW29722   3.352   3.593   8.087 -0.9445  0.6916  0.7580
 6088SOL    HW129723   3.362   3.511   8.039  0.3011 -0.0073  2.1976
 6088SOL    HW229724   3.260   3.618   8.076 -0.6127  0.5886 -2.1487
 6089SOL     OW29725   2.467   2.960   6.771  0.0989 -0.5133  0.1472
 6089SOL    HW129726   2.562   2.967   6.757 -0.1448 -1.2288 -1.8406
 6089SOL    HW229727   2.472   2.918   6.857  1.1588  0.3306  0.5021
 6090SOL     OW29728   4.429   0.732   4.917 -0.6808 -0.0155  0.5788
 6090SOL    HW129729   4.484   0.805   4.889  0.7558 -1.0173  0.8337
 6090SOL    HW229730   4.353   0.775   4.957 -2.0290 -1.1928 -0.6946
 6091SOL     OW29731   0.975   3.216  13.356  0.0596 -0.0280  0.2294
 6091SOL    HW129732   0.884   3.212  13.385  0.6917  2.0042  2.5185
 6091SOL    HW229733   0.956   3.217  13.262 -0.7914  1.4484  0.4084
 6092SOL     OW29734   1.992   2.959   7.424  0.6361 -0.4970 -0.0145
 6092SOL    HW129735   2.039   2.899   7.366 -1.3601  1.0750 -3.2894
 6092SOL    HW229736   2.034   3.040   7.394 -0.5179 -0.5301 -1.7780
 6093SOL     OW29737   3.973   0.360   9.046  0.0868 -0.2052  0.5610
 6093SOL    HW129738   3.941   0.295   9.109  0.3442  0.2523  1.1537
 6093SOL    HW229739   4.015   0.428   9.098  0.1460  0.2445 -0.0702
 6094SOL     OW29740   4.562   0.121   3.706  0.0463 -0.5020  0.2625
 6094SOL    HW129741   4.648   0.142   3.669 -0.1098  1.6804  1.1700
 6094SOL    HW229742   4.578   0.029   3.726  0.1082 -0.1532  1.7763
 6095SOL     OW29743   1.067   3.837   1.764 -0.5436  0.0092 -0.9223
 6095SOL    HW129744   1.103   3.873   1.846 -0.2288 -0.6981 -0.7539
 6095SOL    HW229745   1.108   3.899   1.704  1.5946 -1.7033 -1.2395
 6096SOL     OW29746   2.532   1.579   7.000  0.4558  0.3975  0.6509
 6096SOL    HW129747   2.522   1.642   7.072  0.6497 -1.3945  2.2465
 6096SOL    HW229748   2.528   1.491   7.038  0.5000 -0.4431 -1.3228
 6097SOL     OW29749   3.590   3.503   9.528 -0.2024  0.4186  0.5136
 6097SOL    HW129750   3.628   3.564   9.465 -1.3895 -0.6363 -1.2274
 6097SOL    HW229751   3.637   3.522   9.609 -0.2919 -0.8075  0.8641
 6098SOL     OW29752   3.792   0.492   1.706  0.5839 -0.3249  0.2507
 6098SOL    HW129753   3.775   0.580   1.673  0.5386 -0.7728 -0.9075
 6098SOL    HW229754   3.716   0.479   1.763 -0.3556 -2.3369 -1.4819
 6099SOL     OW29755   0.602   3.250   2.425 -0.3008 -0.0223  0.3237
 6099SOL    HW129756   0.520   3.203   2.412  0.4335 -1.5782  1.1995
 6099SOL    HW229757   0.575   3.309   2.496 -1.4921 -1.0419  0.7193
 6100SOL     OW29758   0.271   4.120  17.118 -0.2359  0.6835  0.2725
 6100SOL    HW129759   0.186   4.165  17.111 -0.0432  0.6632 -2.1414
 6100SOL    HW229760   0.254   4.056  17.187 -0.8841  0.7559  0.1834
 6101SOL     OW29761   3.577   1.853   2.215 -0.0298 -0.4277  0.1966
 6101SOL    HW129762   3.565   1.840   2.121 -1.0832 -0.0601  0.2874
 6101SOL    HW229763   3.520   1.928   2.227  0.5675 -0.2600  2.0104
 6102SOL     OW29764   3.883   2.391   4.695  0.4092  0.1579  0.1212
 6102SOL    HW129765   3.897   2.297   4.685  0.6556  0.1680  0.3656
 6102SOL    HW229766   3.937   2.408   4.772 -0.9473  2.5979  0.5341
 6103SOL     OW29767   3.560   0.141   4.277  0.4069 -0.9804  0.4796
 6103SOL    HW129768   3.647   0.102   4.274  0.8157 -0.0222  0.0018
 6103SOL    HW229769   3.502   0.072   4.310 -1.2020 -0.0398 -0.3831
 6104SOL     OW29770   1.009   3.568   8.309 -0.3697 -0.5107 -0.4303
 6104SOL    HW129771   0.918   3.545   8.290 -0.1502  0.1329 -2.2185
 6104SOL    HW229772   0.993   3.584   8.402  1.8400  1.0941 -0.3417
 6105SOL     OW29773   1.309   1.017   7.551  0.4140  0.0031 -0.4862
 6105SOL    HW129774   1.222   1.053   7.568  1.1900  1.9167 -0.5563
 6105SOL    HW229775   1.317   0.987   7.641 -1.8827 -0.7041 -0.4997
 6106SOL     OW29776   2.030   4.546   8.530 -0.0637  0.5780 -0.0995
 6106SOL    HW129777   2.041   4.515   8.621 -2.7790  3.5240  1.2053
 6106SOL    HW229778   1.936   4.560   8.525 -0.3765 -1.4905 -0.1746
 6107SOL     OW29779   4.438   1.584  14.969 -0.0531  0.2854 -0.2274
 6107SOL    HW129780   4.411   1.500  15.005 -0.3140  0.9719  1.1888
 6107SOL    HW229781   4.401   1.645  15.033 -1.4963 -1.5438  0.6601
 6108SOL     OW29782   3.414   1.105   7.252  0.5116 -0.0570  0.6281
 6108SOL    HW129783   3.503   1.121   7.283 -0.3055  0.3212  2.7602
 6108SOL    HW229784   3.372   1.093   7.336 -2.4078  0.9382 -0.6847
 6109SOL     OW29785   1.085   0.172  17.129  0.5044 -0.5686 -0.0783
 6109SOL    HW129786   1.062   0.079  17.127  2.1903 -0.9969  0.2501
 6109SOL    HW229787   1.010   0.226  17.153  0.4400 -0.8299  0.3215
 6110SOL     OW29788   3.918   1.766   3.450 -0.0537  0.0134 -0.2299
 6110SOL    HW129789   4.005   1.769   3.410  0.8046 -0.2555  1.6246
 6110SOL    HW229790   3.897   1.677   3.421 -1.6317 -0.2207  1.6191
 6111SOL     OW29791   0.934   2.164   7.680  0.3376 -0.0925 -0.4108
 6111SOL    HW129792   0.863   2.136   7.738 -0.3927  1.2184 -0.6807
 6111SOL    HW229793   0.983   2.082   7.669 -0.5464 -0.6948  0.0986
 6112SOL     OW29794   1.813   3.466   1.749 -0.1303  0.6117 -0.3637
 6112SOL    HW129795   1.905   3.493   1.751 -0.5733  2.1309 -0.9982
 6112SOL    HW229796   1.778   3.549   1.781  0.3870  0.0584  1.6589
 6113SOL     OW29797   0.663   3.873   9.596 -0.2599 -0.5442  0.1455
 6113SOL    HW129798   0.632   3.940   9.657 -1.4076 -2.4017  1.5718
 6113SOL    HW229799   0.739   3.843   9.645  0.1921  0.7897  0.2581
 6114SOL     OW29800   2.734   1.718   5.635  0.1065 -0.4330  0.0916
 6114SOL    HW129801   2.696   1.634   5.659 -1.1343  0.2663  0.5772
 6114SOL    HW229802   2.829   1.703   5.636  0.0925 -0.4549  1.2079
 6115SOL     OW29803   2.434   1.064  16.200  0.1546  0.5272  0.4248
 6115SOL    HW129804   2.385   1.064  16.281 -1.0691  0.0579 -0.3223
 6115SOL    HW229805   2.464   0.973  16.204  1.0815  0.7166 -2.0384
 6116SOL     OW29806   0.167   4.339   0.710 -0.2607  0.3348  0.2804
 6116SOL    HW129807   0.204   4.263   0.755  0.5500 -0.8294 -2.3585
 6116SOL    HW229808   0.087   4.351   0.761  0.2849 -0.5292  1.3462
 6117SOL     OW29809   0.106   0.530   5.598  0.4529 -0.0264  0.2969
 6117SOL    HW129810   0.179   0.468   5.596  1.2386  0.9143  0.0794
 6117SOL    HW229811   0.042   0.464   5.624 -0.2549  0.6395  0.2348
 6118SOL     OW29812   3.054   2.000   3.749 -0.1155 -0.8131 -0.2589
 6118SOL    HW129813   2.978   1.941   3.743 -0.3581 -0.4141 -1.0206
 6118SOL    HW229814   3.012   2.067   3.802  1.5843 -0.7493  1.0207
 6119SOL     OW29815   1.586   2.306  17.399 -0.0658  0.4040  0.1155
 6119SOL    HW129816   1.560   2.218  17.429 -0.8073  0.0784 -1.4865
 6119SOL    HW229817   1.643   2.337  17.470  0.1576  0.5779 -0.1434
 6120SOL     OW29818   1.514   4.310  16.967 -0.9582 -0.5587 -0.4484
 6120SOL    HW129819   1.474   4.239  17.017 -0.1018 -1.8311 -1.5857
 6120SOL    HW229820   1.532   4.377  17.033 -0.6515  0.5168 -1.6022
 6121SOL     OW29821   3.508   0.229   0.561  0.2670 -0.2175  0.2688
 6121SOL    HW129822   3.584   0.171   0.564 -1.0886 -1.8685  2.7672
 6121SOL    HW229823   3.502   0.250   0.468  2.2379 -0.2850  0.1275
 6122SOL     OW29824   4.596   3.340   6.149  0.2738 -0.7511  0.1356
 6122SOL    HW129825   4.675   3.365   6.197  0.5401 -0.2568 -0.5534
 6122SOL    HW229826   4.584   3.425   6.107  1.5657 -1.1004 -0.9136
 6123SOL     OW29827   3.101   1.006   6.735 -0.7325  0.3921  0.5763
 6123SOL    HW129828   3.020   1.011   6.785 -1.4074  0.9862 -0.5517
 6123SOL    HW229829   3.156   0.983   6.809 -0.4003  0.7031  0.4278
 6124SOL     OW29830   1.808   0.964   3.455  0.4275 -0.5318  0.5317
 6124SOL    HW129831   1.764   0.956   3.371  1.4505 -2.9455  0.2408
 6124SOL    HW229832   1.896   0.995   3.435 -0.1872  0.8709  0.0190
 6125SOL     OW29833   3.929   0.505   3.212 -0.0249 -0.2274 -0.5857
 6125SOL    HW129834   3.865   0.573   3.192 -3.0968 -2.6634  1.1926
 6125SOL    HW229835   3.966   0.485   3.126 -0.5964  0.8774 -1.0946
 6126SOL     OW29836   2.955   1.237   1.022 -0.1495 -0.0398 -0.4959
 6126SOL    HW129837   2.923   1.147   1.023 -0.3863  0.0263 -2.2947
 6126SOL    HW229838   2.884   1.283   0.977 -0.0012  0.4818 -0.1911
 6127SOL     OW29839   2.055   3.534   5.043 -0.4052 -0.0935  0.0421
 6127SOL    HW129840   2.129   3.474   5.060 -1.7258 -1.7051  0.1240
 6127SOL    HW229841   2.007   3.528   5.125 -0.2835 -0.6195  0.0762
 6128SOL     OW29842   0.124   0.525   4.972  0.1734  0.1458 -0.0064
 6128SOL    HW129843   0.147   0.520   4.879 -2.6774 -0.1654 -0.7018
 6128SOL    HW229844   0.174   0.602   4.998  0.0737  0.4862 -0.8382
 6129SOL     OW29845   1.383   0.524   6.945 -0.5345  0.1812 -0.1655
 6129SOL    HW129846   1.426   0.522   7.031 -1.8635  0.9633  0.5139
 6129SOL    HW229847   1.328   0.446   6.942  1.8272 -1.4885 -0.3609
 6130SOL     OW29848   1.779   2.990   7.138  0.2560  0.4267  0.2546
 6130SOL    HW129849   1.699   2.971   7.188 -1.1096 -2.3356 -2.9734
 6130SOL    HW229850   1.835   3.026   7.207 -0.1058  0.2002  0.6703
 6131SOL     OW29851   0.086   1.119   9.260  0.1130 -0.1830  0.5526
 6131SOL    HW129852   0.078   1.055   9.189 -0.9155 -0.5331  0.9760
 6131SOL    HW229853   4.717   1.130   9.276 -0.4551 -2.2747 -1.1999
 6132SOL     OW29854   1.073   1.674  10.337 -0.0820  0.1391 -0.3326
 6132SOL    HW129855   1.020   1.663  10.417 -0.4141  3.7210 -0.0659
 6132SOL    HW229856   1.004   1.682  10.271 -1.8302  0.5882  1.5190
 6133SOL     OW29857   1.205   2.174   4.091 -0.4952  0.0166 -0.1589
 6133SOL    HW129858   1.251   2.201   4.170 -1.3201  0.4075  0.1886
 6133SOL    HW229859   1.168   2.092   4.125  1.8663 -0.7657  0.4910
 6134SOL     OW29860   2.021   0.055   9.280  0.6577 -0.2066  0.0385
 6134SOL    HW129861   1.962   0.088   9.213  0.9031 -2.9819 -1.5543
 6134SOL    HW229862   2.099   0.103   9.253 -0.0257  1.4576  0.9745
 6135SOL     OW29863   0.497   0.314   1.869  0.0425  0.5577 -0.4780
 6135SOL    HW129864   0.477   0.284   1.957  1.9154  3.1664  0.8359
 6135SOL    HW229865   0.558   0.245   1.844 -1.1559 -0.6547 -0.0690
 6136SOL     OW29866   0.843   0.545   2.642 -0.3519  0.0212 -0.3879
 6136SOL    HW129867   0.936   0.538   2.621 -0.4225  1.5516 -1.2338
 6136SOL    HW229868   0.852   0.573   2.733 -0.8364 -2.4707  0.4292
 6137SOL     OW29869   3.301   3.370   6.748 -0.3204 -0.1041  0.0478
 6137SOL    HW129870   3.287   3.449   6.801  2.7638  0.8736 -0.5954
 6137SOL    HW229871   3.383   3.395   6.705 -0.8299  0.9743 -0.2932
 6138SOL     OW29872   3.373   3.145   1.283  0.4184  0.0761 -0.3102
 6138SOL    HW129873   3.365   3.058   1.322 -1.8041  0.6519  0.5050
 6138SOL    HW229874   3.381   3.193   1.366  1.1508  0.7194 -0.7586
 6139SOL     OW29875   3.873   0.274   6.129 -0.2696 -0.3480  1.3594
 6139SOL    HW129876   3.898   0.208   6.064  0.3167  1.2361 -0.0169
 6139SOL    HW229877   3.824   0.326   6.065  0.3857 -2.4866 -0.9000
 6140SOL     OW29878   3.898   1.899   5.591  0.5953  0.3836  0.1739
 6140SOL    HW129879   3.917   1.989   5.564 -0.7118  1.3397  2.4861
 6140SOL    HW229880   3.883   1.915   5.684  1.3485  0.9612  0.1983
 6141SOL     OW29881   2.946   3.215   3.860  0.4601 -0.2502  0.1780
 6141SOL    HW129882   2.964   3.125   3.831 -3.3312 -0.4703 -1.4784
 6141SOL    HW229883   2.949   3.259   3.775 -0.3669 -1.0095 -0.2436
 6142SOL     OW29884   0.992   2.799  10.902 -0.1147  0.5264 -0.1892
 6142SOL    HW129885   1.006   2.722  10.847  1.1664 -0.5147  1.5987
 6142SOL    HW229886   0.990   2.754  10.987  0.1528  0.7022 -0.0901
 6143SOL     OW29887   2.182   3.345  16.792  0.5896 -1.0682  0.2874
 6143SOL    HW129888   2.142   3.259  16.807 -1.3472 -0.3741 -0.8220
 6143SOL    HW229889   2.276   3.328  16.800  1.0602  1.1927 -0.5593
 6144SOL     OW29890   1.011   3.950   7.159  0.4394  0.0281  0.2811
 6144SOL    HW129891   0.957   3.874   7.181 -1.8706  0.9690 -2.1042
 6144SOL    HW229892   1.085   3.910   7.114 -1.9042 -1.6783 -2.0374
 6145SOL     OW29893   2.987   3.415   7.668  0.5175  0.2217  0.2879
 6145SOL    HW129894   2.956   3.344   7.724  0.4012  2.5139  3.1158
 6145SOL    HW229895   2.913   3.476   7.678  1.1399  1.1182 -0.5779
 6146SOL     OW29896   1.166   0.280   5.462 -0.0037  0.5940 -0.1091
 6146SOL    HW129897   1.182   0.186   5.452 -0.1680  0.4816  0.6904
 6146SOL    HW229898   1.204   0.313   5.381  0.0915  0.9477  0.0798
 6147SOL     OW29899   1.487   4.005   2.578  0.1467 -0.0708 -0.5779
 6147SOL    HW129900   1.451   4.092   2.561  6.3969  2.6295  0.0627
 6147SOL    HW229901   1.552   3.995   2.508 -0.7529 -1.9080 -1.1391
 6148SOL     OW29902   4.024   1.622   9.026  0.3837  0.1419 -0.8946
 6148SOL    HW129903   4.063   1.626   8.939  1.6767 -0.9963 -0.3594
 6148SOL    HW229904   4.054   1.540   9.064 -0.7159 -0.0584 -0.4385
 6149SOL     OW29905   0.619   0.991   0.396  0.4055  0.3077 -0.3778
 6149SOL    HW129906   0.673   1.070   0.390  2.6533 -1.1331  0.9646
 6149SOL    HW229907   0.635   0.969   0.488 -0.6486 -0.5242 -0.3999
 6150SOL     OW29908   2.547   0.980   8.714 -0.1639  0.6765  0.4637
 6150SOL    HW129909   2.550   1.073   8.691 -1.4400 -0.0796 -2.6601
 6150SOL    HW229910   2.543   0.991   8.809  1.3758 -1.3562  0.7513
 6151SOL     OW29911   3.229   1.898  16.979  0.2827 -0.0625 -0.2121
 6151SOL    HW129912   3.187   1.984  16.981  0.5065  0.0368  0.2341
 6151SOL    HW229913   3.311   1.918  16.934  0.5729  0.6859  0.6416
 6152SOL     OW29914   0.688   1.464  17.104 -0.9935 -0.5983 -0.0331
 6152SOL    HW129915   0.645   1.436  17.185 -0.8493  0.4701  0.4054
 6152SOL    HW229916   0.697   1.553  17.137 -1.1166 -0.1002 -1.3584
 6153SOL     OW29917   2.771   2.834   9.110 -0.3630 -0.0472  0.3173
 6153SOL    HW129918   2.823   2.753   9.108 -2.0267 -1.1257  1.3408
 6153SOL    HW229919   2.837   2.900   9.086 -0.8201 -0.0355 -0.8787
 6154SOL     OW29920   0.239   4.222  11.107  0.1181  0.1328 -0.1368
 6154SOL    HW129921   0.249   4.295  11.169 -1.6372 -1.7267  2.3119
 6154SOL    HW229922   0.148   4.226  11.079  0.3873  2.9151 -0.6443
 6155SOL     OW29923   1.804   3.350  13.198  0.4076 -0.0524 -0.0347
 6155SOL    HW129924   1.712   3.337  13.219  0.7742  1.5931  2.5552
 6155SOL    HW229925   1.854   3.325  13.276  2.0681  1.4854 -0.6082
 6156SOL     OW29926   2.403   4.157   8.236 -0.1596  0.2416  0.1777
 6156SOL    HW129927   2.472   4.114   8.287 -0.7476 -0.8600  0.0419
 6156SOL    HW229928   2.461   4.201   8.173  0.0746 -1.0667 -0.5288
 6157SOL     OW29929   3.123   0.224   8.766  0.3380  0.0653  0.3650
 6157SOL    HW129930   3.036   0.190   8.788  0.1588 -0.4522 -1.1703
 6157SOL    HW229931   3.135   0.182   8.681  0.5183 -1.1422  0.9763
 6158SOL     OW29932   2.690   2.582   4.208  0.0320  0.7344  0.0816
 6158SOL    HW129933   2.739   2.649   4.160  0.9615  1.4917  2.0799
 6158SOL    HW229934   2.620   2.640   4.235 -0.7785 -0.4098  0.4204
 6159SOL     OW29935   3.071   4.043   4.187 -0.0064  0.4432 -0.2024
 6159SOL    HW129936   3.020   4.023   4.109  1.1861  3.4026 -1.7531
 6159SOL    HW229937   3.155   4.021   4.147 -0.4381 -0.5978 -0.5293
 6160SOL     OW29938   3.140   3.046  16.227 -0.8345  0.1712 -0.0419
 6160SOL    HW129939   3.183   3.021  16.145 -1.4543 -0.6811 -0.1110
 6160SOL    HW229940   3.050   3.027  16.201 -0.4921 -1.4521 -0.0482
 6161SOL     OW29941   1.872   1.518   6.811 -0.1642  0.4483 -0.1273
 6161SOL    HW129942   1.844   1.545   6.724  0.7476  0.5322 -0.4001
 6161SOL    HW229943   1.929   1.442   6.796 -0.0639  0.3586  0.6718
 6162SOL     OW29944   0.163   4.310   7.426  0.1288  0.6068 -1.0247
 6162SOL    HW129945   0.091   4.320   7.363 -0.1891 -0.8607 -0.8991
 6162SOL    HW229946   0.171   4.214   7.429  0.5978  0.6580 -0.7840
 6163SOL     OW29947   0.363   3.674   1.529 -0.0481 -0.4053 -0.4233
 6163SOL    HW129948   0.373   3.725   1.449 -1.6126  0.6210  0.0492
 6163SOL    HW229949   0.444   3.622   1.522 -0.3905 -0.8590 -0.9918
 6164SOL     OW29950   2.395   3.738  16.959  0.0490  0.2261  0.3968
 6164SOL    HW129951   2.466   3.759  16.899 -0.8374 -2.3548 -1.5874
 6164SOL    HW229952   2.440   3.711  17.040 -1.4224 -0.3279  1.0328
 6165SOL     OW29953   4.179   2.395  16.092  0.1976 -0.0054  0.1219
 6165SOL    HW129954   4.194   2.321  16.032  0.4350  0.6755 -0.6590
 6165SOL    HW229955   4.089   2.402  16.123  0.2421  1.3849 -0.0585
 6166SOL     OW29956   4.528   1.516   8.808  0.2206  0.2942  0.2888
 6166SOL    HW129957   4.440   1.496   8.776 -0.2538  0.7163  1.3290
 6166SOL    HW229958   4.540   1.457   8.882 -0.8843 -0.0819  0.1770
 6167SOL     OW29959   0.921   1.956   0.520 -0.4640 -0.2868 -0.4708
 6167SOL    HW129960   0.832   1.977   0.548 -0.1505 -0.4680  0.6651
 6167SOL    HW229961   0.923   1.964   0.425 -0.4487  0.2303 -0.4228
 6168SOL     OW29962   1.547   1.399  13.235  0.3880 -0.4937 -0.6117
 6168SOL    HW129963   1.582   1.420  13.322 -1.9513  2.0814 -0.2969
 6168SOL    HW229964   1.588   1.315  13.213  0.3967 -0.8083  0.5629
 6169SOL     OW29965   3.998   1.105   0.600 -0.4409  0.8248 -0.0539
 6169SOL    HW129966   3.984   1.118   0.507  0.8879 -1.2422 -0.5489
 6169SOL    HW229967   3.913   1.131   0.636 -1.3361 -1.7441 -0.2715
 6170SOL     OW29968   0.197   1.733   7.261  0.3784 -0.0020  0.0310
 6170SOL    HW129969   0.243   1.751   7.179 -1.1002  3.1645 -0.1107
 6170SOL    HW229970   0.219   1.811   7.312 -1.5373 -2.3653  4.4360
 6171SOL     OW29971   4.100   0.462   6.632  0.4908 -0.0918 -0.5342
 6171SOL    HW129972   4.132   0.496   6.715 -0.4165 -2.5390  0.8204
 6171SOL    HW229973   4.097   0.368   6.647  0.4234 -0.1160 -0.7005
 6172SOL     OW29974   1.011   3.493  13.425  0.1360  0.2979  0.2575
 6172SOL    HW129975   0.978   3.404  13.428 -2.8718  1.4167 -0.2662
 6172SOL    HW229976   0.944   3.527  13.366  0.7047 -0.7187 -0.9869
 6173SOL     OW29977   1.319   3.791   4.629 -0.7119 -0.2046 -0.0837
 6173SOL    HW129978   1.379   3.809   4.701 -0.8620 -3.7117  0.9494
 6173SOL    HW229979   1.283   3.879   4.620 -1.7552 -0.8212 -1.8347
 6174SOL     OW29980   0.763   3.247   0.850 -0.0024  0.3678 -0.6543
 6174SOL    HW129981   0.806   3.318   0.899 -1.9303  0.5080  0.8473
 6174SOL    HW229982   0.683   3.300   0.842  0.5213  0.8943 -2.4551
 6175SOL     OW29983   0.800   0.632   8.156  0.2338  0.4498 -0.0559
 6175SOL    HW129984   0.841   0.716   8.136  2.1955 -0.1593  1.3258
 6175SOL    HW229985   0.806   0.593   8.068 -0.5363 -1.5595  0.7838
 6176SOL     OW29986   1.885   3.165   8.565  0.5593  0.4205  0.2025
 6176SOL    HW129987   1.973   3.200   8.554  0.3787  1.0310  0.6503
 6176SOL    HW229988   1.830   3.235   8.531 -1.4077 -1.5028 -0.5645
 6177SOL     OW29989   3.257   0.906   7.969  0.0919  0.4114  0.3996
 6177SOL    HW129990   3.223   0.884   8.056 -1.3315 -0.9820 -0.5137
 6177SOL    HW229991   3.288   0.818   7.945 -0.7170  0.3677 -0.4643
 6178SOL     OW29992   3.967   0.749  10.494 -0.5012 -0.8853 -0.4728
 6178SOL    HW129993   3.947   0.742  10.587  0.6455  1.7887 -0.0311
 6178SOL    HW229994   3.880   0.773  10.464 -0.0426 -1.4681 -2.2888
 6179SOL     OW29995   4.678   2.951   1.621  0.2536  0.0670 -0.4525
 6179SOL    HW129996   4.607   3.013   1.639  0.2034  0.2480 -1.2983
 6179SOL    HW229997   4.635   2.867   1.638  1.3118 -0.6133 -1.1571
 6180SOL     OW29998   4.453   4.496   8.870 -0.0765  0.5582  0.1607
 6180SOL    HW129999   4.390   4.532   8.932  1.5171 -1.8202  3.1516
 6180SOL    HW230000   4.485   4.415   8.910 -0.9079  0.7154  1.1386
 6181SOL     OW30001   0.553   0.578   1.521  0.2968 -0.0443 -0.4681
 6181SOL    HW130002   0.471   0.555   1.478 -0.3168 -0.4386  0.8959
 6181SOL    HW230003   0.610   0.604   1.448  2.3895 -1.4381  0.6435
 6182SOL     OW30004   0.507   4.226   7.958  0.4000 -0.1351  0.2210
 6182SOL    HW130005   0.602   4.211   7.966  0.7987  0.0429 -4.0940
 6182SOL    HW230006   0.510   4.321   7.958 -0.0192 -0.1132  2.5838
 6183SOL     OW30007   0.750   4.635   4.902 -0.0052  0.4807  0.7397
 6183SOL    HW130008   0.814   4.662   4.968  2.0766  0.6932 -1.4016
 6183SOL    HW230009   0.664   4.672   4.925 -1.2026 -0.3618 -2.3706
 6184SOL     OW30010   0.213   1.638   1.188 -0.2181  0.0494  0.5882
 6184SOL    HW130011   0.234   1.676   1.273 -0.9957  0.9121  0.3917
 6184SOL    HW230012   0.243   1.709   1.131  1.5500  0.0825  1.5376
 6185SOL     OW30013   4.162   1.355  15.828  0.6507  0.9912  0.7560
 6185SOL    HW130014   4.083   1.312  15.795  2.4562  0.3122 -2.7083
 6185SOL    HW230015   4.164   1.306  15.910  0.5961 -0.3879 -0.0468
 6186SOL     OW30016   2.952   1.370   8.244  0.3408  0.5921 -0.0276
 6186SOL    HW130017   2.988   1.349   8.330 -1.0952 -0.9983  0.1821
 6186SOL    HW230018   2.990   1.457   8.231 -0.2492  0.4017 -3.2262
 6187SOL     OW30019   3.435   3.432   6.405 -0.1767 -0.1537 -0.0129
 6187SOL    HW130020   3.499   3.400   6.468 -0.8897 -0.5619  0.5026
 6187SOL    HW230021   3.468   3.522   6.406  0.8550 -0.5254 -0.5475
 6188SOL     OW30022   2.592   4.437   3.689  0.2112 -0.3706  0.1988
 6188SOL    HW130023   2.659   4.383   3.647  1.3280  1.3173 -0.1801
 6188SOL    HW230024   2.515   4.380   3.689  0.8466 -1.2489  2.5825
 6189SOL     OW30025   0.881   0.492   5.000 -0.3106  0.0454  0.0911
 6189SOL    HW130026   0.895   0.445   5.082 -0.8121 -1.7853 -0.8634
 6189SOL    HW230027   0.938   0.567   5.018  1.0474 -0.6164 -1.3616
 6190SOL     OW30028   1.946   1.286  14.999 -0.3921 -0.5981 -0.4478
 6190SOL    HW130029   1.900   1.240  15.069 -0.2587  0.6653  0.4755
 6190SOL    HW230030   1.877   1.345  14.968 -0.2892  1.3880  3.1156
 6191SOL     OW30031   2.325   3.111   3.805  0.2210  0.2616 -0.0640
 6191SOL    HW130032   2.309   3.203   3.829 -1.3758 -0.6808  2.4858
 6191SOL    HW230033   2.388   3.115   3.733  1.4972  1.8842  1.1424
 6192SOL     OW30034   0.203   3.312   3.986  0.1779  0.4721 -0.1211
 6192SOL    HW130035   0.156   3.228   3.987 -1.6104  1.4768 -1.1112
 6192SOL    HW230036   0.290   3.285   4.015  0.1761  1.2955  0.6438
 6193SOL     OW30037   1.808   4.273   5.260 -0.2750  0.1779 -0.1695
 6193SOL    HW130038   1.860   4.275   5.340  0.0207 -0.0542 -0.3544
 6193SOL    HW230039   1.729   4.229   5.292  1.7081 -1.7679  2.1023
 6194SOL     OW30040   3.395   4.530   7.124 -0.1107 -0.0344 -0.5085
 6194SOL    HW130041   3.438   4.583   7.056  2.0276 -0.1258  0.7920
 6194SOL    HW230042   3.382   4.447   7.077  1.6009  0.4257 -1.7842
 6195SOL     OW30043   3.087   1.431   4.639  0.3153  0.0515 -0.7060
 6195SOL    HW130044   3.000   1.411   4.605  2.0069 -2.9796 -3.2768
 6195SOL    HW230045   3.145   1.369   4.595  0.3000  0.1737 -0.9001
 6196SOL     OW30046   2.102   2.031   5.467  0.3817  0.2241  0.2234
 6196SOL    HW130047   2.065   1.946   5.445  0.8356  0.2648 -0.7097
 6196SOL    HW230048   2.188   1.996   5.490  0.7926  2.7377  2.5325
 6197SOL     OW30049   4.552   3.332   4.173 -0.4353 -0.2046  0.7347
 6197SOL    HW130050   4.610   3.408   4.180 -1.9108  1.2273 -2.4275
 6197SOL    HW230051   4.579   3.277   4.246 -1.1059 -0.8267  0.5080
 6198SOL     OW30052   4.610   1.318   7.822  0.0189  0.1550 -0.2239
 6198SOL    HW130053   4.562   1.235   7.818 -0.6487  0.4977  0.5629
 6198SOL    HW230054   4.663   1.293   7.898  1.1372 -4.2158 -2.4146
 6199SOL     OW30055   4.566   0.588   4.713  0.0666 -0.5047  0.2088
 6199SOL    HW130056   4.579   0.665   4.658 -1.3563 -0.1463  0.3727
 6199SOL    HW230057   4.534   0.633   4.791 -0.9095 -0.5537 -0.1693
 6200SOL     OW30058   3.997   2.066  13.232 -0.4435 -0.5593 -0.3383
 6200SOL    HW130059   4.087   2.035  13.238 -0.8938 -2.0010 -1.0157
 6200SOL    HW230060   4.003   2.129  13.304 -0.6277 -1.1408  0.1796
 6201SOL     OW30061   1.297   3.521  17.006 -0.0869  0.0386 -0.3231
 6201SOL    HW130062   1.388   3.514  17.035  0.0677  0.4478 -0.7046
 6201SOL    HW230063   1.316   3.559  16.920  2.5773 -1.9452 -0.6209
 6202SOL     OW30064   0.232   4.242   1.454 -0.2317 -0.2350  0.7174
 6202SOL    HW130065   0.216   4.182   1.380  0.6627  0.1318  0.2209
 6202SOL    HW230066   0.262   4.314   1.398  1.6511 -0.4252  1.4807
 6203SOL     OW30067   0.471   2.490   0.348  0.0106 -0.1657  0.0211
 6203SOL    HW130068   0.474   2.533   0.262 -1.1632 -1.5893 -0.7407
 6203SOL    HW230069   0.380   2.479   0.375  0.4378 -0.2950  1.3882
 6204SOL     OW30070   2.229   2.947   7.782  0.3260  0.5310 -0.2610
 6204SOL    HW130071   2.218   2.862   7.824 -1.5675  0.3806 -1.0822
 6204SOL    HW230072   2.278   2.932   7.701 -0.1565  0.9338 -0.6252
 6205SOL     OW30073   1.112   2.904   4.801 -0.0891 -0.2285 -0.1704
 6205SOL    HW130074   1.111   2.858   4.885  1.4766  2.2482  1.1877
 6205SOL    HW230075   1.140   2.989   4.834 -0.5772 -0.0070 -0.3340
 6206SOL     OW30076   1.009   3.490   0.565 -0.1864 -0.5092  0.1396
 6206SOL    HW130077   0.937   3.538   0.523  0.8777  0.7372 -0.2445
 6206SOL    HW230078   0.998   3.400   0.535 -0.0626 -0.4310 -0.1399
 6207SOL     OW30079   2.746   1.200  15.958 -0.1423 -0.2844  0.4988
 6207SOL    HW130080   2.801   1.124  15.976 -0.4897 -0.2602  1.6787
 6207SOL    HW230081   2.809   1.272  15.957 -0.6476  0.1361 -0.4390
 6208SOL     OW30082   4.307   0.169   0.900  0.4094  0.0740  0.4491
 6208SOL    HW130083   4.233   0.228   0.886 -0.7100 -1.3429  0.4519
 6208SOL    HW230084   4.359   0.196   0.824 -1.5845 -0.6740 -1.1653
 6209SOL     OW30085   3.802   2.388  16.377 -0.1529  0.3956  0.2263
 6209SOL    HW130086   3.727   2.447  16.386 -0.0201  0.7133 -0.7721
 6209SOL    HW230087   3.766   2.319  16.433 -0.8468  0.4223 -0.1777
 6210SOL     OW30088   3.827   1.263   7.642  0.8025  0.6391  0.4186
 6210SOL    HW130089   3.900   1.231   7.589 -0.6253 -2.1322  0.1447
 6210SOL    HW230090   3.854   1.241   7.731  0.4398  0.0591  0.3868
 6211SOL     OW30091   3.021   0.213   6.072  0.2003 -0.2261 -0.1364
 6211SOL    HW130092   3.067   0.131   6.053  0.7305  0.1908 -0.6667
 6211SOL    HW230093   3.087   0.244   6.134 -1.7732  2.6967  0.4604
 6212SOL     OW30094   0.995   1.840   6.779  0.4080 -0.2858 -0.4183
 6212SOL    HW130095   0.988   1.747   6.756  1.7081 -0.5965  0.4441
 6212SOL    HW230096   0.910   1.866   6.744 -0.0346 -1.0821  0.0728
 6213SOL     OW30097   4.349   2.726   5.040  1.0462  0.2398  0.2594
 6213SOL    HW130098   4.276   2.786   5.024  1.8338  0.6178 -1.8596
 6213SOL    HW230099   4.305   2.674   5.107  2.1110  0.0864  0.8344
 6214SOL     OW30100   3.770   1.218   3.638  0.4816 -0.4101  0.4874
 6214SOL    HW130101   3.689   1.181   3.672 -0.1483 -1.1545 -1.8288
 6214SOL    HW230102   3.733   1.271   3.568 -0.2068 -0.4184  0.8498
 6215SOL     OW30103   2.677   0.735  11.386  0.1101 -0.0240  0.4560
 6215SOL    HW130104   2.587   0.711  11.407  0.2404 -1.1695 -0.2873
 6215SOL    HW230105   2.723   0.662  11.426 -0.1941 -0.8300 -0.6642
 6216SOL     OW30106   0.814   3.358   3.906  0.5064  0.9849  0.0458
 6216SOL    HW130107   0.886   3.418   3.926  0.0562  1.9386 -1.1779
 6216SOL    HW230108   0.865   3.288   3.866  0.6911  1.6638 -0.9112
 6217SOL     OW30109   4.534   2.442  16.090  0.4304  0.1184 -1.1450
 6217SOL    HW130110   4.527   2.481  16.003 -1.5621 -0.1355 -1.0905
 6217SOL    HW230111   4.519   2.348  16.076  0.6129  0.2932 -2.4671
 6218SOL     OW30112   3.226   2.828  13.341 -0.6652 -0.1879  0.1840
 6218SOL    HW130113   3.209   2.919  13.318  1.2913 -0.2691 -1.5962
 6218SOL    HW230114   3.141   2.785  13.343  0.0209 -1.5980 -0.3933
 6219SOL     OW30115   3.990   2.760   0.782  0.3506 -0.2118 -0.5324
 6219SOL    HW130116   4.006   2.671   0.814 -1.0662  0.2262  1.3735
 6219SOL    HW230117   3.948   2.735   0.700 -1.2922 -0.5232  0.4106
 6220SOL     OW30118   2.394   0.377  12.828  0.0386 -0.3622  0.1395
 6220SOL    HW130119   2.409   0.462  12.868 -2.3746 -0.5440  1.4851
 6220SOL    HW230120   2.368   0.403  12.740 -3.0371 -1.8395  0.5980
 6221SOL     OW30121   4.480   1.951   5.337 -0.8293  0.1255  0.5977
 6221SOL    HW130122   4.472   1.973   5.430  0.7985 -0.7989  0.9604
 6221SOL    HW230123   4.459   1.859   5.325 -1.2008  0.2496  0.3267
 6222SOL     OW30124   2.580   2.589   8.375 -0.0547  0.0395 -0.0981
 6222SOL    HW130125   2.647   2.628   8.430 -1.0106 -2.3764  2.7458
 6222SOL    HW230126   2.530   2.546   8.444  1.2053 -0.9776  0.1787
 6223SOL     OW30127   1.773   3.649   5.812 -0.1094  0.5296 -0.1209
 6223SOL    HW130128   1.701   3.628   5.753 -0.4410  1.7397 -0.1382
 6223SOL    HW230129   1.779   3.564   5.857  1.6510  0.8268  0.2149
 6224SOL     OW30130   1.100   3.075  13.560 -0.7970 -0.1612  0.6695
 6224SOL    HW130131   1.060   3.078  13.473  0.2459  1.3396  0.2277
 6224SOL    HW230132   1.182   3.044  13.520 -1.7514 -1.6863 -0.0992
 6225SOL     OW30133   3.928   4.542  11.855 -0.0611  0.3079 -0.2379
 6225SOL    HW130134   3.873   4.541  11.934 -0.6157  0.9598 -0.6153
 6225SOL    HW230135   4.001   4.484  11.877 -0.4325 -0.0764 -0.0152
 6226SOL     OW30136   2.053   3.669   3.657 -0.2215 -0.3473 -0.3141
 6226SOL    HW130137   2.113   3.737   3.687 -0.8260  0.2856 -0.5361
 6226SOL    HW230138   2.106   3.632   3.586  0.7094  0.5946 -0.0931
 6227SOL     OW30139   0.484   1.449   2.590 -0.1009  0.6006  0.1267
 6227SOL    HW130140   0.463   1.497   2.670 -1.7896  0.2246 -0.1044
 6227SOL    HW230141   0.408   1.486   2.545 -1.1922 -1.3889  0.3529
 6228SOL     OW30142   2.955   4.672  12.777 -0.8222 -0.2474  0.2786
 6228SOL    HW130143   3.046   4.662  12.750 -0.1840 -2.2483  3.1689
 6228SOL    HW230144   2.940   0.042  12.774 -0.1267 -0.1190  1.0789
 6229SOL     OW30145   2.195   0.971  13.231 -0.3055 -0.3989  0.6031
 6229SOL    HW130146   2.281   0.967  13.190 -1.7817  0.0055 -2.5905
 6229SOL    HW230147   2.199   0.885  13.271  0.2923 -0.5508  0.2147
 6230SOL     OW30148   2.924   4.234   6.873 -0.4609  0.4140 -1.3163
 6230SOL    HW130149   2.932   4.242   6.778  0.2133 -2.6680 -1.5170
 6230SOL    HW230150   2.974   4.152   6.877 -2.4176 -0.7946 -1.2340
 6231SOL     OW30151   1.496   1.917  10.470  0.4892 -0.1039  0.7442
 6231SOL    HW130152   1.451   1.974  10.532  1.5317  2.3986 -0.8037
 6231SOL    HW230153   1.481   1.960  10.386 -0.7746 -0.4876  0.7755
 6232SOL     OW30154   4.627   1.035   5.120  0.6168 -0.1952  0.3573
 6232SOL    HW130155   4.608   0.957   5.173 -1.5512  0.5349  0.6848
 6232SOL    HW230156   4.578   1.019   5.039  0.5187  0.7299  0.2307
 6233SOL     OW30157   2.012   2.180   5.248  0.1037 -0.2392 -0.3641
 6233SOL    HW130158   1.920   2.160   5.265  0.0365 -0.2591 -0.7599
 6233SOL    HW230159   2.054   2.141   5.325  0.6983 -0.3104 -0.7234
 6234SOL     OW30160   2.244   2.844  12.340  0.2884 -0.5577 -0.6869
 6234SOL    HW130161   2.316   2.786  12.317  1.7060  0.3792  1.3753
 6234SOL    HW230162   2.178   2.842  12.271 -2.5619  0.8440  2.0067
 6235SOL     OW30163   4.602   0.562   5.070 -0.2199 -0.2765  0.4318
 6235SOL    HW130164   4.680   0.538   5.020 -0.6568 -0.5796 -0.0999
 6235SOL    HW230165   4.549   0.609   5.006 -1.2261 -0.5653  1.0387
 6236SOL     OW30166   3.168   4.108   3.081  0.0056 -0.0292 -0.0930
 6236SOL    HW130167   3.171   4.014   3.066  1.3131 -0.2791  1.6862
 6236SOL    HW230168   3.253   4.129   3.120  0.8926 -0.9788 -1.5132
 6237SOL     OW30169   1.291   1.185   0.279 -0.2587  0.5098  0.1813
 6237SOL    HW130170   1.315   1.253   0.342  2.0420 -1.6548  1.6194
 6237SOL    HW230171   1.377   1.177   0.237  0.3799  1.6764  1.2802
 6238SOL     OW30172   2.496   0.010   7.357 -0.3062  0.3687  0.0088
 6238SOL    HW130173   2.590   4.720   7.344 -0.7471 -1.3907 -1.1509
 6238SOL    HW230174   2.499   0.034   7.449 -0.9107 -1.4451  0.4989
 6239SOL     OW30175   1.078   0.771   4.186 -0.6081  0.0783 -0.3539
 6239SOL    HW130176   0.995   0.759   4.140 -0.6616  0.9740 -0.4928
 6239SOL    HW230177   1.072   0.860   4.222  1.1512  0.7568 -1.7194
 6240SOL     OW30178   0.699   1.440   5.731 -0.0381 -0.3930 -0.0355
 6240SOL    HW130179   0.746   1.521   5.747 -1.2043  0.2762  0.0413
 6240SOL    HW230180   0.776   1.386   5.716 -0.0891 -1.0882  2.2025
 6241SOL     OW30181   3.196   0.066   7.130  0.5057  0.4280 -0.2747
 6241SOL    HW130182   3.193   0.114   7.048 -3.2591  1.8936  0.7475
 6241SOL    HW230183   3.190   4.698   7.106  0.0291  0.3310  0.2167
 6242SOL     OW30184   2.272   4.108   7.750 -0.0802 -0.7501 -0.2367
 6242SOL    HW130185   2.177   4.117   7.738 -0.1099  0.1185  0.6498
 6242SOL    HW230186   2.296   4.189   7.705  2.7292 -0.5528  1.6415
 6243SOL     OW30187   2.850   0.394  13.215  0.1983 -0.4264  0.0050
 6243SOL    HW130188   2.844   0.470  13.156 -0.3438 -0.6064 -0.1761
 6243SOL    HW230189   2.941   0.369  13.198 -0.2388 -1.2677 -1.1526
 6244SOL     OW30190   1.958   2.214   7.668  0.4202 -0.1695 -0.0068
 6244SOL    HW130191   2.022   2.210   7.596 -1.1177  0.6781 -1.4243
 6244SOL    HW230192   1.928   2.125   7.651  0.2315  0.1215 -1.2112
 6245SOL     OW30193   0.504   1.028   5.617 -0.0320  0.1115 -0.1435
 6245SOL    HW130194   0.570   1.060   5.556 -0.4589 -1.9099 -1.6295
 6245SOL    HW230195   0.462   0.956   5.571  0.6676 -1.0797  1.1000
 6246SOL     OW30196   1.317   0.336   8.350  0.4841 -0.1995 -0.1307
 6246SOL    HW130197   1.227   0.334   8.316  0.4006 -1.6695  0.1966
 6246SOL    HW230198   1.305   0.390   8.428 -2.0790 -0.6522 -0.1980
 6247SOL     OW30199   1.756   0.086   4.093  0.1564 -0.5262 -1.1934
 6247SOL    HW130200   1.713   0.011   4.136 -0.3109 -0.9806 -2.4509
 6247SOL    HW230201   1.789   0.043   4.015 -0.7253  0.8624 -2.3434
 6248SOL     OW30202   3.494   1.796   5.364 -0.0273 -0.1321 -0.1551
 6248SOL    HW130203   3.513   1.703   5.358 -2.4049 -0.7499  1.9442
 6248SOL    HW230204   3.461   1.806   5.274  2.3250 -0.4899 -1.0518
 6249SOL     OW30205   2.587   2.739   5.070 -0.0640 -0.5120 -0.0986
 6249SOL    HW130206   2.501   2.728   5.109  1.3855 -1.3057  2.8721
 6249SOL    HW230207   2.566   2.721   4.979 -0.8382 -0.5585  0.0931
 6250SOL     OW30208   1.507   0.637   5.155  0.6942 -0.5065 -0.6365
 6250SOL    HW130209   1.484   0.710   5.213 -1.2340 -1.4150 -0.2620
 6250SOL    HW230210   1.593   0.673   5.133  0.3999  0.5693 -0.0167
 6251SOL     OW30211   4.407   0.673   7.207  0.0886  0.2446  0.0830
 6251SOL    HW130212   4.346   0.707   7.142  0.6065  0.6940 -0.1689
 6251SOL    HW230213   4.483   0.677   7.148 -0.3608  0.7048 -0.4638
 6252SOL     OW30214   3.428   2.296  11.435  0.3117  0.4923 -0.3941
 6252SOL    HW130215   3.515   2.269  11.406 -0.4628 -1.5947 -0.7743
 6252SOL    HW230216   3.390   2.318  11.350 -1.7151 -0.1858  0.3401
 6253SOL     OW30217   2.341   0.662  12.954  0.1794  0.0886 -0.3467
 6253SOL    HW130218   2.303   0.700  12.875 -0.0346  2.5555  0.9456
 6253SOL    HW230219   2.428   0.700  12.960 -0.2619  1.0118  0.2554
 6254SOL     OW30220   3.844   3.940  14.241  0.5095 -0.4202 -0.5899
 6254SOL    HW130221   3.872   3.867  14.186  1.7912  0.5134 -1.1779
 6254SOL    HW230222   3.927   3.982  14.261 -0.0713  0.6982 -0.5190
 6255SOL     OW30223   1.888   0.284  16.090  0.0539  0.5679  0.0031
 6255SOL    HW130224   1.882   0.343  16.015 -2.1003 -0.0801 -0.3433
 6255SOL    HW230225   1.841   0.340  16.152 -0.2998  2.7335 -2.2113
 6256SOL     OW30226   2.958   0.925   5.829 -0.5605 -0.4785 -0.0962
 6256SOL    HW130227   2.874   0.971   5.831  0.2707  1.0984 -1.0997
 6256SOL    HW230228   2.940   0.852   5.770  0.7095  0.6043 -1.8143
 6257SOL     OW30229   2.113   3.688   6.872  0.0444 -0.2439 -0.1264
 6257SOL    HW130230   2.174   3.617   6.893 -1.8847 -1.7450  0.5420
 6257SOL    HW230231   2.160   3.730   6.801 -0.1232 -1.2320 -0.8305
 6258SOL     OW30232   2.889   4.602   4.936 -0.1333 -0.4606  0.2042
 6258SOL    HW130233   2.957   4.555   4.983  1.0022  0.2999 -0.6652
 6258SOL    HW230234   2.884   4.537   4.866  1.9875 -1.3224  0.8684
 6259SOL     OW30235   3.399   3.803   5.075  0.8553  0.4785 -0.2401
 6259SOL    HW130236   3.460   3.873   5.052  1.0038  0.0112 -1.2605
 6259SOL    HW230237   3.327   3.852   5.114 -0.1982 -0.1308 -1.4438
 6260SOL     OW30238   1.483   3.898   5.272 -0.0352 -0.7836  0.4350
 6260SOL    HW130239   1.528   3.913   5.189 -0.3099 -1.7804  0.1018
 6260SOL    HW230240   1.552   3.915   5.337  1.0450  0.3755 -1.0069
 6261SOL     OW30241   3.312   0.106   2.117  0.1826 -0.4608  0.0389
 6261SOL    HW130242   3.339   0.055   2.041 -1.3201 -0.4373 -0.5225
 6261SOL    HW230243   3.288   0.027   2.164  0.7133  0.9663  2.6628
 6262SOL     OW30244   1.949   3.913  12.842 -0.1113  0.1924 -0.8280
 6262SOL    HW130245   1.895   3.847  12.799  0.6518 -1.0371  0.1282
 6262SOL    HW230246   2.015   3.935  12.777 -1.1567  0.8892 -1.6663
 6263SOL     OW30247   0.529   3.621   7.936 -0.4725  0.5852 -0.2416
 6263SOL    HW130248   0.502   3.696   7.988 -3.3131  0.1098 -1.0378
 6263SOL    HW230249   0.515   3.667   7.854  1.0715 -0.7947 -1.2802
 6264SOL     OW30250   4.724   1.608   8.078  0.0186  1.0023  0.1240
 6264SOL    HW130251   0.063   1.645   8.139  2.6454 -1.8871 -0.8782
 6264SOL    HW230252   0.071   1.569   8.028 -0.4054 -0.5236  0.7313
 6265SOL     OW30253   1.727   2.384  17.653  0.4906  0.5477  0.4261
 6265SOL    HW130254   1.693   2.307  17.699 -3.3189  0.3676 -2.6229
 6265SOL    HW230255   1.743   2.439   0.030  1.0143  0.7809  0.1466
 6266SOL     OW30256   4.157   1.887  12.752 -0.4869  0.1388  0.2556
 6266SOL    HW130257   4.235   1.832  12.746  0.0675  1.0320 -0.8874
 6266SOL    HW230258   4.149   1.904  12.846  0.0053  1.9540 -0.0291
 6267SOL     OW30259   0.798   0.562   5.539 -0.0088 -0.7284  0.2392
 6267SOL    HW130260   0.892   0.543   5.546  0.5685  0.7755 -3.4652
 6267SOL    HW230261   0.779   0.604   5.623 -0.1275 -1.1099  0.4042
 6268SOL     OW30262   4.594   3.114   7.543  0.2617 -0.2442  0.1094
 6268SOL    HW130263   4.517   3.169   7.557 -0.2237 -0.9987  0.3765
 6268SOL    HW230264   4.633   3.110   7.630 -0.0252 -0.9342  0.2082
 6269SOL     OW30265   4.319   4.074   5.712 -0.1498  0.0203  0.5427
 6269SOL    HW130266   4.375   4.148   5.688  2.4991 -1.3481  2.4260
 6269SOL    HW230267   4.241   4.094   5.661 -0.7520 -0.3509  1.3116
 6270SOL     OW30268   2.379   3.000   1.913  0.5934  0.2309  0.2116
 6270SOL    HW130269   2.363   3.025   1.822 -3.9866 -0.8515  0.7097
 6270SOL    HW230270   2.298   2.950   1.920  1.3883 -1.0753  0.1372
 6271SOL     OW30271   4.292   0.989   6.126  0.0220 -0.4064 -0.0718
 6271SOL    HW130272   4.225   0.985   6.195 -2.3300  1.9715 -2.2348
 6271SOL    HW230273   4.355   0.930   6.167  0.2113 -0.0602  0.1351
 6272SOL     OW30274   1.006   0.044   4.627 -0.1048  0.7724  0.3148
 6272SOL    HW130275   0.941   4.699   4.618  1.6223 -0.6166 -1.5394
 6272SOL    HW230276   0.984   0.079   4.713 -0.3121  0.7015  0.2903
 6273SOL     OW30277   2.330   0.482  10.244  0.1140  0.1216 -0.1018
 6273SOL    HW130278   2.253   0.525  10.206 -0.2325  0.6103  1.1435
 6273SOL    HW230279   2.297   0.395  10.265  3.5298 -0.6316  2.1510
 6274SOL     OW30280   0.099   1.377  17.307 -0.2160 -0.4321  0.5866
 6274SOL    HW130281   0.087   1.379  17.402 -0.1490 -1.8635  0.6225
 6274SOL    HW230282   0.169   1.442  17.309  1.5142 -2.2878 -0.8203
 6275SOL     OW30283   3.695   1.435   2.491 -0.4074 -0.4516  0.4580
 6275SOL    HW130284   3.676   1.432   2.397  1.1040  0.6964  0.1215
 6275SOL    HW230285   3.751   1.513   2.495  1.9164 -2.0746 -0.2919
 6276SOL     OW30286   3.408   2.553   7.795 -0.4278 -0.0047 -0.7047
 6276SOL    HW130287   3.500   2.578   7.808  0.0773 -1.9579 -0.5490
 6276SOL    HW230288   3.420   2.461   7.774 -0.9012 -0.7791  2.3347
 6277SOL     OW30289   3.105   2.553   4.390 -0.0207 -0.4522 -0.7670
 6277SOL    HW130290   3.103   2.459   4.374 -3.8267 -0.5731  0.5603
 6277SOL    HW230291   3.050   2.564   4.468  0.3262 -0.4067 -0.5277
 6278SOL     OW30292   2.653   4.227  15.655 -0.0840 -0.8565  0.2892
 6278SOL    HW130293   2.656   4.249  15.562 -0.2094  0.1186  0.5192
 6278SOL    HW230294   2.604   4.299  15.695 -0.0107 -1.4028  1.3560
 6279SOL     OW30295   1.198   0.661   4.405  0.2119 -0.2759  0.5515
 6279SOL    HW130296   1.176   0.711   4.326  1.4356  1.8689  1.5593
 6279SOL    HW230297   1.201   0.576   4.361 -0.6210 -0.0079 -0.0312
 6280SOL     OW30298   0.346   1.085   0.406 -0.1269 -0.4097 -0.4033
 6280SOL    HW130299   0.363   1.176   0.429 -0.1621 -0.2705 -0.9190
 6280SOL    HW230300   0.432   1.043   0.404 -1.7980 -3.8348 -0.0912
 6281SOL     OW30301   1.475   2.947  13.088  0.6826  0.4426  0.6954
 6281SOL    HW130302   1.524   3.007  13.031 -0.5790  0.7542 -0.0520
 6281SOL    HW230303   1.555   2.898  13.106  0.5662 -0.4704 -1.3117
 6282SOL     OW30304   1.890   0.593   2.648  0.0540  0.1221 -0.1780
 6282SOL    HW130305   1.910   0.644   2.727  0.0964 -0.4050  0.1500
 6282SOL    HW230306   1.972   0.602   2.599 -0.0374  1.8737 -0.0292
 6283SOL     OW30307   4.249   0.290   4.135 -0.6283  0.1137 -0.0016
 6283SOL    HW130308   4.309   0.216   4.138  2.1345  2.3917  1.2039
 6283SOL    HW230309   4.179   0.261   4.077 -0.4149 -2.5245  1.0635
 6284SOL     OW30310   1.080   0.606   9.343 -0.3264 -0.2301  0.0512
 6284SOL    HW130311   1.033   0.544   9.288 -3.3535  1.2486  0.9796
 6284SOL    HW230312   1.118   0.659   9.273 -1.0492 -1.3963 -1.2261
 6285SOL     OW30313   2.292   0.448   4.216  0.2762  0.8625 -0.0663
 6285SOL    HW130314   2.217   0.391   4.203  0.5839  0.2398  0.9105
 6285SOL    HW230315   2.300   0.483   4.127 -0.1971  2.3065  0.4553
 6286SOL     OW30316   3.769   2.743   4.697  0.0713 -0.1612  0.2744
 6286SOL    HW130317   3.712   2.805   4.651 -0.3827 -0.0305  1.0211
 6286SOL    HW230318   3.740   2.654   4.677  1.2334 -0.6269  0.6535
 6287SOL     OW30319   3.600   2.553   8.375  0.2591  0.0924  0.4024
 6287SOL    HW130320   3.528   2.613   8.394  0.7091  0.9486 -0.6151
 6287SOL    HW230321   3.650   2.571   8.454  2.6261 -1.0073 -0.8359
 6288SOL     OW30322   2.894   1.515   6.424  0.8549 -0.1864 -0.0211
 6288SOL    HW130323   2.863   1.471   6.345  1.4893 -0.0422 -0.3427
 6288SOL    HW230324   2.907   1.444   6.487 -0.4211 -0.9365 -0.6008
 6289SOL     OW30325   1.103   2.950   6.222 -0.1908  0.0754 -0.5500
 6289SOL    HW130326   1.094   2.956   6.318 -1.3256  3.4731 -0.8525
 6289SOL    HW230327   1.025   2.903   6.196 -0.0716  1.0368 -2.6432
 6290SOL     OW30328   3.854   2.007   5.858 -0.5065  0.0938  0.2137
 6290SOL    HW130329   3.780   1.986   5.915 -0.5960  0.0324  0.0743
 6290SOL    HW230330   3.879   2.095   5.885 -2.8999  1.2830 -1.3989
 6291SOL     OW30331   1.370   2.154  17.100  0.2463  0.3544  0.2627
 6291SOL    HW130332   1.457   2.116  17.111 -1.1938 -2.6725  1.3426
 6291SOL    HW230333   1.362   2.167  17.006 -1.5550 -0.6409  0.2770
 6292SOL     OW30334   0.868   3.224   5.652 -0.1157 -0.6029 -0.0261
 6292SOL    HW130335   0.877   3.255   5.742 -0.8609 -0.2638 -0.0636
 6292SOL    HW230336   0.902   3.135   5.658  1.1947 -0.1935 -1.3669
 6293SOL     OW30337   0.255   3.745   0.014 -0.6602  0.1258 -0.3298
 6293SOL    HW130338   0.316   3.812  17.684  0.1361 -1.2721 -1.7982
 6293SOL    HW230339   0.257   3.692  17.635  0.5126 -2.0106  1.1491
 6294SOL     OW30340   0.441   3.305  10.883 -0.0507 -0.2005  0.0644
 6294SOL    HW130341   0.431   3.262  10.798  1.7198 -1.3693  0.4543
 6294SOL    HW230342   0.504   3.251  10.930  0.7048  2.7790  2.4610
 6295SOL     OW30343   2.717   4.473   6.114  0.0084 -0.6029  0.5937
 6295SOL    HW130344   2.722   4.426   6.031  2.0726  0.7605 -0.0647
 6295SOL    HW230345   2.705   4.397   6.170  0.6862  0.1680  1.7764
 6296SOL     OW30346   4.340   0.707   4.102 -0.0588 -0.1788 -0.2948
 6296SOL    HW130347   4.277   0.645   4.139 -0.6633 -0.4102 -1.7318
 6296SOL    HW230348   4.330   0.691   4.008 -0.3514 -0.9431 -0.1345
 6297SOL     OW30349   0.990   1.216   1.599 -0.1867  0.2334 -0.7764
 6297SOL    HW130350   0.972   1.237   1.691  0.6949  0.5109 -0.6703
 6297SOL    HW230351   1.047   1.284   1.565  2.4413 -1.1546  0.8524
 6298SOL     OW30352   2.974   1.387   1.691  0.2039  0.0472 -0.4547
 6298SOL    HW130353   2.932   1.366   1.608 -0.7717  0.2207 -0.0069
 6298SOL    HW230354   2.906   1.440   1.732 -0.4233  1.0807 -2.8756
 6299SOL     OW30355   4.208   0.060  10.912  0.2168 -0.0245 -0.5581
 6299SOL    HW130356   4.161   0.014  10.982  0.1275  0.0952 -0.5395
 6299SOL    HW230357   4.284   0.088  10.964 -0.6848  0.2959  0.5862
 6300SOL     OW30358   3.897   1.049   7.434  0.2712  0.2074 -0.1081
 6300SOL    HW130359   3.907   1.066   7.341 -1.1689 -1.8681 -0.6318
 6300SOL    HW230360   3.840   0.972   7.432  0.0034  0.5375 -4.0000
 6301SOL     OW30361   3.313   0.397   5.980  0.6306 -0.0334 -0.5202
 6301SOL    HW130362   3.320   0.309   5.944 -0.3877 -0.7048  0.9613
 6301SOL    HW230363   3.308   0.447   5.898  0.7379 -0.0009 -0.5074
 6302SOL     OW30364   4.248   2.740  12.446 -0.0794 -0.1286  0.3946
 6302SOL    HW130365   4.322   2.696  12.488  0.4821  0.8905  0.4734
 6302SOL    HW230366   4.288   2.769  12.365  1.2015  0.4664  1.2378
 6303SOL     OW30367   3.013   1.900  13.220  0.1507  0.1427  0.4538
 6303SOL    HW130368   2.983   1.844  13.292 -3.1694 -1.7618 -2.4094
 6303SOL    HW230369   3.065   1.972  13.255  1.3437 -0.7173  0.4499
 6304SOL     OW30370   3.687   0.697   5.696 -0.7221  0.4713  0.2835
 6304SOL    HW130371   3.777   0.665   5.685  0.0341  2.8882 -0.5939
 6304SOL    HW230372   3.644   0.622   5.656  0.8405  0.2806 -1.0187
 6305SOL     OW30373   1.066   2.037   1.108  0.0080  0.1239 -0.0655
 6305SOL    HW130374   1.023   1.952   1.106 -0.2579  0.2693 -0.5426
 6305SOL    HW230375   1.074   2.060   1.016 -1.2285  0.3323 -0.1191
 6306SOL     OW30376   2.604   3.088  13.627 -0.2712 -0.5812  0.2182
 6306SOL    HW130377   2.594   3.100  13.722  2.6016  0.6628  0.3615
 6306SOL    HW230378   2.523   3.060  13.586 -0.3012 -1.6643  1.0265
 6307SOL     OW30379   4.299   3.228   3.393  0.2272 -0.1333  0.1304
 6307SOL    HW130380   4.302   3.308   3.445  1.8081  1.7446 -2.8211
 6307SOL    HW230381   4.351   3.163   3.442 -0.8633 -1.1375 -0.0361
 6308SOL     OW30382   1.149   1.266  16.124 -0.0313 -0.7067 -0.0136
 6308SOL    HW130383   1.111   1.328  16.186  1.6383 -0.0868  0.4032
 6308SOL    HW230384   1.199   1.337  16.083 -1.0198 -0.3807 -0.6634
 6309SOL     OW30385   2.059   4.393  13.401  0.2574 -0.1255 -0.3593
 6309SOL    HW130386   2.067   4.398  13.306  0.6078 -1.2547 -0.3810
 6309SOL    HW230387   2.116   4.465  13.428  0.3106 -0.2050 -0.2591
 6310SOL     OW30388   1.042   3.743   3.528 -0.2798  0.6152  0.0217
 6310SOL    HW130389   1.063   3.795   3.451 -0.8519  1.8072  0.6809
 6310SOL    HW230390   0.947   3.751   3.525 -0.2852  0.1966 -0.9419
 6311SOL     OW30391   2.105   1.877  15.611  0.4735 -0.7796 -0.3335
 6311SOL    HW130392   2.198   1.874  15.631  0.6912 -0.5917 -1.3082
 6311SOL    HW230393   2.083   1.967  15.633 -1.7582 -1.5172  0.4111
 6312SOL     OW30394   1.893   2.736  11.951 -0.3687 -0.1360  0.2187
 6312SOL    HW130395   1.886   2.738  11.855  0.1005  2.9780  0.2395
 6312SOL    HW230396   1.804   2.749  11.985  0.2702  0.7850  1.5238
 6313SOL     OW30397   0.840   0.093   6.445 -0.7914  0.1355 -0.0453
 6313SOL    HW130398   0.866   0.177   6.482  0.6854  0.0333 -0.8569
 6313SOL    HW230399   0.917   0.037   6.450  0.4273  2.0764  3.0212
 6314SOL     OW30400   0.765   1.317   5.424  0.4239  0.2116 -0.4684
 6314SOL    HW130401   0.767   1.227   5.394  0.7550 -0.3903  1.3424
 6314SOL    HW230402   0.812   1.305   5.507 -0.8996 -0.8713  0.1126
 6315SOL     OW30403   0.996   2.331   0.769 -0.0890  0.3490  0.6932
 6315SOL    HW130404   1.030   2.248   0.804 -1.9746  0.4543  2.8204
 6315SOL    HW230405   1.051   2.387   0.823 -0.2281  0.7657  0.3929
 6316SOL     OW30406   0.920   2.617   5.470 -0.2830 -0.1576  0.2037
 6316SOL    HW130407   0.856   2.549   5.451  0.5111 -1.0331  0.6847
 6316SOL    HW230408   0.978   2.629   5.395 -0.1940 -0.9562  0.1444
 6317SOL     OW30409   3.629   3.744  13.352 -0.3569  0.4857  0.1189
 6317SOL    HW130410   3.724   3.738  13.343 -0.4719 -0.2037 -0.6257
 6317SOL    HW230411   3.610   3.651  13.365 -2.8129  0.6848 -2.1362
 6318SOL     OW30412   3.299   1.696   3.051  0.0057 -0.3635 -0.4662
 6318SOL    HW130413   3.373   1.718   2.994 -0.5029  0.6427 -0.7341
 6318SOL    HW230414   3.231   1.732   2.994  0.6281  1.1907 -0.2453
 6319SOL     OW30415   3.092   2.598   8.842 -0.7051  0.7661 -0.4680
 6319SOL    HW130416   3.018   2.620   8.899 -0.5340  0.0542  0.0231
 6319SOL    HW230417   3.158   2.657   8.877 -1.4996  1.4123 -0.0596
 6320SOL     OW30418   0.397   0.754   5.560 -0.4427  0.0988  0.6853
 6320SOL    HW130419   0.374   0.729   5.471 -1.3543 -1.5481  1.3885
 6320SOL    HW230420   0.486   0.786   5.547 -1.0834  1.2832 -0.8057
 6321SOL     OW30421   0.932   2.513   1.043  0.0967  0.0903  0.0734
 6321SOL    HW130422   0.839   2.497   1.023  0.1156 -1.1632  1.0556
 6321SOL    HW230423   0.940   2.451   1.115  2.6714 -2.6634 -2.5636
 6322SOL     OW30424   0.511   1.716   2.408  0.3393  0.4743 -0.2073
 6322SOL    HW130425   0.453   1.705   2.483 -0.2326  0.0888 -0.7100
 6322SOL    HW230426   0.599   1.706   2.445  0.6940 -1.1428 -1.4602
 6323SOL     OW30427   1.416   2.025   6.188  0.4131  0.2640 -0.6916
 6323SOL    HW130428   1.445   2.068   6.107  0.9975  2.0289  0.4540
 6323SOL    HW230429   1.386   1.937   6.163 -1.0728  0.3589  0.7595
 6324SOL     OW30430   2.361   2.300   9.011 -0.8616 -0.1758  0.4866
 6324SOL    HW130431   2.306   2.337   9.080 -1.3736 -1.4323  0.7510
 6324SOL    HW230432   2.350   2.362   8.939  1.6144  0.4848  0.6842
 6325SOL     OW30433   3.010   2.676   1.608 -0.3863  0.2348  0.0478
 6325SOL    HW130434   3.022   2.760   1.652 -0.3985  0.5522 -0.5586
 6325SOL    HW230435   2.936   2.634   1.652 -0.9531  2.0113  0.7709
 6326SOL     OW30436   0.282   0.790   4.161 -0.1305  0.3170  0.3312
 6326SOL    HW130437   0.190   0.798   4.186 -0.3433 -1.0507 -0.0314
 6326SOL    HW230438   0.324   0.829   4.237 -1.9656  2.4511  0.2723
 6327SOL     OW30439   3.073   0.436   4.805 -0.3045 -0.4278  0.0542
 6327SOL    HW130440   2.988   0.480   4.808 -0.3717 -0.8250  3.6341
 6327SOL    HW230441   3.065   0.342   4.820  0.1528 -0.4318  0.2739
 6328SOL     OW30442   3.892   4.043   7.097 -0.0264 -0.0258  0.2096
 6328SOL    HW130443   3.960   4.098   7.136  0.5663 -0.2268 -0.5422
 6328SOL    HW230444   3.949   3.975   7.062  0.3958 -0.4478  1.7164
 6329SOL     OW30445   0.820   3.854   8.321  0.2107 -0.8191  0.0079
 6329SOL    HW130446   0.845   3.838   8.413 -1.3821 -2.7913  0.0970
 6329SOL    HW230447   0.845   3.768   8.286 -1.6168 -1.4275  0.2320
 6330SOL     OW30448   2.419   1.330   6.768 -0.0971  0.0515 -1.1104
 6330SOL    HW130449   2.374   1.370   6.842 -1.7803  0.6724 -2.4856
 6330SOL    HW230450   2.483   1.279   6.818  0.9762  2.6890  0.2080
 6331SOL     OW30451   0.026   3.100   4.012  0.9915 -0.2500 -0.3169
 6331SOL    HW130452   4.708   3.124   4.094  0.4353 -1.5594 -0.2284
 6331SOL    HW230453   0.061   3.017   4.044 -0.8212 -0.4066  1.2970
 6332SOL     OW30454   3.122   3.039   7.570 -1.2425 -0.1863 -0.0445
 6332SOL    HW130455   3.159   2.955   7.542  2.8821  0.9910  1.9907
 6332SOL    HW230456   3.086   3.064   7.484  0.4121 -0.4703 -0.8220
 6333SOL     OW30457   0.310   2.340   2.724  0.3815  0.4043 -0.0943
 6333SOL    HW130458   0.238   2.284   2.753  0.2548  0.0250 -1.1252
 6333SOL    HW230459   0.277   2.427   2.747  0.9399  1.2316 -2.4251
 6334SOL     OW30460   2.420   4.523   6.209  0.5556 -0.9241  0.0375
 6334SOL    HW130461   2.514   4.543   6.213 -0.0123  1.7256  0.2136
 6334SOL    HW230462   2.414   4.458   6.279 -1.0825  0.0453  0.8015
 6335SOL     OW30463   2.858   0.852  10.664  0.5795 -0.4018  0.2046
 6335SOL    HW130464   2.896   0.887  10.745  0.0717 -0.4788  0.4796
 6335SOL    HW230465   2.769   0.834  10.696 -0.0839 -0.7989 -1.8718
 6336SOL     OW30466   4.545   2.097   7.117 -0.0932 -0.5545  0.4145
 6336SOL    HW130467   4.553   2.193   7.123  1.4241 -0.7140  0.9039
 6336SOL    HW230468   4.638   2.074   7.115  0.0379 -0.2769  2.3350
 6337SOL     OW30469   3.540   2.978   6.695  0.2405  0.3526 -0.0467
 6337SOL    HW130470   3.480   3.014   6.630 -0.9347 -0.2489  0.7033
 6337SOL    HW230471   3.491   2.903   6.728 -1.2058  1.4876  0.3670
 6338SOL     OW30472   1.424   2.614   3.111 -0.2331 -0.4714 -0.2559
 6338SOL    HW130473   1.495   2.587   3.054 -1.1626 -0.2234 -1.5178
 6338SOL    HW230474   1.442   2.707   3.124  0.4341 -0.4530 -1.3908
 6339SOL     OW30475   1.136   1.517   5.160 -0.1043 -0.6055  0.1809
 6339SOL    HW130476   1.111   1.446   5.101  0.5905  0.2029 -1.1074
 6339SOL    HW230477   1.054   1.550   5.194  0.1749 -1.2808  1.4987
 6340SOL     OW30478   3.407   2.670   7.517 -0.8097  0.4221  0.0891
 6340SOL    HW130479   3.441   2.758   7.505 -1.0672  0.5073 -0.0214
 6340SOL    HW230480   3.471   2.632   7.577  0.4064  2.3989  0.0212
 6341SOL     OW30481   1.640   2.967   1.669 -0.3605  0.1215  0.5135
 6341SOL    HW130482   1.682   3.051   1.689  0.5238  0.1213 -1.3741
 6341SOL    HW230483   1.591   2.993   1.591  1.0985  0.6915 -0.2113
 6342SOL     OW30484   0.684   4.226   5.246 -0.3441 -0.5835  0.1647
 6342SOL    HW130485   0.653   4.312   5.274  0.2254 -0.9362  1.8917
 6342SOL    HW230486   0.664   4.223   5.153 -0.7871 -0.4278  0.2548
 6343SOL     OW30487   2.758   2.178  11.836  0.8570  0.2301 -0.0657
 6343SOL    HW130488   2.736   2.114  11.905 -0.3700  0.1928 -0.4862
 6343SOL    HW230489   2.694   2.246  11.860 -0.4321 -1.2277  0.6820
 6344SOL     OW30490   2.280   3.252   9.638 -0.1531  0.6685  0.1671
 6344SOL    HW130491   2.269   3.246   9.543  1.4058  1.6825 -0.0731
 6344SOL    HW230492   2.189   3.241   9.666  0.3992  0.4385  1.8455
 6345SOL     OW30493   4.004   2.452  10.844  0.7192  0.1034  0.3664
 6345SOL    HW130494   4.080   2.478  10.792 -1.1515  2.1002 -1.3972
 6345SOL    HW230495   4.002   2.357  10.832 -1.1759  0.3571 -1.2464
 6346SOL     OW30496   2.325   1.129  15.613  0.4489  0.0103 -0.3888
 6346SOL    HW130497   2.371   1.168  15.687 -1.2236  2.2373 -0.5401
 6346SOL    HW230498   2.367   1.174  15.539 -2.3035 -0.6422 -2.3644
 6347SOL     OW30499   1.302   2.423   4.924  0.1547  0.5137  0.5866
 6347SOL    HW130500   1.367   2.432   4.855  1.0613  1.9764  1.6346
 6347SOL    HW230501   1.335   2.472   5.000 -3.5352  1.6017  1.4864
 6348SOL     OW30502   0.688   4.712   8.239  0.1397  0.0062  0.3466
 6348SOL    HW130503   0.618   0.011   8.299  0.8830  1.8516  0.4729
 6348SOL    HW230504   0.676   4.617   8.241 -1.2567  0.1794 -0.3546
 6349SOL     OW30505   3.600   0.382   2.465 -0.6141 -0.5010 -0.2002
 6349SOL    HW130506   3.572   0.473   2.480 -1.0222 -0.5031 -0.9806
 6349SOL    HW230507   3.549   0.360   2.388  0.3210 -1.4167 -0.5484
 6350SOL     OW30508   2.748   1.387   8.961 -0.2804  0.2772  0.1227
 6350SOL    HW130509   2.793   1.456   9.010 -0.1720 -1.0937  1.9823
 6350SOL    HW230510   2.709   1.435   8.888 -0.9596  0.4977  0.6372
 6351SOL     OW30511   2.450   3.518   2.711  0.0049 -0.3117 -0.6094
 6351SOL    HW130512   2.543   3.497   2.719 -0.2364 -1.6218 -1.1815
 6351SOL    HW230513   2.432   3.529   2.804 -0.3562  1.4261 -0.8896
 6352SOL     OW30514   2.024   4.157   3.509  0.4045  0.4127  0.2821
 6352SOL    HW130515   1.944   4.187   3.465 -0.9850 -2.6671  0.6549
 6352SOL    HW230516   2.032   4.067   3.476  2.3616 -0.3493  2.8182
 6353SOL     OW30517   0.432   0.114  16.254 -0.4636 -0.3460  0.2907
 6353SOL    HW130518   0.485   0.047  16.297  0.7279  0.4982  0.1419
 6353SOL    HW230519   0.460   0.098  16.164  1.5827  2.5506  0.4249
 6354SOL     OW30520   0.512   1.097  13.518  0.5661  0.0365  0.0469
 6354SOL    HW130521   0.543   1.086  13.608 -1.4994  1.9095  0.9762
 6354SOL    HW230522   0.503   1.004  13.495 -0.0486  0.4370 -1.3660
 6355SOL     OW30523   4.189   4.659   5.763  0.3039 -0.3380  0.3257
 6355SOL    HW130524   4.197   4.671   5.858 -0.4249  0.2739  0.3111
 6355SOL    HW230525   4.275   4.618   5.749 -0.6056 -1.6975 -1.2886
 6356SOL     OW30526   2.182   1.127   2.789 -0.6713 -0.1167  0.2480
 6356SOL    HW130527   2.115   1.181   2.748 -1.5440  0.4169  2.3771
 6356SOL    HW230528   2.256   1.189   2.793 -0.7189  0.0432 -1.3618
 6357SOL     OW30529   4.423   4.144   3.299 -0.5465 -0.5870  0.1762
 6357SOL    HW130530   4.411   4.069   3.240 -0.4236 -1.0819  0.7803
 6357SOL    HW230531   4.432   4.099   3.383  0.8477 -2.5253 -0.9985
 6358SOL     OW30532   2.969   0.213   2.801 -0.1812 -0.3424  0.5241
 6358SOL    HW130533   3.040   0.159   2.765  0.1977  1.1777 -0.9759
 6358SOL    HW230534   3.020   0.234   2.880  3.1816 -0.2738 -1.6519
 6359SOL     OW30535   4.495   2.923  12.295 -0.8678  0.0984 -0.9908
 6359SOL    HW130536   4.455   2.915  12.382  2.1149 -1.7438  0.2242
 6359SOL    HW230537   4.430   2.872  12.247 -0.4537 -1.9295  0.6017
 6360SOL     OW30538   2.735   2.010   8.915  0.7019 -0.0395 -0.5727
 6360SOL    HW130539   2.761   2.087   8.966 -0.3512  1.6695 -2.6500
 6360SOL    HW230540   2.819   1.963   8.914  0.5024 -0.4458  2.2016
 6361SOL     OW30541   1.251   4.082   4.687  0.3845  0.0198  0.4574
 6361SOL    HW130542   1.230   4.093   4.779 -1.9369 -2.3508  0.2178
 6361SOL    HW230543   1.313   4.155   4.682 -1.6436  1.8324  1.9640
 6362SOL     OW30544   0.071   2.762  15.478  0.5519 -0.4959  0.1048
 6362SOL    HW130545   0.136   2.807  15.424 -0.7195  2.3574  0.9131
 6362SOL    HW230546   0.037   2.837  15.528  0.4160  1.0344 -2.2609
 6363SOL     OW30547   0.251   3.748   2.579 -0.3320 -0.1919 -0.3081
 6363SOL    HW130548   0.172   3.727   2.531 -1.1743 -1.7953  1.7696
 6363SOL    HW230549   0.225   3.832   2.617 -0.8642  0.1038 -1.3411
 6364SOL     OW30550   3.776   2.129   2.530 -0.0545 -0.2345 -0.5007
 6364SOL    HW130551   3.683   2.150   2.518 -1.0892 -3.3570  2.0906
 6364SOL    HW230552   3.801   2.080   2.452  3.0882 -2.4460  1.8767
 6365SOL     OW30553   2.468   3.982   6.998  0.0835  0.1465  0.4741
 6365SOL    HW130554   2.506   4.030   6.925  0.2564 -2.9360 -1.4640
 6365SOL    HW230555   2.441   3.907   6.945 -0.8027 -0.2663  1.5088
 6366SOL     OW30556   3.507   1.185   6.380  0.2154 -0.0650  0.1854
 6366SOL    HW130557   3.453   1.193   6.459  0.6621 -1.8215  0.6754
 6366SOL    HW230558   3.439   1.169   6.316  1.6504 -1.9868 -0.8705
 6367SOL     OW30559   4.686   3.980  10.919 -0.1517  0.0156 -0.4838
 6367SOL    HW130560   4.642   4.036  10.983 -0.3029 -2.6629  1.7229
 6367SOL    HW230561   4.617   3.929  10.876 -0.7271  0.2045  0.2093
 6368SOL     OW30562   3.963   3.976  15.414  0.0246  0.3097 -0.5381
 6368SOL    HW130563   3.926   3.904  15.363 -2.3057 -0.5297  2.3041
 6368SOL    HW230564   4.047   3.983  15.369  0.6400  1.7550  0.8391
 6369SOL     OW30565   2.931   3.803   0.660  0.8324 -0.0904  0.2944
 6369SOL    HW130566   2.943   3.844   0.575  3.2874 -1.6939 -0.1373
 6369SOL    HW230567   2.892   3.879   0.703  0.7710 -1.8737  3.4108
 6370SOL     OW30568   1.127   1.703   2.427 -0.2760 -0.2153  0.6379
 6370SOL    HW130569   1.044   1.702   2.476  0.8781  4.7152  2.7104
 6370SOL    HW230570   1.106   1.638   2.360 -0.2954  0.8258 -0.3567
 6371SOL     OW30571   0.507   3.210   6.931 -0.3063 -0.5325  0.5452
 6371SOL    HW130572   0.517   3.263   7.010 -3.3418 -0.1267  0.6412
 6371SOL    HW230573   0.416   3.192   6.910 -0.8950  2.4746  0.5291
 6372SOL     OW30574   2.048   1.364   4.150 -0.1071  0.0600  0.0598
 6372SOL    HW130575   1.981   1.357   4.083 -0.7387  1.5875  0.5299
 6372SOL    HW230576   2.079   1.274   4.152  2.0443  0.7809 -0.5668
 6373SOL     OW30577   0.054   2.841   7.449 -0.5379  0.0755  0.3758
 6373SOL    HW130578   4.715   2.878   7.388  0.6192 -0.3867 -1.1056
 6373SOL    HW230579   0.002   2.846   7.529  2.1163 -0.6313  2.1674
 6374SOL     OW30580   1.253   1.455   6.290  0.9041  0.0720 -0.1711
 6374SOL    HW130581   1.264   1.540   6.333  0.6160  1.3548 -2.6075
 6374SOL    HW230582   1.168   1.449   6.333  0.3210 -0.0471 -1.3500
 6375SOL     OW30583   1.317   0.110   2.876 -0.4502 -0.1438 -0.3158
 6375SOL    HW130584   1.359   0.041   2.824  1.6598 -1.1188  2.6519
 6375SOL    HW230585   1.358   0.191   2.846 -1.0260  0.2423 -0.0512
 6376SOL     OW30586   1.842   2.716  11.149 -0.2216 -0.3357  0.0358
 6376SOL    HW130587   1.844   2.638  11.094 -1.5078 -1.1126  1.0906
 6376SOL    HW230588   1.916   2.768  11.120 -0.3457  0.0354  0.3928
 6377SOL     OW30589   4.716   1.918  14.320 -0.2078 -0.4747 -0.0917
 6377SOL    HW130590   4.678   1.838  14.283 -2.8847  0.4962  0.5394
 6377SOL    HW230591   4.701   1.910  14.414 -1.3987 -3.0511 -0.4992
 6378SOL     OW30592   4.068   3.666   6.790 -0.0497 -0.0158 -0.0244
 6378SOL    HW130593   4.122   3.647   6.713  0.5922  1.7966 -0.0128
 6378SOL    HW230594   4.000   3.600   6.780 -0.2106  0.1444  0.0169
 6379SOL     OW30595   4.065   0.253  13.297 -0.2281  0.2498 -0.1595
 6379SOL    HW130596   4.106   0.227  13.380 -0.6643  0.8397  0.2456
 6379SOL    HW230597   4.063   0.166  13.258  0.2587 -0.3770  1.2124
 6380SOL     OW30598   1.766   2.830   2.340 -0.1301 -0.7561 -0.0532
 6380SOL    HW130599   1.754   2.831   2.245 -0.3476 -1.0853 -0.0306
 6380SOL    HW230600   1.698   2.771   2.373 -1.7688  1.2339  0.0602
 6381SOL     OW30601   2.430   2.335   6.634 -0.0140  0.1266 -0.5530
 6381SOL    HW130602   2.524   2.321   6.644 -0.2964 -0.1172  1.7098
 6381SOL    HW230603   2.418   2.428   6.614 -2.5014  0.3098  1.7474
 6382SOL     OW30604   1.066   0.721  13.664  0.3459 -0.2135  0.6423
 6382SOL    HW130605   1.055   0.626  13.656 -0.9562  0.0004 -0.2236
 6382SOL    HW230606   1.038   0.738  13.754 -0.9803  0.4322  0.1188
 6383SOL     OW30607   3.129   2.046   3.025  0.4004  0.0863  0.2487
 6383SOL    HW130608   3.090   1.971   2.982 -0.7279  1.2019 -0.6628
 6383SOL    HW230609   3.192   2.074   2.958  0.9539 -0.1114  0.6842
 6384SOL     OW30610   2.503   4.500  17.113 -0.9233  0.0016  0.2464
 6384SOL    HW130611   2.471   4.587  17.138  0.2878  0.5143  0.0007
 6384SOL    HW230612   2.419   4.470  17.077 -0.3100  2.2209 -3.1132
 6385SOL     OW30613   1.516   4.224  13.806  0.5337 -0.0033  0.0470
 6385SOL    HW130614   1.524   4.162  13.878 -0.5819 -1.6872 -1.2785
 6385SOL    HW230615   1.490   4.162  13.738  0.0438  1.7213 -1.3517
 6386SOL     OW30616   2.424   2.986   1.065 -0.0401  0.2334 -0.5436
 6386SOL    HW130617   2.418   3.070   1.020 -2.0741  0.6375  0.4714
 6386SOL    HW230618   2.374   2.930   1.005  1.0888 -0.7401 -0.5628
 6387SOL     OW30619   4.072   4.336   8.459 -0.1709  0.3693 -0.1126
 6387SOL    HW130620   4.097   4.313   8.549  1.5987 -1.5216 -1.0863
 6387SOL    HW230621   3.998   4.277   8.443 -1.0168  1.4853 -0.3211
 6388SOL     OW30622   2.259   2.379  12.847 -0.8110 -0.0027 -0.4852
 6388SOL    HW130623   2.274   2.347  12.936  1.5858 -1.7772 -1.5272
 6388SOL    HW230624   2.283   2.472  12.845  3.5860 -1.0906  0.8426
 6389SOL     OW30625   0.850   4.375   8.313  0.1721  0.8553 -0.2608
 6389SOL    HW130626   0.782   4.436   8.340  1.4478  1.8593  0.7260
 6389SOL    HW230627   0.831   4.288   8.348  0.9749 -0.4504 -3.0525
 6390SOL     OW30628   0.733   3.756   2.436  0.1543  0.3006  0.2486
 6390SOL    HW130629   0.642   3.730   2.419  0.0962  0.6084  0.0869
 6390SOL    HW230630   0.723   3.851   2.432 -0.4794  0.1318 -1.9115
 6391SOL     OW30631   4.285   1.434   3.992 -0.1292 -0.2588 -0.9413
 6391SOL    HW130632   4.202   1.386   3.998 -0.4731  0.4420 -0.1156
 6391SOL    HW230633   4.328   1.387   3.921  2.5886 -2.6439  2.3162
 6392SOL     OW30634   3.640   0.144  12.440 -0.6939  0.1203  0.7856
 6392SOL    HW130635   3.722   0.152  12.392 -1.9090 -1.1596 -1.4863
 6392SOL    HW230636   3.652   0.062  12.487  1.4217  0.0371  0.0714
 6393SOL     OW30637   2.306   2.536   4.776  0.1148  0.2649  0.2655
 6393SOL    HW130638   2.230   2.568   4.728  0.0523 -1.5383 -0.8589
 6393SOL    HW230639   2.349   2.501   4.698  1.5759  1.6215  0.4667
 6394SOL     OW30640   3.604   2.800   8.197  0.2624  0.4158  0.8570
 6394SOL    HW130641   3.563   2.860   8.134  0.1909 -0.0596  0.4467
 6394SOL    HW230642   3.609   2.859   8.272 -0.2854 -0.1372  1.3214
 6395SOL     OW30643   1.475   3.245   4.915 -0.3781 -0.5994 -0.2056
 6395SOL    HW130644   1.525   3.164   4.914  0.4076 -0.1095 -0.5600
 6395SOL    HW230645   1.511   3.283   4.995 -2.2272  1.7648 -0.4618
 6396SOL     OW30646   2.373   1.847   5.960 -0.2139  0.0116  0.1816
 6396SOL    HW130647   2.441   1.882   6.017 -1.9529  1.7705  1.1606
 6396SOL    HW230648   2.299   1.839   6.020  0.8054 -0.6600  1.3410
 6397SOL     OW30649   2.411   2.236  16.914 -0.3678  0.7646  0.2248
 6397SOL    HW130650   2.470   2.161  16.912 -0.9207  0.3813 -1.5533
 6397SOL    HW230651   2.326   2.195  16.928 -0.6888  1.2921 -0.1957
 6398SOL     OW30652   0.922   2.174  10.989 -0.1378  0.4239  0.2839
 6398SOL    HW130653   0.952   2.262  11.013 -1.1061  1.2752 -1.6041
 6398SOL    HW230654   1.005   2.127  11.002 -1.2461 -2.1002 -1.7407
 6399SOL     OW30655   4.131   2.285   1.773 -0.2883 -0.4323  0.1952
 6399SOL    HW130656   4.188   2.360   1.793 -0.8152  0.0592 -0.1444
 6399SOL    HW230657   4.187   2.209   1.758  0.5121  0.1411  0.2809
 6400SOL     OW30658   2.395   0.146   9.920  0.3308 -0.3849 -0.6075
 6400SOL    HW130659   2.403   0.083   9.848  0.7408 -0.8961 -0.1149
 6400SOL    HW230660   2.488   0.165   9.934 -0.2426  0.2054  2.2329
 6401SOL     OW30661   2.998   0.990   2.410 -0.0289  0.5698  0.5400
 6401SOL    HW130662   3.094   0.989   2.414 -0.1219  0.6722  2.8893
 6401SOL    HW230663   2.978   0.909   2.457 -0.7340  0.7235  0.4970
 6402SOL     OW30664   2.739   4.183   2.868 -0.5366 -0.1402 -0.0708
 6402SOL    HW130665   2.770   4.251   2.809  3.6862 -0.2497  2.0391
 6402SOL    HW230666   2.788   4.105   2.841  0.6072  0.4883  0.1910
 6403SOL     OW30667   4.449   2.642   8.733  0.5759  0.3805 -0.1327
 6403SOL    HW130668   4.396   2.567   8.708  2.2255 -1.0073  0.4983
 6403SOL    HW230669   4.393   2.696   8.788  0.5426 -0.1542  0.3584
 6404SOL     OW30670   0.455   2.992   8.490  0.2030  0.3777  0.0209
 6404SOL    HW130671   0.531   2.953   8.533 -1.5196 -1.2261  1.5838
 6404SOL    HW230672   0.392   3.003   8.561  0.4173 -1.7511  0.5455
 6405SOL     OW30673   3.319   3.261   1.547 -0.0547  0.2323  0.1224
 6405SOL    HW130674   3.277   3.184   1.586 -3.4823  2.0483 -0.0015
 6405SOL    HW230675   3.270   3.326   1.597 -0.9670 -1.3429  1.2849
 6406SOL     OW30676   0.579   0.695   7.733  0.0628 -0.4486  0.5320
 6406SOL    HW130677   0.646   0.638   7.695  1.3526  2.0193 -0.8471
 6406SOL    HW230678   0.524   0.708   7.656 -0.9364 -0.6280  1.2131
 6407SOL     OW30679   2.119   2.674  10.707 -0.3258 -0.3633  0.0691
 6407SOL    HW130680   2.144   2.588  10.744 -0.2966 -1.3427 -2.2494
 6407SOL    HW230681   2.085   2.723  10.782 -0.3523  0.5703 -0.5559
 6408SOL     OW30682   0.560   3.952   3.759  0.6342 -0.5599  0.4163
 6408SOL    HW130683   0.474   3.949   3.801 -0.0739 -2.1932 -1.1302
 6408SOL    HW230684   0.544   3.918   3.671  3.6073 -0.2548 -0.2565
 6409SOL     OW30685   4.303   2.769  12.180  0.2098 -0.1351  0.5180
 6409SOL    HW130686   4.226   2.801  12.134  0.3614 -1.1624 -0.4523
 6409SOL    HW230687   4.290   2.675  12.171  0.8086  0.2292 -3.7229
 6410SOL     OW30688   4.305   0.783   5.287 -0.0989  0.3874 -0.0872
 6410SOL    HW130689   4.286   0.877   5.290 -0.3406  0.3239  0.4234
 6410SOL    HW230690   4.386   0.776   5.237  1.4512  0.5863  2.3865
 6411SOL     OW30691   3.634   3.660  11.939  0.8294 -0.0794 -0.6986
 6411SOL    HW130692   3.569   3.612  11.990  2.5770  1.0992  2.6038
 6411SOL    HW230693   3.654   3.597  11.870 -1.1643  0.8332 -2.1140
 6412SOL     OW30694   0.602   2.225   2.238  0.3359 -0.3670  0.4134
 6412SOL    HW130695   0.623   2.187   2.323  0.5577  0.9009  0.9242
 6412SOL    HW230696   0.534   2.166   2.206  0.0457  0.2952 -0.1898
 6413SOL     OW30697   2.784   2.166  13.528 -1.5742  0.0591 -0.2679
 6413SOL    HW130698   2.833   2.201  13.453  0.8096 -3.9708 -0.5872
 6413SOL    HW230699   2.693   2.184  13.505 -1.4737 -1.2638 -1.7181
 6414SOL     OW30700   0.110   1.678   4.961  0.3838  0.1933  0.0956
 6414SOL    HW130701   0.114   1.737   5.037  0.7557  1.4427 -0.8961
 6414SOL    HW230702   0.015   1.673   4.946  0.6501 -1.0275 -1.1077
 6415SOL     OW30703   1.664   3.274   4.312  0.0206 -0.7374 -0.2867
 6415SOL    HW130704   1.710   3.235   4.238  0.7854  4.9063 -2.7982
 6415SOL    HW230705   1.739   3.317   4.353  1.0161 -2.6105 -0.1248
 6416SOL     OW30706   3.376   2.661   2.899 -0.3217 -0.0994  0.5151
 6416SOL    HW130707   3.471   2.664   2.910 -0.3573 -2.8425  1.6282
 6416SOL    HW230708   3.363   2.568   2.918  2.0175 -0.4920  0.2615
 6417SOL     OW30709   2.911   3.636   4.883  0.2706  0.1863 -0.1218
 6417SOL    HW130710   2.905   3.674   4.795 -1.2485  0.1863 -0.0190
 6417SOL    HW230711   3.003   3.652   4.906  1.0295 -1.6788 -1.9216
 6418SOL     OW30712   3.891   0.310   7.271  0.7053  0.0174  0.2842
 6418SOL    HW130713   3.827   0.240   7.274 -0.7307  1.3443  0.9597
 6418SOL    HW230714   3.925   0.308   7.360 -0.0426 -2.4859  0.5065
 6419SOL     OW30715   4.594   2.783   7.073 -0.0237  0.1644  0.1620
 6419SOL    HW130716   4.600   2.690   7.093 -1.5808 -0.2264 -1.3105
 6419SOL    HW230717   4.572   2.826   7.156 -3.5281 -0.6379 -0.3895
 6420SOL     OW30718   2.625   0.988   6.611 -0.7995 -0.1727 -0.4124
 6420SOL    HW130719   2.684   0.936   6.557  0.9567 -0.1208  1.4643
 6420SOL    HW230720   2.554   0.991   6.547 -0.4331 -2.3601 -0.9179
 6421SOL     OW30721   1.794   3.263  16.828  0.4583  0.1275 -0.2711
 6421SOL    HW130722   1.707   3.224  16.843  0.1375  1.1613  0.5957
 6421SOL    HW230723   1.854   3.199  16.865  0.5141 -1.7295 -3.5575
 6422SOL     OW30724   2.663   4.064  12.934 -0.4352  0.4200  0.4211
 6422SOL    HW130725   2.731   4.045  12.999  1.0675  1.8282 -0.7225
 6422SOL    HW230726   2.625   3.977  12.924 -0.5804  0.5771 -0.4191
 6423SOL     OW30727   2.097   1.038   6.772 -0.8748  0.6785  0.2442
 6423SOL    HW130728   2.191   1.026   6.780 -0.8001  0.6478 -0.6746
 6423SOL    HW230729   2.064   0.951   6.797 -3.0825  1.9501  1.7331
 6424SOL     OW30730   0.787   0.459   7.067 -0.4193 -0.3280  0.8310
 6424SOL    HW130731   0.743   0.425   6.989  1.9319  1.7598 -1.4077
 6424SOL    HW230732   0.807   0.379   7.115  1.7021 -0.2004  0.1422
 6425SOL     OW30733   1.437   4.298   4.695  0.0117 -0.1710  0.4418
 6425SOL    HW130734   1.467   4.388   4.713  0.3287 -0.6136  2.1766
 6425SOL    HW230735   1.514   4.278   4.642 -0.3443  0.8807 -0.4768
 6426SOL     OW30736   3.603   0.604  17.280 -0.3563  0.1934  0.5545
 6426SOL    HW130737   3.659   0.532  17.309  1.6359  0.9916 -1.3578
 6426SOL    HW230738   3.615   0.613  17.185  1.6660 -3.6931  0.4231
 6427SOL     OW30739   0.532   2.136   0.062 -0.5071 -0.2234  0.1754
 6427SOL    HW130740   0.592   2.110   0.132 -1.0783 -0.8135  0.4396
 6427SOL    HW230741   0.573   2.218   0.035 -0.9474  0.8340  2.7593
 6428SOL     OW30742   1.887   0.366   3.316  0.1091  0.5102  0.4164
 6428SOL    HW130743   1.900   0.326   3.402 -0.5576  0.5382  0.5285
 6428SOL    HW230744   1.938   0.299   3.269 -0.8472  0.7676 -0.9863
 6429SOL     OW30745   0.439   2.512   0.948  0.1036  0.0117  0.1657
 6429SOL    HW130746   0.382   2.545   0.879 -1.1380 -1.1022  0.6716
 6429SOL    HW230747   0.465   2.595   0.988  3.4648  0.1234 -2.2332
 6430SOL     OW30748   1.754   3.367   8.368 -0.3569  0.5972 -0.3096
 6430SOL    HW130749   1.680   3.372   8.307 -0.1699  1.5679 -0.4421
 6430SOL    HW230750   1.766   3.461   8.378 -2.6085  0.8624  0.0714
 6431SOL     OW30751   0.746   2.301   4.404 -0.1309 -0.2504  0.1729
 6431SOL    HW130752   0.794   2.223   4.432 -1.7142 -1.9580 -1.9095
 6431SOL    HW230753   0.777   2.306   4.314 -1.3627  0.7382 -0.1927
 6432SOL     OW30754   0.023   2.436   4.686 -0.0518 -0.5635 -0.0996
 6432SOL    HW130755   0.056   2.355   4.726 -0.0884 -0.5459 -0.0339
 6432SOL    HW230756   0.048   2.507   4.746 -0.0557  0.2718 -1.0997
 6433SOL     OW30757   3.960   3.060   4.460  0.2939  0.0600 -0.6617
 6433SOL    HW130758   4.051   3.032   4.465 -0.8522 -2.6655  5.0173
 6433SOL    HW230759   3.965   3.139   4.407  2.2711  0.4582  0.1216
 6434SOL     OW30760   1.030   0.910   7.276 -0.7893  0.0729  0.0286
 6434SOL    HW130761   1.122   0.893   7.297 -0.2486  1.6799 -1.0002
 6434SOL    HW230762   0.981   0.841   7.321 -1.0755  0.1772 -0.1229
 6435SOL     OW30763   1.458   3.106   7.219  0.4195 -0.4712  0.0776
 6435SOL    HW130764   1.473   3.108   7.314 -0.0671 -1.6363  0.1850
 6435SOL    HW230765   1.435   3.197   7.199  0.0403 -0.9239 -1.5006
 6436SOL     OW30766   2.989   4.646   5.286 -0.3501  0.2445  0.2604
 6436SOL    HW130767   2.999   4.599   5.368  0.2271 -0.9306 -0.4797
 6436SOL    HW230768   3.007   4.575   5.224 -1.6612  1.0666 -1.0821
 6437SOL     OW30769   1.813   1.891  15.050  0.1800  0.1955 -0.2753
 6437SOL    HW130770   1.755   1.908  14.976  0.0359  0.9736  0.0124
 6437SOL    HW230771   1.756   1.824  15.088 -0.3890  0.7565 -0.1257
 6438SOL     OW30772   1.005   3.634   0.245  0.1255  0.2194  0.0358
 6438SOL    HW130773   0.940   3.577   0.205  0.0658 -0.1800  0.7082
 6438SOL    HW230774   1.034   3.670   0.161 -0.2073 -0.3267 -0.3144
 6439SOL     OW30775   3.894   4.613   0.443 -0.5769  0.6383 -0.3184
 6439SOL    HW130776   3.947   4.583   0.517 -1.1341  1.9607  0.6220
 6439SOL    HW230777   3.962   4.635   0.380 -0.7364  0.2187 -0.6365
 6440SOL     OW30778   2.290   3.378  16.226 -0.1101 -0.2191  0.0748
 6440SOL    HW130779   2.275   3.469  16.248  0.4992 -0.1912  0.3782
 6440SOL    HW230780   2.372   3.396  16.180 -0.6933  1.5851 -0.2516
 6441SOL     OW30781   1.522   1.976   7.327 -0.5739  0.4284 -0.4327
 6441SOL    HW130782   1.494   2.024   7.249  4.5323  2.4701 -1.0354
 6441SOL    HW230783   1.587   1.921   7.284 -0.1256 -0.6895  1.7200
 6442SOL     OW30784   0.267   1.210   6.201  0.7560 -0.4765 -0.3489
 6442SOL    HW130785   0.229   1.168   6.124 -1.8343  1.8548 -0.3530
 6442SOL    HW230786   0.207   1.166   6.262 -0.0427 -0.7898 -1.3551
 6443SOL     OW30787   0.444   2.022  17.467 -0.1018  0.2569  0.3651
 6443SOL    HW130788   0.523   2.001  17.418  0.7465 -1.3000  2.3946
 6443SOL    HW230789   0.465   2.096  17.523 -2.1263  0.2348  1.1782
 6444SOL     OW30790   4.238   3.645  14.158 -0.1377 -0.1329  0.1102
 6444SOL    HW130791   4.250   3.700  14.236  0.8174 -1.0039  0.5754
 6444SOL    HW230792   4.321   3.597  14.151  0.6198  1.0719  0.7646
 6445SOL     OW30793   4.275   1.619   2.609 -0.0296  0.1643 -0.4778
 6445SOL    HW130794   4.222   1.572   2.674 -0.3052 -0.7109 -1.3348
 6445SOL    HW230795   4.215   1.621   2.535  0.8479 -1.1911 -1.2327
 6446SOL     OW30796   0.589   1.406  17.358  0.2442  0.6915 -0.1428
 6446SOL    HW130797   0.532   1.329  17.357 -1.2358  1.8675 -3.5311
 6446SOL    HW230798   0.598   1.409  17.454 -0.2484 -1.4629 -0.0264
 6447SOL     OW30799   2.787   3.917  10.483 -0.1379 -0.4941 -0.2710
 6447SOL    HW130800   2.838   3.880  10.556 -0.6467  0.3037  0.4843
 6447SOL    HW230801   2.798   4.011  10.497 -0.6961 -0.4058 -0.4337
 6448SOL     OW30802   2.968   1.135   5.163  0.0989  0.4563 -0.1805
 6448SOL    HW130803   2.948   1.082   5.086 -0.3289  0.3206  0.0224
 6448SOL    HW230804   2.957   1.221   5.122 -0.7202 -0.0535 -1.0246
 6449SOL     OW30805   0.509   3.512   7.512 -0.1041  0.0379 -0.4722
 6449SOL    HW130806   0.418   3.516   7.481 -0.0491  0.9180 -0.5120
 6449SOL    HW230807   0.503   3.574   7.584 -2.2612 -1.3757  0.5967
 6450SOL     OW30808   3.752   2.709   0.609 -0.6381  0.0159  0.1277
 6450SOL    HW130809   3.722   2.760   0.534 -0.3489  2.4884  1.7065
 6450SOL    HW230810   3.699   2.748   0.679  0.4208  0.2246  0.8093
 6451SOL     OW30811   4.292   2.502   1.842 -0.2552 -0.0108 -0.2684
 6451SOL    HW130812   4.344   2.435   1.886 -1.5659 -0.3867  0.7320
 6451SOL    HW230813   4.354   2.571   1.818 -1.2145  0.7955 -0.4430
 6452SOL     OW30814   0.673   2.077  14.576 -0.6304 -0.2014 -0.7841
 6452SOL    HW130815   0.642   2.075  14.485 -0.0637  0.4160 -0.9972
 6452SOL    HW230816   0.612   2.017  14.617 -0.4983 -1.4279 -2.3702
 6453SOL     OW30817   0.481   3.773  12.624  0.2482  0.3939 -0.1454
 6453SOL    HW130818   0.445   3.765  12.536 -0.2171  3.0561 -0.1959
 6453SOL    HW230819   0.574   3.792  12.613  0.0841  2.3797  1.9835
 6454SOL     OW30820   3.750   3.337  17.512  0.2885  0.1922 -0.4618
 6454SOL    HW130821   3.661   3.345  17.548  1.1817 -0.4913  1.9324
 6454SOL    HW230822   3.738   3.248  17.479 -0.6659  0.9086 -2.0138
 6455SOL     OW30823   2.397   4.121   8.573  0.4049 -0.3235  0.6494
 6455SOL    HW130824   2.458   4.174   8.521 -0.6554  1.7883  1.5756
 6455SOL    HW230825   2.453   4.048   8.599  0.0131 -1.2206 -1.0783
 6456SOL     OW30826   1.486   2.158  11.776 -0.5957 -0.2122 -0.1963
 6456SOL    HW130827   1.557   2.094  11.773 -0.2433  0.1557  0.2302
 6456SOL    HW230828   1.534   2.241  11.776  3.3935 -2.5500 -0.7464
 6457SOL     OW30829   2.325   3.822   6.696 -0.3513 -0.1965 -0.0751
 6457SOL    HW130830   2.303   3.790   6.609  0.7212 -0.0943 -0.3764
 6457SOL    HW230831   2.417   3.797   6.695 -0.0128  0.9285  1.6207
 6458SOL     OW30832   1.333   2.287  13.396 -0.4611  0.4581  0.3667
 6458SOL    HW130833   1.255   2.232  13.408  2.1511 -3.4823 -0.5436
 6458SOL    HW230834   1.352   2.267  13.304 -0.5579  1.6962  0.0747
 6459SOL     OW30835   2.485   1.089   5.901 -0.3272 -0.2261 -0.2966
 6459SOL    HW130836   2.436   1.078   5.820 -0.0614 -1.8322 -0.2296
 6459SOL    HW230837   2.421   1.142   5.948  0.9613 -0.6316  1.9016
 6460SOL     OW30838   3.812   4.306   8.018 -0.3631 -0.6029 -0.0421
 6460SOL    HW130839   3.906   4.291   8.027 -0.4469 -1.1298 -0.0498
 6460SOL    HW230840   3.791   4.297   7.925 -0.3208  0.7863 -0.1825
 6461SOL     OW30841   2.318   1.365   0.742  0.1665  0.3960 -0.4342
 6461SOL    HW130842   2.294   1.450   0.779  1.4592  1.2429 -1.5319
 6461SOL    HW230843   2.392   1.392   0.687 -0.5864  1.2558 -1.0238
 6462SOL     OW30844   0.673   1.228   7.577 -0.2501 -0.1710 -0.0179
 6462SOL    HW130845   0.585   1.264   7.586  0.1241  1.3208 -2.2740
 6462SOL    HW230846   0.671   1.155   7.638  0.9405  0.3627  0.6550
 6463SOL     OW30847   2.150   3.859   8.012  0.4794 -0.1122 -0.1960
 6463SOL    HW130848   2.243   3.861   8.032 -0.2424  1.3122  3.0465
 6463SOL    HW230849   2.133   3.783   7.956  1.4294  0.3677 -1.1518
 6464SOL     OW30850   0.783   3.709   9.999  0.2747 -0.1187  0.0579
 6464SOL    HW130851   0.816   3.772   9.935  0.6705  0.2739  0.6432
 6464SOL    HW230852   0.713   3.657   9.959  1.0902 -0.5062 -0.8792
 6465SOL     OW30853   3.700   1.106  13.934  0.0933 -0.1487 -0.6396
 6465SOL    HW130854   3.628   1.063  13.889 -0.5189 -0.0531  0.2534
 6465SOL    HW230855   3.710   1.038  14.001 -0.4524 -1.1039 -1.5146
 6466SOL     OW30856   3.976   1.039   6.293 -0.2071  0.3170 -0.2354
 6466SOL    HW130857   3.914   0.983   6.339  0.8426 -0.0200  0.7947
 6466SOL    HW230858   3.915   1.083   6.234 -0.1148  2.5934  1.3587
 6467SOL     OW30859   4.617   3.641   6.074 -0.3527  0.1157  0.1152
 6467SOL    HW130860   4.580   3.697   6.142 -1.0828 -0.9911  0.6250
 6467SOL    HW230861   4.640   3.703   6.005  0.9429  2.5772  2.7162
 6468SOL     OW30862   2.949   3.616   4.009  0.6822 -0.6333  0.1592
 6468SOL    HW130863   3.034   3.652   3.987  0.3272  0.9717  1.4933
 6468SOL    HW230864   2.940   3.548   3.941 -2.9287 -1.6352  1.6143
 6469SOL     OW30865   4.657   0.382   7.280 -0.0602  0.0991 -0.6850
 6469SOL    HW130866   4.653   0.429   7.197 -2.2404  1.3480  0.1108
 6469SOL    HW230867   0.002   0.320   7.259 -0.6377 -0.9103  0.4326
 6470SOL     OW30868   0.586   3.995   7.800 -0.3808 -0.4453  0.1143
 6470SOL    HW130869   0.534   3.967   7.875  0.8188 -0.7494  0.8345
 6470SOL    HW230870   0.676   3.980   7.829 -0.2892  0.0376  0.0816
 6471SOL     OW30871   0.471   3.815  11.193  0.1421  0.2511  0.3123
 6471SOL    HW130872   0.430   3.887  11.145 -0.0748  1.5069  2.3782
 6471SOL    HW230873   0.510   3.764  11.121  2.5347  0.4501  1.4939
 6472SOL     OW30874   1.511   2.405  17.137  0.0387 -0.5513  0.3281
 6472SOL    HW130875   1.430   2.377  17.094 -0.2175 -1.1527  1.1957
 6472SOL    HW230876   1.512   2.362  17.223  0.7411 -2.0351 -0.4283
 6473SOL     OW30877   2.014   0.365   6.920  0.3609  0.2909  0.5197
 6473SOL    HW130878   1.964   0.370   7.002  1.1959  0.7442  1.0021
 6473SOL    HW230879   2.064   0.286   6.941 -1.5183 -0.7542  1.0905
 6474SOL     OW30880   1.579   1.936   3.366 -0.3283  0.1352 -0.3498
 6474SOL    HW130881   1.626   1.860   3.400 -1.2560  0.1173  0.8701
 6474SOL    HW230882   1.499   1.904   3.324 -0.8211  0.0961  0.6228
 6475SOL     OW30883   4.434   0.922   0.067  0.5387  0.0019  0.0396
 6475SOL    HW130884   4.529   0.919   0.071  0.7452  1.9766 -3.1978
 6475SOL    HW230885   4.418   1.000   0.013 -0.3084 -0.3602 -0.2415
 6476SOL     OW30886   2.713   3.057  10.436  0.3778  0.4467  0.4295
 6476SOL    HW130887   2.755   2.980  10.395 -1.0312 -0.7648  1.2611
 6476SOL    HW230888   2.637   3.010  10.470  0.8374  0.3926  1.3702
 6477SOL     OW30889   0.672   3.472   5.152 -0.3224  0.1368  0.3734
 6477SOL    HW130890   0.740   3.427   5.201  1.0315  1.6100 -0.1552
 6477SOL    HW230891   0.652   3.542   5.214  0.9950  1.8088 -1.1062
 6478SOL     OW30892   0.979   3.189   9.143 -0.1929 -0.0714  0.0490
 6478SOL    HW130893   0.884   3.193   9.153 -0.3606 -4.4124  0.2220
 6478SOL    HW230894   0.998   3.098   9.120 -1.8560 -0.5015  0.3498
 6479SOL     OW30895   0.504   0.496   6.276  0.3886 -0.0370  0.6230
 6479SOL    HW130896   0.588   0.452   6.286  0.4923 -0.3678 -1.5745
 6479SOL    HW230897   0.501   0.525   6.185  0.6420  1.0575  0.9706
 6480SOL     OW30898   3.953   4.362   2.494  0.5365  0.5686 -0.2748
 6480SOL    HW130899   3.969   4.423   2.423  0.4539  0.8592 -0.0445
 6480SOL    HW230900   4.018   4.390   2.558 -0.6985  0.6389  0.9446
 6481SOL     OW30901   1.216   3.347   4.673  0.3483  0.0795 -0.3112
 6481SOL    HW130902   1.196   3.422   4.616  2.2887 -0.1071 -1.2469
 6481SOL    HW230903   1.142   3.287   4.665 -0.7107  1.5728 -1.8195
 6482SOL     OW30904   0.290   1.589   5.613 -0.2868 -0.1646  0.0130
 6482SOL    HW130905   0.307   1.562   5.703  2.7977 -0.7040 -0.7171
 6482SOL    HW230906   0.281   1.504   5.569  0.6816 -0.3621  0.1969
 6483SOL     OW30907   3.867   2.291   5.962 -0.1121  0.3265  0.0966
 6483SOL    HW130908   3.881   2.257   6.051 -2.0728  0.4637  0.4741
 6483SOL    HW230909   3.883   2.384   5.978  0.1185  0.0262  1.6601
 6484SOL     OW30910   3.742   3.748  15.862  0.0657  0.3498  0.5686
 6484SOL    HW130911   3.722   3.827  15.812 -2.3916 -0.5907  0.0872
 6484SOL    HW230912   3.804   3.715  15.797 -1.5075 -1.1107 -0.1747
 6485SOL     OW30913   4.617   2.304  16.674 -0.2355 -0.0683  0.1339
 6485SOL    HW130914   4.707   2.272  16.679  0.1864  0.8544 -1.5515
 6485SOL    HW230915   4.591   2.296  16.583  1.1129 -0.5892 -0.2042
 6486SOL     OW30916   4.315   0.678  15.929 -0.0776  0.1054 -0.2956
 6486SOL    HW130917   4.399   0.655  15.970  1.0927  1.3695 -1.9804
 6486SOL    HW230918   4.296   0.763  15.967 -0.1281  0.2890 -0.7325
 6487SOL     OW30919   0.739   3.932   1.231 -0.1818 -0.7045  0.3472
 6487SOL    HW130920   0.733   3.949   1.325 -0.4254  0.5229  0.1045
 6487SOL    HW230921   0.750   4.021   1.199  0.8172 -0.9739 -0.0592
 6488SOL     OW30922   3.379   4.053   4.912  0.1088  0.5724  0.2560
 6488SOL    HW130923   3.324   4.063   4.990 -1.6578 -1.3130 -0.7518
 6488SOL    HW230924   3.315   4.011   4.855 -0.0033  1.3630 -0.2003
 6489SOL     OW30925   1.919   1.721  15.721 -0.4148 -0.0272 -0.1175
 6489SOL    HW130926   2.001   1.761  15.695 -0.8473  0.9013 -0.0480
 6489SOL    HW230927   1.856   1.763  15.663 -0.3315 -0.6849 -0.6763
 6490SOL     OW30928   4.498   0.201   2.579  0.8909  0.6399  0.2883
 6490SOL    HW130929   4.579   0.225   2.624  1.7395  2.6478 -2.3016
 6490SOL    HW230930   4.535   0.173   2.496 -1.0999  0.4541 -0.5439
 6491SOL     OW30931   0.429   3.469   6.517  0.6014  0.1272  0.0293
 6491SOL    HW130932   0.339   3.496   6.498  0.7913 -0.6927 -2.0017
 6491SOL    HW230933   0.442   3.526   6.593 -1.0553  0.5012  0.0370
 6492SOL     OW30934   2.383   2.141   6.460  0.0752  0.2289  0.0870
 6492SOL    HW130935   2.454   2.081   6.480 -0.8169 -0.3606  1.4462
 6492SOL    HW230936   2.406   2.210   6.522  0.1566 -0.5164  0.8878
 6493SOL     OW30937   2.577   2.197   5.133 -0.0032  0.5398 -0.0058
 6493SOL    HW130938   2.652   2.236   5.088 -0.0978  1.0753  0.2939
 6493SOL    HW230939   2.589   2.113   5.089 -1.2229  1.3103 -1.8162
 6494SOL     OW30940   4.271   3.083   4.869 -0.2202 -0.2833  0.1693
 6494SOL    HW130941   4.281   3.022   4.796  1.2991 -0.0055  0.1330
 6494SOL    HW230942   4.205   3.143   4.835 -0.0241 -1.5511 -2.4132
 6495SOL     OW30943   2.741   1.756   6.122 -0.4604 -0.0631  0.1671
 6495SOL    HW130944   2.772   1.668   6.102 -0.6481  0.4030 -2.2173
 6495SOL    HW230945   2.764   1.803   6.042  0.3565 -0.9156 -0.0955
 6496SOL     OW30946   0.269   2.796   2.011  0.0629 -0.2698  0.0243
 6496SOL    HW130947   0.274   2.812   1.916  0.2744  1.0242  0.2524
 6496SOL    HW230948   0.350   2.746   2.016 -0.0967 -0.5703 -0.3849
 6497SOL     OW30949   2.265   2.996  16.453  0.3012  0.7274 -0.4323
 6497SOL    HW130950   2.329   2.961  16.515 -2.5234 -1.9651  0.9535
 6497SOL    HW230951   2.189   2.972  16.506  0.5798 -1.1790 -0.8721
 6498SOL     OW30952   2.859   3.511   3.209  0.4598  0.0951 -0.6345
 6498SOL    HW130953   2.858   3.452   3.133  0.3276  0.5756 -1.0065
 6498SOL    HW230954   2.821   3.455   3.277 -0.0831  0.6627 -0.4674
 6499SOL     OW30955   4.706   2.477   0.058 -0.0281 -0.6123 -0.0716
 6499SOL    HW130956   4.689   2.459  17.666  0.3224 -1.2332 -0.0145
 6499SOL    HW230957   4.666   2.398   0.095  1.4910 -1.4228 -0.1616
 6500SOL     OW30958   0.566   3.932   2.159 -0.0427 -0.1018 -0.5318
 6500SOL    HW130959   0.559   3.979   2.242  1.6829 -0.7596 -0.0089
 6500SOL    HW230960   0.638   3.872   2.183 -1.0692  0.0923  3.1127
 6501SOL     OW30961   1.656   4.562   4.233 -0.0267  0.5060 -0.0383
 6501SOL    HW130962   1.562   4.547   4.225 -0.2694  2.7903 -1.3281
 6501SOL    HW230963   1.693   4.475   4.218  0.2890  0.2821  2.0385
 6502SOL     OW30964   3.788   2.638   5.554  0.0191  0.5866 -0.3853
 6502SOL    HW130965   3.814   2.716   5.604 -1.6358  0.6969  0.2967
 6502SOL    HW230966   3.695   2.641   5.575  0.0204 -1.9879 -0.0566
 6503SOL     OW30967   3.959   1.680   4.498  0.4655  0.1778 -0.6481
 6503SOL    HW130968   3.952   1.587   4.517 -0.3231  0.8433  2.2555
 6503SOL    HW230969   4.052   1.685   4.521  0.3192  0.8829 -0.2070
 6504SOL     OW30970   3.377   3.429  11.963 -0.3605  0.1868 -0.6915
 6504SOL    HW130971   3.439   3.367  12.003 -0.8142  0.7953  0.9504
 6504SOL    HW230972   3.377   3.395  11.874 -1.2067  0.4915 -0.8037
 6505SOL     OW30973   4.385   2.510   8.253 -0.7006 -0.7117 -0.6618
 6505SOL    HW130974   4.360   2.443   8.318 -3.1359  0.8782  0.0687
 6505SOL    HW230975   4.302   2.556   8.242  0.8227  1.9678 -0.8570
 6506SOL     OW30976   2.862   2.242  14.024 -0.5166  0.4111  0.0899
 6506SOL    HW130977   2.833   2.219  13.936 -0.1836  1.7294 -0.3698
 6506SOL    HW230978   2.781   2.251  14.073 -0.7596 -1.1846 -0.0142
 6507SOL     OW30979   3.493   1.514  15.799 -0.0015  0.0850 -0.4872
 6507SOL    HW130980   3.408   1.471  15.807  0.8335 -1.9768 -2.5868
 6507SOL    HW230981   3.470   1.607  15.794 -1.6186 -0.1226  3.1987
 6508SOL     OW30982   1.067   0.219   5.915 -0.0387 -0.1232 -0.5846
 6508SOL    HW130983   1.079   0.144   5.856 -0.4713 -0.9747  0.3971
 6508SOL    HW230984   1.100   0.177   5.994  0.4995 -0.5248 -1.0200
 6509SOL     OW30985   4.313   0.951   4.220  0.4257 -0.4438 -0.3843
 6509SOL    HW130986   4.317   0.965   4.314  0.4928  1.3750 -0.6657
 6509SOL    HW230987   4.314   0.857   4.201 -1.4543 -0.7085  0.7490
 6510SOL     OW30988   3.851   1.852   1.881 -0.3694 -0.1629 -0.0476
 6510SOL    HW130989   3.860   1.864   1.786  2.3933  0.2641  0.2653
 6510SOL    HW230990   3.756   1.846   1.881 -0.2371 -2.4699 -0.5618
 6511SOL     OW30991   0.327   1.314   2.993  0.1604  0.4145  0.4367
 6511SOL    HW130992   0.324   1.306   2.897  2.2932  1.6539  0.2532
 6511SOL    HW230993   0.416   1.301   3.026  0.8427  0.2762 -1.4361
 6512SOL     OW30994   2.466   1.591  10.655  0.1584  0.8567  0.2684
 6512SOL    HW130995   2.522   1.664  10.683 -0.0568  1.5257 -1.0262
 6512SOL    HW230996   2.486   1.535  10.730  1.1167  1.2235  0.2930
 6513SOL     OW30997   3.827   1.791  15.132  0.2733 -0.1149  0.0395
 6513SOL    HW130998   3.820   1.697  15.146 -1.1328  0.1852  1.3418
 6513SOL    HW230999   3.807   1.779  15.039 -0.8127  0.0890  0.2464
 6514SOL     OW31000   2.775   3.533  14.397 -0.3057  0.0666 -0.5410
 6514SOL    HW131001   2.765   3.503  14.488  1.8347  0.0263 -0.3063
 6514SOL    HW231002   2.682   3.533  14.379 -0.5105 -0.5356  0.4776
 6515SOL     OW31003   3.429   1.986   6.050  0.0465 -0.2840 -0.1871
 6515SOL    HW131004   3.451   2.079   6.048 -2.9836  0.4232 -0.2022
 6515SOL    HW231005   3.504   1.946   6.005 -1.5094 -1.2282 -1.9434
 6516SOL     OW31006   2.004   3.986   6.230 -0.0726  0.7261 -0.3229
 6516SOL    HW131007   2.068   4.037   6.280  0.3262  0.2830 -0.3803
 6516SOL    HW231008   1.981   4.056   6.169  0.0685  0.2566 -0.9119
 6517SOL     OW31009   3.538   4.670   9.809 -0.2433 -0.2180  0.4087
 6517SOL    HW131010   3.464   0.005   9.821  0.7114  0.4601  3.0292
 6517SOL    HW231011   3.595   0.005   9.760  0.8522 -0.4333  1.4244
 6518SOL     OW31012   1.802   0.523  17.215  0.2081  0.5469 -0.1872
 6518SOL    HW131013   1.766   0.611  17.206  0.3703  0.5465 -0.8099
 6518SOL    HW231014   1.846   0.510  17.131  0.6366 -2.3763  0.4992
 6519SOL     OW31015   2.288   3.628   8.759  0.4089 -0.1444 -0.7068
 6519SOL    HW131016   2.378   3.647   8.785 -0.1868  0.7498  0.7010
 6519SOL    HW231017   2.252   3.712   8.786 -1.3812 -2.0086  2.8180
 6520SOL     OW31018   4.038   3.325   4.032  0.1141  0.2396  0.2624
 6520SOL    HW131019   4.022   3.313   4.126 -1.0054  0.3047  0.0854
 6520SOL    HW231020   4.084   3.243   4.014 -0.2746  0.1381 -0.2835
 6521SOL     OW31021   1.724   0.700   1.936  0.2402  0.3351 -0.0761
 6521SOL    HW131022   1.670   0.756   1.880 -1.1521  0.8551  1.7949
 6521SOL    HW231023   1.702   0.733   2.023  1.0987 -0.6684  0.5228
 6522SOL     OW31024   1.308   2.742   1.182  0.0649  0.3068  0.1367
 6522SOL    HW131025   1.217   2.740   1.152  0.2534 -0.1284 -0.4099
 6522SOL    HW231026   1.348   2.660   1.152  3.0387  1.1130  1.9222
 6523SOL     OW31027   4.468   2.966   0.430  0.3702 -0.2105  0.4317
 6523SOL    HW131028   4.379   2.998   0.417  0.3869  0.3090  1.5678
 6523SOL    HW231029   4.495   3.007   0.512 -0.6245 -1.3183  1.3085
 6524SOL     OW31030   2.309   4.005   0.227  0.0374 -0.8966  0.1215
 6524SOL    HW131031   2.316   4.041   0.316  1.4105  0.9183 -0.7246
 6524SOL    HW231032   2.339   4.082   0.178  0.3812 -1.7427 -0.9814
 6525SOL     OW31033   1.062   0.736  16.046 -0.3284 -0.3623  0.7520
 6525SOL    HW131034   1.054   0.827  16.073 -1.3171 -0.6829  1.5285
 6525SOL    HW231035   1.003   0.734  15.970 -2.2355  2.1667  2.1544
 6526SOL     OW31036   4.150   2.904   5.071  0.2959 -0.1550  0.7935
 6526SOL    HW131037   4.063   2.877   5.100  1.1002 -1.1630  2.2699
 6526SOL    HW231038   4.136   2.984   5.021 -3.5860 -1.4547 -0.1889
 6527SOL     OW31039   0.618   1.378  15.256  0.0885 -0.0899 -0.4337
 6527SOL    HW131040   0.601   1.436  15.180  2.0425  0.1806 -0.6508
 6527SOL    HW231041   0.662   1.431  15.322  0.9559  0.6733 -1.6224
 6528SOL     OW31042   1.234   2.401  11.019  0.4319  0.2349 -0.4214
 6528SOL    HW131043   1.233   2.321  11.071  1.4858  0.2191 -0.4400
 6528SOL    HW231044   1.147   2.431  11.047  1.3644  0.6512  2.0132
 6529SOL     OW31045   3.837   0.421   2.045  0.3856 -0.0490 -0.2607
 6529SOL    HW131046   3.752   0.442   2.083  0.8872  0.7303  0.4405
 6529SOL    HW231047   3.873   0.509   2.028 -1.8139  0.7903 -0.5501
 6530SOL     OW31048   1.298   0.420  11.583 -0.8601 -0.7034 -0.1186
 6530SOL    HW131049   1.350   0.420  11.663 -0.3969  0.6426 -0.4128
 6530SOL    HW231050   1.270   0.328  11.578  1.1958 -1.4821  2.9206
 6531SOL     OW31051   1.161   2.735   6.961  0.3226 -0.1160  0.0828
 6531SOL    HW131052   1.173   2.640   6.962 -3.0560 -0.5738 -1.1043
 6531SOL    HW231053   1.067   2.722   6.975  0.1997  2.6261  1.7228
 6532SOL     OW31054   0.560   1.387   1.917  0.3370 -0.0629 -0.0146
 6532SOL    HW131055   0.473   1.384   1.878  0.5437 -0.3628 -0.4584
 6532SOL    HW231056   0.614   1.435   1.854 -1.1405  1.3842 -0.1642
 6533SOL     OW31057   0.006   0.289   5.591 -0.0373  0.2335 -0.0398
 6533SOL    HW131058   0.033   0.205   5.556 -3.4144  0.3759 -3.0677
 6533SOL    HW231059   4.661   0.255   5.647 -0.7033 -1.1887 -1.7337
 6534SOL     OW31060   1.454   2.343   5.587 -0.1305 -0.0770  0.2546
 6534SOL    HW131061   1.421   2.279   5.650 -2.1247 -0.4488 -1.1449
 6534SOL    HW231062   1.468   2.286   5.511  0.9449 -0.0242  0.4109
 6535SOL     OW31063   0.059   1.726   5.318 -0.1476 -0.5429  0.1461
 6535SOL    HW131064   0.081   1.634   5.332  0.4416 -0.7084 -1.8265
 6535SOL    HW231065   4.688   1.727   5.326  0.0139  0.1165  1.9455
 6536SOL     OW31066   0.191   3.969  14.405 -0.3476  0.0982 -0.5845
 6536SOL    HW131067   0.212   3.918  14.326 -1.9591 -0.8302 -0.4021
 6536SOL    HW231068   0.250   4.044  14.393 -1.0251  0.9501  1.4536
 6537SOL     OW31069   2.884   2.106   3.133 -0.5669  0.3310 -0.3315
 6537SOL    HW131070   2.816   2.050   3.096 -1.8987  1.8009 -0.0928
 6537SOL    HW231071   2.956   2.064   3.086 -1.2000  0.8657 -1.7743
 6538SOL     OW31072   3.614   1.614   3.804 -0.1331  0.2050  0.5411
 6538SOL    HW131073   3.697   1.646   3.770 -0.6945  2.5219  1.3405
 6538SOL    HW231074   3.573   1.595   3.720  0.3084  0.3254  0.2986
 6539SOL     OW31075   2.329   2.774   5.472 -0.0063  0.3953 -0.1685
 6539SOL    HW131076   2.384   2.752   5.547 -0.7451  0.8093  0.4972
 6539SOL    HW231077   2.390   2.803   5.404  0.8681 -0.0567  0.4235
 6540SOL     OW31078   4.027   0.151   2.729 -1.0763  0.5193  0.9312
 6540SOL    HW131079   4.105   0.184   2.685 -0.0854 -0.5856  1.8622
 6540SOL    HW231080   3.966   0.207   2.681 -1.4504 -0.4254  0.2964
 6541SOL     OW31081   2.380   2.843  14.534  0.3224 -0.5350 -0.2148
 6541SOL    HW131082   2.431   2.761  14.527  0.3835 -0.5248  0.1235
 6541SOL    HW231083   2.311   2.819  14.596 -1.4758 -0.4201 -2.1796
 6542SOL     OW31084   0.249   3.325   1.167  0.2453 -0.1149 -0.2565
 6542SOL    HW131085   0.223   3.264   1.236  2.0441  1.0093  1.3952
 6542SOL    HW231086   0.327   3.285   1.129  0.0384 -0.4276 -0.3498
 6543SOL     OW31087   4.504   4.219   6.289 -0.0650 -0.3750  0.0392
 6543SOL    HW131088   4.549   4.205   6.206  0.7398 -1.3645  0.6334
 6543SOL    HW231089   4.568   4.170   6.342 -1.8593 -1.8948  0.8243
 6544SOL     OW31090   2.408   1.070   2.500  0.1231  0.0424 -0.3672
 6544SOL    HW131091   2.461   1.042   2.426  0.5184 -0.6240  0.1666
 6544SOL    HW231092   2.423   1.164   2.511  1.9248 -0.5707  2.5659
 6545SOL     OW31093   1.133   2.132   0.849 -0.0063 -0.0131  0.2926
 6545SOL    HW131094   1.213   2.115   0.899  0.2405  0.4634  0.0665
 6545SOL    HW231095   1.161   2.094   0.766  0.8417 -0.7561  0.9244
 6546SOL     OW31096   2.127   3.985  12.647 -0.2536 -0.0847  0.0431
 6546SOL    HW131097   2.151   4.050  12.582 -1.8432  0.0064 -0.4659
 6546SOL    HW231098   2.151   3.905  12.600 -2.3294 -1.1464  0.7856
 6547SOL     OW31099   1.568   1.723   6.201 -0.3698  0.1835 -0.5097
 6547SOL    HW131100   1.618   1.670   6.262 -0.3523  0.6777 -0.0872
 6547SOL    HW231101   1.486   1.713   6.249 -0.5996 -1.9450 -1.3764
 6548SOL     OW31102   0.978   0.589  12.180 -0.3177 -0.3456 -0.0004
 6548SOL    HW131103   1.000   0.499  12.155  1.2637 -0.4607  1.6988
 6548SOL    HW231104   0.898   0.609  12.133  0.5756  0.7559 -1.0485
 6549SOL     OW31105   2.726   2.863  16.012 -0.0208  0.3342  0.6186
 6549SOL    HW131106   2.728   2.930  15.944  0.8862  0.2190  0.5370
 6549SOL    HW231107   2.814   2.878  16.047  0.8195 -0.5210 -1.1387
 6550SOL     OW31108   3.111   1.619   3.431  0.0217 -0.3334  0.1273
 6550SOL    HW131109   3.117   1.677   3.355  1.0990  2.1628  2.1461
 6550SOL    HW231110   3.175   1.657   3.490 -1.2250  0.9283  0.6668
 6551SOL     OW31111   2.482   1.411  16.259 -0.1316 -0.5624  0.1702
 6551SOL    HW131112   2.461   1.318  16.272 -1.4997 -0.0444  1.7268
 6551SOL    HW231113   2.573   1.414  16.287  0.1219  2.5369 -1.0303
 6552SOL     OW31114   1.271   3.690   8.167 -0.1184  0.4990  0.8890
 6552SOL    HW131115   1.278   3.785   8.176 -3.1309  0.5808  2.1677
 6552SOL    HW231116   1.188   3.678   8.212 -2.2314  1.1457 -2.8797
 6553SOL     OW31117   1.195   2.203   2.614  0.4535 -0.1023 -0.1223
 6553SOL    HW131118   1.186   2.111   2.589  0.9638  0.6195 -2.9226
 6553SOL    HW231119   1.187   2.201   2.709  0.4753  1.6318 -0.0846
 6554SOL     OW31120   0.161   3.793   1.648 -0.4112  0.7788 -0.4825
 6554SOL    HW131121   0.229   3.779   1.582 -1.2891  0.6888 -1.3616
 6554SOL    HW231122   0.143   3.700   1.655  0.1468  0.5037 -2.7377
 6555SOL     OW31123   3.519   2.368   1.500 -0.1317 -0.5377 -0.2390
 6555SOL    HW131124   3.450   2.425   1.469  1.1651  1.1426 -0.0291
 6555SOL    HW231125   3.464   2.319   1.561 -0.0586 -1.0078 -0.5529
 6556SOL     OW31126   3.822   2.412   8.713  0.0310  0.4104 -0.1233
 6556SOL    HW131127   3.733   2.438   8.691 -0.5704 -1.5734 -0.0216
 6556SOL    HW231128   3.800   2.336   8.767  2.6143 -2.0089 -2.4072
 6557SOL     OW31129   1.473   2.341  11.425  0.4798  0.0181  0.0587
 6557SOL    HW131130   1.451   2.337  11.332 -0.6068 -0.4547  0.3322
 6557SOL    HW231131   1.489   2.435  11.437  0.2979  0.4913 -3.5634
 6558SOL     OW31132   1.639   3.006   0.531  0.3777 -0.1645  0.6005
 6558SOL    HW131133   1.637   2.913   0.506 -3.0245  0.0386  0.1848
 6558SOL    HW231134   1.643   3.053   0.448  0.9694  1.2109  1.4086
 6559SOL     OW31135   0.064   2.023   8.227 -0.1352 -0.8509 -0.4695
 6559SOL    HW131136   0.102   2.018   8.139 -1.3885 -0.7943 -1.0194
 6559SOL    HW231137   0.062   2.116   8.250  0.6572 -1.5376  2.3146
 6560SOL     OW31138   1.819   3.424   7.916 -0.3483  0.0149  0.7421
 6560SOL    HW131139   1.890   3.394   7.973  1.7424 -0.4151 -2.0833
 6560SOL    HW231140   1.807   3.338   7.875  1.5452  0.0784  0.0629
 6561SOL     OW31141   3.605   2.068  15.989  0.0953 -0.0309  0.5760
 6561SOL    HW131142   3.643   2.149  16.022 -0.8340  1.0148 -0.8904
 6561SOL    HW231143   3.634   2.069  15.898 -0.0068  0.8923  0.5550
 6562SOL     OW31144   3.478   4.073   8.612  0.2735  0.3755  0.0194
 6562SOL    HW131145   3.514   4.141   8.668  3.0619 -0.1970 -1.0793
 6562SOL    HW231146   3.554   4.013   8.613 -0.4182 -0.5551 -2.0868
 6563SOL     OW31147   2.544   0.074   6.616  0.2232 -0.1296 -0.1702
 6563SOL    HW131148   2.632   0.073   6.578 -0.6130 -3.4386 -1.9332
 6563SOL    HW231149   2.553   0.144   6.682 -0.0127 -0.6972  0.4682
 6564SOL     OW31150   3.558   1.190   8.834  0.4201  0.3155 -0.6711
 6564SOL    HW131151   3.507   1.265   8.865  1.9231  0.7181  0.8458
 6564SOL    HW231152   3.528   1.181   8.744  0.7839  1.0785 -0.8695
 6565SOL     OW31153   4.036   0.051   6.234  0.0076 -0.2884 -0.5108
 6565SOL    HW131154   4.036   0.143   6.259 -0.7967 -0.7731  1.2681
 6565SOL    HW231155   3.944   0.028   6.230  0.5135 -2.7088  1.5779
 6566SOL     OW31156   1.908   2.550   5.931 -0.0843 -0.3878  0.0042
 6566SOL    HW131157   1.848   2.624   5.928  1.1732  0.6232  0.0596
 6566SOL    HW231158   1.971   2.574   5.863  2.3046 -1.2148  1.9111
 6567SOL     OW31159   4.092   2.514   3.482 -0.0985  0.0908  0.4420
 6567SOL    HW131160   4.042   2.539   3.560  0.5498 -0.9109  1.1843
 6567SOL    HW231161   4.146   2.592   3.471  0.9395 -0.5489  1.0035
 6568SOL     OW31162   2.376   1.335  15.468 -0.2416  0.5267  0.4900
 6568SOL    HW131163   2.379   1.324  15.373 -1.3891  0.7581  0.4348
 6568SOL    HW231164   2.449   1.395  15.484  0.8306 -0.6657  0.1223
 6569SOL     OW31165   2.526   2.089  16.618 -0.0845 -0.0168  0.3370
 6569SOL    HW131166   2.489   2.177  16.624  0.1944  0.3299 -2.5792
 6569SOL    HW231167   2.611   2.096  16.574 -0.0639  2.6360  0.7647
 6570SOL     OW31168   3.311   1.910   6.298  0.4921 -0.4373 -0.0464
 6570SOL    HW131169   3.359   1.924   6.217  1.7854  0.8330  0.9470
 6570SOL    HW231170   3.381   1.901   6.362 -0.3837 -0.1019  0.9574
 6571SOL     OW31171   0.032   1.541   8.394 -0.3936  0.1469 -0.1530
 6571SOL    HW131172   4.680   1.500   8.353 -0.3377 -2.0921  1.9805
 6571SOL    HW231173   0.005   1.534   8.485 -2.7478  0.7803 -0.7804
 6572SOL     OW31174   2.539   2.874   6.429 -0.5017 -0.1701  0.1037
 6572SOL    HW131175   2.504   2.963   6.419  0.9484  0.1715 -2.0203
 6572SOL    HW231176   2.632   2.891   6.414 -0.7296  1.2600  0.2974
 6573SOL     OW31177   0.165   2.650   4.283 -0.2796  0.1941  0.0987
 6573SOL    HW131178   0.248   2.669   4.328  0.1261 -0.4567 -0.3780
 6573SOL    HW231179   0.095   2.646   4.347  0.2591  0.6283  0.7160
 6574SOL     OW31180   2.148   0.625   0.042  0.3326  0.7108 -0.0500
 6574SOL    HW131181   2.187   0.660   0.122  0.7435 -0.0174  0.0646
 6574SOL    HW231182   2.074   0.686   0.034 -0.1802 -0.2021 -2.2465
 6575SOL     OW31183   0.532   4.172  12.426  0.0566 -0.4790  0.0041
 6575SOL    HW131184   0.607   4.194  12.480  0.7827  0.9558 -1.6081
 6575SOL    HW231185   0.561   4.091  12.384 -0.1302 -0.2896 -0.4815
 6576SOL     OW31186   0.436   2.029   9.223 -0.0789 -0.4980 -0.1165
 6576SOL    HW131187   0.447   2.083   9.144  1.0668  0.6901  0.8639
 6576SOL    HW231188   0.351   1.991   9.203  0.3259 -0.9544 -0.9679
 6577SOL     OW31189   2.971   1.190   2.583  0.3579 -0.2650  0.2117
 6577SOL    HW131190   2.971   1.117   2.522  0.0648  0.6641 -0.8965
 6577SOL    HW231191   2.948   1.151   2.667 -0.6256  0.6197  0.3567
 6578SOL     OW31192   1.123   3.474  11.373 -0.3880 -0.1527 -0.0249
 6578SOL    HW131193   1.181   3.480  11.449  1.7232  0.1626 -1.6673
 6578SOL    HW231194   1.115   3.565  11.345 -0.1289 -0.1866 -0.2079
 6579SOL     OW31195   1.592   3.828  11.445  0.1611  0.3610  0.1530
 6579SOL    HW131196   1.639   3.792  11.520 -0.3882  1.2566  0.9261
 6579SOL    HW231197   1.535   3.892  11.488 -2.5129 -1.0274 -1.3459
 6580SOL     OW31198   2.054   4.701   7.182  0.1487 -0.1818 -0.4307
 6580SOL    HW131199   2.106   0.025   7.246 -0.4067 -2.6267  1.8528
 6580SOL    HW231200   2.084   4.614   7.206 -1.7974 -0.7006  0.0411
 6581SOL     OW31201   2.707   3.460   2.741 -0.4883  0.8141 -0.2515
 6581SOL    HW131202   2.774   3.402   2.704  0.8737  0.8909  2.1350
 6581SOL    HW231203   2.754   3.541   2.721  1.3092 -0.5759 -1.6629
 6582SOL     OW31204   1.117   2.484   7.444 -0.8602 -0.3828 -0.0428
 6582SOL    HW131205   1.171   2.532   7.382  0.2138  2.0970  2.8224
 6582SOL    HW231206   1.066   2.429   7.385 -0.8013  0.5318 -0.9428
 6583SOL     OW31207   1.502   0.229  11.509 -0.2845  0.4223  0.0916
 6583SOL    HW131208   1.469   0.269  11.590  3.4835  3.1816  0.2262
 6583SOL    HW231209   1.534   0.301  11.456 -1.7318  0.7689 -0.3220
 6584SOL     OW31210   3.368   2.798   4.914 -0.4047 -0.1528 -0.1429
 6584SOL    HW131211   3.335   2.837   4.995  1.2783 -0.6624  0.7763
 6584SOL    HW231212   3.458   2.775   4.938 -0.1756 -1.7944 -2.6298
 6585SOL     OW31213   1.526   1.519   0.812 -0.0981  0.1301  0.7640
 6585SOL    HW131214   1.496   1.538   0.723  0.7046  1.0602  0.6876
 6585SOL    HW231215   1.616   1.553   0.815  0.4547 -1.3584  0.8854
 6586SOL     OW31216   2.963   3.387  16.763 -0.8276 -0.1629  0.0163
 6586SOL    HW131217   2.899   3.333  16.809 -0.4287 -0.7321 -0.0953
 6586SOL    HW231218   3.030   3.318  16.758 -1.4800 -0.8171  0.3321
 6587SOL     OW31219   1.703   3.868   6.000  0.4996  0.1747  0.2746
 6587SOL    HW131220   1.734   3.956   5.979 -0.3978  0.8619  1.9109
 6587SOL    HW231221   1.720   3.819   5.919  0.5725  0.7180 -0.0392
 6588SOL     OW31222   2.740   0.732   5.352 -0.2230  0.3822 -0.1964
 6588SOL    HW131223   2.651   0.701   5.335  0.3810 -2.7917  2.5478
 6588SOL    HW231224   2.737   0.826   5.333  0.3785  0.2358 -1.0142
 6589SOL     OW31225   3.439   0.856   2.057 -0.4955  0.7731 -0.7084
 6589SOL    HW131226   3.409   0.776   2.013  1.5326 -0.2569 -0.2177
 6589SOL    HW231227   3.512   0.886   2.004 -1.4543 -0.3026 -2.6354
 6590SOL     OW31228   3.877   3.243   9.282  0.2315  0.6538  0.0194
 6590SOL    HW131229   3.793   3.228   9.325  0.0187 -0.0663 -0.6462
 6590SOL    HW231230   3.861   3.336   9.266  1.3989  0.8323 -0.1341
 6591SOL     OW31231   1.776   1.783  10.061 -0.3615 -0.0071 -0.2975
 6591SOL    HW131232   1.825   1.701  10.059 -0.5784 -0.1772  1.7729
 6591SOL    HW231233   1.758   1.792  10.154  0.9376  1.3272 -0.1746
 6592SOL     OW31234   1.597   2.661   5.389  0.2616 -0.3360 -0.5399
 6592SOL    HW131235   1.615   2.754   5.373  1.5816 -0.0829  2.2832
 6592SOL    HW231236   1.619   2.656   5.482  0.6927  0.5984 -0.5906
 6593SOL     OW31237   1.279   4.078   4.280  0.2130  0.9270 -0.0705
 6593SOL    HW131238   1.264   4.155   4.225  0.6574  2.9759  2.6598
 6593SOL    HW231239   1.196   4.099   4.324 -0.0840  0.3382 -0.3517
 6594SOL     OW31240   4.195   3.579   3.502  0.2561 -0.0847  0.2216
 6594SOL    HW131241   4.109   3.559   3.540 -0.4449  1.9290 -0.3348
 6594SOL    HW231242   4.220   3.656   3.553  0.2115 -0.5318  0.9169
 6595SOL     OW31243   2.922   1.260   8.819  0.0331  0.0100 -0.6074
 6595SOL    HW131244   2.900   1.167   8.828 -0.5800  0.2501  0.4190
 6595SOL    HW231245   2.859   1.299   8.879 -1.1463  1.0972 -2.5707
 6596SOL     OW31246   4.476   2.765   6.550  0.0033 -0.7232 -0.0571
 6596SOL    HW131247   4.484   2.762   6.455  3.4942  1.9915  0.1303
 6596SOL    HW231248   4.568   2.766   6.578 -0.2987 -0.2758  0.9334
 6597SOL     OW31249   1.413   2.037   6.501  0.3555  0.5509  0.0925
 6597SOL    HW131250   1.412   2.042   6.406 -0.1563  0.2330  0.0820
 6597SOL    HW231251   1.396   1.944   6.516  1.1394  0.1805 -1.3060
 6598SOL     OW31252   2.036   0.415   5.340 -0.2498 -0.5623 -0.4953
 6598SOL    HW131253   2.009   0.357   5.411  2.2210 -0.5887  0.3983
 6598SOL    HW231254   1.967   0.390   5.279 -0.6350  1.4186 -0.9011
 6599SOL     OW31255   1.139   3.389   6.183  0.3776 -0.5033 -0.5589
 6599SOL    HW131256   1.104   3.330   6.117 -0.3971 -1.1717  0.4549
 6599SOL    HW231257   1.148   3.334   6.261  0.0294 -0.0278 -0.1804
 6600SOL     OW31258   1.488   2.191   2.571 -0.3683 -0.2858  0.4321
 6600SOL    HW131259   1.400   2.212   2.602 -1.7290 -0.3063 -3.4566
 6600SOL    HW231260   1.534   2.255   2.626  1.5886 -0.3771 -1.1008
 6601SOL     OW31261   1.829   2.680   4.250  0.3255  0.2223 -0.5053
 6601SOL    HW131262   1.898   2.663   4.186 -0.2729  0.0676 -1.1077
 6601SOL    HW231263   1.757   2.701   4.191  1.5093  2.2041 -1.2187
 6602SOL     OW31264   0.707   0.322  11.990  0.0901 -0.1772 -0.7358
 6602SOL    HW131265   0.778   0.280  11.941 -0.3984 -1.3669 -0.4103
 6602SOL    HW231266   0.724   0.273  12.070  0.4802 -0.1111 -0.7774
 6603SOL     OW31267   3.089   4.279   3.459  0.3576 -0.4335 -0.7350
 6603SOL    HW131268   3.132   4.297   3.376  0.0088  0.6991 -0.6576
 6603SOL    HW231269   3.002   4.314   3.443  0.6607  1.1838  1.1363
 6604SOL     OW31270   0.094   1.142  13.437  0.1589  0.0571  0.0053
 6604SOL    HW131271   0.147   1.172  13.363 -1.6039 -0.0349 -1.3202
 6604SOL    HW231272   0.035   1.073  13.405  0.1061 -0.7744  1.9094
 6605SOL     OW31273   1.373   0.906   5.747  0.5733  0.9645 -0.4920
 6605SOL    HW131274   1.361   0.996   5.718 -1.5317  0.6010 -0.6955
 6605SOL    HW231275   1.468   0.897   5.758  0.1878  0.6751  2.6298
 6606SOL     OW31276   3.451   0.697   5.941  0.2288  0.1300 -0.1088
 6606SOL    HW131277   3.464   0.648   6.022 -0.2304 -0.1021 -0.1751
 6606SOL    HW231278   3.543   0.695   5.914  0.6658  0.9785  1.3180
 6607SOL     OW31279   0.781   4.529  14.529 -0.0321  0.3039  0.1109
 6607SOL    HW131280   0.782   4.464  14.600  1.5211 -1.3889 -1.4505
 6607SOL    HW231281   0.721   4.602  14.546  0.0685  0.9420 -2.2871
 6608SOL     OW31282   0.533   0.656   7.128 -0.4908  0.1756  0.1771
 6608SOL    HW131283   0.538   0.620   7.040 -0.0081  2.1398 -0.5955
 6608SOL    HW231284   0.613   0.706   7.142 -1.5587  2.1832 -0.8978
 6609SOL     OW31285   4.340   4.311   5.118 -0.2568  0.5549  0.1684
 6609SOL    HW131286   4.351   4.403   5.094 -0.1304  0.5820  0.3314
 6609SOL    HW231287   4.330   4.270   5.032  0.4308 -0.1707  0.4249
 6610SOL     OW31288   2.886   3.017   3.136  0.0487  0.1315  0.6452
 6610SOL    HW131289   2.844   2.948   3.186 -0.2008 -1.1814 -1.3590
 6610SOL    HW231290   2.812   3.071   3.107 -1.1861 -2.5156 -1.1681
 6611SOL     OW31291   0.701   2.469   6.012 -0.3739  0.5420 -0.0273
 6611SOL    HW131292   0.643   2.393   6.019  0.0608  0.2698  0.6554
 6611SOL    HW231293   0.689   2.500   5.923 -0.3902  0.3304 -0.0991
 6612SOL     OW31294   0.296   0.112   3.403  0.1377 -0.3307 -0.1871
 6612SOL    HW131295   0.338   0.155   3.478 -0.5989 -0.6900  0.4321
 6612SOL    HW231296   0.304   0.182   3.339  0.2910 -0.7189 -0.5926
 6613SOL     OW31297   2.064   2.023  15.311  0.4321  0.8592  0.3301
 6613SOL    HW131298   2.089   1.933  15.330  0.0867  0.8101  0.5442
 6613SOL    HW231299   2.051   2.019  15.216  0.4715  0.6997  0.3313
 6614SOL     OW31300   0.017   4.198  17.059 -0.4226 -0.2501  0.5335
 6614SOL    HW131301   4.677   4.138  17.094  0.4733 -0.1967  2.2758
 6614SOL    HW231302   4.695   4.229  16.981  0.3084 -0.3393  0.0563
 6615SOL     OW31303   2.944   1.659   0.480  0.2429 -0.1834 -0.0803
 6615SOL    HW131304   2.949   1.753   0.496 -1.5478  0.1902 -1.7121
 6615SOL    HW231305   2.971   1.647   0.389 -0.0037 -0.0626 -0.1672
 6616SOL     OW31306   2.651   3.998   8.196 -0.0519 -0.5933  0.4125
 6616SOL    HW131307   2.708   4.002   8.272 -1.7401  1.7734  1.5564
 6616SOL    HW231308   2.707   3.960   8.128 -0.1760 -0.3347  0.1635
 6617SOL     OW31309   2.629   4.499  15.819  0.6852  0.4815  0.5892
 6617SOL    HW131310   2.703   4.523  15.875 -0.3445 -0.5961  2.4060
 6617SOL    HW231311   2.552   4.544  15.854  1.6428  2.6701 -0.1271
 6618SOL     OW31312   2.760   1.440   4.083  0.3208  0.2853 -0.0392
 6618SOL    HW131313   2.802   1.512   4.130  1.9243 -0.3867 -0.4309
 6618SOL    HW231314   2.746   1.476   3.996  0.9418 -0.7826 -0.5866
 6619SOL     OW31315   0.024   1.585   9.542 -0.2690 -0.3515 -0.0891
 6619SOL    HW131316   0.034   1.676   9.569  0.1546 -0.0129 -1.3528
 6619SOL    HW231317   0.063   1.540   9.617 -2.8916  0.9769  2.0570
 6620SOL     OW31318   1.262   1.076   4.400 -0.4996  0.1083  0.3978
 6620SOL    HW131319   1.268   1.016   4.475  1.3965 -0.6119 -0.3093
 6620SOL    HW231320   1.337   1.052   4.344 -0.1919  1.0449  0.4172
 6621SOL     OW31321   4.483   1.994   1.600 -0.7395 -0.3235  0.0260
 6621SOL    HW131322   4.517   2.083   1.600  0.2658 -0.7000 -1.3858
 6621SOL    HW231323   4.562   1.941   1.593  0.4613  1.8421 -2.8422
 6622SOL     OW31324   0.095   0.046  11.875  0.4155 -1.1296  0.7249
 6622SOL    HW131325   0.123   4.718  11.950  0.7461  0.1001  1.4597
 6622SOL    HW231326   0.013   0.006  11.845  0.2475 -0.7596  0.6891
 6623SOL     OW31327   3.278   3.329   7.670 -0.2765  0.7711 -0.1625
 6623SOL    HW131328   3.186   3.352   7.684 -0.8017 -0.6406 -1.3082
 6623SOL    HW231329   3.283   3.329   7.575  1.6131 -1.4001 -0.0497
 6624SOL     OW31330   2.241   1.507  15.616 -0.4221  0.2107  0.0041
 6624SOL    HW131331   2.311   1.551  15.664 -0.6765  0.4639  0.1478
 6624SOL    HW231332   2.279   1.424  15.587  1.5669  1.5229 -1.1431
 6625SOL     OW31333   4.299   0.818   2.410  0.0889  0.2829  0.1571
 6625SOL    HW131334   4.333   0.904   2.383  0.0600  0.9586  2.3187
 6625SOL    HW231335   4.371   0.798   2.469 -1.1345  0.0945  1.5604
 6626SOL     OW31336   2.075   0.348   7.980  0.5565  0.4920  0.2052
 6626SOL    HW131337   2.013   0.363   8.052  0.3483  1.5204 -0.1934
 6626SOL    HW231338   2.070   0.430   7.931 -1.9022  0.6143  0.6400
 6627SOL     OW31339   0.116   0.512  11.059 -0.2717 -0.6959 -0.1457
 6627SOL    HW131340   0.120   0.597  11.014  1.2238 -0.9510 -0.4965
 6627SOL    HW231341   0.032   0.480  11.028  0.2845 -1.6410 -0.6980
 6628SOL     OW31342   0.605   4.265   8.520  0.6721  0.4995  0.3796
 6628SOL    HW131343   0.536   4.226   8.574  1.3710  0.7469  1.4474
 6628SOL    HW231344   0.653   4.187   8.493 -0.9385 -0.9914  1.7941
 6629SOL     OW31345   0.959   1.507   7.994 -0.2261 -0.4874  0.3370
 6629SOL    HW131346   1.046   1.535   8.020  0.6336 -0.9787 -2.0684
 6629SOL    HW231347   0.922   1.592   8.022 -1.8637  0.0410 -3.4417
 6630SOL     OW31348   4.595   3.888   3.052 -0.1008  0.3843 -0.2200
 6630SOL    HW131349   4.507   3.890   3.088 -1.4362  0.1317 -3.5169
 6630SOL    HW231350   4.608   3.794   3.037 -1.8365  0.1025  0.0577
 6631SOL     OW31351   0.405   0.939   1.585 -0.0181  0.6291 -0.0806
 6631SOL    HW131352   0.347   0.953   1.510 -0.0383  0.5898 -0.0718
 6631SOL    HW231353   0.490   0.926   1.542 -1.1263  0.2109 -2.1321
 6632SOL     OW31354   2.255   2.205  15.316 -0.3852  0.3181 -0.1304
 6632SOL    HW131355   2.186   2.140  15.308 -0.2880  0.3624 -1.2749
 6632SOL    HW231356   2.203   2.279  15.346  0.3226  1.2417 -1.1759
 6633SOL     OW31357   0.015   2.676   5.660  0.2988  0.2656  0.2363
 6633SOL    HW131358   4.683   2.669   5.736 -1.2000  1.8204 -0.7345
 6633SOL    HW231359   4.693   2.745   5.612 -0.7532 -1.1835 -0.8164
 6634SOL     OW31360   0.614   2.777   6.592 -0.4409  0.0985 -0.4686
 6634SOL    HW131361   0.683   2.712   6.605 -0.1110  0.2497 -1.4843
 6634SOL    HW231362   0.536   2.737   6.555 -1.3706  0.8849  0.6421
 6635SOL     OW31363   4.254   1.559  13.774 -0.2208 -0.1348 -0.6001
 6635SOL    HW131364   4.164   1.539  13.799 -0.6497 -0.4646 -2.3959
 6635SOL    HW231365   4.263   1.645  13.816  0.2552 -0.5315  0.0956
 6636SOL     OW31366   1.559   2.911  10.049 -0.7855  0.2291 -0.4318
 6636SOL    HW131367   1.651   2.938  10.048 -0.9661  0.8062 -1.8739
 6636SOL    HW231368   1.552   2.878   9.959  0.5154  0.8766 -0.7765
 6637SOL     OW31369   0.292   4.064   3.937  0.4105  0.5207 -1.0367
 6637SOL    HW131370   0.377   4.104   3.956  0.6853  0.4005 -1.9788
 6637SOL    HW231371   0.281   4.091   3.845 -0.4096  1.5816 -0.6280
 6638SOL     OW31372   0.806   4.170   7.197 -0.0372 -0.6740  0.1341
 6638SOL    HW131373   0.870   4.103   7.222 -0.3716 -0.3085  1.9793
 6638SOL    HW231374   0.774   4.203   7.281 -0.3648 -0.2879 -0.1466
 6639SOL     OW31375   0.363   0.502   2.751  0.9245 -0.0560 -0.0208
 6639SOL    HW131376   0.351   0.420   2.798  2.0024 -0.0608  0.2664
 6639SOL    HW231377   0.412   0.555   2.815  1.0086  1.0753 -1.0160
 6640SOL     OW31378   1.508   2.085   2.092  0.1470  0.0203  0.5780
 6640SOL    HW131379   1.508   2.050   2.181  0.2035 -1.0062  0.1794
 6640SOL    HW231380   1.602   2.092   2.074  0.2217 -0.6025  0.6963
 6641SOL     OW31381   3.771   0.884   0.820  0.4040 -0.0934  0.1857
 6641SOL    HW131382   3.844   0.852   0.872  0.9777 -2.2535 -1.9561
 6641SOL    HW231383   3.797   0.857   0.731  0.9352 -1.0937  0.6459
 6642SOL     OW31384   0.857   1.581   2.545  0.7584 -0.1335 -0.0751
 6642SOL    HW131385   0.874   1.504   2.600 -1.3477 -0.7969 -0.3417
 6642SOL    HW231386   0.813   1.533   2.475  0.2906  0.0078  0.1274
 6643SOL     OW31387   3.197   2.823   7.454  0.4129 -0.0835 -0.0008
 6643SOL    HW131388   3.253   2.758   7.496  0.0552 -0.9708 -0.9017
 6643SOL    HW231389   3.159   2.768   7.386 -1.3121  1.0653  0.0153
 6644SOL     OW31390   1.786   1.722   8.850  0.1227  0.5983 -0.4626
 6644SOL    HW131391   1.873   1.683   8.862  0.6631  2.6141  2.2038
 6644SOL    HW231392   1.757   1.720   8.941 -0.7187  0.3172 -0.7411
 6645SOL     OW31393   2.846   1.825   8.601  0.3133 -0.2143 -0.0897
 6645SOL    HW131394   2.815   1.889   8.536  2.6933 -0.6445 -1.6247
 6645SOL    HW231395   2.924   1.872   8.630 -0.3896  0.2215  1.1232
 6646SOL     OW31396   4.037   1.062  11.585  0.2194  0.1729 -0.5746
 6646SOL    HW131397   3.978   1.116  11.636  0.6902 -1.5822  1.8435
 6646SOL    HW231398   4.056   1.002  11.657 -0.7830  0.9123  0.2988
 6647SOL     OW31399   1.061   3.249  11.209  0.6385 -0.4396  0.5306
 6647SOL    HW131400   0.992   3.211  11.264  1.4805 -1.8609  0.6024
 6647SOL    HW231401   1.085   3.321  11.268 -0.3774  0.4066 -0.0788
 6648SOL     OW31402   3.500   3.248   2.631 -0.2039  0.2416 -0.3351
 6648SOL    HW131403   3.504   3.305   2.707 -0.4107 -0.2431  0.0411
 6648SOL    HW231404   3.577   3.277   2.582 -0.9674  1.4930 -0.7810
 6649SOL     OW31405   0.326   3.630   6.010  0.0654 -0.2731  0.2472
 6649SOL    HW131406   0.354   3.539   5.995 -0.8911 -0.2536 -1.6669
 6649SOL    HW231407   0.346   3.666   5.923  0.8973 -2.4008 -0.4596
 6650SOL     OW31408   0.236   2.463  17.606 -0.0092  0.3529  0.5302
 6650SOL    HW131409   0.265   2.425  17.689  0.9684 -0.5956 -0.2454
 6650SOL    HW231410   0.141   2.459  17.603 -0.0692  2.1238  0.1691
 6651SOL     OW31411   1.303   3.632   6.602 -0.6434 -0.2470 -0.0036
 6651SOL    HW131412   1.277   3.698   6.538  0.8798 -0.9598 -1.3389
 6651SOL    HW231413   1.362   3.691   6.648 -0.5205  0.7531 -1.4446
 6652SOL     OW31414   4.182   3.149   9.105 -0.0225  0.1753  0.4013
 6652SOL    HW131415   4.257   3.099   9.138  0.9188  0.0705 -1.9015
 6652SOL    HW231416   4.165   3.216   9.171 -1.7656  0.5894 -0.4571
 6653SOL     OW31417   2.568   0.469   8.083  0.2559  0.3011  0.6320
 6653SOL    HW131418   2.615   0.492   8.163 -2.1724  1.1992  1.7932
 6653SOL    HW231419   2.481   0.453   8.119 -0.7272  2.1969 -0.9401
 6654SOL     OW31420   1.730   2.198  14.360 -0.0915 -0.6311  0.3366
 6654SOL    HW131421   1.754   2.156  14.277 -0.4917  0.3740 -0.2825
 6654SOL    HW231422   1.659   2.254  14.329 -1.4036 -2.0853  0.6838
 6655SOL     OW31423   3.546   4.314   3.669  0.3315  0.1576 -0.0699
 6655SOL    HW131424   3.514   4.402   3.649  0.2221  0.7321  2.5578
 6655SOL    HW231425   3.535   4.271   3.585 -1.2998 -0.1893  0.3230
 6656SOL     OW31426   4.503   3.114   5.032  0.0909 -0.6262 -0.3649
 6656SOL    HW131427   4.557   3.072   4.965  0.7161 -0.1580 -0.1491
 6656SOL    HW231428   4.420   3.068   5.016 -0.7569  0.9853 -0.5982
 6657SOL     OW31429   3.056   0.722  10.011 -0.0040 -0.0909 -0.1663
 6657SOL    HW131430   3.148   0.697  10.014 -0.2900 -1.3538 -2.3538
 6657SOL    HW231431   3.029   0.717  10.103 -0.1087 -0.5592 -0.2217
 6658SOL     OW31432   0.213   1.074   5.439 -0.1892 -0.3466  0.7491
 6658SOL    HW131433   0.122   1.074   5.467  0.0239  1.2179  1.4132
 6658SOL    HW231434   0.212   1.006   5.371  2.8773  0.8838 -0.5446
 6659SOL     OW31435   1.381   4.319   6.989  0.2703 -0.5974  0.1034
 6659SOL    HW131436   1.386   4.277   6.903  3.3415  0.6724 -0.3580
 6659SOL    HW231437   1.475   4.335   6.998 -0.0104  0.2977  1.4107
 6660SOL     OW31438   4.158   4.589   1.695  0.4049  0.5164 -0.4448
 6660SOL    HW131439   4.073   4.587   1.739  1.4348 -0.9290  1.5210
 6660SOL    HW231440   4.170   4.495   1.683 -1.1958  0.3218 -0.3918
 6661SOL     OW31441   2.208   2.783   3.445  0.1481 -0.2023  0.8426
 6661SOL    HW131442   2.213   2.721   3.518 -1.5701  0.9178  1.8949
 6661SOL    HW231443   2.115   2.800   3.436  0.1098 -0.0498  1.4944
 6662SOL     OW31444   1.783   2.831   7.902  0.6379 -1.1258 -0.7612
 6662SOL    HW131445   1.756   2.812   7.812  0.7581 -1.0156 -0.8206
 6662SOL    HW231446   1.837   2.906   7.877 -2.2348  1.1471 -0.1598
 6663SOL     OW31447   0.159   1.333   4.567 -0.3364 -0.1192 -0.3284
 6663SOL    HW131448   0.227   1.361   4.506 -0.6384 -0.3754 -0.7766
 6663SOL    HW231449   0.198   1.272   4.630  0.0252 -0.1743 -0.6079
 6664SOL     OW31450   2.362   0.545  15.336  0.2569  0.1716 -0.0461
 6664SOL    HW131451   2.392   0.462  15.298  1.7330  0.7608 -0.1592
 6664SOL    HW231452   2.407   0.606  15.278 -0.2649  0.8925  0.3222
 6665SOL     OW31453   1.215   2.636   4.617  0.1838 -0.1159  0.6702
 6665SOL    HW131454   1.304   2.623   4.648  0.6739  1.6382  0.0058
 6665SOL    HW231455   1.207   2.722   4.574 -2.3412  0.1199  1.6058
 6666SOL     OW31456   3.095   3.680  13.895  0.2382  0.3115  0.5430
 6666SOL    HW131457   3.166   3.687  13.831  0.8455 -4.8847  0.6510
 6666SOL    HW231458   3.090   3.764  13.940 -2.3671  1.3830 -1.8069
 6667SOL     OW31459   1.330   1.577   2.896  0.1448  0.4907  0.3474
 6667SOL    HW131460   1.398   1.642   2.877  0.2929  0.8382  2.0458
 6667SOL    HW231461   1.252   1.599   2.845  1.0508  1.4043 -0.6300
 6668SOL     OW31462   0.732   3.963   6.363  0.4449 -0.6117 -0.1396
 6668SOL    HW131463   0.727   3.908   6.286  0.1542 -0.4806 -0.2125
 6668SOL    HW231464   0.640   3.985   6.375  0.7244  0.4556  0.0891
 6669SOL     OW31465   1.158   1.011  14.945 -0.1053  0.1738  0.0481
 6669SOL    HW131466   1.067   0.983  14.936  0.6080 -2.1049 -0.0007
 6669SOL    HW231467   1.146   1.092  14.895 -3.2472  0.9435  2.0547
 6670SOL     OW31468   3.169   1.222  13.502  0.3865 -0.7071 -0.2868
 6670SOL    HW131469   3.214   1.304  13.482 -2.3783  0.7320 -0.6729
 6670SOL    HW231470   3.089   1.241  13.453  1.7977  1.7711 -1.6414
 6671SOL     OW31471   1.967   1.762   2.629  0.5165 -0.4219  0.6623
 6671SOL    HW131472   2.061   1.780   2.624  0.7011 -0.6408  2.9004
 6671SOL    HW231473   1.945   1.855   2.631  1.3696 -0.1636 -2.5072
 6672SOL     OW31474   0.075   0.790  11.719  0.7546  0.6734  0.1986
 6672SOL    HW131475   0.100   0.877  11.750  1.3642  1.1214 -1.5364
 6672SOL    HW231476   4.717   0.807  11.673 -1.2110  1.2395  3.9261
 6673SOL     OW31477   3.570   0.813  16.013  0.6787  0.0544 -0.0200
 6673SOL    HW131478   3.623   0.893  16.007 -1.3765  1.2222 -2.6130
 6673SOL    HW231479   3.485   0.853  16.031  1.1979  0.2244  2.0776
 6674SOL     OW31480   3.936   3.088   7.630  1.0376 -0.1100  0.0321
 6674SOL    HW131481   3.938   3.055   7.720 -0.9641 -0.3209  0.0016
 6674SOL    HW231482   4.005   3.155   7.628 -0.2731  1.2627  1.1388
 6675SOL     OW31483   3.221   1.708   4.526  0.0296  0.4844  0.3604
 6675SOL    HW131484   3.309   1.695   4.490 -0.8356 -2.2754 -0.7188
 6675SOL    HW231485   3.232   1.640   4.592  1.6228  0.5961  0.2211
 6676SOL     OW31486   2.264   1.784   2.450 -0.0629 -0.1317 -0.2154
 6676SOL    HW131487   2.315   1.718   2.497  1.2244  1.5565  0.7166
 6676SOL    HW231488   2.335   1.828   2.403  0.6542 -0.9220  0.1183
 6677SOL     OW31489   2.662   3.556   6.870 -0.5728  0.0568  0.0857
 6677SOL    HW131490   2.687   3.545   6.962 -1.1903 -2.0238  0.0007
 6677SOL    HW231491   2.689   3.471   6.835  0.9157  0.2235  0.8154
 6678SOL     OW31492   3.248   1.154  16.833  0.5120  0.0997  0.1134
 6678SOL    HW131493   3.307   1.159  16.758 -1.4659  0.3889 -1.4269
 6678SOL    HW231494   3.202   1.078  16.800 -0.4038  1.1979 -1.1521
 6679SOL     OW31495   0.506   1.642   7.073 -0.2902 -0.0597 -0.1844
 6679SOL    HW131496   0.539   1.613   6.989 -0.3024  1.1495 -0.6061
 6679SOL    HW231497   0.476   1.554   7.095  1.7654  0.2609  4.0756
 6680SOL     OW31498   2.868   0.420   1.228  0.0600  0.2481 -0.3986
 6680SOL    HW131499   2.852   0.408   1.135 -1.1182  1.7540 -0.3919
 6680SOL    HW231500   2.931   0.354   1.258  0.6328 -0.0959 -2.3819
 6681SOL     OW31501   3.694   1.425  11.551 -0.4450 -0.3931  0.6163
 6681SOL    HW131502   3.661   1.514  11.553  0.6389  0.0129  0.6689
 6681SOL    HW231503   3.610   1.379  11.542 -0.5327 -0.0688 -0.1562
 6682SOL     OW31504   4.699   4.083   8.312  0.3220  0.2011  0.0128
 6682SOL    HW131505   4.620   4.029   8.303  1.1324 -0.8847 -0.5544
 6682SOL    HW231506   4.674   4.153   8.251 -0.1410 -0.5300 -0.6383
 6683SOL     OW31507   3.163   1.309   2.958  0.0793 -0.2305 -0.0596
 6683SOL    HW131508   3.122   1.368   3.022 -1.3869 -0.3799 -0.8592
 6683SOL    HW231509   3.160   1.227   3.006  2.2492 -1.9294 -2.8230
 6684SOL     OW31510   0.396   3.755   5.763 -0.3542  0.1154  0.0924
 6684SOL    HW131511   0.490   3.767   5.773 -0.5766  0.4514  1.7044
 6684SOL    HW231512   0.386   3.762   5.668  1.4719 -0.4263 -0.1375
 6685SOL     OW31513   3.100   0.565   6.059 -0.4326  0.0485 -0.2533
 6685SOL    HW131514   3.170   0.514   6.019  0.4184  1.6959 -0.8530
 6685SOL    HW231515   3.055   0.587   5.977  0.8012  1.3523 -0.5746
 6686SOL     OW31516   3.973   3.188   3.017 -0.2308 -0.4162  0.0543
 6686SOL    HW131517   3.902   3.237   3.059 -0.2379  1.9210 -2.6838
 6686SOL    HW231518   3.938   3.189   2.928 -1.0427 -2.7506  0.3376
 6687SOL     OW31519   2.051   0.646   6.597  0.2948  0.1439  0.0073
 6687SOL    HW131520   1.993   0.700   6.543  0.9297 -0.6998 -1.4910
 6687SOL    HW231521   2.059   0.708   6.670  1.1246 -0.5799  0.5288
 6688SOL     OW31522   4.227   0.910   9.157 -0.0170  0.1556 -0.0747
 6688SOL    HW131523   4.257   0.825   9.124  2.8786  1.4375 -0.7906
 6688SOL    HW231524   4.201   0.948   9.073  0.8896 -0.6619 -0.7235
 6689SOL     OW31525   3.490   3.460   4.972 -0.5177 -0.6456  0.2036
 6689SOL    HW131526   3.560   3.399   4.947  0.3911  0.2268  0.5986
 6689SOL    HW231527   3.439   3.465   4.891  1.5313 -1.0452 -1.1124
 6690SOL     OW31528   0.078   2.852   3.487  0.5870 -0.3406 -0.2623
 6690SOL    HW131529   0.151   2.911   3.507  1.1845 -2.1089  2.8459
 6690SOL    HW231530   0.042   2.853   3.576  0.3127  0.8393 -0.3861
 6691SOL     OW31531   0.870   3.421   2.491 -0.2616 -0.3483 -0.0795
 6691SOL    HW131532   0.895   3.338   2.449  0.8413 -0.1817  0.2614
 6691SOL    HW231533   0.800   3.379   2.539  1.1635 -3.1619 -0.4639
 6692SOL     OW31534   2.862   2.826   4.277 -0.2881 -0.2917 -0.3350
 6692SOL    HW131535   2.852   2.920   4.292  1.5862 -0.0184 -0.8508
 6692SOL    HW231536   2.850   2.810   4.183 -0.1069 -0.2575 -0.3626
 6693SOL     OW31537   0.407   2.114   4.572 -0.0826 -0.1001 -0.2261
 6693SOL    HW131538   0.377   2.197   4.533 -0.9653 -0.0026  0.6828
 6693SOL    HW231539   0.329   2.062   4.590 -0.7631  0.8475 -0.3966
 6694SOL     OW31540   3.836   0.678   2.384  0.0275 -0.0303  0.9104
 6694SOL    HW131541   3.770   0.615   2.411 -1.3478 -0.6017 -3.8077
 6694SOL    HW231542   3.786   0.758   2.365  0.4298  0.6511  2.7021
 6695SOL     OW31543   1.134   4.424   5.069  0.2883  0.1130 -0.2562
 6695SOL    HW131544   1.083   4.366   5.012 -0.8363  0.5638  0.3049
 6695SOL    HW231545   1.142   4.509   5.025 -0.6466 -0.3161 -1.2536
 6696SOL     OW31546   2.554   4.445   7.460 -0.3515  0.3084  0.2009
 6696SOL    HW131547   2.590   4.534   7.460  0.2428  0.0656  0.9756
 6696SOL    HW231548   2.534   4.429   7.368  1.6500 -0.4966 -0.1082
 6697SOL     OW31549   3.447   1.805  15.769 -0.4212  0.3529 -1.0138
 6697SOL    HW131550   3.415   1.886  15.729 -2.1864  0.5719  0.8393
 6697SOL    HW231551   3.386   1.795  15.842 -0.1984  0.3475 -0.8277
 6698SOL     OW31552   3.838   1.556  11.213 -0.2502 -0.0410  0.1017
 6698SOL    HW131553   3.922   1.581  11.176 -0.4680  2.9012  1.5764
 6698SOL    HW231554   3.790   1.552  11.130 -2.8894 -3.0320  1.7703
 6699SOL     OW31555   1.795   3.289   3.951  0.2007  0.0259 -0.3163
 6699SOL    HW131556   1.779   3.320   3.862  0.7583 -0.3485 -0.5421
 6699SOL    HW231557   1.843   3.207   3.942 -0.1993 -0.2697  0.2474
 6700SOL     OW31558   2.903   0.552   7.111  0.2510  0.0713  0.3182
 6700SOL    HW131559   2.879   0.595   7.029  0.3274  1.8405  1.2123
 6700SOL    HW231560   2.996   0.541   7.091 -0.2862 -0.3213 -1.9598
 6701SOL     OW31561   1.019   2.778  13.684 -0.2576  0.1523 -0.1743
 6701SOL    HW131562   0.953   2.782  13.614 -0.1090 -0.3962 -0.3474
 6701SOL    HW231563   1.101   2.803  13.642  0.5924  0.3683  1.6550
 6702SOL     OW31564   3.759   0.213  12.122  0.3774 -0.2775 -0.5663
 6702SOL    HW131565   3.831   0.153  12.101  1.1560  0.8297 -1.0443
 6702SOL    HW231566   3.804   0.283  12.169  0.6916  1.0373 -2.8359
 6703SOL     OW31567   2.102   1.292   6.556 -0.3047  0.5878  0.0080
 6703SOL    HW131568   2.124   1.239   6.632 -2.2935 -2.5151 -1.6283
 6703SOL    HW231569   2.108   1.228   6.485  0.5922  1.3337 -0.6064
 6704SOL     OW31570   1.415   3.199   0.588  0.2113 -0.8859  0.6281
 6704SOL    HW131571   1.483   3.265   0.602  0.5521 -1.2033  0.4656
 6704SOL    HW231572   1.466   3.118   0.584  2.9514  0.9110 -0.2853
 6705SOL     OW31573   2.148   1.474   3.813  0.6173 -0.0592 -0.0486
 6705SOL    HW131574   2.176   1.437   3.897 -0.2140 -1.7296 -0.4990
 6705SOL    HW231575   2.079   1.411   3.790  1.4872 -1.0195 -0.0340
 6706SOL     OW31576   4.179   2.370  14.165 -0.1021 -0.2648  0.6722
 6706SOL    HW131577   4.241   2.429  14.122 -0.5586 -0.5200 -0.3224
 6706SOL    HW231578   4.102   2.425  14.174  0.6796  0.6366  1.9002
 6707SOL     OW31579   3.330   2.536   2.543  0.0357 -0.1137 -0.4867
 6707SOL    HW131580   3.358   2.626   2.531  0.3777  0.1506  2.2585
 6707SOL    HW231581   3.257   2.536   2.481 -1.9538 -0.7455  1.8361
 6708SOL     OW31582   4.222   3.999  10.067  0.2855 -0.2986  0.4869
 6708SOL    HW131583   4.165   3.965  10.136  0.4234  0.3432  0.9186
 6708SOL    HW231584   4.285   4.050  10.118  1.5729 -0.4861 -0.9244
 6709SOL     OW31585   2.240   4.389   3.915 -0.0808 -0.5822 -0.6649
 6709SOL    HW131586   2.195   4.306   3.933  0.3295 -0.5476  0.4896
 6709SOL    HW231587   2.319   4.350   3.877  0.6223  1.0061 -0.8516
 6710SOL     OW31588   2.684   1.384   3.042  0.0226 -0.0967 -0.8397
 6710SOL    HW131589   2.638   1.377   2.958 -1.9830  5.5459 -0.2164
 6710SOL    HW231590   2.767   1.337   3.035  0.9980  1.5954 -0.5360
 6711SOL     OW31591   0.560   2.804   8.116  0.2522  0.7598  0.2374
 6711SOL    HW131592   0.594   2.878   8.065  2.3726 -0.9165 -0.7698
 6711SOL    HW231593   0.495   2.838   8.178  0.5872 -0.4167  1.2401
 6712SOL     OW31594   3.896   3.820   0.036 -0.5461  0.1537 -0.1488
 6712SOL    HW131595   3.896   3.745  17.676  0.5410 -1.2805  1.6419
 6712SOL    HW231596   3.838   3.776   0.099  0.2330  1.9038  1.7900
 6713SOL     OW31597   0.780   0.466   1.133  0.2584  0.0966 -0.4495
 6713SOL    HW131598   0.827   0.459   1.050 -1.9480 -3.0994 -1.4459
 6713SOL    HW231599   0.727   0.387   1.121 -2.0220  1.2447  2.1526
 6714SOL     OW31600   4.345   1.695   1.907  0.2771  0.1812 -0.3400
 6714SOL    HW131601   4.254   1.703   1.878  1.3499  1.1809 -3.3911
 6714SOL    HW231602   4.342   1.714   2.001 -0.2867  1.5906 -0.6496
 6715SOL     OW31603   0.100   3.356   8.856 -0.6683 -0.8801  0.0394
 6715SOL    HW131604   0.084   3.309   8.937  0.8781 -2.6804 -0.6951
 6715SOL    HW231605   0.022   3.411   8.864 -0.6008 -0.8858  0.7138
 6716SOL     OW31606   0.546   2.252   6.020 -0.1638 -0.2071  0.5430
 6716SOL    HW131607   0.567   2.188   5.952 -1.0435 -0.4682  0.5217
 6716SOL    HW231608   0.483   2.199   6.069  0.0820 -1.1152 -0.1124
 6717SOL     OW31609   0.041   4.340   4.692  0.2205 -0.0871 -0.2229
 6717SOL    HW131610   0.088   4.360   4.610 -1.6779  1.2773 -0.9817
 6717SOL    HW231611   4.698   4.408   4.687  0.2577  0.0179  0.8374
 6718SOL     OW31612   0.151   2.346   6.696 -0.2545  0.2637  0.3443
 6718SOL    HW131613   0.128   2.261   6.733  1.6941 -1.0335 -1.4238
 6718SOL    HW231614   0.132   2.403   6.770 -1.0825  0.8645 -0.3317
 6719SOL     OW31615   3.435   2.532   2.254 -0.7178 -0.2133  0.9292
 6719SOL    HW131616   3.528   2.516   2.240 -0.4091  3.4707 -1.2399
 6719SOL    HW231617   3.438   2.623   2.284  1.1887  0.3379 -0.9256
 6720SOL     OW31618   3.969   3.109  15.641  0.2302  0.2319  0.8785
 6720SOL    HW131619   4.016   3.192  15.656 -1.4459  0.8656  2.5125
 6720SOL    HW231620   4.014   3.044  15.695 -0.6771 -1.6747 -0.6650
 6721SOL     OW31621   2.627   2.879   1.573  0.4537  0.5339  0.3089
 6721SOL    HW131622   2.663   2.805   1.624  1.0937  0.0799 -0.8120
 6721SOL    HW231623   2.542   2.839   1.554  0.2300  0.5243  1.3090
 6722SOL     OW31624   2.334   1.912   5.520 -0.0287 -0.0465 -0.2917
 6722SOL    HW131625   2.367   1.828   5.487  0.0990  0.0495 -0.4081
 6722SOL    HW231626   2.413   1.953   5.556  0.6935 -0.8314 -1.0001
 6723SOL     OW31627   2.322   1.272   3.175 -0.5135 -0.9281 -0.4312
 6723SOL    HW131628   2.329   1.184   3.138  1.0132 -1.2139  0.5215
 6723SOL    HW231629   2.397   1.257   3.232 -2.0452 -3.0236  1.0066
 6724SOL     OW31630   2.464   1.161  13.264 -0.0314  0.4045 -0.3364
 6724SOL    HW131631   2.401   1.233  13.266  2.2094  2.3922 -1.3029
 6724SOL    HW231632   2.494   1.182  13.176 -1.6823  1.3775 -0.6804
 6725SOL     OW31633   4.005   1.710   7.399 -0.5439 -0.2110  0.9727
 6725SOL    HW131634   4.082   1.722   7.455 -0.7673  2.2835  0.7545
 6725SOL    HW231635   3.933   1.693   7.460 -0.6807 -2.7686  0.0915
 6726SOL     OW31636   2.756   2.990   6.722 -0.0553  0.2827  0.1136
 6726SOL    HW131637   2.817   2.916   6.725 -0.4761 -0.1074 -1.0172
 6726SOL    HW231638   2.786   3.029   6.639  3.7548 -0.9588  0.8944
 6727SOL     OW31639   0.515   2.899  11.547 -0.7069 -0.0114  0.4512
 6727SOL    HW131640   0.440   2.841  11.563 -0.3927 -1.4327 -3.2128
 6727SOL    HW231641   0.578   2.829  11.528 -1.1893 -0.9494  2.2761
 6728SOL     OW31642   1.778   0.677   6.695 -0.0345  0.3570 -0.5329
 6728SOL    HW131643   1.785   0.653   6.602 -0.4579 -1.1373 -0.1817
 6728SOL    HW231644   1.744   0.597   6.734 -1.3995  0.0119 -2.4286
 6729SOL     OW31645   2.025   2.433   1.990 -0.9878 -0.1154 -0.5619
 6729SOL    HW131646   1.934   2.407   1.977 -1.4126  0.1440  1.9668
 6729SOL    HW231647   2.064   2.349   1.965 -0.5039  0.1094 -0.5600
 6730SOL     OW31648   0.269   0.080   6.143  0.5898  0.3790 -0.0466
 6730SOL    HW131649   0.267   0.107   6.235 -1.4070 -1.6774  0.5375
 6730SOL    HW231650   0.334   0.140   6.108  1.8730 -1.1998 -0.3654
 6731SOL     OW31651   0.580   0.305   4.815 -0.3139 -0.3204  0.2732
 6731SOL    HW131652   0.631   0.252   4.755 -1.8931 -0.5519 -0.8619
 6731SOL    HW231653   0.510   0.339   4.759  0.7011  0.1191 -0.7169
 6732SOL     OW31654   1.466   2.400   7.097  0.2123  0.2363  0.4105
 6732SOL    HW131655   1.541   2.457   7.078  0.7282 -0.6567 -0.2884
 6732SOL    HW231656   1.458   2.427   7.188 -0.0417 -0.8465  0.7148
 6733SOL     OW31657   0.446   0.596   3.009 -0.2758 -0.0040  0.3419
 6733SOL    HW131658   0.490   0.518   3.042  2.6335  1.3656 -0.2952
 6733SOL    HW231659   0.522   0.653   3.003 -2.0481  2.4422  0.8720
 6734SOL     OW31660   1.831   4.345   4.706 -0.4574 -0.2484 -0.2591
 6734SOL    HW131661   1.899   4.347   4.639 -0.9002  0.5491 -0.6808
 6734SOL    HW231662   1.887   4.319   4.779 -1.6211  0.3170  0.8353
 6735SOL     OW31663   0.127   4.725   7.946 -0.9920  0.2796 -0.3226
 6735SOL    HW131664   0.143   0.089   7.976  0.4778 -0.2521  0.4395
 6735SOL    HW231665   0.035   0.003   7.973 -0.9289 -0.2364 -0.0425
 6736SOL     OW31666   1.052   4.189   4.371 -0.6135 -0.3950 -0.5144
 6736SOL    HW131667   0.957   4.180   4.377 -0.4580 -2.5851 -1.3406
 6736SOL    HW231668   1.056   4.282   4.348 -1.7683 -0.2506 -0.1229
 6737SOL     OW31669   2.123   2.522   4.384 -0.0994  0.0895 -0.5489
 6737SOL    HW131670   2.071   2.450   4.347  0.5365 -0.1946 -0.8746
 6737SOL    HW231671   2.211   2.485   4.381 -0.2024 -0.2500  0.5151
 6738SOL     OW31672   2.124   1.284   4.749 -0.0196  0.2938  0.0346
 6738SOL    HW131673   2.145   1.350   4.683  1.2258 -0.9747 -0.8206
 6738SOL    HW231674   2.029   1.275   4.745  0.0033  1.5367 -2.6855
 6739SOL     OW31675   0.479   0.867   7.891 -0.2785  0.2188  0.3253
 6739SOL    HW131676   0.510   0.807   7.823 -0.3689  0.2381  0.2654
 6739SOL    HW231677   0.426   0.808   7.946 -2.0446  0.9908 -0.5266
 6740SOL     OW31678   0.708   1.846   9.931 -0.0188 -0.1809  0.3309
 6740SOL    HW131679   0.775   1.814   9.870  0.4193  0.9970  0.2033
 6740SOL    HW231680   0.657   1.904   9.876  0.5668  1.9241  2.0013
 6741SOL     OW31681   3.068   2.207   7.862  0.7530 -0.3415  0.1510
 6741SOL    HW131682   3.037   2.118   7.847  0.0819  0.0758 -0.9794
 6741SOL    HW231683   3.117   2.211   7.944  1.5209 -2.0363 -0.2401
 6742SOL     OW31684   4.461   3.487   3.182 -0.1399 -0.2389  0.4252
 6742SOL    HW131685   4.387   3.536   3.146 -1.2758 -3.4397 -1.6400
 6742SOL    HW231686   4.458   3.519   3.272  1.9659  1.9375 -0.2736
 6743SOL     OW31687   0.240   4.554   6.040  0.0879  0.3429  0.0488
 6743SOL    HW131688   0.256   4.638   6.082  2.0638  0.1284 -0.2716
 6743SOL    HW231689   0.145   4.554   6.050 -0.0395  0.2414 -1.1071
 6744SOL     OW31690   3.132   3.267   4.835  0.6967 -0.4875  0.1593
 6744SOL    HW131691   3.061   3.207   4.809 -0.9856  1.1065  1.0454
 6744SOL    HW231692   3.201   3.208   4.866 -0.2751  0.0133  3.2706
 6745SOL     OW31693   1.701   3.566  10.091 -0.1312  0.1643 -0.0133
 6745SOL    HW131694   1.654   3.544  10.011  0.2010 -0.5138 -0.0198
 6745SOL    HW231695   1.733   3.652  10.065 -0.1274  0.5548  1.2642
 6746SOL     OW31696   0.227   1.064   7.502 -0.4416  0.2454  0.0600
 6746SOL    HW131697   0.168   1.027   7.568 -0.2364  1.2943  0.8374
 6746SOL    HW231698   0.294   1.106   7.557 -0.7601 -0.7302  1.1941
 6747SOL     OW31699   2.365   0.282  15.215  0.3808  0.1915 -0.2797
 6747SOL    HW131700   2.274   0.266  15.240  0.8284 -1.7385  0.1742
 6747SOL    HW231701   2.421   0.247  15.285  0.0926  0.0332 -0.1260
 6748SOL     OW31702   3.782   3.790   5.858  0.0527  0.4994 -0.0104
 6748SOL    HW131703   3.805   3.883   5.856  4.0581 -0.5413 -2.4820
 6748SOL    HW231704   3.820   3.764   5.941  1.5112  0.1096 -0.8066
 6749SOL     OW31705   4.352   0.684   1.062  0.0917  0.5161 -0.0853
 6749SOL    HW131706   4.260   0.708   1.076  0.5524  2.2843 -0.1314
 6749SOL    HW231707   4.349   0.620   0.991  0.6447  1.2107 -0.7254
 6750SOL     OW31708   1.677   2.992   6.058 -0.0341  0.1777 -0.1981
 6750SOL    HW131709   1.756   3.046   6.063  1.9431 -2.5657 -1.9091
 6750SOL    HW231710   1.677   2.965   6.150  2.4306  0.1840 -0.1966
 6751SOL     OW31711   4.395   1.802  10.022 -0.1594  0.2245 -0.3847
 6751SOL    HW131712   4.328   1.736  10.041 -0.6896  0.4504 -1.5042
 6751SOL    HW231713   4.415   1.817  10.115 -0.7011  1.7897 -0.5115
 6752SOL     OW31714   1.801   3.693  12.776 -0.4041 -0.0428 -0.4831
 6752SOL    HW131715   1.714   3.684  12.739 -0.5896 -1.0606  0.1944
 6752SOL    HW231716   1.835   3.610  12.745  0.6552 -0.2709  1.2668
 6753SOL     OW31717   1.741   3.991   4.277 -0.1545 -0.0757 -0.6171
 6753SOL    HW131718   1.824   3.968   4.318 -0.5520  0.5653  0.5640
 6753SOL    HW231719   1.678   3.936   4.324 -0.3454  0.1454 -0.6155
 6754SOL     OW31720   4.205   4.681   6.615  0.4200 -0.1733 -0.0010
 6754SOL    HW131721   4.176   4.612   6.673  0.5093 -2.0054 -2.1285
 6754SOL    HW231722   4.232   0.033   6.666  0.4017 -0.8493  1.0147
 6755SOL     OW31723   3.688   1.289   2.802 -0.1204 -0.5391 -0.0533
 6755SOL    HW131724   3.651   1.214   2.756  0.4201 -0.1559 -1.1165
 6755SOL    HW231725   3.620   1.287   2.869 -0.8303 -1.3516 -0.7890
 6756SOL     OW31726   3.670   3.148   3.312 -0.0867  0.0830 -0.2858
 6756SOL    HW131727   3.726   3.192   3.376  1.0608  0.1813 -1.3775
 6756SOL    HW231728   3.580   3.180   3.324 -0.4604 -0.4613 -1.6561
 6757SOL     OW31729   1.007   3.710  15.936 -0.3390 -0.0115 -0.9397
 6757SOL    HW131730   1.019   3.741  16.026  1.6594  0.1986 -1.2698
 6757SOL    HW231731   1.099   3.694  15.917 -0.6285 -0.4107 -2.0376
 6758SOL     OW31732   1.893   4.418   5.738 -0.1428 -0.1395 -0.1276
 6758SOL    HW131733   1.893   4.322   5.734 -1.5798 -0.1905  1.0337
 6758SOL    HW231734   1.911   4.449   5.650 -1.3926 -1.6167 -0.8896
 6759SOL     OW31735   3.709   3.505   6.937  0.1666 -0.1100 -0.0432
 6759SOL    HW131736   3.648   3.579   6.943  0.8852  0.1296  3.7426
 6759SOL    HW231737   3.661   3.437   6.984 -0.5573  0.1015 -0.4695
 6760SOL     OW31738   0.690   3.972   9.042  0.4452 -0.1139  0.0340
 6760SOL    HW131739   0.676   3.944   9.133  0.0619 -3.4178 -1.0534
 6760SOL    HW231740   0.620   4.036   9.049  2.5340  1.9671  1.8886
 6761SOL     OW31741   4.488   4.213   4.705 -0.0268  0.3494 -0.5128
 6761SOL    HW131742   4.582   4.228   4.698 -0.0616  1.1516  0.6867
 6761SOL    HW231743   4.469   4.265   4.626 -0.0174  2.3139  0.7938
 6762SOL     OW31744   1.739   3.103   6.476 -0.1545 -0.5097  0.3548
 6762SOL    HW131745   1.666   3.140   6.526 -0.9124 -0.6405 -0.6452
 6762SOL    HW231746   1.694   3.053   6.407 -0.9361 -2.6977  2.4817
 6763SOL     OW31747   1.874   2.327   9.562 -0.1979  0.0043  0.3438
 6763SOL    HW131748   1.917   2.242   9.558  0.7233  0.4106  1.5155
 6763SOL    HW231749   1.870   2.330   9.658  1.1617 -3.8748  0.5171
 6764SOL     OW31750   1.477   1.508   2.136 -0.7666 -0.0396 -0.7084
 6764SOL    HW131751   1.492   1.497   2.042 -0.4739  1.5332 -0.8479
 6764SOL    HW231752   1.399   1.563   2.128 -1.3086 -0.5271  1.2088
 6765SOL     OW31753   0.846   4.074  15.295 -0.1381  0.7929 -0.1956
 6765SOL    HW131754   0.926   4.081  15.346 -0.3189 -0.7295  0.2798
 6765SOL    HW231755   0.788   4.144  15.326  0.7830  0.9032  1.2609
 6766SOL     OW31756   0.615   3.610   5.390  0.3098  0.0581  0.0593
 6766SOL    HW131757   0.653   3.586   5.474  0.9296 -0.0448 -0.2502
 6766SOL    HW231758   0.537   3.555   5.376  0.4553 -0.3600  0.8925
 6767SOL     OW31759   3.063   1.538   5.405  0.4713 -0.1940  0.9506
 6767SOL    HW131760   2.984   1.510   5.359 -0.9162  0.7810  2.7138
 6767SOL    HW231761   3.049   1.496   5.490 -2.4494 -1.8891 -0.3670
 6768SOL     OW31762   0.411   2.896   3.176  0.3239 -0.5817  0.4703
 6768SOL    HW131763   0.449   2.924   3.259 -2.5672  1.4712  1.0820
 6768SOL    HW231764   0.464   2.956   3.123 -1.2885 -0.0768 -0.5526
 6769SOL     OW31765   2.326   1.727   7.801 -0.2245  0.0370 -0.2169
 6769SOL    HW131766   2.337   1.633   7.817 -0.3960  0.1660  0.6699
 6769SOL    HW231767   2.287   1.763   7.881  2.8115  2.2018  0.2611
 6770SOL     OW31768   4.628   2.556   5.185 -0.0148  0.2036 -0.0717
 6770SOL    HW131769   4.700   2.497   5.162  3.8380  4.7396  0.3061
 6770SOL    HW231770   4.558   2.491   5.189 -0.9417  1.1303 -1.4096
 6771SOL     OW31771   0.868   4.559   6.129 -0.1337  0.0901 -0.3336
 6771SOL    HW131772   0.892   4.631   6.188 -2.2605  0.9002 -0.4368
 6771SOL    HW231773   0.947   4.506   6.131  1.2611  2.2140  1.2804
 6772SOL     OW31774   1.250   4.541   3.617  0.0285 -0.2206 -0.0590
 6772SOL    HW131775   1.242   4.562   3.524 -0.4811 -1.1320 -0.2249
 6772SOL    HW231776   1.160   4.546   3.651  0.5748  0.6896  1.2399
 6773SOL     OW31777   0.957   3.779   9.205  0.2993 -0.0768  0.7987
 6773SOL    HW131778   0.943   3.828   9.286 -1.1631 -0.2091  0.6381
 6773SOL    HW231779   0.882   3.719   9.210  0.0733  0.0607 -0.7864
 6774SOL     OW31780   0.084   4.532  12.991  0.5560  0.4389  0.1486
 6774SOL    HW131781   0.170   4.564  13.020  0.7957  0.1755 -0.2798
 6774SOL    HW231782   0.093   4.444  13.028 -0.8288  0.0163 -0.5242
 6775SOL     OW31783   2.158   4.446  16.398  0.1959 -0.3524 -0.5243
 6775SOL    HW131784   2.071   4.465  16.365  0.4911  1.9680  0.0285
 6775SOL    HW231785   2.204   4.523  16.364 -2.7229  1.1521 -1.0959
 6776SOL     OW31786   1.195   3.071  16.059  0.2816 -0.1192  0.1224
 6776SOL    HW131787   1.265   3.097  15.999  1.8621 -2.4538  0.9513
 6776SOL    HW231788   1.115   3.056  16.009  0.3094  0.3818 -0.0733
 6777SOL     OW31789   4.383   1.249   9.437  0.0102  0.4352  0.7652
 6777SOL    HW131790   4.347   1.337   9.446  2.2079  1.2496  1.5956
 6777SOL    HW231791   4.470   1.266   9.471  0.2564  0.2717  0.2196
 6778SOL     OW31792   2.054   1.049   6.415 -0.5337  0.2935  0.5116
 6778SOL    HW131793   2.024   0.959   6.426 -0.8410  0.4350  0.8213
 6778SOL    HW231794   1.975   1.079   6.369 -0.8004  0.2204  0.9264
 6779SOL     OW31795   4.453   2.366   5.191 -0.3324 -0.4263  0.1680
 6779SOL    HW131796   4.466   2.334   5.281 -2.2948 -1.3542  0.1139
 6779SOL    HW231797   4.367   2.407   5.190  0.3578  0.9938 -1.2113
 6780SOL     OW31798   1.846   1.543   2.733  0.5668  0.0303  0.1388
 6780SOL    HW131799   1.923   1.524   2.786 -0.3733  2.3429  2.3479
 6780SOL    HW231800   1.876   1.624   2.693  0.3359  0.5825  1.0727
 6781SOL     OW31801   0.276   2.067   3.971  0.1592  0.0481  0.3091
 6781SOL    HW131802   0.216   2.012   3.920  0.3965  0.0799 -0.0045
 6781SOL    HW231803   0.335   2.087   3.899 -1.9205 -0.4149 -1.5284
 6782SOL     OW31804   3.030   1.937  16.619 -0.3028  0.2888 -0.0187
 6782SOL    HW131805   2.986   1.929  16.704 -0.9300 -1.6814 -0.5262
 6782SOL    HW231806   2.981   1.869  16.572  0.3593  0.0009 -0.2965
 6783SOL     OW31807   3.128   4.536   8.692  0.0799 -0.1473  0.3518
 6783SOL    HW131808   3.109   4.621   8.652  0.5665  0.2476  0.9768
 6783SOL    HW231809   3.100   4.478   8.620 -0.4553  1.5658 -0.8089
 6784SOL     OW31810   1.412   3.663   5.072 -0.1718  0.8852 -0.5162
 6784SOL    HW131811   1.394   3.638   5.163  2.9538  0.9402  0.1238
 6784SOL    HW231812   1.505   3.638   5.073  0.1952  2.3298  2.0074
 6785SOL     OW31813   4.076   2.856  11.578 -0.2202 -0.3161  0.3161
 6785SOL    HW131814   4.103   2.898  11.660 -1.0606  0.3154  0.2673
 6785SOL    HW231815   4.123   2.914  11.518 -0.9597 -0.3182 -0.2599
 6786SOL     OW31816   1.168   1.359  11.896  0.0165  0.1379  0.1745
 6786SOL    HW131817   1.218   1.380  11.975 -1.0607  1.9430  0.3766
 6786SOL    HW231818   1.083   1.398  11.917 -1.0006 -1.1792 -1.4245
 6787SOL     OW31819   1.494   4.031   4.429  0.4577 -0.2860  0.4756
 6787SOL    HW131820   1.536   4.111   4.461 -0.0001  0.1558 -0.0278
 6787SOL    HW231821   1.413   4.062   4.388  0.4972 -0.6615  0.1113
 6788SOL     OW31822   2.842   0.639   9.211  0.5771 -0.3411 -0.2209
 6788SOL    HW131823   2.813   0.711   9.156 -1.5498 -0.9644  0.0609
 6788SOL    HW231824   2.866   0.570   9.148 -0.5835 -0.8297 -0.1267
 6789SOL     OW31825   3.954   1.634   6.440  0.4168 -0.2701  0.3108
 6789SOL    HW131826   3.896   1.678   6.378  1.8976 -0.0425 -0.9141
 6789SOL    HW231827   4.033   1.605   6.394 -0.6501 -0.7449 -1.2384
 6790SOL     OW31828   0.758   1.366   6.653 -0.5662 -0.9115 -0.1051
 6790SOL    HW131829   0.775   1.347   6.561  0.4781 -5.2910  0.9827
 6790SOL    HW231830   0.818   1.312   6.705  0.0576 -0.1637 -0.0541
 6791SOL     OW31831   2.547   1.289   3.341  0.6012 -0.4688  0.5606
 6791SOL    HW131832   2.617   1.355   3.343 -0.1392  0.3608 -0.6389
 6791SOL    HW231833   2.587   1.215   3.294 -0.4622 -0.5036 -0.2859
 6792SOL     OW31834   3.829   2.370   3.307  0.1307 -0.1802 -0.1291
 6792SOL    HW131835   3.744   2.411   3.296 -1.0187 -2.9783 -1.7882
 6792SOL    HW231836   3.881   2.450   3.297 -0.7727  0.6182  1.5037
 6793SOL     OW31837   0.409   1.646   3.500 -0.2487 -0.2975  0.4894
 6793SOL    HW131838   0.397   1.648   3.405 -0.3555  0.0253  0.5085
 6793SOL    HW231839   0.336   1.700   3.533 -1.7095 -0.9450 -1.6959
 6794SOL     OW31840   4.427   1.459  14.350 -0.8589 -0.9345  0.1119
 6794SOL    HW131841   4.332   1.459  14.336 -0.2953  1.5370 -3.5976
 6794SOL    HW231842   4.459   1.407  14.276  0.5177  1.0106 -0.6361
 6795SOL     OW31843   4.076   4.261   2.166 -0.2459 -0.1758  0.4310
 6795SOL    HW131844   4.090   4.330   2.102  0.2587  1.5771  2.4510
 6795SOL    HW231845   4.167   4.256   2.194  0.4823 -2.0531 -2.2554
 6796SOL     OW31846   3.280   0.241   4.580 -0.5352 -0.0583  0.1795
 6796SOL    HW131847   3.267   0.286   4.664 -0.2997 -2.1619  1.3445
 6796SOL    HW231848   3.375   0.231   4.584 -0.6037 -0.2223  1.6026
 6797SOL     OW31849   1.038   4.218   5.549  0.2099 -0.1126 -0.2791
 6797SOL    HW131850   1.002   4.200   5.462 -0.9762 -2.4920  0.6939
 6797SOL    HW231851   0.977   4.285   5.581  0.0419  0.2467 -1.3505
 6798SOL     OW31852   0.871   4.423   4.771 -0.3826  0.5343  0.1464
 6798SOL    HW131853   0.832   4.499   4.813  0.2569 -0.7484  3.0142
 6798SOL    HW231854   0.860   4.451   4.680  0.2770  0.9806  0.2095
 6799SOL     OW31855   2.497   0.223   2.346  0.0255  0.4146 -0.1266
 6799SOL    HW131856   2.456   0.198   2.429  1.0839 -0.8863  0.0062
 6799SOL    HW231857   2.470   0.154   2.285 -1.0591 -0.2220  1.0780
 6800SOL     OW31858   1.660   1.530  11.124  0.4425  0.5497 -0.2947
 6800SOL    HW131859   1.747   1.533  11.084  0.7172 -0.4020  0.2412
 6800SOL    HW231860   1.676   1.493  11.211  0.1726 -1.2654 -1.0342
 6801SOL     OW31861   2.728   2.678  14.520  0.2023  0.2391 -0.2821
 6801SOL    HW131862   2.715   2.586  14.500  0.1067  0.0622  0.5910
 6801SOL    HW231863   2.712   2.677  14.615 -0.5035 -3.0026 -0.4464
 6802SOL     OW31864   3.232   1.595   6.856  0.3683 -0.2182 -0.6736
 6802SOL    HW131865   3.281   1.597   6.938 -2.1304 -2.5240  0.8748
 6802SOL    HW231866   3.306   1.567   6.801  0.1401 -0.3982 -0.8865
 6803SOL     OW31867   3.023   0.360   7.370  0.1881 -0.2860 -0.3496
 6803SOL    HW131868   3.024   0.451   7.400 -1.1101 -0.5107  0.4067
 6803SOL    HW231869   2.931   0.340   7.353  0.2272  0.4640 -1.3522
 6804SOL     OW31870   4.179   2.064   2.378  0.0975  0.4679 -0.4944
 6804SOL    HW131871   4.243   2.133   2.395 -0.2389  0.3857  1.0896
 6804SOL    HW231872   4.101   2.115   2.356 -0.4554 -1.3641 -2.7991
 6805SOL     OW31873   2.041   0.235   4.839 -0.0657  0.0422 -0.3280
 6805SOL    HW131874   2.031   0.206   4.930 -1.1717 -0.1835 -0.5216
 6805SOL    HW231875   2.048   0.148   4.800  2.1565  0.8598 -1.7805
 6806SOL     OW31876   0.662   2.127   5.812 -0.5679  0.7819  0.2564
 6806SOL    HW131877   0.636   2.063   5.746  0.5365  1.0921 -0.4780
 6806SOL    HW231878   0.730   2.086   5.865 -0.0061  0.2632 -0.8681
 6807SOL     OW31879   4.658   3.613   3.002 -0.1703 -0.4364  0.0271
 6807SOL    HW131880   4.647   3.579   3.091  1.4500  0.7433  0.6844
 6807SOL    HW231881   4.654   3.534   2.948 -0.7026 -1.4924  1.6097
 6808SOL     OW31882   2.198   0.593  14.662 -0.1942  0.0401  0.0685
 6808SOL    HW131883   2.161   0.631  14.742 -0.5475  1.5945 -0.8387
 6808SOL    HW231884   2.266   0.656  14.640 -0.3467  0.1227 -0.1666
 6809SOL     OW31885   4.477   0.017   7.526 -0.3336 -0.2264  0.0948
 6809SOL    HW131886   4.478   4.646   7.529 -1.2689 -0.2121  0.8161
 6809SOL    HW231887   4.504   0.021   7.435 -1.3152 -0.5442 -0.2082
 6810SOL     OW31888   0.649   1.761   0.498 -0.4513  0.0724 -0.1610
 6810SOL    HW131889   0.648   1.854   0.521 -1.1824  0.2287 -0.8343
 6810SOL    HW231890   0.615   1.758   0.409  0.3933 -0.4557 -0.4693
 6811SOL     OW31891   4.452   1.668   5.373  0.6009 -0.0555  0.1832
 6811SOL    HW131892   4.484   1.628   5.292  1.6659  0.7618  0.1866
 6811SOL    HW231893   4.389   1.606   5.408  2.1002 -0.2273  2.5791
 6812SOL     OW31894   2.652   0.632   3.092 -0.3577 -0.1784  0.3307
 6812SOL    HW131895   2.607   0.579   3.027  1.8344  2.8659 -3.6668
 6812SOL    HW231896   2.719   0.671   3.036 -0.5119  0.2207  0.4193
 6813SOL     OW31897   3.161   3.853   2.985  0.6184 -0.8027 -0.1312
 6813SOL    HW131898   3.237   3.855   2.927  0.3300  1.2588 -0.4374
 6813SOL    HW231899   3.207   3.799   3.049 -0.1233 -1.0831  0.1557
 6814SOL     OW31900   4.533   4.343  17.249 -0.0166 -0.0211 -0.0389
 6814SOL    HW131901   4.588   4.421  17.241 -0.0283 -0.0727 -0.6208
 6814SOL    HW231902   4.444   4.377  17.240  0.6920  2.3759  2.1099
 6815SOL     OW31903   3.299   4.460   5.960  1.2118  0.2126 -0.0443
 6815SOL    HW131904   3.388   4.467   5.995  2.2596 -2.5431 -2.1785
 6815SOL    HW231905   3.247   4.507   6.026  1.8058 -0.0492  0.5999
 6816SOL     OW31906   1.005   1.857   0.751  0.5943 -0.3731 -0.4081
 6816SOL    HW131907   0.994   1.889   0.661  0.8603 -0.5371 -0.4964
 6816SOL    HW231908   0.918   1.861   0.792 -0.3664 -0.4382 -2.4052
 6817SOL     OW31909   0.800   4.383  14.743 -0.0138  1.0667  0.8966
 6817SOL    HW131910   0.790   4.304  14.796  1.0763 -0.2266 -0.7894
 6817SOL    HW231911   0.744   4.441  14.794 -0.7908  0.1375  1.0937
 6818SOL     OW31912   0.778   3.563  15.860  0.3273 -0.6357 -0.3311
 6818SOL    HW131913   0.790   3.607  15.944  0.3844 -1.1407 -0.0712
 6818SOL    HW231914   0.863   3.522  15.845  0.7787  0.0818  0.2988
 6819SOL     OW31915   3.538   0.432   4.297  0.5612 -0.2131  0.3305
 6819SOL    HW131916   3.545   0.336   4.299 -0.1934 -0.2441  1.7797
 6819SOL    HW231917   3.633   0.443   4.302  0.3379  1.0957  1.4848
 6820SOL     OW31918   1.806   1.690   6.387 -0.1446 -0.6921  0.5637
 6820SOL    HW131919   1.786   1.601   6.358  0.4359 -0.7465  0.3337
 6820SOL    HW231920   1.863   1.678   6.463  2.4273  0.3967 -1.1959
 6821SOL     OW31921   1.504   3.402  14.468  0.1949  0.3279 -0.2127
 6821SOL    HW131922   1.535   3.364  14.386 -3.2468 -0.0131 -1.3940
 6821SOL    HW231923   1.408   3.403  14.462  0.1943 -0.4984 -0.2919
 6822SOL     OW31924   3.585   0.821   7.793  0.3507 -0.1368 -0.4577
 6822SOL    HW131925   3.649   0.869   7.741 -1.1806  0.2510 -1.9550
 6822SOL    HW231926   3.634   0.752   7.838  2.6232  2.0465  0.4167
 6823SOL     OW31927   0.072   2.335  15.353 -0.4276  0.1064  0.3788
 6823SOL    HW131928   0.088   2.262  15.413 -3.2831  0.5325  1.6726
 6823SOL    HW231929   0.154   2.383  15.363  0.2637 -1.4047  1.7737
 6824SOL     OW31930   2.287   1.394   7.007 -0.6210  0.1470  0.7614
 6824SOL    HW131931   2.332   1.467   7.049  0.2190 -0.7771  1.4883
 6824SOL    HW231932   2.272   1.330   7.077 -0.1149 -0.1562  0.5877
 6825SOL     OW31933   3.989   0.591   6.419  0.4918  0.9236  0.0048
 6825SOL    HW131934   4.059   0.654   6.403  1.1386  0.4882  1.1736
 6825SOL    HW231935   4.017   0.576   6.509  1.3503  2.5348  0.0094
 6826SOL     OW31936   1.750   0.725   7.110  0.2008 -0.7580 -0.3342
 6826SOL    HW131937   1.841   0.695   7.111  0.7185  0.9583  2.8261
 6826SOL    HW231938   1.754   0.804   7.057 -1.5478 -1.1855 -1.1149
 6827SOL     OW31939   0.385   3.015   4.415  0.2411  0.1151  0.6658
 6827SOL    HW131940   0.474   3.018   4.380 -0.6553  0.3860 -1.5956
 6827SOL    HW231941   0.373   2.920   4.417  1.3884 -0.0896 -1.7053
 6828SOL     OW31942   0.564   1.984   9.746  0.0625  0.5678 -0.2668
 6828SOL    HW131943   0.572   2.077   9.770 -0.5187  1.4790 -3.6460
 6828SOL    HW231944   0.529   1.990   9.657 -1.6193 -0.6520  0.3257
 6829SOL     OW31945   1.326   4.270   3.703 -0.0812  0.0614 -0.4914
 6829SOL    HW131946   1.295   4.355   3.672 -1.0949  0.0830  0.5405
 6829SOL    HW231947   1.393   4.250   3.638  1.3947  1.3526  0.6252
 6830SOL     OW31948   0.771   0.278  10.048  0.1586  0.2544 -0.2942
 6830SOL    HW131949   0.854   0.303  10.007 -0.0881 -1.5240 -1.8978
 6830SOL    HW231950   0.750   0.358  10.095  0.2112  0.4105 -0.5357
 6831SOL     OW31951   1.711   3.541  16.430 -0.3929 -0.2343 -0.0410
 6831SOL    HW131952   1.711   3.560  16.524  0.1588 -1.7914  0.2697
 6831SOL    HW231953   1.805   3.538  16.416 -0.8274 -0.9831 -2.8464
 6832SOL     OW31954   2.884   4.077  14.254  0.0674 -0.4385  0.4158
 6832SOL    HW131955   2.969   4.078  14.297  0.2882  0.9672 -0.0576
 6832SOL    HW231956   2.822   4.025  14.306  0.7899  0.8516  2.5587
 6833SOL     OW31957   2.612   4.556   4.350 -0.9523 -0.0545  0.4909
 6833SOL    HW131958   2.607   4.460   4.347  1.7715 -0.1311 -1.3941
 6833SOL    HW231959   2.534   4.582   4.399 -1.6129 -2.1315  0.5440
 6834SOL     OW31960   1.404   4.063   9.155  0.1684 -0.2364 -0.0053
 6834SOL    HW131961   1.334   4.001   9.132  1.3370 -1.0728 -1.3586
 6834SOL    HW231962   1.412   4.054   9.250  0.9038 -3.7895 -0.3764
 6835SOL     OW31963   2.327   1.275   7.434  0.0512  0.2118 -0.1143
 6835SOL    HW131964   2.385   1.218   7.484  0.5410  1.2673  0.5329
 6835SOL    HW231965   2.299   1.219   7.362 -0.2504  1.2726 -0.8183
 6836SOL     OW31966   1.961   2.403   6.996 -0.0384 -0.1251  0.0473
 6836SOL    HW131967   2.007   2.379   6.916 -2.7738 -0.6011 -1.3896
 6836SOL    HW231968   1.984   2.495   7.007 -2.9709  0.5646  0.4121
 6837SOL     OW31969   0.221   0.197   1.966  0.0027  0.2402  0.2833
 6837SOL    HW131970   0.276   0.157   1.899  1.8485  1.2715  1.1610
 6837SOL    HW231971   0.213   0.289   1.940 -1.6800 -0.0405 -0.1704
 6838SOL     OW31972   1.442   0.789   6.875 -0.4342  0.1981  0.4634
 6838SOL    HW131973   1.391   0.713   6.902 -0.0109  0.4436  1.9686
 6838SOL    HW231974   1.396   0.849   6.933  0.8470  2.2980 -0.6918
 6839SOL     OW31975   3.415   3.080   7.670 -0.1373 -0.0018  0.1587
 6839SOL    HW131976   3.347   3.034   7.621 -0.2804 -0.2418  0.5832
 6839SOL    HW231977   3.386   3.170   7.682  0.1521  0.2247 -0.8502
 6840SOL     OW31978   1.465   4.275   1.569 -0.2645  0.5890  0.5516
 6840SOL    HW131979   1.507   4.329   1.635  1.5487  0.2899 -0.3570
 6840SOL    HW231980   1.422   4.222   1.636 -0.3028  1.0398  0.8820
 6841SOL     OW31981   0.781   4.190   4.156 -0.0780  0.0091 -0.2686
 6841SOL    HW131982   0.777   4.192   4.252  0.5393  1.4929 -0.2743
 6841SOL    HW231983   0.831   4.109   4.147 -0.6549 -0.5831  1.7389
 6842SOL     OW31984   0.169   0.398  15.336  0.3627  0.4675 -0.2442
 6842SOL    HW131985   0.120   0.382  15.417  1.8659  0.9495  0.7546
 6842SOL    HW231986   0.256   0.386  15.373  0.7791  1.2172 -0.9969
 6843SOL     OW31987   0.599   0.744   5.940  0.1686  0.1778  0.0531
 6843SOL    HW131988   0.653   0.770   6.015  0.5538  0.7096 -0.4074
 6843SOL    HW231989   0.565   0.829   5.913  0.0026  0.2555  0.5163
 6844SOL     OW31990   2.317   1.884   4.863 -0.0553  0.0265 -0.2211
 6844SOL    HW131991   2.360   1.920   4.941 -1.6444 -1.2691  1.2593
 6844SOL    HW231992   2.352   1.939   4.793 -0.2588 -0.2825 -0.5661
 6845SOL     OW31993   4.446   1.824  10.279  0.2860 -0.5535 -0.1574
 6845SOL    HW131994   4.404   1.907  10.300  0.4655 -0.5787  0.3005
 6845SOL    HW231995   4.370   1.767  10.292 -0.8039  0.7507 -0.7698
 6846SOL     OW31996   2.823   1.974  13.017 -0.7765  0.0669 -0.4785
 6846SOL    HW131997   2.891   1.955  13.083 -2.1304 -1.5038  0.4744
 6846SOL    HW231998   2.865   1.946  12.936 -2.7133 -1.6339 -0.9020
 6847SOL     OW31999   3.688   0.071   7.297 -0.4041  0.2835 -0.3913
 6847SOL    HW132000   3.685   4.700   7.301  1.0568  0.2144 -0.8515
 6847SOL    HW232001   3.594   0.084   7.306 -0.4694 -1.6828  1.8229
 6848SOL     OW32002   0.794   0.698   4.761 -0.1976 -0.0452 -0.0910
 6848SOL    HW132003   0.830   0.768   4.815 -1.0013  1.6102 -1.7258
 6848SOL    HW232004   0.788   0.736   4.674 -0.4671  0.1251 -0.0003
 6849SOL     OW32005   3.936   0.635   2.806  0.0085  0.6238 -0.2157
 6849SOL    HW132006   3.948   0.561   2.866  0.2178 -0.3564 -1.4691
 6849SOL    HW232007   3.845   0.658   2.826 -0.0862 -0.6606  0.7930
 6850SOL     OW32008   2.020   2.098  12.669  0.5335 -0.1009 -0.1053
 6850SOL    HW132009   2.101   2.138  12.637  0.0887 -1.1616 -2.5512
 6850SOL    HW232010   2.043   2.058  12.754 -1.7793 -2.2572 -0.5041
 6851SOL     OW32011   2.890   3.670  16.844 -0.3291  0.1996  0.1548
 6851SOL    HW132012   2.908   3.577  16.860 -1.3126  0.1570  1.0653
 6851SOL    HW232013   2.864   3.701  16.931  0.7521  0.0062  0.5492
 6852SOL     OW32014   2.239   1.180  15.051  0.9210 -0.1354 -0.2328
 6852SOL    HW132015   2.147   1.182  15.024  0.8438  0.7713  0.1014
 6852SOL    HW232016   2.256   1.091  15.081 -2.3573  0.4135  3.2470
 6853SOL     OW32017   3.376   3.533   5.662 -0.9392  0.2846  0.2688
 6853SOL    HW132018   3.433   3.505   5.591  0.5859 -1.7291  2.2770
 6853SOL    HW232019   3.428   3.606   5.695 -0.8302  0.0466  0.6360
 6854SOL     OW32020   2.297   3.297   8.232  0.5582 -0.6108 -0.5813
 6854SOL    HW132021   2.240   3.371   8.248  2.6526  1.0978 -0.9966
 6854SOL    HW232022   2.239   3.257   8.167  0.7771 -1.4575 -0.2609
 6855SOL     OW32023   2.381   3.279   3.430 -0.3751  0.8651 -0.3080
 6855SOL    HW132024   2.369   3.186   3.448  0.8410  1.0552  1.5548
 6855SOL    HW232025   2.335   3.285   3.347  0.5048  1.5790 -0.7518
 6856SOL     OW32026   1.005   3.815   2.844  0.3078  0.2490 -0.4599
 6856SOL    HW132027   1.028   3.791   2.934  0.4424  1.4250 -0.1770
 6856SOL    HW232028   1.090   3.843   2.811  1.5534 -1.5309  1.2341
 6857SOL     OW32029   1.538   1.602   1.866 -0.0011 -0.3464  0.4075
 6857SOL    HW132030   1.579   1.688   1.867  0.1759 -0.4479  1.9082
 6857SOL    HW232031   1.613   1.544   1.852 -0.5201 -0.9198 -0.0103
 6858SOL     OW32032   4.073   3.845   7.675 -0.1761 -0.3550  0.2126
 6858SOL    HW132033   4.024   3.766   7.653 -0.8958  0.3189 -0.6403
 6858SOL    HW232034   4.121   3.860   7.593  0.9440  0.1845  0.9580
 6859SOL     OW32035   0.526   0.003   5.271 -0.5260 -0.2911 -0.9379
 6859SOL    HW132036   0.450   0.059   5.286 -0.8827 -0.4712 -2.0582
 6859SOL    HW232037   0.556   0.050   5.193  2.1786  1.4925  1.1917
 6860SOL     OW32038   2.202   2.700  13.089  0.4142 -0.5416 -0.5955
 6860SOL    HW132039   2.251   2.633  13.042  0.0334 -1.1277 -0.1526
 6860SOL    HW232040   2.124   2.710  13.034  0.4689  1.0209 -0.4035
 6861SOL     OW32041   2.139   2.822   3.993  0.1407  0.2782  0.5394
 6861SOL    HW132042   2.183   2.796   3.912  1.0336 -0.8947  1.3961
 6861SOL    HW232043   2.091   2.744   4.021 -0.9923  0.7688 -0.0511
 6862SOL     OW32044   0.024   1.806   1.958 -0.0667 -0.2201 -0.3424
 6862SOL    HW132045   0.103   1.787   1.906 -0.2709  1.3634 -1.2312
 6862SOL    HW232046   4.686   1.758   1.902 -0.3225  0.4744 -0.6507
 6863SOL     OW32047   4.022   1.197   5.366  0.4362 -0.5561 -0.0825
 6863SOL    HW132048   3.948   1.244   5.326  0.0314 -1.6386 -0.6055
 6863SOL    HW232049   3.988   1.134   5.429 -2.2367  0.1064 -0.8674
 6864SOL     OW32050   3.086   1.069   0.143  0.3837  0.5778  0.3605
 6864SOL    HW132051   3.079   1.001   0.210 -0.8143  1.3404  1.0256
 6864SOL    HW232052   3.103   1.151   0.190 -0.8044  0.4518  1.0299
 6865SOL     OW32053   4.120   1.237   2.827  0.0689  0.0799 -0.3057
 6865SOL    HW132054   4.047   1.273   2.776  1.1834 -0.9810 -2.6608
 6865SOL    HW232055   4.073   1.203   2.903  0.9028 -0.9249 -0.2323
 6866SOL     OW32056   4.032   3.068   1.624  0.4361  0.0492  0.6882
 6866SOL    HW132057   3.940   3.091   1.636  0.0193 -0.0385 -2.2260
 6866SOL    HW232058   4.031   2.973   1.615  1.1247  0.0616  0.4559
 6867SOL     OW32059   0.108   4.536  10.194  0.1381 -0.3165 -0.3025
 6867SOL    HW132060   0.083   4.551  10.286 -1.2508  1.7196 -1.0162
 6867SOL    HW232061   0.032   4.576  10.153  1.4333  2.3504 -0.1291
 6868SOL     OW32062   1.376   2.737   0.705  0.3783  0.2753  0.6057
 6868SOL    HW132063   1.366   2.823   0.744 -2.3011 -0.2838  1.1651
 6868SOL    HW232064   1.405   2.702   0.790 -2.5020 -1.3062  0.9267
 6869SOL     OW32065   2.260   3.708   6.385 -0.4221  0.0915 -0.3341
 6869SOL    HW132066   2.257   3.711   6.289 -0.8761  3.3315 -0.2079
 6869SOL    HW232067   2.171   3.676   6.400 -0.2382 -1.2474 -2.0128
 6870SOL     OW32068   1.053   1.727   4.299  0.8282 -0.2686  0.5546
 6870SOL    HW132069   1.129   1.762   4.253 -1.2505  3.5667 -0.0121
 6870SOL    HW232070   1.035   1.801   4.358  1.5317  0.2055  0.1730
 6871SOL     OW32071   2.908   2.452   7.733 -0.1888  0.1071  0.3444
 6871SOL    HW132072   2.835   2.463   7.795 -0.6940  0.7596 -0.3752
 6871SOL    HW232073   2.966   2.400   7.789  0.8155  1.9044  0.9926
 6872SOL     OW32074   3.547   3.311   2.914  0.3615  0.1439  0.3453
 6872SOL    HW132075   3.503   3.379   2.966  1.0226  0.3536  0.6410
 6872SOL    HW232076   3.473   3.250   2.917  1.0616 -0.7108  0.0785
 6873SOL     OW32077   3.578   1.897   1.457  0.2925  0.4340 -0.0146
 6873SOL    HW132078   3.572   1.897   1.362 -2.2982 -0.6047  0.1640
 6873SOL    HW232079   3.671   1.917   1.470  0.1042  1.4704 -0.2047
 6874SOL     OW32080   4.714   2.388  13.056 -0.4287 -0.3643  0.3809
 6874SOL    HW132081   4.714   2.361  12.965  1.1183 -0.4321  0.3988
 6874SOL    HW232082   4.620   2.394  13.073 -0.7090 -0.4115 -1.1854
 6875SOL     OW32083   3.182   4.225   8.038 -0.7048  0.0017  0.2965
 6875SOL    HW132084   3.138   4.141   8.026  2.3824 -1.4165 -1.1100
 6875SOL    HW232085   3.223   4.242   7.953 -1.2248  0.2524  0.0913
 6876SOL     OW32086   3.478   3.495  15.982 -0.5099  0.1982  0.4130
 6876SOL    HW132087   3.471   3.450  16.066  2.0556 -0.8254  0.0714
 6876SOL    HW232088   3.548   3.552  16.014  1.3953 -0.8392 -1.9551
 6877SOL     OW32089   0.409   1.578   7.445  0.4622  0.1778  0.1657
 6877SOL    HW132090   0.472   1.648   7.429  0.0348  0.8294  1.2795
 6877SOL    HW232091   0.339   1.610   7.389  1.0373 -0.4868 -0.9367
 6878SOL     OW32092   1.123   4.384   7.571  0.6285 -0.2899 -0.0969
 6878SOL    HW132093   1.073   4.426   7.501  0.7032  0.6619  0.4223
 6878SOL    HW232094   1.175   4.321   7.521 -0.2982 -0.7582 -0.4590
 6879SOL     OW32095   2.160   0.662   8.210  0.4331  0.4172 -0.1458
 6879SOL    HW132096   2.141   0.736   8.268  0.9780 -0.4072  1.0842
 6879SOL    HW232097   2.085   0.606   8.231  0.4405  0.0442 -1.1284
 6880SOL     OW32098   0.656   1.784  10.340  0.2985  0.0902  0.4771
 6880SOL    HW132099   0.704   1.844  10.397  1.5906  0.2657 -0.8045
 6880SOL    HW232100   0.727   1.751  10.285 -0.1868  1.7138 -1.1209
 6881SOL     OW32101   0.805   1.827   1.906  0.0909 -0.3848  0.2250
 6881SOL    HW132102   0.891   1.792   1.931 -0.1965 -0.3757  1.2234
 6881SOL    HW232103   0.831   1.873   1.826  0.5860  1.7495  1.6081
 6882SOL     OW32104   2.387   0.547   8.289  0.2105 -0.1285 -0.3032
 6882SOL    HW132105   2.441   0.611   8.336  2.3786 -0.8671 -1.7933
 6882SOL    HW232106   2.311   0.605   8.294  0.3459  0.0383 -0.1602
 6883SOL     OW32107   1.948   3.368   2.314 -0.2594  0.1510 -0.0740
 6883SOL    HW132108   2.020   3.424   2.285  0.2320 -1.6525 -2.3398
 6883SOL    HW232109   1.987   3.281   2.313  0.7761  0.6041  1.5267
 6884SOL     OW32110   1.680   4.078  10.580  0.0983 -0.3820 -0.0748
 6884SOL    HW132111   1.610   4.031  10.627  0.9902  0.1160  1.7433
 6884SOL    HW232112   1.673   4.053  10.488 -0.6507  0.1191 -0.1518
 6885SOL     OW32113   2.331   3.683  15.817  0.3566 -0.2364  0.0663
 6885SOL    HW132114   2.369   3.595  15.821  2.5277  0.8447  2.6954
 6885SOL    HW232115   2.364   3.725  15.896 -2.1619 -1.1589  1.5870
 6886SOL     OW32116   0.950   0.136   1.816  0.2748  0.6333 -0.2794
 6886SOL    HW132117   1.039   0.120   1.849 -0.7198 -2.0743  1.0952
 6886SOL    HW232118   0.962   0.113   1.724 -1.1477  0.2273 -0.3617
 6887SOL     OW32119   4.221   0.382   9.975  0.4276 -0.1802  0.9855
 6887SOL    HW132120   4.219   0.359  10.067  1.6372 -0.2358  1.0030
 6887SOL    HW232121   4.283   0.455   9.985 -0.0568  0.2522  0.7994
 6888SOL     OW32122   0.324   3.780  13.031  0.3176  0.2016  0.1298
 6888SOL    HW132123   0.240   3.744  13.058  0.2681  0.1637 -0.0745
 6888SOL    HW232124   0.296   3.816  12.947 -0.5036 -0.3725  0.1638
 6889SOL     OW32125   2.386   1.692   3.439 -0.0134 -0.1389  0.5250
 6889SOL    HW132126   2.344   1.620   3.393 -0.4935  0.9920 -0.8055
 6889SOL    HW232127   2.391   1.669   3.532  2.2868  0.2733  0.5218
 6890SOL     OW32128   2.472   0.855   8.205  0.5567  0.5329  0.4695
 6890SOL    HW132129   2.531   0.779   8.208 -0.5190 -0.3282  0.0525
 6890SOL    HW232130   2.481   0.891   8.293  0.8019  3.2093 -0.6701
 6891SOL     OW32131   0.360   3.699  17.050  0.1429 -0.1246  0.6188
 6891SOL    HW132132   0.409   3.778  17.028  1.1940  0.0232  3.6081
 6891SOL    HW232133   0.269   3.730  17.053  1.0077  2.6074 -1.1860
 6892SOL     OW32134   1.288   3.757   7.613 -0.0321  0.3950  0.2117
 6892SOL    HW132135   1.341   3.764   7.533 -0.9303 -2.0124 -0.5925
 6892SOL    HW232136   1.257   3.668   7.600  1.1048  0.1399 -0.8142
 6893SOL     OW32137   0.704   1.212   0.755 -0.2520  0.2921  0.2893
 6893SOL    HW132138   0.742   1.126   0.737  0.6363  0.6199  0.5481
 6893SOL    HW232139   0.776   1.275   0.758  0.0015 -0.0431  1.5222
 6894SOL     OW32140   2.455   3.749  12.600  0.2323  0.0187 -0.8570
 6894SOL    HW132141   2.382   3.693  12.626  1.4406 -0.2526  1.9551
 6894SOL    HW232142   2.405   3.811  12.548 -0.4433 -0.9117 -1.3154
 6895SOL     OW32143   0.255   2.684  13.058  0.2895  0.6282  0.1637
 6895SOL    HW132144   0.318   2.614  13.079  1.3416  0.4260 -3.5962
 6895SOL    HW232145   0.311   2.759  13.078  0.3833 -0.0481  2.4199
 6896SOL     OW32146   1.131   3.960   3.351  0.8711 -0.4279  0.1597
 6896SOL    HW132147   1.224   3.976   3.367  0.7296  0.8152 -0.2146
 6896SOL    HW232148   1.085   4.039   3.380 -2.3335 -1.6977 -1.4738
 6897SOL     OW32149   4.550   3.558   0.368 -0.0812  0.3453 -0.3233
 6897SOL    HW132150   4.639   3.539   0.337  0.5111 -0.6650  2.0305
 6897SOL    HW232151   4.511   3.588   0.286  0.6350 -1.5305 -1.3693
 6898SOL     OW32152   1.565   0.466   1.679 -0.1907 -0.5566 -0.3319
 6898SOL    HW132153   1.533   0.407   1.611 -0.5725 -0.2410 -0.4255
 6898SOL    HW232154   1.494   0.529   1.667  0.3633 -0.0576 -0.9878
 6899SOL     OW32155   4.320   0.250   5.742  0.3677  0.5449  0.0439
 6899SOL    HW132156   4.349   0.285   5.658  1.9897 -1.7860 -0.3581
 6899SOL    HW232157   4.399   0.202   5.768 -0.2368  0.8595  2.4658
 6900SOL     OW32158   4.141   0.485   8.829 -0.7428  0.2135  0.5284
 6900SOL    HW132159   4.175   0.396   8.822 -1.9078 -0.3161  1.5508
 6900SOL    HW232160   4.096   0.487   8.914 -0.8420 -4.2704  0.5743
 6901SOL     OW32161   3.189   1.944   7.917 -0.0520 -0.2630 -0.0299
 6901SOL    HW132162   3.212   1.918   8.006  2.3317  0.7229 -0.3733
 6901SOL    HW232163   3.258   2.005   7.891 -1.0555  0.0625 -1.9230
 6902SOL     OW32164   0.383   3.146  17.379 -0.0640 -0.0578 -0.0919
 6902SOL    HW132165   0.363   3.062  17.339 -1.1580  0.6422 -0.9804
 6902SOL    HW232166   0.323   3.143  17.453 -1.0387  0.2046 -0.8776
 6903SOL     OW32167   1.174   2.956   0.986 -0.0074  0.0977  0.1381
 6903SOL    HW132168   1.098   2.933   1.040 -0.2928  1.6069  0.3848
 6903SOL    HW232169   1.133   3.014   0.922  0.9877  1.8439  1.0949
 6904SOL     OW32170   0.688   2.057   0.263  0.0190 -0.6151  0.2082
 6904SOL    HW132171   0.783   2.064   0.275 -0.0258  2.4813 -1.2301
 6904SOL    HW232172   0.646   2.114   0.326  2.3881  1.7736 -0.3915
 6905SOL     OW32173   0.238   0.751  16.647  0.0661 -0.0001 -0.0400
 6905SOL    HW132174   0.168   0.735  16.710  0.6295 -0.8455  0.3693
 6905SOL    HW232175   0.282   0.670  16.622  0.0789  0.6504 -2.1381
 6906SOL     OW32176   2.580   3.109  15.285  0.1293 -0.2798  0.3519
 6906SOL    HW132177   2.578   3.174  15.355  0.4387 -1.6140  1.6117
 6906SOL    HW232178   2.558   3.172  15.216 -0.3621 -0.0277  0.7431
 6907SOL     OW32179   3.623   2.428   7.600 -0.3269  0.2820 -0.1293
 6907SOL    HW132180   3.540   2.385   7.579  0.1671 -0.6098 -0.2306
 6907SOL    HW232181   3.684   2.415   7.527  0.7893  1.3373  0.5999
 6908SOL     OW32182   2.722   3.420   0.646  0.4561 -0.1242 -0.6289
 6908SOL    HW132183   2.723   3.425   0.742 -1.9343 -0.0205 -0.6009
 6908SOL    HW232184   2.799   3.365   0.638 -0.3610 -1.2344 -0.9058
 6909SOL     OW32185   0.072   4.067   8.562  0.0032  0.4527 -0.4490
 6909SOL    HW132186   0.047   3.977   8.581  1.1019 -0.2019 -2.1183
 6909SOL    HW232187   0.035   4.078   8.474 -0.3031 -1.2925 -0.5411
 6910SOL     OW32188   3.551   0.254   4.595  0.4115  0.0823 -0.1805
 6910SOL    HW132189   3.632   0.272   4.547  1.2660 -0.0964  1.1867
 6910SOL    HW232190   3.572   0.169   4.635  1.4515 -0.8222 -2.6847
 6911SOL     OW32191   1.721   2.250   4.990  0.0942 -0.0214  0.1254
 6911SOL    HW132192   1.722   2.238   5.085  1.1791 -0.8814  0.0057
 6911SOL    HW232193   1.629   2.238   4.969  0.2394  2.5096 -1.9879
 6912SOL     OW32194   0.642   3.630  12.158 -0.2499 -0.3276 -0.1365
 6912SOL    HW132195   0.653   3.566  12.088  0.5062 -0.9606  0.5480
 6912SOL    HW232196   0.697   3.699  12.122 -1.1645  0.8567  0.7296
 6913SOL     OW32197   2.651   1.145  16.472  0.1104  0.0679 -0.3597
 6913SOL    HW132198   2.717   1.210  16.447  1.0889 -1.3959 -1.6056
 6913SOL    HW232199   2.651   1.088  16.395 -1.0258 -1.1206  0.5174
 6914SOL     OW32200   4.249   3.057   3.095  0.3631 -0.8535  0.2112
 6914SOL    HW132201   4.170   3.069   3.042  1.0169  2.4398 -0.0187
 6914SOL    HW232202   4.322   3.058   3.033  0.4224 -1.6391  0.2741
 6915SOL     OW32203   0.296   2.039   2.053 -0.5715  0.3077  0.1365
 6915SOL    HW132204   0.243   1.963   2.030 -0.7303  0.1514  0.9875
 6915SOL    HW232205   0.361   2.021   1.985  0.9327 -4.3467  2.7672
 6916SOL     OW32206   3.376   2.604   4.116 -0.5578 -0.1101 -0.2303
 6916SOL    HW132207   3.377   2.603   4.212  0.3174  1.5917 -0.2245
 6916SOL    HW232208   3.427   2.529   4.087  0.6673  0.8311 -0.5115
 6917SOL     OW32209   1.681   4.287   1.151  0.0589 -0.2426  0.4918
 6917SOL    HW132210   1.721   4.212   1.197  0.7293  0.6287  1.3180
 6917SOL    HW232211   1.733   4.362   1.179  3.0000 -2.1735  0.2349
 6918SOL     OW32212   0.319   2.819   2.425 -0.3254  0.6237  0.5244
 6918SOL    HW132213   0.243   2.814   2.482 -0.8559 -0.9278 -0.3385
 6918SOL    HW232214   0.302   2.736   2.381 -0.5865  1.4911 -1.0065
 6919SOL     OW32215   0.225   0.646   4.475 -0.3411 -0.2634  0.5966
 6919SOL    HW132216   0.174   0.580   4.429  0.0976 -0.4409  0.3555
 6919SOL    HW232217   0.176   0.724   4.449  0.7644 -0.4428 -2.0736
 6920SOL     OW32218   0.402   3.948   9.769 -0.2659  0.5297 -0.1467
 6920SOL    HW132219   0.345   3.995   9.829  1.8719  0.8595  1.6200
 6920SOL    HW232220   0.444   3.891   9.833  0.8276  0.5588 -0.8367
 6921SOL     OW32221   1.716   2.102   9.787  0.0460 -0.5855  0.1648
 6921SOL    HW132222   1.664   2.141   9.717 -0.7232  0.7058  1.4617
 6921SOL    HW232223   1.758   2.031   9.738 -0.8012 -1.3621  0.5550
 6922SOL     OW32224   3.715   2.973   2.634  0.0186  0.1358  0.2383
 6922SOL    HW132225   3.624   2.986   2.606  0.1549  0.0437 -0.2483
 6922SOL    HW232226   3.714   3.006   2.724 -1.6097 -0.5596  0.4627
 6923SOL     OW32227   0.621   1.767   8.296 -0.1261 -0.2935 -0.3161
 6923SOL    HW132228   0.529   1.788   8.278 -0.5245 -0.8760  0.9983
 6923SOL    HW232229   0.613   1.685   8.344  0.8110 -1.2640 -1.8088
 6924SOL     OW32230   1.514   0.067  15.229  0.0528 -0.0108  0.2369
 6924SOL    HW132231   1.596   0.094  15.188  0.4631  1.1074  1.8084
 6924SOL    HW232232   1.534   0.094  15.319  0.6443  0.2995  0.0139
 6925SOL     OW32233   1.494   0.263   2.710 -0.1164  0.4508 -0.0195
 6925SOL    HW132234   1.485   0.358   2.723 -1.5834  0.2368  0.4498
 6925SOL    HW232235   1.424   0.243   2.648 -0.7347 -0.6568  1.0525
 6926SOL     OW32236   2.625   3.495   8.263 -0.0472  0.1534  0.4425
 6926SOL    HW132237   2.630   3.539   8.178  0.8277 -0.7762  0.0102
 6926SOL    HW232238   2.555   3.548   8.300 -0.2122  0.2527 -0.0153
 6927SOL     OW32239   2.633   0.065   5.500 -0.2553 -0.3461 -0.3116
 6927SOL    HW132240   2.702   0.051   5.436  0.1938  0.9589 -0.1158
 6927SOL    HW232241   2.565   0.104   5.445 -0.8018  0.5288  0.9787
 6928SOL     OW32242   4.282   0.964   3.826 -0.6873 -0.0620 -0.4635
 6928SOL    HW132243   4.196   0.958   3.786 -0.4170 -1.0426 -0.8998
 6928SOL    HW232244   4.335   0.906   3.771  0.0213  0.5123 -0.3969
 6929SOL     OW32245   1.536   4.615  14.145  0.4796  0.0936  0.1625
 6929SOL    HW132246   1.622   4.574  14.140  0.1626 -0.5939  0.2763
 6929SOL    HW232247   1.494   4.565  14.075 -0.8768  0.3360  0.8094
 6930SOL     OW32248   2.906   1.053  14.660 -0.4349 -0.5851  0.3645
 6930SOL    HW132249   2.941   0.968  14.632  1.7156  1.3746 -2.8990
 6930SOL    HW232250   2.943   1.101  14.586  0.7678  1.6498  2.4149
 6931SOL     OW32251   2.952   3.345   0.246 -0.3395  0.6236 -0.4321
 6931SOL    HW132252   2.906   3.295   0.312 -0.0427 -1.2297 -1.6453
 6931SOL    HW232253   3.008   3.276   0.210 -0.1369 -1.0140  3.0515
 6932SOL     OW32254   1.675   3.095   3.272 -0.4411 -0.7831  0.1131
 6932SOL    HW132255   1.661   3.086   3.178  0.7507  0.6981 -0.1915
 6932SOL    HW232256   1.744   3.032   3.295  0.8565  1.6529  2.9227
 6933SOL     OW32257   2.411   1.534   2.947  0.0499  0.2587  0.8029
 6933SOL    HW132258   2.338   1.553   3.006 -0.0005 -0.7051  1.0455
 6933SOL    HW232259   2.458   1.614   2.971 -0.1210  0.6848 -0.2711
 6934SOL     OW32260   3.019   4.128   8.500 -0.2506 -0.3959 -0.0041
 6934SOL    HW132261   3.092   4.070   8.481  0.5533  0.3410  0.8284
 6934SOL    HW232262   3.018   4.119   8.595  0.4836  0.7777  0.1206
 6935SOL     OW32263   0.522   0.665  16.117 -0.1334 -0.1078 -0.0205
 6935SOL    HW132264   0.557   0.576  16.118  0.5915  0.2177  2.2291
 6935SOL    HW232265   0.433   0.639  16.091 -0.0911  1.1680 -1.4633
 6936SOL     OW32266   4.589   1.890   4.418  0.0353  0.2567 -0.1264
 6936SOL    HW132267   4.513   1.937   4.385 -0.8431  0.1582  1.7843
 6936SOL    HW232268   4.657   1.929   4.363  0.3676 -1.9761 -1.3293
 6937SOL     OW32269   1.184   0.644   7.191 -0.6853 -0.0771 -0.5647
 6937SOL    HW132270   1.165   0.553   7.170  0.7644 -0.8712  1.5300
 6937SOL    HW232271   1.130   0.691   7.128  1.4007  1.2309 -1.3814
 6938SOL     OW32272   0.494   0.164   3.094 -0.0349  0.0961  0.3538
 6938SOL    HW132273   0.504   0.222   3.170  0.9473 -2.1639  1.9692
 6938SOL    HW232274   0.463   0.081   3.131 -0.5644  0.8377  1.5986
 6939SOL     OW32275   4.075   0.157   1.498  0.2369 -0.8722  0.5323
 6939SOL    HW132276   4.063   0.178   1.591  0.7804  0.5276  0.2887
 6939SOL    HW232277   4.160   0.114   1.499  0.6462 -0.0635  1.0885
 6940SOL     OW32278   3.995   3.216  16.225 -0.7874 -0.2952 -0.3999
 6940SOL    HW132279   4.049   3.292  16.204  0.0108 -0.9998 -0.8786
 6940SOL    HW232280   3.928   3.253  16.282  1.4181  0.8566  1.4479
 6941SOL     OW32281   3.730   4.588  10.615  0.1611  0.1669 -0.4729
 6941SOL    HW132282   3.724   4.493  10.620 -1.5034  0.2379 -1.2777
 6941SOL    HW232283   3.696   4.610  10.528 -0.7467  0.6810  0.0062
 6942SOL     OW32284   0.580   1.285   3.075 -0.2403  0.3608 -0.6078
 6942SOL    HW132285   0.656   1.246   3.032 -1.8163 -1.5895 -1.5965
 6942SOL    HW232286   0.615   1.371   3.100 -0.8886 -0.4089  3.0161
 6943SOL     OW32287   0.235   3.213   7.159 -0.1231  0.0431  0.1642
 6943SOL    HW132288   0.174   3.143   7.136  0.8531 -0.8686  0.3573
 6943SOL    HW232289   0.184   3.262   7.224  0.0205 -0.0380  0.3393
 6944SOL     OW32290   3.148   0.027   6.711  0.3760  0.0649  0.0857
 6944SOL    HW132291   3.243   0.044   6.712  0.3005  0.3997  1.0926
 6944SOL    HW232292   3.137   4.682   6.647  1.7790 -0.5804  0.5301
 6945SOL     OW32293   2.416   3.569   1.047  0.3623  0.2724 -0.0460
 6945SOL    HW132294   2.365   3.614   0.980  1.1628  0.3339 -0.6181
 6945SOL    HW232295   2.375   3.607   1.124 -0.0517 -1.8520  0.7827
 6946SOL     OW32296   3.247   1.322   6.856 -0.6856  0.2786  0.0204
 6946SOL    HW132297   3.214   1.336   6.944 -0.2489 -2.4341  0.6418
 6946SOL    HW232298   3.216   1.398   6.807  0.6438  0.7781 -0.0471
 6947SOL     OW32299   2.796   2.878   3.773  0.1908  0.2440  0.2274
 6947SOL    HW132300   2.820   2.924   3.693 -2.3601  2.7219  0.8891
 6947SOL    HW232301   2.709   2.918   3.779  0.9001  2.0335 -1.3480
 6948SOL     OW32302   0.634   0.727  16.627  0.1308  0.6045 -0.4579
 6948SOL    HW132303   0.562   0.665  16.625 -1.9365  3.0065 -0.9852
 6948SOL    HW232304   0.625   0.769  16.712  1.6099  0.2677 -0.1360
 6949SOL     OW32305   3.188   0.440  14.153 -0.0313 -0.0931 -0.6167
 6949SOL    HW132306   3.157   0.352  14.176  0.3416 -0.1230 -0.2334
 6949SOL    HW232307   3.115   0.454  14.093  1.5213  0.8019 -2.2941
 6950SOL     OW32308   0.762   3.009   6.549  0.1316  0.2327 -0.0053
 6950SOL    HW132309   0.719   2.924   6.556  0.6323 -0.0257 -0.0685
 6950SOL    HW232310   0.724   3.062   6.619 -0.6824  0.3956 -0.5702
 6951SOL     OW32311   0.159   1.015   6.941 -0.4458  0.5991 -0.2671
 6951SOL    HW132312   0.076   0.969   6.933 -0.1783  0.1962 -0.7979
 6951SOL    HW232313   0.171   1.008   7.035  0.4810  1.2204 -0.3317
 6952SOL     OW32314   1.726   4.292  12.270 -0.1695 -0.1209  0.2598
 6952SOL    HW132315   1.635   4.318  12.259 -0.5282 -1.1968  0.6502
 6952SOL    HW232316   1.729   4.248  12.185 -0.7124  1.8058 -0.7651
 6953SOL     OW32317   4.200   1.562  14.155  0.2119  0.0059 -0.1209
 6953SOL    HW132318   4.242   1.648  14.161  0.5856 -0.1689 -0.2439
 6953SOL    HW232319   4.109   1.579  14.132  0.1785  0.6461  0.5120
 6954SOL     OW32320   3.480   0.378   8.772  0.0652 -0.2364 -0.1465
 6954SOL    HW132321   3.395   0.393   8.731 -0.3988 -0.0542  0.8791
 6954SOL    HW232322   3.462   0.409   8.861 -0.2542 -1.3404  0.1776
 6955SOL     OW32323   0.471   3.636   2.444 -0.3420 -0.9134 -0.0179
 6955SOL    HW132324   0.459   3.565   2.507 -1.8093 -1.2979 -0.7347
 6955SOL    HW232325   0.410   3.702   2.478 -0.6858 -2.5900  2.5822
 6956SOL     OW32326   4.524   2.828   6.277 -0.3076 -0.2885  0.1856
 6956SOL    HW132327   4.601   2.772   6.276  1.0580  1.6079 -0.2102
 6956SOL    HW232328   4.539   2.908   6.227  1.2217  0.0075  1.1323
 6957SOL     OW32329   1.449   4.591   3.886  0.0761  0.2063  0.5524
 6957SOL    HW132330   1.449   4.686   3.893 -1.9568  0.1945  0.8657
 6957SOL    HW232331   1.387   4.577   3.815 -0.4142  1.5641  0.7159
 6958SOL     OW32332   1.717   2.085  10.292 -0.8577  0.5953 -0.1179
 6958SOL    HW132333   1.719   2.024  10.365  0.2780  1.9826  1.0238
 6958SOL    HW232334   1.633   2.063  10.252 -2.2141  3.0908  1.3086
 6959SOL     OW32335   3.874   0.203   1.773  0.1336  0.0327 -0.4462
 6959SOL    HW132336   3.884   0.297   1.761 -2.7154  0.6737  2.2918
 6959SOL    HW232337   3.782   0.190   1.750 -0.2237  1.7007  0.0424
 6960SOL     OW32338   3.501   1.466   3.600 -0.5173 -0.0742 -0.1714
 6960SOL    HW132339   3.547   1.411   3.537  0.8678  1.3583 -0.3880
 6960SOL    HW232340   3.444   1.408   3.651 -0.8762  0.0730 -0.4002
 6961SOL     OW32341   3.639   2.211   5.175  0.2445 -0.5626 -0.6283
 6961SOL    HW132342   3.669   2.150   5.243 -0.1814  0.3839  0.4147
 6961SOL    HW232343   3.561   2.175   5.135  0.4543 -2.1768  0.3936
 6962SOL     OW32344   3.628   1.224   6.796 -0.1788 -0.2711  0.3481
 6962SOL    HW132345   3.580   1.165   6.854  0.2584  1.0670  2.0884
 6962SOL    HW232346   3.637   1.193   6.706  1.1980 -0.1957  0.4536
 6963SOL     OW32347   1.796   0.788   1.517 -0.3289 -0.2922  0.5344
 6963SOL    HW132348   1.830   0.701   1.539 -0.6461 -0.1009  1.7676
 6963SOL    HW232349   1.876   0.833   1.546  0.0783  1.0299 -2.4970
 6964SOL     OW32350   4.623   0.822   9.057 -0.2214 -0.4012 -0.4216
 6964SOL    HW132351   4.671   0.778   8.987 -0.0496 -1.1703  0.1779
 6964SOL    HW232352   4.655   0.769   9.129  0.5500  1.0892  0.3349
 6965SOL     OW32353   0.919   0.899   5.521  0.4419  0.0285 -0.2912
 6965SOL    HW132354   0.873   0.883   5.604  0.9809 -1.0117 -0.1938
 6965SOL    HW232355   1.008   0.877   5.550  0.1366  0.2866  0.8547
 6966SOL     OW32356   1.490   0.272   5.477 -0.1023  0.0733 -0.5225
 6966SOL    HW132357   1.576   0.313   5.472  0.1649 -0.5340 -0.8523
 6966SOL    HW232358   1.511   0.191   5.431  0.2055 -0.6411  0.9030
 6967SOL     OW32359   0.636   0.022   5.570 -0.6016  0.1850  0.5572
 6967SOL    HW132360   0.604   0.053   5.485 -0.1898  0.2223  0.4132
 6967SOL    HW232361   0.575   0.064   5.630 -0.7510  0.8739 -0.0783
 6968SOL     OW32362   0.209   3.529  16.495  0.4730  0.0538 -0.1581
 6968SOL    HW132363   0.115   3.511  16.496  0.5716 -0.4438  1.1783
 6968SOL    HW232364   0.228   3.496  16.408 -0.4305  0.4798 -0.5091
 6969SOL     OW32365   1.546   2.602   6.420  0.5914  0.1935 -0.2736
 6969SOL    HW132366   1.519   2.572   6.333  1.8146  0.0226 -0.5999
 6969SOL    HW232367   1.471   2.570   6.469  0.2127 -0.4981 -1.2998
 6970SOL     OW32368   1.244   2.837   4.397 -0.3409 -0.6240 -0.5099
 6970SOL    HW132369   1.155   2.871   4.388  0.0341  0.6354  0.5306
 6970SOL    HW232370   1.295   2.898   4.343  0.3871 -1.8685 -1.2364
 6971SOL     OW32371   2.639   2.265   9.889  0.0879  0.0250  0.2516
 6971SOL    HW132372   2.620   2.208   9.964 -0.3060 -0.1374  0.0293
 6971SOL    HW232373   2.562   2.253   9.834  0.1360  0.2163  0.1428
 6972SOL     OW32374   3.431   0.979   5.842 -0.3494 -0.4160  0.1348
 6972SOL    HW132375   3.442   0.899   5.893  0.4772 -0.4143 -0.0352
 6972SOL    HW232376   3.344   0.951   5.813 -0.0284 -0.7050 -0.5592
 6973SOL     OW32377   0.953   1.649   5.465 -0.0110 -0.9339  0.1641
 6973SOL    HW132378   0.907   1.621   5.385  1.9250  1.4673 -1.7959
 6973SOL    HW232379   1.013   1.715   5.430 -0.9593 -0.9305 -1.4486
 6974SOL     OW32380   3.852   3.856  16.608  0.3457 -0.3100  0.2097
 6974SOL    HW132381   3.900   3.895  16.535 -1.1494 -0.8811 -1.0754
 6974SOL    HW232382   3.795   3.926  16.639 -0.5696 -0.5536 -0.9057
 6975SOL     OW32383   2.999   1.038   6.456 -0.5122 -0.0363  0.3089
 6975SOL    HW132384   2.987   0.944   6.446 -0.1336 -0.0997  0.4307
 6975SOL    HW232385   3.056   1.046   6.533  0.7129 -0.1632 -0.5898
 6976SOL     OW32386   2.702   3.449  11.987 -0.1722 -0.2575  0.6400
 6976SOL    HW132387   2.774   3.509  12.006 -0.4603 -0.4349  2.3241
 6976SOL    HW232388   2.701   3.418  12.078  2.1833 -1.0038  0.4345
 6977SOL     OW32389   4.508   0.713   2.612  0.3885  0.1579 -0.4538
 6977SOL    HW132390   4.600   0.719   2.586  1.0465 -0.4221  1.7992
 6977SOL    HW232391   4.508   0.738   2.704 -1.5911 -2.2718  0.2165
 6978SOL     OW32392   0.196   2.768   9.219 -0.2936 -0.0386 -0.2380
 6978SOL    HW132393   0.181   2.678   9.249 -2.7695  0.9848  1.5107
 6978SOL    HW232394   0.118   2.815   9.248  0.6303 -0.2463  2.6104
 6979SOL     OW32395   3.886   1.586  10.755  0.3286 -0.0099 -0.3591
 6979SOL    HW132396   3.904   1.679  10.745  0.8665  0.0177  0.8285
 6979SOL    HW232397   3.956   1.539  10.708  1.4662 -1.2599  2.5443
 6980SOL     OW32398   2.977   0.137  13.997  0.1662  0.2962  0.4792
 6980SOL    HW132399   3.039   0.122  13.926 -3.6605 -0.4417 -2.6794
 6980SOL    HW232400   3.038   0.155  14.069 -0.3796 -0.2276  1.0637
 6981SOL     OW32401   3.583   4.528   8.686  0.2676  0.1780 -0.0237
 6981SOL    HW132402   3.518   4.597   8.674  0.2838 -0.1558 -2.0216
 6981SOL    HW232403   3.652   4.573   8.735  1.3005 -1.1140 -0.2710
 6982SOL     OW32404   4.470   2.502  17.235  0.7824  0.1016  0.2953
 6982SOL    HW132405   4.473   2.537  17.146  2.3808 -0.4597  0.1197
 6982SOL    HW232406   4.381   2.469  17.241  0.9770 -0.4852 -0.0022
 6983SOL     OW32407   1.415   0.524   2.762 -0.4606 -0.4946 -0.5169
 6983SOL    HW132408   1.467   0.563   2.691  0.8005  1.1688  1.3231
 6983SOL    HW232409   1.422   0.586   2.835 -0.8927  0.1430 -1.0119
 6984SOL     OW32410   0.614   3.381   7.984  0.0824 -0.2890 -0.0060
 6984SOL    HW132411   0.577   3.460   7.945 -0.9948 -0.1122  1.3912
 6984SOL    HW232412   0.576   3.379   8.072  2.0251  2.2143  0.8975
 6985SOL     OW32413   3.099   0.243   0.114 -0.1882 -0.4408  0.1146
 6985SOL    HW132414   3.146   0.177   0.166  2.0291  2.4716  1.7714
 6985SOL    HW232415   3.064   0.191   0.041  0.6155 -2.1685  0.9609
 6986SOL     OW32416   0.251   2.053   6.902  0.1890  0.5199  1.0932
 6986SOL    HW132417   0.268   1.964   6.932 -0.4314 -0.5508 -1.7115
 6986SOL    HW232418   0.287   2.061   6.814 -3.2772  0.1852 -0.3493
 6987SOL     OW32419   0.151   0.302   0.595 -0.2606 -0.1674 -0.1309
 6987SOL    HW132420   0.063   0.328   0.567 -0.7155 -1.5344  0.0510
 6987SOL    HW232421   0.202   0.380   0.575 -2.8234  0.9751 -2.2226
 6988SOL     OW32422   2.128   4.536   5.911 -0.0364 -0.0778 -0.2452
 6988SOL    HW132423   2.214   4.552   5.872 -1.4955  1.1038 -3.0075
 6988SOL    HW232424   2.073   4.526   5.833  2.6080 -1.1412 -1.9713
 6989SOL     OW32425   3.499   2.546  16.035  0.8826  0.7710  0.0228
 6989SOL    HW132426   3.529   2.637  16.042  2.4444  0.1732  0.9584
 6989SOL    HW232427   3.422   2.559  15.979  0.7847 -0.5581 -0.1602
 6990SOL     OW32428   4.139   2.342   4.090 -0.0002  0.2039  0.1896
 6990SOL    HW132429   4.229   2.308   4.095  0.5264  1.5614 -0.1140
 6990SOL    HW232430   4.122   2.309   4.002 -1.1764  1.0696  0.1008
 6991SOL     OW32431   3.050   3.916  10.276  0.0920 -0.2019  0.5285
 6991SOL    HW132432   3.046   4.003  10.316  1.8544  0.2571 -0.3191
 6991SOL    HW232433   3.078   3.931  10.186 -3.0176  2.1341 -0.0599
 6992SOL     OW32434   2.021   4.187  11.117 -0.7787 -0.0920  0.5976
 6992SOL    HW132435   2.103   4.151  11.085 -0.0152  1.4999  0.7492
 6992SOL    HW232436   2.053   4.217  11.202  0.2556  2.2342 -0.6026
 6993SOL     OW32437   2.740   4.676   3.641 -0.1147  0.5347  0.1220
 6993SOL    HW132438   2.661   0.006   3.646  1.7723  3.3234 -0.5603
 6993SOL    HW232439   2.698   4.592   3.619 -1.1226  0.6358  1.6653
 6994SOL     OW32440   3.842   4.396  17.664  0.2507 -0.4975  0.0148
 6994SOL    HW132441   3.839   4.470   0.025 -0.9431 -0.3119 -0.2585
 6994SOL    HW232442   3.813   4.320   0.014 -0.3172 -1.1521 -1.3078
 6995SOL     OW32443   3.787   2.028  15.460  0.5085  0.3428 -0.1802
 6995SOL    HW132444   3.875   2.032  15.497 -0.9808  0.0082  3.3366
 6995SOL    HW232445   3.793   2.068  15.373  2.1491 -0.5476 -0.4678
 6996SOL     OW32446   1.103   2.615  17.652 -0.2030 -0.0304 -0.1579
 6996SOL    HW132447   1.087   2.528  17.688  1.4773 -0.2174  0.1379
 6996SOL    HW232448   1.180   2.645   0.001  0.3667 -0.5923 -0.7116
 6997SOL     OW32449   4.202   0.784   7.883  0.0578  0.2137 -0.6085
 6997SOL    HW132450   4.283   0.819   7.846  0.6294 -0.9017 -0.3950
 6997SOL    HW232451   4.237   0.731   7.954 -0.2567  0.9934  0.1390
 6998SOL     OW32452   3.419   2.766   2.100  0.5135  0.7052  0.0525
 6998SOL    HW132453   3.386   2.830   2.164  1.5988  1.2787  0.0275
 6998SOL    HW232454   3.377   2.684   2.125 -0.3583  0.5649 -1.8279
 6999SOL     OW32455   4.016   3.852   5.493 -0.2112 -0.6462  0.2909
 6999SOL    HW132456   3.928   3.815   5.495  0.5403 -2.5150 -1.5072
 6999SOL    HW232457   4.065   3.809   5.422 -0.6573 -0.1392 -0.3281
 7000SOL     OW32458   2.033   3.744   2.812 -0.3827  0.7725 -0.2188
 7000SOL    HW132459   2.097   3.759   2.881 -3.6180  0.6856  2.8205
 7000SOL    HW232460   2.062   3.770   2.725  1.7197 -0.1728  0.2142
 7001SOL     OW32461   3.308   0.408   6.631  0.0413 -0.3317  0.9658
 7001SOL    HW132462   3.358   0.354   6.692  0.5173  0.5125  1.3151
 7001SOL    HW232463   3.348   0.359   6.559 -0.7063 -0.3518  0.5676
 7002SOL     OW32464   4.350   4.272   8.044  0.3878 -0.0685  0.2914
 7002SOL    HW132465   4.345   4.251   7.951  0.9345 -1.1954  0.5214
 7002SOL    HW232466   4.432   4.241   8.082  1.0361 -0.1622 -1.1688
 7003SOL     OW32467   2.465   2.129   3.028  0.2383  0.2266  0.0825
 7003SOL    HW132468   2.388   2.143   2.973  0.7169  1.1085 -0.3573
 7003SOL    HW232469   2.537   2.132   2.965 -2.3715  0.5254 -2.9030
 7004SOL     OW32470   3.694   2.494   2.311 -0.0372 -0.1755 -0.3871
 7004SOL    HW132471   3.788   2.509   2.302  0.0888 -0.8643 -0.2172
 7004SOL    HW232472   3.667   2.515   2.401 -0.0623 -2.3006  0.0886
 7005SOL     OW32473   1.123   3.101   0.757 -0.1622 -0.3552 -0.1052
 7005SOL    HW132474   1.031   3.088   0.735 -0.3721 -1.3274  1.3895
 7005SOL    HW232475   1.137   3.192   0.731 -0.9421  0.0062  0.7501
 7006SOL     OW32476   2.583   0.267   7.759  0.2544 -0.8166  0.0013
 7006SOL    HW132477   2.607   0.223   7.840  1.8580 -0.1275 -0.1121
 7006SOL    HW232478   2.546   0.348   7.795  1.3688 -0.9383  1.4087
 7007SOL     OW32479   1.042   0.324  10.299  0.2612  0.0402 -0.1969
 7007SOL    HW132480   0.982   0.292  10.366 -2.1599 -0.1447 -2.4379
 7007SOL    HW232481   0.979   0.337  10.228  0.3573 -0.9575 -0.4652
 7008SOL     OW32482   1.283   0.314   2.500 -0.1661  0.0663 -0.6671
 7008SOL    HW132483   1.335   0.380   2.454  1.1976 -0.9619 -0.6013
 7008SOL    HW232484   1.226   0.282   2.430 -1.0980  0.6369 -0.1594
 7009SOL     OW32485   0.674   0.598   4.190  0.0586  0.3795  0.5459
 7009SOL    HW132486   0.728   0.572   4.264 -0.0593 -1.3044  0.0557
 7009SOL    HW232487   0.588   0.594   4.232 -0.2256 -4.8867 -0.4226
 7010SOL     OW32488   1.562   1.746   6.662 -0.2066  0.4544  0.2009
 7010SOL    HW132489   1.619   1.716   6.591  0.2460  0.7785  0.4297
 7010SOL    HW232490   1.491   1.682   6.674  0.1948  0.1180  0.7732
 7011SOL     OW32491   1.025   0.233  16.518 -0.0288  0.1212 -0.5921
 7011SOL    HW132492   1.002   0.205  16.430  2.3182 -0.2218 -1.1133
 7011SOL    HW232493   1.040   0.327  16.514 -1.8066  0.3901 -0.8204
 7012SOL     OW32494   2.772   3.469   7.951 -0.5167 -0.1533  0.2970
 7012SOL    HW132495   2.760   3.375   7.956  2.7431 -0.5344  0.8189
 7012SOL    HW232496   2.685   3.506   7.934  0.1570  1.8354  1.0491
 7013SOL     OW32497   2.734   4.037  13.257 -0.1091  0.1744 -0.0594
 7013SOL    HW132498   2.753   4.029  13.351 -0.4360 -0.5863 -0.0672
 7013SOL    HW232499   2.716   4.131  13.266 -0.3400  0.1898 -0.7795
 7014SOL     OW32500   4.326   4.574  10.336  0.4413  0.2429 -0.4972
 7014SOL    HW132501   4.349   4.482  10.349 -1.3352 -0.1632 -0.1670
 7014SOL    HW232502   4.415   4.602  10.316 -0.3039  2.5235 -0.6632
 7015SOL     OW32503   0.778   2.193  16.698  0.8772 -0.6806  0.0524
 7015SOL    HW132504   0.859   2.221  16.742  1.1481  1.2160 -1.6195
 7015SOL    HW232505   0.819   2.156  16.620  0.2041  0.4414 -0.8354
 7016SOL     OW32506   0.682   0.129   7.581 -0.2770 -0.0147  0.3338
 7016SOL    HW132507   0.711   0.202   7.525  3.0047 -0.3970  1.4836
 7016SOL    HW232508   0.603   0.159   7.626  0.4892  0.4288  1.3971
 7017SOL     OW32509   0.283   2.469   5.288 -0.3259 -0.3630  0.1976
 7017SOL    HW132510   0.215   2.441   5.226 -0.7965  2.8701 -0.7780
 7017SOL    HW232511   0.357   2.497   5.234 -0.3960 -0.4245  0.0701
 7018SOL     OW32512   2.625   2.067   1.386 -0.3831 -0.5604  0.4424
 7018SOL    HW132513   2.687   1.994   1.389 -0.9081 -1.1002 -1.4246
 7018SOL    HW232514   2.589   2.059   1.298  0.7056 -0.4724 -0.0086
 7019SOL     OW32515   0.070   4.107   4.485 -0.0623  0.2609 -0.3085
 7019SOL    HW132516   0.094   4.070   4.570 -1.6489 -0.9051 -0.3679
 7019SOL    HW232517   0.139   4.173   4.477 -0.3244  0.5172 -0.4346
 7020SOL     OW32518   4.420   3.946   6.536 -0.7335 -0.1252 -0.1590
 7020SOL    HW132519   4.477   3.941   6.613 -1.3065 -1.1014  0.1978
 7020SOL    HW232520   4.484   3.935   6.466  1.5069  0.7693  1.7610
 7021SOL     OW32521   1.754   1.797   7.759  0.3419  0.9160 -0.7354
 7021SOL    HW132522   1.661   1.780   7.773  1.1841 -2.6677  0.3436
 7021SOL    HW232523   1.762   1.753   7.675  1.0357 -1.3637  0.5443
 7022SOL     OW32524   1.029   0.784  11.545  0.3527 -0.0189  0.5893
 7022SOL    HW132525   0.939   0.759  11.567 -1.0543  1.2250 -3.6771
 7022SOL    HW232526   1.043   0.709  11.486  3.2806  1.4178 -0.5634
 7023SOL     OW32527   2.120   4.498   6.883 -0.2230  0.5898 -0.6879
 7023SOL    HW132528   2.089   4.528   6.798 -2.2614  1.1590  0.2546
 7023SOL    HW232529   2.194   4.558   6.887  1.4438 -1.6280  2.1011
 7024SOL     OW32530   3.499   3.070   5.142  0.9171 -0.0898 -0.0020
 7024SOL    HW132531   3.495   3.075   5.238  0.1520 -1.1167  0.0238
 7024SOL    HW232532   3.411   3.095   5.114 -0.2987 -4.0671  0.2543
 7025SOL     OW32533   1.972   0.949   1.618  0.0984  0.3837  0.3424
 7025SOL    HW132534   2.014   1.024   1.576 -1.9899  1.8833  0.9420
 7025SOL    HW232535   1.922   0.993   1.686  0.6880 -0.6732  1.4530
 7026SOL     OW32536   3.792   0.531   6.735 -0.4115 -0.1309 -0.6372
 7026SOL    HW132537   3.741   0.607   6.708  1.6535  1.3323 -0.4334
 7026SOL    HW232538   3.876   0.576   6.726 -1.5763  2.2258  0.3348
 7027SOL     OW32539   4.158   2.464   3.224  0.0555  0.3109 -0.1401
 7027SOL    HW132540   4.113   2.468   3.309 -0.5799  1.1549 -0.5078
 7027SOL    HW232541   4.125   2.382   3.187 -3.1523  0.4897  2.3040
 7028SOL     OW32542   0.112   4.371   2.402  0.4464 -0.2841 -0.2151
 7028SOL    HW132543   0.176   4.430   2.442  1.5958 -1.0553 -0.9020
 7028SOL    HW232544   0.044   4.436   2.386 -0.5460 -1.3052 -0.1733
 7029SOL     OW32545   0.758   3.663   6.849  0.7424  0.1232 -0.2829
 7029SOL    HW132546   0.780   3.753   6.874 -2.7425  0.5778  1.0586
 7029SOL    HW232547   0.771   3.615   6.932  0.4979 -2.5825 -1.8119
 7030SOL     OW32548   2.350   1.527  12.559  0.8005  0.2474 -0.1514
 7030SOL    HW132549   2.304   1.605  12.529  0.7584  1.0528  2.0205
 7030SOL    HW232550   2.357   1.479  12.476  1.1921  0.6417 -0.3451
 7031SOL     OW32551   0.008   0.174  10.446  0.2712 -0.1509  0.4105
 7031SOL    HW132552   4.700   0.234  10.512  2.1029  0.4027  0.8293
 7031SOL    HW232553   0.073   0.228  10.401 -0.0204  1.4449  1.8894
 7032SOL     OW32554   1.666   3.986  12.876  0.1549 -0.2787 -0.1475
 7032SOL    HW132555   1.657   3.898  12.911  1.8091 -0.3123  0.1826
 7032SOL    HW232556   1.761   3.993  12.875  0.1987 -0.7879  0.8587
 7033SOL     OW32557   2.173   2.872   2.049 -0.1506  0.4027  0.4690
 7033SOL    HW132558   2.152   2.947   2.105  3.3318  1.2581  0.6412
 7033SOL    HW232559   2.086   2.835   2.061 -0.0479 -0.8384 -2.8460
 7034SOL     OW32560   2.259   1.991  10.053  0.1214 -0.4634  0.4356
 7034SOL    HW132561   2.215   2.038  10.124 -0.5829 -0.6045  0.0931
 7034SOL    HW232562   2.242   1.898  10.067  1.3777 -0.7400  0.0381
 7035SOL     OW32563   1.994   2.117   6.747  0.0138  0.2877  0.3596
 7035SOL    HW132564   2.044   2.063   6.686 -0.5554 -0.0369  0.1765
 7035SOL    HW232565   2.039   2.201   6.745 -0.9912  0.8254  0.3313
 7036SOL     OW32566   4.491   2.423  16.878  0.4658 -0.5560  0.4193
 7036SOL    HW132567   4.576   2.456  16.909  1.1866 -0.6715 -1.4608
 7036SOL    HW232568   4.513   2.368  16.803 -1.8539  2.9168 -2.8073
 7037SOL     OW32569   1.818   2.686   5.185  0.1932 -0.1273  0.4828
 7037SOL    HW132570   1.740   2.719   5.140  0.6232 -0.0041 -0.1697
 7037SOL    HW232571   1.787   2.659   5.272 -3.0734 -4.3891 -2.0295
 7038SOL     OW32572   3.770   2.145   2.796  0.8155  0.1256 -0.2604
 7038SOL    HW132573   3.782   2.122   2.704  0.4267  0.1418 -0.3133
 7038SOL    HW232574   3.740   2.235   2.798 -0.0149 -0.1285 -1.5252
 7039SOL     OW32575   3.696   0.367   3.849  0.9249 -0.3122  0.2094
 7039SOL    HW132576   3.740   0.317   3.918  0.5686 -0.1531  0.5527
 7039SOL    HW232577   3.612   0.368   3.894  0.3831 -3.5912 -0.7065
 7040SOL     OW32578   0.317   4.181   5.230  0.0983  0.3101 -0.1152
 7040SOL    HW132579   0.401   4.144   5.203  1.3866  2.1304  1.3876
 7040SOL    HW232580   0.314   4.259   5.174 -0.8273 -0.6368 -1.3749
 7041SOL     OW32581   4.538   2.448   6.346  0.1809 -0.0154 -0.2965
 7041SOL    HW132582   4.610   2.483   6.293  0.3828 -0.3414 -0.2366
 7041SOL    HW232583   4.568   2.454   6.437 -0.7667 -0.8854  0.0747
 7042SOL     OW32584   0.799   0.603  11.607 -0.0008 -0.2820  0.0373
 7042SOL    HW132585   0.787   0.583  11.514  2.3439 -2.4951  0.2224
 7042SOL    HW232586   0.706   0.623  11.622  0.7269  2.4587  0.9387
 7043SOL     OW32587   2.779   2.144  16.887  0.1692 -0.1202  0.6040
 7043SOL    HW132588   2.750   2.220  16.937 -1.6945 -1.5551  1.7015
 7043SOL    HW232589   2.706   2.083  16.894 -0.0301  0.2353  1.6019
 7044SOL     OW32590   2.999   3.294   8.796 -0.2973 -0.3046 -0.5258
 7044SOL    HW132591   2.922   3.308   8.852  1.7081 -2.1520  2.7183
 7044SOL    HW232592   2.969   3.212   8.757 -1.4188 -0.6608  1.0648
 7045SOL     OW32593   2.908   1.831   6.305 -0.2622 -0.2359 -0.0828
 7045SOL    HW132594   2.845   1.819   6.234  0.2250  1.5236 -0.8272
 7045SOL    HW232595   2.906   1.743   6.342 -1.5531 -0.0747  0.2452
 7046SOL     OW32596   2.266   1.611  15.163 -0.1636 -0.0616 -0.0045
 7046SOL    HW132597   2.172   1.629  15.153 -0.2167  1.0353  2.3385
 7046SOL    HW232598   2.291   1.692  15.207 -1.2120 -0.1469  0.7718
 7047SOL     OW32599   2.909   3.303  16.230 -0.1030  0.1878 -0.0995
 7047SOL    HW132600   2.916   3.313  16.325  1.5125  1.7620 -0.3920
 7047SOL    HW232601   2.995   3.332  16.200  1.0470 -1.0862  1.9578
 7048SOL     OW32602   4.425   2.362   8.851  0.2736  0.3406 -0.0933
 7048SOL    HW132603   4.448   2.288   8.794  0.4904  1.8227 -1.9441
 7048SOL    HW232604   4.351   2.395   8.799 -0.4056 -1.0946 -0.0514
 7049SOL     OW32605   2.373   3.417  14.093  0.1227 -0.1382 -0.5290
 7049SOL    HW132606   2.435   3.414  14.020  0.0145  0.8279 -0.6551
 7049SOL    HW232607   2.425   3.470  14.153 -0.7277 -2.2634  2.0699
 7050SOL     OW32608   3.694   1.620   9.111  0.2882 -0.3654  0.2650
 7050SOL    HW132609   3.783   1.631   9.076  0.0933  0.2437 -0.0387
 7050SOL    HW232610   3.686   1.525   9.108  1.3698 -0.4365 -0.3107
 7051SOL     OW32611   1.840   2.053   2.660  0.0431  0.4058 -0.0652
 7051SOL    HW132612   1.832   2.140   2.622  0.4582  0.4802  0.0222
 7051SOL    HW232613   1.850   2.074   2.753 -1.6562 -1.5988  0.6019
 7052SOL     OW32614   3.639   4.586   9.109 -0.3252 -0.2339 -0.2367
 7052SOL    HW132615   3.665   4.494   9.113  0.9675  0.1353 -0.1977
 7052SOL    HW232616   3.726   4.627   9.107 -1.0329  1.3197  0.6134
 7053SOL     OW32617   4.682   2.083   1.973  0.0864  0.3427  0.1257
 7053SOL    HW132618   4.663   1.993   1.948  2.5149 -0.7253  2.1009
 7053SOL    HW232619   0.053   2.082   1.984  0.0500  0.4718  0.4642
 7054SOL     OW32620   4.188   3.903  10.785  0.0249 -0.0151  0.1923
 7054SOL    HW132621   4.103   3.908  10.742  0.2602 -1.4819 -0.4575
 7054SOL    HW232622   4.165   3.826  10.837 -1.8537  1.1192  1.0396
 7055SOL     OW32623   2.174   0.300  14.534 -0.5820 -0.8467 -0.1370
 7055SOL    HW132624   2.112   0.232  14.512 -0.6547 -0.5591 -0.8187
 7055SOL    HW232625   2.201   0.340  14.451 -0.8134 -0.4052 -0.0028
 7056SOL     OW32626   3.218   1.121  17.630 -0.3572  0.8988  0.0109
 7056SOL    HW132627   3.164   1.109   0.008  1.4195 -0.6910  0.9829
 7056SOL    HW232628   3.253   1.033  17.615  1.9798  1.7345  0.6365
 7057SOL     OW32629   0.427   2.198  16.451 -0.4916 -0.3326 -0.1821
 7057SOL    HW132630   0.436   2.111  16.490 -1.3786 -0.2170  0.2786
 7057SOL    HW232631   0.513   2.239  16.460 -1.6491  1.8889  0.8690
 7058SOL     OW32632   1.461   2.038  10.184 -0.3348 -0.0736  0.5937
 7058SOL    HW132633   1.408   2.114  10.159  1.0944  0.7361 -0.0149
 7058SOL    HW232634   1.443   1.968  10.121  2.0315 -1.0242  0.9656
 7059SOL     OW32635   1.004   0.084   0.937 -0.0485 -0.1194 -0.2803
 7059SOL    HW132636   1.053   0.002   0.933  1.0330  0.6899 -4.1295
 7059SOL    HW232637   1.034   0.121   0.853 -0.5534  0.3973 -0.2307
 7060SOL     OW32638   0.553   1.185   4.349  0.0138  0.1099  0.0944
 7060SOL    HW132639   0.616   1.218   4.412  1.2232 -0.1456 -0.9718
 7060SOL    HW232640   0.501   1.265   4.341 -1.5841 -0.9703 -0.5735
 7061SOL     OW32641   3.097   3.094   6.008  0.1373 -0.0463 -0.5687
 7061SOL    HW132642   3.018   3.072   5.958 -1.4281 -0.4316  2.0622
 7061SOL    HW232643   3.163   3.077   5.940  1.3517 -0.1997  0.6587
 7062SOL     OW32644   3.891   4.094  15.869  0.4194 -0.2411  0.5425
 7062SOL    HW132645   3.859   4.177  15.834  0.8545 -1.3420 -2.4208
 7062SOL    HW232646   3.860   4.038  15.798 -2.4476  0.9044  0.8795
 7063SOL     OW32647   2.878   3.018   4.711 -0.0098  0.0076  0.1182
 7063SOL    HW132648   2.925   3.081   4.657  0.6035 -1.8003 -1.4466
 7063SOL    HW232649   2.789   3.039   4.682  0.1075 -0.4305 -0.5677
 7064SOL     OW32650   0.330   3.466   3.321 -0.3810 -0.1068 -0.0689
 7064SOL    HW132651   0.416   3.427   3.305 -0.3042 -0.3882  1.0456
 7064SOL    HW232652   0.283   3.386   3.346 -2.3071  0.4122 -1.9961
 7065SOL     OW32653   3.029   1.374   8.502  0.3135 -0.6101  0.1822
 7065SOL    HW132654   3.058   1.372   8.593  0.7345 -0.0375  0.0592
 7065SOL    HW232655   2.951   1.427   8.511  1.0141  0.3714  0.4881
 7066SOL     OW32656   2.271   1.488   3.313 -0.1179  0.0016  0.2101
 7066SOL    HW132657   2.184   1.457   3.335  0.1413 -0.9898 -0.1424
 7066SOL    HW232658   2.308   1.414   3.264 -1.1708  0.6509 -1.5691
 7067SOL     OW32659   1.552   3.429   5.404 -0.3785  0.4160  0.0565
 7067SOL    HW132660   1.500   3.363   5.358 -0.7081  1.1262 -0.5919
 7067SOL    HW232661   1.585   3.369   5.471 -0.1049 -1.5863 -1.8600
 7068SOL     OW32662   0.681   0.862   1.818 -0.5673  0.1046 -0.1773
 7068SOL    HW132663   0.736   0.859   1.740 -0.8839  3.1615 -0.5152
 7068SOL    HW232664   0.680   0.769   1.837 -1.2801  0.2494  0.4948
 7069SOL     OW32665   2.254   2.913   6.565 -0.2749  0.2677  0.1083
 7069SOL    HW132666   2.330   2.923   6.621  0.4443  2.8143 -1.3281
 7069SOL    HW232667   2.270   2.971   6.491  0.7860  1.2509  1.1276
 7070SOL     OW32668   1.605   2.977   4.461  0.3749 -0.8085  0.1424
 7070SOL    HW132669   1.688   3.025   4.457  1.2052 -2.4517 -2.7700
 7070SOL    HW232670   1.544   3.040   4.499 -0.5574 -0.3205 -2.1700
 7071SOL     OW32671   1.019   4.546   0.771 -0.2914 -0.2462 -0.0903
 7071SOL    HW132672   0.956   4.528   0.841 -0.7818 -1.9805 -0.9717
 7071SOL    HW232673   0.962   4.561   0.696 -1.7932 -1.2587  0.8443
 7072SOL     OW32674   3.130   2.811   4.297  0.6966 -0.1204 -0.4269
 7072SOL    HW132675   3.146   2.718   4.311 -2.2219 -0.6986 -0.7625
 7072SOL    HW232676   3.035   2.811   4.311  0.8604 -1.8334  0.6193
 7073SOL     OW32677   0.210   4.722  10.034 -0.1945  0.1754  0.6316
 7073SOL    HW132678   0.287   0.051  10.055 -0.6058  1.4605 -1.1651
 7073SOL    HW232679   0.216   4.657  10.105  0.0955  1.2715  1.6146
 7074SOL     OW32680   0.683   4.512   2.489 -0.8822 -0.1362 -0.5831
 7074SOL    HW132681   0.646   4.456   2.557  0.0935  0.5636  0.5160
 7074SOL    HW232682   0.727   4.574   2.547  0.1360  0.2633 -1.7938
 7075SOL     OW32683   3.421   0.371   8.396  0.2194 -0.0030  0.1409
 7075SOL    HW132684   3.407   0.299   8.334  1.7826 -0.8299  0.7469
 7075SOL    HW232685   3.341   0.377   8.448  0.5418 -3.0629  0.9614
 7076SOL     OW32686   3.165   2.233  15.930  0.2035  0.2334 -0.1030
 7076SOL    HW132687   3.246   2.266  15.891  1.1606  0.1745  1.8401
 7076SOL    HW232688   3.191   2.144  15.954  1.7401  0.4059 -1.0960
 7077SOL     OW32689   0.145   0.638   0.598  0.0907  0.0470  0.6385
 7077SOL    HW132690   0.089   0.561   0.592  0.0622  0.1636 -0.5134
 7077SOL    HW232691   0.222   0.612   0.649  0.9537  1.7136  0.1954
 7078SOL     OW32692   0.897   0.987   6.403 -0.5803  0.0498  0.2533
 7078SOL    HW132693   0.936   0.906   6.368 -2.0990 -0.0735 -1.1489
 7078SOL    HW232694   0.884   1.042   6.326  1.4914  0.7951  0.4242
 7079SOL     OW32695   3.881   1.332   2.989 -0.9074 -0.4295  0.7748
 7079SOL    HW132696   3.854   1.412   3.034  0.3672 -0.2461  1.2244
 7079SOL    HW232697   3.811   1.303   2.930  0.8712 -1.0177 -1.0559
 7080SOL     OW32698   2.050   0.089   8.230  0.2743 -0.6441 -0.4669
 7080SOL    HW132699   2.114   0.160   8.228  0.3769 -0.7140  0.3677
 7080SOL    HW232700   2.106   0.018   8.260  0.4737 -0.3193 -0.0745
 7081SOL     OW32701   0.306   0.954   3.841 -0.2763 -0.4802 -0.6325
 7081SOL    HW132702   0.352   0.941   3.758  1.1313  0.1133  0.0520
 7081SOL    HW232703   0.219   0.916   3.829  0.0524 -1.1085 -0.9867
 7082SOL     OW32704   2.005   4.366   2.809 -0.7258  0.0146 -0.3342
 7082SOL    HW132705   1.917   4.362   2.771 -0.6694 -0.6761 -0.3844
 7082SOL    HW232706   2.052   4.436   2.763  0.1679 -0.9739 -0.9345
 7083SOL     OW32707   2.860   0.939  11.370 -0.1703  0.8829 -0.0028
 7083SOL    HW132708   2.796   0.871  11.351 -1.8488  1.7074  2.6856
 7083SOL    HW232709   2.817   0.987  11.441  1.0451  0.5496  0.9808
 7084SOL     OW32710   1.097   2.168   2.046 -0.5737 -0.6090  0.5843
 7084SOL    HW132711   1.049   2.193   2.124  0.7717 -0.4175  1.3538
 7084SOL    HW232712   1.171   2.116   2.078  0.9078 -0.1183 -1.9673
 7085SOL     OW32713   3.973   3.905  13.102 -0.2146  0.6228 -0.7432
 7085SOL    HW132714   3.897   3.877  13.051 -0.7532 -0.1261  0.4605
 7085SOL    HW232715   3.945   3.922  13.192 -0.0879  0.9035 -0.7545
 7086SOL     OW32716   0.185   2.114  11.387 -0.2874 -0.4638 -0.1318
 7086SOL    HW132717   0.127   2.161  11.328  1.3481  0.7973 -0.7263
 7086SOL    HW232718   0.118   2.060  11.429 -1.4394 -0.4206 -1.9045
 7087SOL     OW32719   4.363   3.364   8.746  0.2377  0.2880 -0.4650
 7087SOL    HW132720   4.411   3.291   8.785  0.1872  1.1351  1.1454
 7087SOL    HW232721   4.295   3.365   8.813 -0.0815 -2.5434 -0.7247
 7088SOL     OW32722   1.999   4.239  14.416 -0.1284  0.2375 -0.4765
 7088SOL    HW132723   1.904   4.238  14.406 -0.0657  1.6018 -1.0973
 7088SOL    HW232724   2.028   4.179  14.347  0.3864  0.5360 -0.5130
 7089SOL     OW32725   2.713   1.528   3.279  0.3414  0.3110 -0.4635
 7089SOL    HW132726   2.699   1.490   3.193  0.0728 -0.6991  0.0292
 7089SOL    HW232727   2.760   1.607   3.251  2.9129 -0.8502  0.5585
 7090SOL     OW32728   4.132   4.120  13.125 -0.1690  0.9374  0.3280
 7090SOL    HW132729   4.069   4.185  13.154  0.4279  2.0650 -0.9233
 7090SOL    HW232730   4.075   4.048  13.100  1.3905  0.3244 -1.4615
 7091SOL     OW32731   1.010   1.737   2.764  0.1550 -0.5715  0.7690
 7091SOL    HW132732   0.984   1.646   2.779  1.5674 -0.5536  3.2532
 7091SOL    HW232733   0.925   1.776   2.783  1.5901  1.2762  3.3301
 7092SOL     OW32734   2.997   0.244   1.044 -0.4651  0.3252 -0.0822
 7092SOL    HW132735   2.953   0.169   1.085 -0.6518 -0.5271 -1.8221
 7092SOL    HW232736   2.994   0.218   0.952  1.3772 -0.3645  0.0339
 7093SOL     OW32737   0.008   1.116   2.160 -0.2441  0.6791  0.8113
 7093SOL    HW132738   0.062   1.070   2.225 -1.1105 -1.3514  0.0781
 7093SOL    HW232739   0.053   1.092   2.079 -1.2911 -2.1866  1.0907
 7094SOL     OW32740   4.010   4.594  10.720 -0.1384 -0.1279  0.2153
 7094SOL    HW132741   4.018   4.646  10.800  1.8776 -0.0154 -0.0733
 7094SOL    HW232742   3.917   4.602  10.698 -0.4021 -2.4314  0.4482
 7095SOL     OW32743   2.800   0.118   4.405  0.1554  0.0198  0.1565
 7095SOL    HW132744   2.725   0.143   4.352  2.0075 -0.3788 -2.6209
 7095SOL    HW232745   2.804   0.027   4.377 -1.8926 -0.7139  2.1937
 7096SOL     OW32746   1.487   4.604   0.285 -0.2012 -0.6896 -0.1430
 7096SOL    HW132747   1.547   4.534   0.257  1.1681  0.0488  0.9247
 7096SOL    HW232748   1.405   4.565   0.256 -1.2014  2.0046 -0.8367
 7097SOL     OW32749   0.784   3.033   2.412  0.0534  0.1716  0.5617
 7097SOL    HW132750   0.693   3.059   2.431 -0.7042 -0.6483 -2.0051
 7097SOL    HW232751   0.787   2.946   2.452  0.0823  0.2645  0.7608
 7098SOL     OW32752   3.954   3.774   7.330  0.1202  0.3862 -0.3635
 7098SOL    HW132753   3.939   3.692   7.378 -1.4596  1.2697  0.6356
 7098SOL    HW232754   3.941   3.753   7.238 -1.4049 -0.8770  0.1316
 7099SOL     OW32755   3.796   2.007   3.501  0.2148 -0.4052  0.4866
 7099SOL    HW132756   3.839   2.048   3.426 -0.4657 -0.0761  0.2789
 7099SOL    HW232757   3.828   1.917   3.493  0.9529  0.1732 -3.0688
 7100SOL     OW32758   1.850   1.255   8.068  0.1105  0.1338 -0.3879
 7100SOL    HW132759   1.776   1.233   8.012 -0.9987 -0.0941  1.1737
 7100SOL    HW232760   1.926   1.230   8.015 -1.0809 -0.2847 -1.8761
 7101SOL     OW32761   3.076   4.219  12.310 -0.5856 -0.4993 -0.5573
 7101SOL    HW132762   3.145   4.270  12.267 -3.2210  2.8783 -0.7933
 7101SOL    HW232763   3.094   4.130  12.279 -0.6640 -0.2500 -1.3065
 7102SOL     OW32764   0.187   2.838   6.366  0.6257 -0.9190 -0.4165
 7102SOL    HW132765   0.160   2.921   6.327 -1.7501 -2.0619 -1.2310
 7102SOL    HW232766   0.216   2.875   6.449 -2.1586  2.5814 -1.0203
 7103SOL     OW32767   3.490   0.628   8.111 -0.1263 -0.0722 -0.3864
 7103SOL    HW132768   3.501   0.577   8.031  1.0049 -1.2591  0.5234
 7103SOL    HW232769   3.563   0.594   8.162 -1.3579  1.1782  2.2016
 7104SOL     OW32770   3.514   1.714   3.281 -0.2006  0.5610 -0.3668
 7104SOL    HW132771   3.486   1.788   3.227 -1.3992 -0.1626 -0.7195
 7104SOL    HW232772   3.510   1.743   3.372  3.0573  2.0686 -0.6958
 7105SOL     OW32773   3.759   0.558   9.278 -0.1334  0.8419 -0.0854
 7105SOL    HW132774   3.787   0.469   9.301 -1.1276  0.3940 -0.6064
 7105SOL    HW232775   3.834   0.576   9.221 -0.2725 -2.6852 -1.3932
 7106SOL     OW32776   0.265   2.895   4.781 -0.2533  0.1126  0.0238
 7106SOL    HW132777   0.298   2.812   4.815 -2.3918  0.0117  1.8175
 7106SOL    HW232778   0.268   2.951   4.859 -2.0051 -0.4591  0.4939
 7107SOL     OW32779   2.342   2.852  14.254 -0.7463 -0.4637  0.0620
 7107SOL    HW132780   2.360   2.846  14.348  2.0598  1.2379 -0.3671
 7107SOL    HW232781   2.397   2.926  14.227  0.3372 -1.6829 -1.0813
 7108SOL     OW32782   3.550   2.614   5.631  0.0397 -0.1721 -0.0571
 7108SOL    HW132783   3.588   2.578   5.712  3.4702 -0.4968 -1.8134
 7108SOL    HW232784   3.532   2.535   5.581 -2.7967 -0.8477  2.0022
 7109SOL     OW32785   2.065   1.844   9.868  0.0661 -0.2921 -0.1344
 7109SOL    HW132786   2.145   1.815   9.911 -0.9394  1.6994  3.0628
 7109SOL    HW232787   2.023   1.757   9.872 -2.9343  1.2699  2.3745
 7110SOL     OW32788   2.632   1.196   4.120  0.0213 -0.1523 -0.6103
 7110SOL    HW132789   2.682   1.277   4.117 -0.7366  0.3282 -0.0487
 7110SOL    HW232790   2.693   1.128   4.090 -1.5197 -1.9225  0.2148
 7111SOL     OW32791   1.296   4.572   6.599 -0.4120  0.3114  0.2686
 7111SOL    HW132792   1.378   4.543   6.638 -0.1827  1.2320  0.4668
 7111SOL    HW232793   1.300   4.666   6.614  1.0458  0.3618 -0.4304
 7112SOL     OW32794   4.115   3.313   7.359 -0.3432 -0.3953 -0.1830
 7112SOL    HW132795   4.125   3.219   7.344 -0.2630 -0.1692 -1.5565
 7112SOL    HW232796   4.200   3.348   7.333  0.5913 -1.6043  1.2745
 7113SOL     OW32797   1.788   2.354   6.096 -0.0526  0.0163  0.0404
 7113SOL    HW132798   1.828   2.398   6.021  0.3459  1.7993  1.2789
 7113SOL    HW232799   1.808   2.263   6.074 -0.2126  0.7239 -3.0336
 7114SOL     OW32800   3.849   0.962  13.287  0.1907 -0.3198  0.6121
 7114SOL    HW132801   3.937   0.959  13.326 -0.2530 -0.7467  1.5704
 7114SOL    HW232802   3.843   0.866  13.282  0.9238 -0.3290 -0.2213
 7115SOL     OW32803   0.062   2.324   4.416  0.0140 -0.1790 -0.0130
 7115SOL    HW132804   0.155   2.348   4.413 -0.3232  1.0212 -0.9513
 7115SOL    HW232805   0.036   2.388   4.482 -1.6838 -0.6827 -0.1917
 7116SOL     OW32806   0.652   3.808  15.718 -0.0485 -0.3582  0.3081
 7116SOL    HW132807   0.575   3.780  15.669 -1.2473 -1.3041  2.7280
 7116SOL    HW232808   0.620   3.788  15.806  0.7972 -0.8854  0.4972
 7117SOL     OW32809   0.989   4.719   8.533  0.0751 -0.3573  0.1438
 7117SOL    HW132810   0.931   0.035   8.598 -2.6956  0.2649 -2.7402
 7117SOL    HW232811   1.031   4.649   8.584  0.4397 -0.5704 -0.4584
 7118SOL     OW32812   3.692   2.189   3.676  0.0268  0.0330  0.6641
 7118SOL    HW132813   3.736   2.127   3.618  0.2684  0.7826  0.0375
 7118SOL    HW232814   3.766   2.226   3.724 -0.3072 -0.7361  1.7903
 7119SOL     OW32815   3.026   3.311   5.281  0.0959  0.9240  0.0093
 7119SOL    HW132816   2.963   3.329   5.212 -1.2381 -1.2495  0.6513
 7119SOL    HW232817   3.110   3.333   5.240  0.0093  1.5767  0.1829
 7120SOL     OW32818   2.583   3.421   8.720 -0.3457  0.0921 -0.1569
 7120SOL    HW132819   2.586   3.387   8.810 -0.9264  2.1241  0.6337
 7120SOL    HW232820   2.538   3.353   8.671  0.8588 -1.3195  0.6995
 7121SOL     OW32821   0.013   2.945   8.077 -0.2065 -0.5057  0.2271
 7121SOL    HW132822   0.086   3.006   8.085 -0.4013 -0.1620 -0.6048
 7121SOL    HW232823   4.660   2.997   8.053 -1.5532 -2.6571 -0.0878
 7122SOL     OW32824   2.769   4.442   2.560  0.3090 -0.0032 -0.2216
 7122SOL    HW132825   2.677   4.426   2.581  0.0014 -0.2139 -1.7773
 7122SOL    HW232826   2.778   4.535   2.581 -0.5535 -0.0520  0.3967
 7123SOL     OW32827   2.042   2.690   1.281  0.2075  0.2705  0.4471
 7123SOL    HW132828   1.954   2.711   1.314  0.8803  1.0388  1.7461
 7123SOL    HW232829   2.027   2.636   1.203  2.3432  0.0306  0.2135
 7124SOL     OW32830   1.638   4.178  12.523 -0.2520 -0.0460 -0.1338
 7124SOL    HW132831   1.722   4.179  12.569 -0.1220  1.4458 -0.3795
 7124SOL    HW232832   1.659   4.229  12.444  0.3202 -2.3471 -1.4617
 7125SOL     OW32833   3.807   1.765  11.388 -0.2638  0.3334 -0.0393
 7125SOL    HW132834   3.837   1.678  11.361 -0.6647  0.3673 -0.5963
 7125SOL    HW232835   3.754   1.733  11.461  0.9670 -1.4216  0.0680
 7126SOL     OW32836   2.236   2.086   6.072 -0.0015  0.0437  0.2994
 7126SOL    HW132837   2.258   2.179   6.070 -1.2796  0.3722  1.6505
 7126SOL    HW232838   2.323   2.058   6.043 -0.0257  0.4103 -0.1357
 7127SOL     OW32839   0.750   2.072   2.761  0.5884 -0.1884  0.0660
 7127SOL    HW132840   0.763   2.166   2.772 -0.6301 -0.2110  1.8402
 7127SOL    HW232841   0.697   2.077   2.682 -1.1647 -4.4496  0.9581
 7128SOL     OW32842   0.244   0.352   7.579  0.0616 -0.3071  0.1470
 7128SOL    HW132843   0.230   0.407   7.502 -3.7760 -1.5873 -0.0720
 7128SOL    HW232844   0.151   0.343   7.601  0.7278 -1.0078  2.6993
 7129SOL     OW32845   4.533   0.567   8.663 -0.1150 -0.0411 -0.7823
 7129SOL    HW132846   4.600   0.499   8.652  2.0215  2.0992 -0.9119
 7129SOL    HW232847   4.588   0.638   8.631 -1.1774  1.7734  1.4477
 7130SOL     OW32848   3.720   3.759   4.116  0.6203 -0.2812 -0.3036
 7130SOL    HW132849   3.696   3.669   4.097 -0.4963  0.0104 -0.3008
 7130SOL    HW232850   3.802   3.759   4.164  1.3903  2.5939 -1.6248
 7131SOL     OW32851   3.601   4.547   6.586  0.5172  0.0042  0.7102
 7131SOL    HW132852   3.603   4.527   6.680 -0.8534  2.1097  1.1742
 7131SOL    HW232853   3.511   4.521   6.564 -0.2780  2.9051  0.5718
 7132SOL     OW32854   2.102   3.335   4.753  0.1598  0.1841  0.2801
 7132SOL    HW132855   2.144   3.400   4.696 -0.5793  1.7599  1.5270
 7132SOL    HW232856   2.056   3.381   4.824  1.9917  0.1796  1.4674
 7133SOL     OW32857   1.399   3.342   4.387 -0.0642 -0.3643 -0.4498
 7133SOL    HW132858   1.407   3.427   4.431  0.2106 -1.2593  1.2354
 7133SOL    HW232859   1.492   3.320   4.376  0.6091  2.2847  0.0139
 7134SOL     OW32860   3.823   1.648   5.476 -0.0932  0.2490 -0.1726
 7134SOL    HW132861   3.834   1.729   5.527 -0.9617 -0.4146  1.0948
 7134SOL    HW232862   3.909   1.611   5.459  0.5329  0.6744  2.0685
 7135SOL     OW32863   4.613   2.531  15.831 -0.3481  0.3910  0.4100
 7135SOL    HW132864   4.706   2.544  15.816 -0.2639 -0.4139  0.2514
 7135SOL    HW232865   4.579   2.558  15.746 -2.7148  1.0879  1.5729
 7136SOL     OW32866   2.986   1.749  10.215  0.0778 -0.4764 -0.1128
 7136SOL    HW132867   3.002   1.706  10.131  0.1457  0.5488 -0.6183
 7136SOL    HW232868   3.033   1.689  10.272 -2.1923 -0.7336  1.4683
 7137SOL     OW32869   2.951   0.133   4.647  0.2528 -1.1214 -0.2601
 7137SOL    HW132870   2.895   0.144   4.571  3.4684  0.4385 -2.4130
 7137SOL    HW232871   3.018   0.075   4.611 -0.9090 -2.4758 -0.2119
 7138SOL     OW32872   4.082   4.081   5.613  0.0607 -0.4827  0.0822
 7138SOL    HW132873   4.048   3.995   5.584 -4.4146  1.6797 -1.2076
 7138SOL    HW232874   4.002   4.133   5.605 -0.0999 -0.7251  0.0996
 7139SOL     OW32875   4.365   0.418  12.703 -0.2872  0.2142 -0.2493
 7139SOL    HW132876   4.416   0.464  12.636  0.7604 -0.5115  0.0505
 7139SOL    HW232877   4.432   0.364  12.743  0.8382  2.4131  0.8345
 7140SOL     OW32878   3.035   3.553   0.644  0.6690  0.0491  0.0825
 7140SOL    HW132879   2.989   3.636   0.648  0.2610 -0.2077  0.7493
 7140SOL    HW232880   3.112   3.582   0.595 -0.2824  0.0361 -1.4250
 7141SOL     OW32881   4.256   3.262   0.632 -1.2053  0.1072 -0.6781
 7141SOL    HW132882   4.188   3.195   0.640 -1.7526  0.8081  0.6879
 7141SOL    HW232883   4.309   3.241   0.555  1.4877  2.8567  0.4451
 7142SOL     OW32884   0.099   1.994   9.934 -0.2588  0.2026 -0.5956
 7142SOL    HW132885   0.055   1.940  10.000  1.6458  0.9266  1.2309
 7142SOL    HW232886   0.047   1.963   9.859 -0.6787 -0.5571  0.0097
 7143SOL     OW32887   0.386   4.067   6.791 -0.2757 -0.2607  0.1287
 7143SOL    HW132888   0.432   4.149   6.769  0.0718 -1.1322 -2.4174
 7143SOL    HW232889   0.456   4.003   6.807  2.0649  2.4126  0.6258
 7144SOL     OW32890   1.284   2.047   4.755 -0.1226 -0.0544  0.2038
 7144SOL    HW132891   1.265   2.130   4.711 -1.5282 -0.0742  0.7969
 7144SOL    HW232892   1.357   2.011   4.704 -0.0411 -0.4205  0.5802
 7145SOL     OW32893   0.309   0.510  16.047  0.5963  0.2706  0.8389
 7145SOL    HW132894   0.225   0.541  16.014  0.5796 -0.4725  0.1866
 7145SOL    HW232895   0.325   0.455  15.970  1.4085 -0.8581  1.8010
 7146SOL     OW32896   4.657   1.635  10.954  0.1984  0.2325 -0.2155
 7146SOL    HW132897   4.685   1.687  11.029  0.6968 -1.3725  0.7257
 7146SOL    HW232898   4.562   1.638  10.946 -0.0287 -2.3141  1.4849
 7147SOL     OW32899   1.320   2.117   5.728  0.2299  0.4704 -0.0832
 7147SOL    HW132900   1.246   2.172   5.751  0.7757  0.3878  1.8937
 7147SOL    HW232901   1.270   2.035   5.723  1.6992 -0.5958  2.3121
 7148SOL     OW32902   3.285   1.701   4.871 -0.0441 -0.6997 -0.4711
 7148SOL    HW132903   3.207   1.648   4.889 -2.1919  1.7577 -2.4557
 7148SOL    HW232904   3.326   1.673   4.789 -0.1388 -1.0139 -0.4104
 7149SOL     OW32905   3.112   0.986  15.899 -0.4958  0.4062 -0.2458
 7149SOL    HW132906   3.078   0.933  15.827  1.2364 -1.5818  0.3814
 7149SOL    HW232907   3.041   0.969  15.961 -0.7726 -0.6561 -0.8549
 7150SOL     OW32908   0.144   2.243   3.170  0.3468  0.3345  0.4473
 7150SOL    HW132909   0.098   2.218   3.089  0.6499  0.9873  0.0770
 7150SOL    HW232910   0.138   2.164   3.224 -1.1030  0.7272  0.8609
 7151SOL     OW32911   4.371   2.881   3.250 -0.2966 -0.1846  0.5250
 7151SOL    HW132912   4.337   2.959   3.205 -4.3718 -2.3928 -0.2033
 7151SOL    HW232913   4.455   2.916   3.281  1.2027 -1.0024 -2.5476
 7152SOL     OW32914   1.939   3.809   1.437 -0.2359  0.2409  0.3336
 7152SOL    HW132915   1.933   3.714   1.438 -1.7668  0.3349  1.0886
 7152SOL    HW232916   1.979   3.821   1.351  0.0955 -0.5417  0.3838
 7153SOL     OW32917   0.442   0.761   4.813  0.3992  0.1229  0.5801
 7153SOL    HW132918   0.497   0.687   4.838  0.4241 -0.3547 -0.8596
 7153SOL    HW232919   0.481   0.791   4.730 -0.8080  0.1958  0.0402
 7154SOL     OW32920   3.594   4.017   8.338 -0.1393 -0.1193  0.4931
 7154SOL    HW132921   3.570   3.953   8.270  1.1738 -0.3934  0.2789
 7154SOL    HW232922   3.584   3.961   8.415 -0.6506 -0.7333 -0.0178
 7155SOL     OW32923   0.604   3.810   8.575 -0.1375  0.5719  0.8969
 7155SOL    HW132924   0.592   3.793   8.668 -1.8559 -0.9059  0.4071
 7155SOL    HW232925   0.699   3.817   8.570 -0.3014  1.3959 -1.1391
 7156SOL     OW32926   4.536   0.782   4.371 -0.2206 -0.5499  0.2292
 7156SOL    HW132927   4.529   0.698   4.326 -2.7002 -0.5396  0.6209
 7156SOL    HW232928   4.448   0.786   4.408 -0.6934  1.4811 -1.1219
 7157SOL     OW32929   4.305   2.840   7.480 -0.0633  1.1743  0.0850
 7157SOL    HW132930   4.385   2.787   7.472 -0.1939  0.7912  1.4025
 7157SOL    HW232931   4.291   2.857   7.572  0.4674 -1.4216  0.6564
 7158SOL     OW32932   2.926   2.705  11.061  0.3333 -0.1507  0.0545
 7158SOL    HW132933   2.972   2.717  11.144  0.0013  1.2627  0.0363
 7158SOL    HW232934   2.991   2.738  11.000 -0.5114 -1.0305 -1.3104
 7159SOL     OW32935   1.890   2.551  10.955 -0.3518  0.1223 -0.1530
 7159SOL    HW132936   1.972   2.593  10.928  0.1322 -0.3433  0.6045
 7159SOL    HW232937   1.908   2.461  10.927  0.6896 -0.4412  2.3123
 7160SOL     OW32938   3.581   1.516   8.820  0.4899  0.2000 -0.3656
 7160SOL    HW132939   3.523   1.545   8.750 -0.6904 -2.5959 -0.5516
 7160SOL    HW232940   3.518   1.532   8.890 -0.4357 -1.5586 -0.8135
 7161SOL     OW32941   1.405   0.137   3.887  0.2217 -0.5406 -0.5272
 7161SOL    HW132942   1.316   0.110   3.863 -0.4650 -0.3186  1.8012
 7161SOL    HW232943   1.395   0.162   3.979  1.4547  0.3407 -0.6384
 7162SOL     OW32944   1.168   2.674   0.267  0.0941 -0.0167  0.3892
 7162SOL    HW132945   1.249   2.656   0.314  0.0174  0.3920  0.6803
 7162SOL    HW232946   1.195   2.740   0.203  2.8118  1.0421  2.6298
 7163SOL     OW32947   3.179   3.141  17.191  0.5213  0.2528  0.3200
 7163SOL    HW132948   3.166   3.194  17.113 -2.6210 -2.1138 -0.7757
 7163SOL    HW232949   3.117   3.069  17.180 -0.9856  1.4064  1.2056
 7164SOL     OW32950   1.996   0.108   3.609 -0.3142  0.5964  0.1400
 7164SOL    HW132951   2.082   0.137   3.582  0.2903 -2.2813 -1.0460
 7164SOL    HW232952   1.994   0.032   3.551  0.5546 -0.7014  1.7952
 7165SOL     OW32953   3.061   3.872  15.697  0.5050  0.4029  0.7683
 7165SOL    HW132954   3.034   3.857  15.607 -2.0394  2.4020  1.1974
 7165SOL    HW232955   3.154   3.848  15.694  0.3196 -0.3230  0.7393
 7166SOL     OW32956   4.432   4.157   8.667 -0.5256  0.2768 -0.3630
 7166SOL    HW132957   4.391   4.155   8.581 -1.8403 -1.1948  0.3075
 7166SOL    HW232958   4.522   4.167   8.635 -0.2265 -0.5812  0.2029
 7167SOL     OW32959   0.805   2.289   8.398 -0.3140  0.1106  0.1512
 7167SOL    HW132960   0.856   2.367   8.380  1.8806 -1.9183 -2.4283
 7167SOL    HW232961   0.733   2.329   8.445 -0.8460  0.0764 -0.6321
 7168SOL     OW32962   3.844   2.302   1.180  0.3038  0.2542 -0.4340
 7168SOL    HW132963   3.756   2.275   1.207 -0.2412  0.8953 -1.5823
 7168SOL    HW232964   3.876   2.363   1.246  0.4894 -0.0573 -0.2352
 7169SOL     OW32965   1.923   4.309   4.023  0.4363  0.1076  0.2500
 7169SOL    HW132966   1.941   4.372   4.093 -0.9328 -0.2797  0.9344
 7169SOL    HW232967   1.853   4.355   3.977 -1.5583 -2.1240  1.0581
 7170SOL     OW32968   2.388   2.252   7.693  0.5158  0.6988  0.2153
 7170SOL    HW132969   2.342   2.210   7.620 -0.3196  1.0246  0.5454
 7170SOL    HW232970   2.333   2.328   7.714  0.2682  1.0402 -1.6391
 7171SOL     OW32971   1.296   1.903  17.614  0.4286 -0.3499  0.2179
 7171SOL    HW132972   1.315   1.943  17.529 -0.4023  0.0587  0.2152
 7171SOL    HW232973   1.383   1.881  17.647  0.4358  0.3360  0.6558
 7172SOL     OW32974   0.819   2.576  13.742  0.3447 -0.6021  0.1003
 7172SOL    HW132975   0.849   2.500  13.793  2.4434 -1.6391 -2.7073
 7172SOL    HW232976   0.903   2.620  13.729 -0.4011 -0.0078 -2.5969
 7173SOL     OW32977   4.701   2.286   3.555  0.7803  0.0369 -0.2625
 7173SOL    HW132978   4.672   2.274   3.465 -0.5291  2.2457 -0.1325
 7173SOL    HW232979   4.635   2.236   3.604  0.4781 -0.6167 -1.3436
 7174SOL     OW32980   4.661   4.658   8.475 -0.0879 -0.3782  0.2885
 7174SOL    HW132981   4.647   0.016   8.522  4.4504 -0.2242  1.4408
 7174SOL    HW232982   0.024   4.672   8.439 -1.5601  2.5635 -2.0547
 7175SOL     OW32983   4.301   0.406   1.765 -0.6522  0.4534 -0.2000
 7175SOL    HW132984   4.366   0.387   1.697 -3.6680 -0.6679 -2.7653
 7175SOL    HW232985   4.274   0.315   1.777  0.1209  0.2412 -0.0811
 7176SOL     OW32986   2.985   3.326   6.551  0.2181 -0.5138  0.6082
 7176SOL    HW132987   3.011   3.397   6.609 -2.5346  2.6403 -1.9961
 7176SOL    HW232988   3.063   3.321   6.495  1.0816  0.7324  1.6938
 7177SOL     OW32989   4.638   1.730   7.812  0.0385 -0.0526  0.4014
 7177SOL    HW132990   4.609   1.750   7.901 -1.6269  0.9050 -0.3617
 7177SOL    HW232991   4.601   1.643   7.798  0.6814 -0.1331 -0.7483
 7178SOL     OW32992   0.623   1.914   7.538  0.5764 -0.3854  0.1362
 7178SOL    HW132993   0.697   1.856   7.557 -0.5119 -1.8601 -0.1673
 7178SOL    HW232994   0.555   1.890   7.601  0.3971  2.0089  0.8666
 7179SOL     OW32995   4.702   2.489   8.960 -0.4669  0.1032 -0.2051
 7179SOL    HW132996   4.700   2.553   8.889  2.7282  2.2152  1.6484
 7179SOL    HW232997   4.638   2.422   8.935  0.8169 -1.4280  0.6383
 7180SOL     OW32998   1.577   3.646   7.526 -0.1393  0.5894 -0.4740
 7180SOL    HW132999   1.660   3.612   7.559 -1.0719 -0.3730  0.8798
 7180SOL    HW233000   1.604   3.737   7.510 -0.0226  0.6454  0.0374
 7181SOL     OW33001   0.336   4.643   7.785  0.0954 -0.1795 -0.1912
 7181SOL    HW133002   0.246   4.665   7.807  0.0348  0.3601 -0.9846
 7181SOL    HW233003   0.326   4.571   7.723  0.4027  0.6416 -1.1885
 7182SOL     OW33004   2.957   1.378   7.576 -0.0462  0.5237  0.1507
 7182SOL    HW133005   3.005   1.400   7.655 -0.4344  0.5707  0.3742
 7182SOL    HW233006   2.960   1.285   7.597  1.1545 -0.0086 -2.3650
 7183SOL     OW33007   4.387   0.331   6.304 -0.4286 -0.2753 -0.3437
 7183SOL    HW133008   4.332   0.364   6.375  0.3101 -0.4353  0.3021
 7183SOL    HW233009   4.326   0.338   6.230  1.7851 -2.6819 -2.3917
 7184SOL     OW33010   1.830   0.371   1.315 -0.3060 -0.6342  0.3518
 7184SOL    HW133011   1.830   0.307   1.243 -0.1237  1.1375 -1.2332
 7184SOL    HW233012   1.828   0.320   1.396  0.4588  3.1403  2.7530
 7185SOL     OW33013   3.445   1.013   5.564  0.0896  0.5898 -0.1383
 7185SOL    HW133014   3.454   0.962   5.645  2.6625 -2.2791 -2.1922
 7185SOL    HW233015   3.377   0.961   5.520  0.7308  1.7437 -2.4786
 7186SOL     OW33016   4.450   1.502   7.430  0.0372  0.2866  0.0998
 7186SOL    HW133017   4.377   1.555   7.398  0.1173  0.2840 -0.0870
 7186SOL    HW233018   4.534   1.539   7.403  0.3832 -1.1501 -0.8003
 7187SOL     OW33019   2.448   1.165   5.236  0.5108 -0.0827 -0.3259
 7187SOL    HW133020   2.469   1.083   5.191  1.3438 -0.1362  0.1685
 7187SOL    HW233021   2.405   1.137   5.317 -2.2926 -0.3385 -1.9081
 7188SOL     OW33022   4.360   0.333  11.103 -0.5137 -0.1375  0.2599
 7188SOL    HW133023   4.345   0.327  11.198 -1.9802 -2.4457 -0.1041
 7188SOL    HW233024   4.388   0.242  11.092 -0.7166 -0.1322 -0.3220
 7189SOL     OW33025   0.722   2.242   1.994  0.5522 -0.1774  0.5692
 7189SOL    HW133026   0.796   2.303   1.989  1.7441 -1.4533  2.7948
 7189SOL    HW233027   0.695   2.250   2.085 -0.5590 -1.3938  0.3467
 7190SOL     OW33028   4.202   3.975  15.281 -0.4023  0.5532  1.2062
 7190SOL    HW133029   4.242   3.948  15.198 -0.6745  0.7339  1.0156
 7190SOL    HW233030   4.240   4.062  15.297  1.9199 -0.3869  0.7594
 7191SOL     OW33031   1.400   4.281   1.156  0.1591 -0.5735  0.0364
 7191SOL    HW133032   1.389   4.228   1.077  2.0545 -0.2763 -0.4153
 7191SOL    HW233033   1.494   4.294   1.148 -0.1452  1.5495 -0.0733
 7192SOL     OW33034   4.337   3.410   6.231  0.3082 -0.2777  0.2775
 7192SOL    HW133035   4.344   3.450   6.145 -2.0396  1.1129  0.7176
 7192SOL    HW233036   4.410   3.349   6.226 -0.1485 -0.9611  1.8917
 7193SOL     OW33037   0.807   1.106   8.945 -0.0092 -0.3694 -0.3031
 7193SOL    HW133038   0.902   1.102   8.930 -0.0747 -3.7783  0.1529
 7193SOL    HW233039   0.786   1.173   8.880  1.7193  1.6583  1.2013
 7194SOL     OW33040   4.714   0.714  16.402 -0.2086  0.2196  0.0507
 7194SOL    HW133041   0.033   0.765  16.471 -3.0721  1.0854  1.2247
 7194SOL    HW233042   0.064   0.718  16.342 -0.5098 -1.1723 -0.4162
 7195SOL     OW33043   3.816   2.245   4.101  0.5949  0.0373  0.1078
 7195SOL    HW133044   3.812   2.163   4.053 -1.0939 -0.4945  1.1560
 7195SOL    HW233045   3.860   2.227   4.184  0.4282  2.6764  0.7737
 7196SOL     OW33046   0.442   1.615   7.811 -0.1548  0.2581 -0.3281
 7196SOL    HW133047   0.359   1.569   7.820  0.5632 -0.9153  0.3836
 7196SOL    HW233048   0.503   1.562   7.864 -2.2334 -3.9633 -2.1329
 7197SOL     OW33049   2.961   1.839   7.776  0.0949 -0.1836 -0.1796
 7197SOL    HW133050   2.925   1.799   7.855 -0.2707  1.0403  0.2745
 7197SOL    HW233051   3.023   1.891   7.828 -0.3711  0.3317 -0.1340
 7198SOL     OW33052   1.518   2.109   7.075  0.0071  0.4954  0.2013
 7198SOL    HW133053   1.588   2.121   7.011  2.2393  1.9556  2.9434
 7198SOL    HW233054   1.499   2.201   7.091  0.4031  0.1281  2.7549
 7199SOL     OW33055   3.749   0.537  17.545 -0.0434 -0.5122  0.0243
 7199SOL    HW133056   3.700   0.512  17.624  1.5883 -0.2707  1.1188
 7199SOL    HW233057   3.837   0.555  17.578 -0.3538  0.1536  0.4888
 7200SOL     OW33058   0.147   0.332   0.902  0.4754 -0.0170 -0.0125
 7200SOL    HW133059   0.125   0.423   0.883  0.9617  0.2100  0.5009
 7200SOL    HW233060   0.093   0.286   0.838  1.6248  0.6797 -1.4890
 7201SOL     OW33061   3.320   2.952  16.018 -0.0140 -0.1521 -0.6360
 7201SOL    HW133062   3.382   2.879  16.026  1.9254  1.5654  0.0439
 7201SOL    HW233063   3.385   3.009  15.978  1.1257 -0.0427  1.3273
 7202SOL     OW33064   3.714   0.539   8.708 -0.4022  0.4860 -0.3527
 7202SOL    HW133065   3.744   0.451   8.728  0.1634  1.0137  1.1529
 7202SOL    HW233066   3.620   0.523   8.721 -0.2268 -0.6020 -0.4895
 7203SOL     OW33067   4.093   3.330   7.901  0.0011  0.4786  0.0622
 7203SOL    HW133068   4.116   3.326   7.808  0.3951  0.4767  0.1602
 7203SOL    HW233069   4.153   3.267   7.939 -0.1800  0.2089 -0.0983
 7204SOL     OW33070   3.688   1.225   8.413 -0.1314 -0.4801  0.6119
 7204SOL    HW133071   3.756   1.166   8.445 -0.7174 -1.1805  0.5681
 7204SOL    HW233072   3.617   1.197   8.470 -0.6708 -1.3479 -0.4843
 7205SOL     OW33073   1.199   1.912   7.434  0.1661  0.8765  0.0607
 7205SOL    HW133074   1.168   1.996   7.400 -2.5271 -0.6937 -1.3389
 7205SOL    HW233075   1.281   1.899   7.385  0.0823  0.6759 -0.0257
 7206SOL     OW33076   0.424   2.819  17.385  0.3088 -0.7966  0.1760
 7206SOL    HW133077   0.455   2.768  17.460  1.7981  2.3298  1.6863
 7206SOL    HW233078   0.378   2.748  17.340 -1.0472  0.0955  0.1468
 7207SOL     OW33079   3.637   2.625   5.308 -0.8212 -0.2067  0.7756
 7207SOL    HW133080   3.563   2.572   5.338 -1.7052  0.4957 -0.1629
 7207SOL    HW233081   3.685   2.646   5.388  0.4862  1.1501 -0.3606
 7208SOL     OW33082   3.679   4.698  17.427 -0.9993  0.5436  0.6450
 7208SOL    HW133083   3.591   4.710  17.460 -1.5171 -1.9277  0.1349
 7208SOL    HW233084   3.720   0.033  17.490  1.4980  0.1441 -0.6030
 7209SOL     OW33085   3.380   3.441   1.027  0.0000 -0.5876 -0.0065
 7209SOL    HW133086   3.295   3.482   1.041  0.9873  2.2751 -2.4398
 7209SOL    HW233087   3.365   3.419   0.935  1.0653  0.9321 -0.5324
 7210SOL     OW33088   0.088   0.662  15.572 -0.1029  0.1237 -1.1901
 7210SOL    HW133089   0.132   0.712  15.503  1.7286  0.5266  0.2756
 7210SOL    HW233090   4.723   0.665  15.539  0.0239 -0.3799 -1.5799
 7211SOL     OW33091   2.262   4.215  13.221  0.4101  0.0454 -0.3747
 7211SOL    HW133092   2.313   4.204  13.140  0.0034  0.1061 -0.6392
 7211SOL    HW233093   2.209   4.291  13.197  0.2807  0.6459  1.8087
 7212SOL     OW33094   0.277   4.085   3.656 -0.3383 -0.1559 -0.4388
 7212SOL    HW133095   0.234   4.032   3.588 -0.4445 -0.0217 -0.4752
 7212SOL    HW233096   0.322   4.150   3.602  1.9314  1.1260  3.0198
 7213SOL     OW33097   0.294   2.374   1.610 -0.6911  0.2173  0.3483
 7213SOL    HW133098   0.218   2.425   1.583 -0.8747 -0.0247  0.4008
 7213SOL    HW233099   0.246   2.291   1.616 -1.6439  0.6382 -1.2950
 7214SOL     OW33100   3.800   0.312   8.844 -0.0264 -0.0633  0.1496
 7214SOL    HW133101   3.723   0.305   8.901 -0.5355 -2.8711 -0.8615
 7214SOL    HW233102   3.868   0.339   8.906  0.2682  0.7042 -0.5119
 7215SOL     OW33103   1.613   1.339   4.590  0.1760  0.4300 -0.2656
 7215SOL    HW133104   1.577   1.252   4.608  0.7219  0.1207 -0.6413
 7215SOL    HW233105   1.544   1.391   4.630 -0.5083 -0.3926 -0.3795
 7216SOL     OW33106   1.366   0.417   3.522  0.3681  0.1468  0.6529
 7216SOL    HW133107   1.425   0.491   3.506  0.5358 -0.7426 -2.7574
 7216SOL    HW233108   1.325   0.439   3.606 -2.2108 -1.5830 -0.1466
 7217SOL     OW33109   0.267   2.187   4.203 -0.1440  0.4898  0.5429
 7217SOL    HW133110   0.348   2.235   4.218 -0.0817 -0.6811  4.0467
 7217SOL    HW233111   0.283   2.144   4.119 -0.2139  1.7288 -0.1081
 7218SOL     OW33112   2.262   4.490   9.749 -0.2798 -0.4487 -0.0779
 7218SOL    HW133113   2.285   4.436   9.673 -1.5721  1.4273 -1.8039
 7218SOL    HW233114   2.323   4.563   9.742 -1.0952  0.0620 -2.0219
 7219SOL     OW33115   2.623   3.724   1.566  0.3877 -0.4189 -0.6283
 7219SOL    HW133116   2.645   3.698   1.476  0.1771 -0.0665 -0.7846
 7219SOL    HW233117   2.629   3.818   1.548  0.9689 -0.7339 -2.1074
 7220SOL     OW33118   2.382   3.819  13.491 -0.5511  0.5287 -0.0831
 7220SOL    HW133119   2.290   3.803  13.472 -0.9246 -0.2618  2.4795
 7220SOL    HW233120   2.391   3.914  13.487 -1.5350  0.5564 -1.6616
 7221SOL     OW33121   2.765   2.236  16.625 -0.2481 -0.7298  0.1815
 7221SOL    HW133122   2.774   2.206  16.715  0.4925  0.4797  0.5027
 7221SOL    HW233123   2.731   2.324  16.640  0.5176 -0.6677  1.5662
 7222SOL     OW33124   3.101   2.132  16.901  0.2662  0.4540 -0.0739
 7222SOL    HW133125   3.161   2.192  16.857  0.7646  0.0700  0.0785
 7222SOL    HW233126   3.016   2.150  16.862  0.1013 -0.5735 -0.1933
 7223SOL     OW33127   0.437   2.783   1.036 -0.2409 -0.3558  0.3690
 7223SOL    HW133128   0.531   2.801   1.029 -0.0161 -1.0552  1.6818
 7223SOL    HW233129   0.418   2.814   1.124 -3.4557 -1.4830  0.0547
 7224SOL     OW33130   0.608   4.541   6.362 -0.6600  0.0601 -0.4980
 7224SOL    HW133131   0.688   4.488   6.368 -0.8149 -0.0880  0.2214
 7224SOL    HW233132   0.555   4.529   6.440 -0.0905 -0.1312 -0.1370
 7225SOL     OW33133   4.393   3.313   2.768 -0.1896 -0.1287  0.5545
 7225SOL    HW133134   4.470   3.348   2.723 -1.2106  0.4462 -0.7466
 7225SOL    HW233135   4.324   3.377   2.748  0.0481 -0.4430 -1.2368
 7226SOL     OW33136   3.947   4.721   1.961 -0.0979  0.4006 -0.1584
 7226SOL    HW133137   3.980   0.037   2.042 -3.0718 -0.1253  1.3310
 7226SOL    HW233138   3.890   0.070   1.937 -0.4100  0.8562  1.9185
 7227SOL     OW33139   3.341   2.582   1.472 -0.1591  0.2906  0.7905
 7227SOL    HW133140   3.379   2.624   1.549  1.2317  1.4790 -0.5446
 7227SOL    HW233141   3.392   2.624   1.403 -1.8144  0.2547 -0.4449
 7228SOL     OW33142   0.413   3.249   0.613  0.4912 -0.2792  0.3739
 7228SOL    HW133143   0.376   3.331   0.580 -1.3228 -0.2403  2.4659
 7228SOL    HW233144   0.506   3.267   0.604  1.4931 -3.5699  3.9415
 7229SOL     OW33145   2.608   2.045   9.459 -0.2392 -0.2120  0.1080
 7229SOL    HW133146   2.628   1.985   9.387 -3.1103 -0.1764 -0.7105
 7229SOL    HW233147   2.579   1.974   9.516 -0.7182  0.4831  0.7358
 7230SOL     OW33148   2.556   3.473  16.582 -0.1843  0.0538 -0.1361
 7230SOL    HW133149   2.636   3.436  16.544 -0.7661 -1.8480  0.5097
 7230SOL    HW233150   2.488   3.426  16.534  0.3600 -1.4847  0.6129
 7231SOL     OW33151   0.655   1.430   8.287  0.0128  0.4138 -0.0793
 7231SOL    HW133152   0.642   1.474   8.371 -0.4123  0.5976 -0.2371
 7231SOL    HW233153   0.574   1.383   8.268 -0.6216  1.4850 -0.0659
 7232SOL     OW33154   0.500   4.081   3.295 -0.2552  0.5494 -0.1211
 7232SOL    HW133155   0.485   3.990   3.322 -1.2519  0.3953 -1.1772
 7232SOL    HW233156   0.426   4.089   3.234  0.9275 -0.1423 -1.6374
 7233SOL     OW33157   0.529   1.179   4.747  0.0449 -0.2471  0.4440
 7233SOL    HW133158   0.603   1.152   4.693 -0.9759 -2.0242 -0.0731
 7233SOL    HW233159   0.567   1.155   4.832  1.1166  0.4596  0.1690
 7234SOL     OW33160   3.489   1.484   6.782 -0.1114  0.1539  0.0415
 7234SOL    HW133161   3.552   1.522   6.843 -0.0845  1.2672 -0.6905
 7234SOL    HW233162   3.529   1.398   6.773 -0.2680  0.1429 -0.5684
 7235SOL     OW33163   0.155   1.538   6.299  0.3786 -0.1321  0.5456
 7235SOL    HW133164   0.160   1.460   6.243  3.6370 -0.2602  0.9890
 7235SOL    HW233165   0.084   1.515   6.358  1.8843 -2.9593  1.2509
 7236SOL     OW33166   0.785   1.856   2.520  0.3994  0.0203 -0.1797
 7236SOL    HW133167   0.845   1.901   2.579  1.3118  0.9491 -1.7969
 7236SOL    HW233168   0.808   1.764   2.534  0.7199  0.2621  0.8819
 7237SOL     OW33169   0.851   4.707   2.647  1.0777 -0.3407 -0.4757
 7237SOL    HW133170   0.901   0.000   2.568 -0.4436  1.0172 -1.1470
 7237SOL    HW233171   0.924   4.707   2.709  0.6797 -0.3818 -0.0057
 7238SOL     OW33172   2.613   4.156   2.455 -0.5859 -0.1940  0.3579
 7238SOL    HW133173   2.673   4.219   2.417 -1.0855 -1.3959 -2.4020
 7238SOL    HW233174   2.584   4.195   2.538  1.3019 -0.6603  1.2281
 7239SOL     OW33175   1.395   4.351   5.786 -0.5420 -0.0622 -0.2355
 7239SOL    HW133176   1.348   4.336   5.704  0.9937 -0.6396 -1.0037
 7239SOL    HW233177   1.471   4.400   5.756 -1.0019 -0.2278 -1.6693
 7240SOL     OW33178   0.633   1.084   6.727 -0.1940 -0.5358 -0.2569
 7240SOL    HW133179   0.608   1.084   6.820 -1.8908  0.0374 -0.7073
 7240SOL    HW233180   0.571   1.137   6.677 -1.3169  1.6267  3.4009
 7241SOL     OW33181   3.695   2.558   3.959 -0.0468 -0.4222  1.0260
 7241SOL    HW133182   3.704   2.593   3.870  1.8152 -2.4257  0.4367
 7241SOL    HW233183   3.714   2.637   4.010  2.0888 -0.6671  0.6109
 7242SOL     OW33184   0.965   4.598  14.329  0.1115  0.8208  0.3233
 7242SOL    HW133185   0.906   4.618  14.257  0.2483 -0.3925 -0.1135
 7242SOL    HW233186   0.905   4.574  14.400 -0.1387  0.7779  0.0955
 7243SOL     OW33187   2.713   3.204   7.371 -0.5311 -1.0169  0.8543
 7243SOL    HW133188   2.707   3.283   7.424 -0.8854 -1.1479  1.0096
 7243SOL    HW233189   2.786   3.225   7.313 -1.3587 -0.8104 -0.0978
 7244SOL     OW33190   4.581   1.764   7.332  0.6232  0.2276  0.5294
 7244SOL    HW133191   4.603   1.838   7.276  0.7754  0.4856  0.9269
 7244SOL    HW233192   4.640   1.694   7.304  0.2734  0.0066  0.3411
 7245SOL     OW33193   4.173   4.512   4.172 -0.2848 -0.6876  0.2781
 7245SOL    HW133194   4.193   4.435   4.119 -0.6305  0.3744 -1.3790
 7245SOL    HW233195   4.090   4.486   4.212 -0.1347 -3.0783 -0.9406
 7246SOL     OW33196   1.197   1.550   8.127 -0.2366 -0.4612 -0.1476
 7246SOL    HW133197   1.148   1.580   8.204  0.1050  0.2221 -0.2043
 7246SOL    HW233198   1.251   1.627   8.112 -3.4100  1.6122 -1.0215
 7247SOL     OW33199   3.602   1.620  13.002  0.0042  0.0478 -0.3061
 7247SOL    HW133200   3.616   1.543  12.947  0.3283  0.2159 -0.4589
 7247SOL    HW233201   3.673   1.616  13.066  0.1010 -0.7911 -0.4722
 7248SOL     OW33202   3.114   0.268   6.346  0.6028 -0.1010 -0.3987
 7248SOL    HW133203   3.034   0.284   6.396  0.9640 -3.2355  1.1686
 7248SOL    HW233204   3.157   0.353   6.343 -0.5581  0.5840  2.2701
 7249SOL     OW33205   1.365   0.407   5.276  0.4706  0.1651  0.3461
 7249SOL    HW133206   1.411   0.385   5.356  0.3167 -0.8434  0.1481
 7249SOL    HW233207   1.401   0.495   5.260 -0.4638  0.4489 -0.2076
 7250SOL     OW33208   0.338   3.044  10.118  0.0764 -0.0856 -0.1817
 7250SOL    HW133209   0.417   3.029  10.067 -0.7150 -1.6767 -0.9232
 7250SOL    HW233210   0.270   3.010  10.060  0.4283 -1.5223  0.2410
 7251SOL     OW33211   2.115   2.327   9.196  0.5888 -0.2012  0.2990
 7251SOL    HW133212   2.168   2.272   9.253  0.7137  0.1530  0.5222
 7251SOL    HW233213   2.056   2.373   9.256  1.8943  1.6628  0.1749
 7252SOL     OW33214   1.905   3.049   6.888  0.3099  0.2896  0.0501
 7252SOL    HW133215   1.870   3.007   6.967  1.2578  0.8600  0.7712
 7252SOL    HW233216   1.963   3.105   6.939  1.9105 -1.7548  0.4446
 7253SOL     OW33217   2.759   1.646   9.649 -1.0386 -0.0452  0.4266
 7253SOL    HW133218   2.744   1.607   9.735  0.8746  0.7540  1.1399
 7253SOL    HW233219   2.769   1.739   9.670  0.9231  0.0375 -0.8460
 7254SOL     OW33220   0.918   3.494  14.870 -0.0909  0.8040  0.4042
 7254SOL    HW133221   0.972   3.569  14.846  1.5415 -1.3680 -2.7688
 7254SOL    HW233222   0.931   3.435  14.796 -0.1849  0.5227  0.6132
 7255SOL     OW33223   4.704   0.189   2.876 -0.3574 -0.5831 -0.5264
 7255SOL    HW133224   0.001   0.249   2.804 -0.0947  2.3516  2.0101
 7255SOL    HW233225   4.609   0.185   2.882 -0.4152  0.8425 -0.3925
 7256SOL     OW33226   4.421   1.408   5.502  0.5613 -0.3248 -0.0468
 7256SOL    HW133227   4.378   1.323   5.492  0.6456 -0.1772 -1.7807
 7256SOL    HW233228   4.394   1.430   5.591 -2.2587  0.7639 -1.1563
 7257SOL     OW33229   0.197   1.926   9.140 -0.2346  0.5212  0.6794
 7257SOL    HW133230   0.126   1.953   9.199 -0.8169  3.3131 -1.3567
 7257SOL    HW233231   0.152   1.863   9.083  1.1912  2.1640 -2.2304
 7258SOL     OW33232   1.498   2.042   3.951 -0.9548 -0.1452 -0.3462
 7258SOL    HW133233   1.459   2.129   3.943 -1.0410  0.0914  2.6416
 7258SOL    HW233234   1.499   2.017   3.858 -1.7443  1.3054 -0.7497
 7259SOL     OW33235   3.391   4.244   1.865 -0.3403 -0.4863  0.5044
 7259SOL    HW133236   3.312   4.191   1.863 -0.5660 -0.0830 -2.0471
 7259SOL    HW233237   3.447   4.177   1.826 -0.7432 -3.1302  4.4949
 7260SOL     OW33238   0.746   1.014   4.589  0.1250  0.2615 -0.6037
 7260SOL    HW133239   0.819   1.040   4.532  0.1269  1.4315 -0.0842
 7260SOL    HW233240   0.768   1.060   4.670 -3.3802  1.4401 -0.3301
 7261SOL     OW33241   1.938   4.378   0.610 -0.3573 -0.1597 -0.4181
 7261SOL    HW133242   2.008   4.329   0.567  0.6719  0.8491  0.1073
 7261SOL    HW233243   1.878   4.396   0.537 -1.9536  0.7431  1.1094
 7262SOL     OW33244   2.452   0.240   6.260  0.2083  0.1513 -0.5847
 7262SOL    HW133245   2.531   0.246   6.206  1.3991 -0.0300  1.1473
 7262SOL    HW233246   2.399   0.313   6.229  2.0409  1.2515 -1.1525
 7263SOL     OW33247   1.134   0.983  16.153 -0.2798 -0.0898 -0.1816
 7263SOL    HW133248   1.131   1.077  16.140 -1.1093 -0.6445 -3.8531
 7263SOL    HW233249   1.082   0.977  16.233 -2.3505  1.0629 -1.4576
 7264SOL     OW33250   2.042   4.570   3.531 -0.0244  0.6454  0.0849
 7264SOL    HW133251   2.044   4.588   3.625  0.7810 -1.4937  0.4974
 7264SOL    HW233252   2.113   4.505   3.530 -1.4035 -0.8468 -0.6982
 7265SOL     OW33253   3.070   3.460   2.047  0.1195  0.0093 -0.6131
 7265SOL    HW133254   3.034   3.549   2.046 -1.9465 -0.8256 -0.6329
 7265SOL    HW233255   3.125   3.467   2.126 -0.3045 -1.0920 -0.2241
 7266SOL     OW33256   1.776   1.488  16.687 -0.0669 -0.5243 -0.4573
 7266SOL    HW133257   1.745   1.576  16.663  1.2844 -0.4262 -1.8263
 7266SOL    HW233258   1.864   1.505  16.718  0.2550  1.8014 -2.6213
 7267SOL     OW33259   4.469   1.937   9.218 -0.1552 -0.5310 -0.6483
 7267SOL    HW133260   4.437   1.939   9.128  1.4023  1.1351 -1.1482
 7267SOL    HW233261   4.451   1.843   9.220  0.4201 -0.6329 -0.1809
 7268SOL     OW33262   0.142   3.616  10.858 -0.2510 -0.3535  0.5974
 7268SOL    HW133263   0.131   3.686  10.922  1.6343 -0.2726  0.8186
 7268SOL    HW233264   0.189   3.547  10.905 -0.4964 -0.1807  1.0884
 7269SOL     OW33265   2.183   3.039   2.257  0.1499  0.6619  0.2429
 7269SOL    HW133266   2.234   3.066   2.333  1.5896  0.7394 -0.7703
 7269SOL    HW233267   2.105   3.009   2.304 -0.1102 -0.9480 -1.2087
 7270SOL     OW33268   3.105   2.040  16.376  0.0849 -0.0948 -0.3103
 7270SOL    HW133269   3.027   2.096  16.376 -0.1330 -0.3944 -0.9646
 7270SOL    HW233270   3.082   1.982  16.449  1.3257 -2.5108 -1.8453
 7271SOL     OW33271   4.037   1.644   8.757 -0.0898  0.1250 -0.2626
 7271SOL    HW133272   4.065   1.590   8.683  4.1886  0.2330  1.2944
 7271SOL    HW233273   3.952   1.605   8.780 -0.3405  0.9472  0.1894
 7272SOL     OW33274   1.726   2.148   2.279 -0.0959 -0.0713 -0.6487
 7272SOL    HW133275   1.731   2.067   2.331  0.4329  1.2047  1.3058
 7272SOL    HW233276   1.813   2.179   2.303 -0.1243 -0.3014 -0.2363
 7273SOL     OW33277   0.675   2.429   1.079 -0.4332 -0.6320  0.4744
 7273SOL    HW133278   0.595   2.426   1.026 -0.8950  3.2819  0.9836
 7273SOL    HW233279   0.703   2.339   1.060  1.7799  0.2069 -0.1767
 7274SOL     OW33280   2.982   2.498   4.702  0.2171  0.0815 -0.0627
 7274SOL    HW133281   2.973   2.586   4.740 -1.0708 -0.4107  0.7929
 7274SOL    HW233282   3.065   2.470   4.742  0.2994  1.1326  0.5044
 7275SOL     OW33283   1.349   2.026  14.215 -0.3088 -0.8910 -0.6518
 7275SOL    HW133284   1.442   2.002  14.222 -0.2477 -0.5726 -0.3171
 7275SOL    HW233285   1.348   2.038  14.120 -1.1387  2.9998 -0.1520
 7276SOL     OW33286   1.963   2.882   0.287  0.2558 -0.0874 -0.1926
 7276SOL    HW133287   1.960   2.787   0.276 -3.1097  0.2617 -2.3565
 7276SOL    HW233288   1.901   2.908   0.218  0.0982 -4.0566 -1.5491
 7277SOL     OW33289   3.799   0.927   4.407 -0.2609 -0.2374 -0.3192
 7277SOL    HW133290   3.813   0.953   4.498 -0.9199  5.4293 -1.8187
 7277SOL    HW233291   3.885   0.907   4.371  1.0849  3.1303  1.0781
 7278SOL     OW33292   0.849   0.928  12.040 -0.0035  0.3445 -0.2994
 7278SOL    HW133293   0.786   0.913  12.111 -1.8488  1.6691 -1.6614
 7278SOL    HW233294   0.870   0.841  12.008  0.6402  0.2042  0.4977
 7279SOL     OW33295   3.432   4.215   2.388 -0.5973  0.4303 -0.0855
 7279SOL    HW133296   3.499   4.218   2.456  0.5602 -2.3264 -1.0639
 7279SOL    HW233297   3.488   4.197   2.312 -1.3469  0.3040 -0.6074
 7280SOL     OW33298   2.438   2.941  15.491 -0.3571  0.0578  0.3914
 7280SOL    HW133299   2.390   2.925  15.410  1.2596 -2.2705 -0.1144
 7280SOL    HW233300   2.517   2.978  15.451 -0.6989  0.5073  0.1374
 7281SOL     OW33301   4.460   1.672   6.725  0.6085  0.3441 -0.5329
 7281SOL    HW133302   4.548   1.674   6.763 -0.6935 -0.2186  2.4900
 7281SOL    HW233303   4.398   1.683   6.797  0.0451  0.9050 -1.1024
 7282SOL     OW33304   3.856   1.929   0.490 -0.2616  0.5795 -0.1882
 7282SOL    HW133305   3.775   1.877   0.489  1.0413 -1.4558  0.5880
 7282SOL    HW233306   3.814   2.008   0.522  0.4351  0.7896  0.1862
 7283SOL     OW33307   0.354   0.475  13.556  0.1057  0.0300 -0.4119
 7283SOL    HW133308   0.380   0.451  13.468  0.6369 -1.2297  0.0969
 7283SOL    HW233309   0.264   0.444  13.562  0.4107 -0.5332  1.4385
 7284SOL     OW33310   4.572   4.223   4.370  0.2385  0.5074  0.2354
 7284SOL    HW133311   4.608   4.304   4.332  0.7080  0.9655  1.6544
 7284SOL    HW233312   4.650   4.196   4.419  0.2072  0.1991  0.1113
 7285SOL     OW33313   0.777   3.359   9.032  0.2711  0.1758 -0.1120
 7285SOL    HW133314   0.736   3.272   9.035 -0.7757  0.7083  0.9867
 7285SOL    HW233315   0.871   3.340   9.025  0.3309  0.5208 -0.2486
 7286SOL     OW33316   1.168   3.442   2.156 -0.1014 -0.0477 -0.2809
 7286SOL    HW133317   1.243   3.430   2.214 -1.0101 -1.6922  0.5731
 7286SOL    HW233318   1.125   3.509   2.209 -0.2418 -0.5821  0.2732
 7287SOL     OW33319   2.074   1.789   7.189 -0.0055 -0.5388  0.1545
 7287SOL    HW133320   2.169   1.777   7.182  0.0021 -0.3576 -0.0740
 7287SOL    HW233321   2.047   1.777   7.098 -1.3183  0.7635  0.3803
 7288SOL     OW33322   1.223   1.504  10.899  0.7834  0.1482  0.1260
 7288SOL    HW133323   1.274   1.498  10.980 -1.2484 -1.5218  1.2935
 7288SOL    HW233324   1.148   1.448  10.920  0.2043  0.9717  0.2624
 7289SOL     OW33325   1.224   2.312   4.339  0.6895  0.2410  0.0473
 7289SOL    HW133326   1.241   2.304   4.433  0.1327 -1.1723  0.0326
 7289SOL    HW233327   1.163   2.386   4.338 -0.0786 -0.4154 -1.7663
 7290SOL     OW33328   4.185   2.502  10.610 -0.0528  0.0047 -0.5779
 7290SOL    HW133329   4.168   2.442  10.537  1.1213  1.7849 -2.3349
 7290SOL    HW233330   4.280   2.511  10.623 -0.0964 -1.1153  0.4519
 7291SOL     OW33331   1.869   3.306   9.938 -0.0331 -0.7370  0.0539
 7291SOL    HW133332   1.954   3.319   9.978  0.1001  0.6775 -0.7054
 7291SOL    HW233333   1.909   3.270   9.859 -0.6051  0.4428 -0.7669
 7292SOL     OW33334   2.290   2.750   7.230 -0.2594 -0.1565  0.1810
 7292SOL    HW133335   2.221   2.705   7.278 -0.5184 -0.3600 -0.3794
 7292SOL    HW233336   2.335   2.672   7.196  0.0262  0.6903 -1.3978
 7293SOL     OW33337   2.400   0.608   2.572  0.1392  0.3351 -0.0669
 7293SOL    HW133338   2.437   0.633   2.487  0.6230  1.0291  0.3507
 7293SOL    HW233339   2.451   0.652   2.640  2.5459 -0.2873 -1.4544
 7294SOL     OW33340   1.851   2.849   8.163 -0.1656 -0.1064  0.2298
 7294SOL    HW133341   1.818   2.832   8.076 -1.7342  2.4880  0.3020
 7294SOL    HW233342   1.907   2.921   8.134  0.2400 -0.5483 -0.0809
 7295SOL     OW33343   3.373   3.385  16.223  0.2435 -0.1556 -0.0679
 7295SOL    HW133344   3.454   3.339  16.204  0.0929 -0.4735  0.0513
 7295SOL    HW233345   3.386   3.381  16.318 -1.0978 -0.5651  0.1027
 7296SOL     OW33346   4.610   2.266   5.783 -0.1403  0.5932 -0.1560
 7296SOL    HW133347   4.590   2.288   5.692  2.2109 -0.0459 -0.8489
 7296SOL    HW233348   4.530   2.220   5.808 -1.7476  1.1639 -4.1959
 7297SOL     OW33349   2.155   3.811   4.689  0.3301 -0.7513  0.3364
 7297SOL    HW133350   2.079   3.837   4.636  0.7585 -0.0161  0.0876
 7297SOL    HW233351   2.144   3.865   4.767  0.2440 -1.0495  0.5309
 7298SOL     OW33352   1.936   1.427  12.016  0.5074 -0.3908 -0.6298
 7298SOL    HW133353   1.972   1.493  12.075  0.0825 -0.1936 -0.5945
 7298SOL    HW233354   1.982   1.440  11.933 -0.2085 -0.4806 -1.0393
 7299SOL     OW33355   4.302   1.235   3.783 -0.3335 -0.1669 -0.3935
 7299SOL    HW133356   4.309   1.143   3.805 -2.8284 -0.5258 -1.0817
 7299SOL    HW233357   4.238   1.232   3.712  0.6554  0.7906 -1.3412
 7300SOL     OW33358   3.304   3.961  13.556  0.5363 -0.6204  0.2730
 7300SOL    HW133359   3.290   4.035  13.498  0.0237 -0.9283  0.0115
 7300SOL    HW233360   3.399   3.950  13.561  0.8449  1.7384 -0.3438
 7301SOL     OW33361   2.528   2.071  10.068 -0.5530  0.1942 -0.0812
 7301SOL    HW133362   2.484   2.142  10.114  2.5662  1.4054  1.0695
 7301SOL    HW233363   2.445   2.029  10.046  0.1178 -0.5036 -1.2794
 7302SOL     OW33364   4.457   0.438   5.545 -0.2280  0.5010 -0.1049
 7302SOL    HW133365   4.422   0.445   5.457 -0.2164 -2.7610 -0.3662
 7302SOL    HW233366   4.551   0.423   5.531  0.0401  1.1320  1.0305
 7303SOL     OW33367   4.668   2.385  11.032  0.2471 -0.1717  0.0976
 7303SOL    HW133368   4.648   2.292  11.037  1.7449 -0.5859 -1.5258
 7303SOL    HW233369   0.001   2.395  10.956  2.2899 -0.5804  1.6060
 7304SOL     OW33370   1.951   4.623   2.666 -0.0307 -0.5265  0.5973
 7304SOL    HW133371   1.952   4.639   2.761  1.4659  0.8203  0.3565
 7304SOL    HW233372   1.880   4.561   2.652  0.1109 -0.8723  1.3802
 7305SOL     OW33373   0.835   3.943   6.926 -0.1695 -0.0741 -0.0561
 7305SOL    HW133374   0.878   3.966   7.008  2.2059 -0.6263 -1.1398
 7305SOL    HW233375   0.867   4.017   6.873 -0.5004  0.0463 -0.0893
 7306SOL     OW33376   0.728   3.466  13.693  0.1155 -0.2925 -0.2933
 7306SOL    HW133377   0.779   3.546  13.703 -0.1363 -0.1256 -0.3271
 7306SOL    HW233378   0.785   3.412  13.747  1.1943 -0.3505 -1.4829
 7307SOL     OW33379   2.728   1.428  16.356  0.9304  0.1183 -0.3564
 7307SOL    HW133380   2.768   1.434  16.269 -2.5208 -3.1917 -2.1604
 7307SOL    HW233381   2.712   1.521  16.372  0.5665  0.0340 -0.2377
 7308SOL     OW33382   4.354   2.067   2.042  0.3422  0.0327  0.1077
 7308SOL    HW133383   4.344   2.041   1.950  1.2978  0.7145 -0.1907
 7308SOL    HW233384   4.418   2.138   2.031 -0.2130  0.4286 -0.6027
 7309SOL     OW33385   1.270   2.583   1.414  0.0283  0.4755 -0.8582
 7309SOL    HW133386   1.326   2.642   1.363  0.2206  0.4828 -0.6385
 7309SOL    HW233387   1.193   2.639   1.425  0.6258  1.0963  0.2188
 7310SOL     OW33388   2.755   1.196   7.727 -0.1789 -0.3220 -0.4443
 7310SOL    HW133389   2.811   1.121   7.704  0.0738 -0.7248  1.5505
 7310SOL    HW233390   2.748   1.194   7.822 -0.7158  1.2064 -0.4561
 7311SOL     OW33391   3.912   0.192   8.049  0.6522  0.2778 -0.5336
 7311SOL    HW133392   3.860   0.118   8.019 -1.5520  1.2591  0.8539
 7311SOL    HW233393   3.876   0.188   8.138  0.2514 -1.6760 -0.7915
 7312SOL     OW33394   4.196   1.927   7.085 -0.0126  0.0158 -0.0109
 7312SOL    HW133395   4.230   1.997   7.031  0.3057  0.0332  0.2122
 7312SOL    HW233396   4.164   1.984   7.154  0.7988  0.3449  0.0891
 7313SOL     OW33397   1.211   2.529   7.935 -0.1864  0.0188 -0.2035
 7313SOL    HW133398   1.123   2.559   7.955  0.4737  1.3955  0.6273
 7313SOL    HW233399   1.191   2.471   7.862 -0.3519  0.5356 -0.5734
 7314SOL     OW33400   3.231   2.471   6.260  0.5326  0.2940 -0.4132
 7314SOL    HW133401   3.309   2.457   6.313  1.8143  1.3499 -2.0398
 7314SOL    HW233402   3.166   2.481   6.330 -1.0072 -0.3005 -1.7804
 7315SOL     OW33403   1.175   4.669   8.219  0.2196 -0.6926 -0.3245
 7315SOL    HW133404   1.207   4.691   8.132 -0.5753  0.0005 -0.4394
 7315SOL    HW233405   1.116   0.018   8.235 -0.3326 -0.9330 -1.2565
 7316SOL     OW33406   4.436   1.649   3.235  0.3515 -0.2583 -0.6419
 7316SOL    HW133407   4.484   1.599   3.302 -1.7864 -0.7846  0.4934
 7316SOL    HW233408   4.504   1.663   3.169  0.3688 -0.6656 -0.7119
 7317SOL     OW33409   2.908   1.440  13.494 -0.3557 -0.0434 -0.1667
 7317SOL    HW133410   2.846   1.367  13.484 -0.2635 -0.2314  0.6498
 7317SOL    HW233411   2.957   1.426  13.575 -0.6794 -0.5970 -0.0643
 7318SOL     OW33412   2.004   1.741   4.136  0.1968 -0.0439  0.3912
 7318SOL    HW133413   2.082   1.687   4.151 -0.0308 -0.8142 -1.2518
 7318SOL    HW233414   1.991   1.732   4.042  0.3700 -1.3168  0.4851
 7319SOL     OW33415   0.590   4.677  11.272  0.5585 -0.0675  0.2362
 7319SOL    HW133416   0.508   4.700  11.316 -0.2525 -1.5402 -0.4989
 7319SOL    HW233417   0.598   0.031  11.218 -0.6653 -0.6936 -0.8466
 7320SOL     OW33418   1.139   0.328  15.246 -0.1620 -0.0710  0.0818
 7320SOL    HW133419   1.229   0.314  15.217 -0.4585  0.0453 -0.8742
 7320SOL    HW233420   1.153   0.380  15.325 -1.2556 -1.6532  1.3088
 7321SOL     OW33421   3.925   2.590  15.767 -0.1393  0.6547 -0.3264
 7321SOL    HW133422   3.862   2.518  15.754  0.5434  0.0985 -0.5359
 7321SOL    HW233423   3.927   2.587  15.863  1.6718 -0.8784 -0.4131
 7322SOL     OW33424   3.854   4.571   6.111  0.4359 -0.0228  0.2747
 7322SOL    HW133425   3.765   4.568   6.076  0.9323  1.0421 -1.0706
 7322SOL    HW233426   3.849   4.554   6.205 -0.6729  0.8069  0.3611
 7323SOL     OW33427   0.963   3.988   9.424 -0.0095 -0.1236 -0.0274
 7323SOL    HW133428   1.024   4.061   9.412  0.1414 -0.0992  0.8505
 7323SOL    HW233429   0.988   3.963   9.513 -0.3733  1.4275  0.5009
 7324SOL     OW33430   0.442   1.734  17.561 -0.0266 -0.9451  0.5660
 7324SOL    HW133431   0.406   1.746  17.649  0.8601 -1.9342  1.0556
 7324SOL    HW233432   0.459   1.827  17.546 -4.2196 -0.3099 -0.2123
 7325SOL     OW33433   1.946   0.165   0.840  0.1598 -0.1486  0.0210
 7325SOL    HW133434   1.920   0.244   0.889  2.4650 -0.8279  2.3706
 7325SOL    HW233435   1.995   0.121   0.909 -0.9801 -0.0453  0.8899
 7326SOL     OW33436   1.354   1.188   3.251 -0.0707  0.1602 -0.6100
 7326SOL    HW133437   1.262   1.188   3.277 -0.5227 -2.2649 -2.2629
 7326SOL    HW233438   1.398   1.174   3.335  1.3535  0.4911 -1.2941
 7327SOL     OW33439   4.710   2.127   5.305  0.2793 -0.0089 -0.4539
 7327SOL    HW133440   4.631   2.073   5.309  0.2600  0.0006 -0.6754
 7327SOL    HW233441   0.006   2.135   5.398 -0.5772 -2.0292 -0.0884
 7328SOL     OW33442   3.481   2.342   8.267  0.4724 -0.1121  0.1758
 7328SOL    HW133443   3.516   2.415   8.318  1.8592 -0.3871 -0.3651
 7328SOL    HW233444   3.554   2.280   8.273  0.8866  0.4442  0.9536
 7329SOL     OW33445   4.206   1.025   8.659  0.9764 -0.1030  0.0693
 7329SOL    HW133446   4.300   1.032   8.644  0.5626 -0.3784 -2.6215
 7329SOL    HW233447   4.163   1.080   8.594 -0.3157 -2.2224 -0.8633
 7330SOL     OW33448   0.149   0.415  14.628 -0.3127  0.0400  0.0094
 7330SOL    HW133449   0.146   0.500  14.672 -0.0667 -0.8621  1.7451
 7330SOL    HW233450   0.214   0.367  14.679  0.4759  0.1507 -0.8793
 7331SOL     OW33451   3.176   0.142   5.842 -0.1229 -0.0451  0.5085
 7331SOL    HW133452   3.251   0.104   5.797 -0.2006 -1.1541  1.3280
 7331SOL    HW233453   3.179   0.231   5.805  1.0218 -0.0289  0.6338
 7332SOL     OW33454   0.531   4.151  17.067 -0.3997 -0.2046  0.1832
 7332SOL    HW133455   0.445   4.143  17.108  0.7480  0.0257  2.6556
 7332SOL    HW233456   0.549   4.057  17.063  0.9115  0.0894 -0.8084
 7333SOL     OW33457   0.231   2.484   6.432  0.2897 -0.4886 -0.0175
 7333SOL    HW133458   0.223   2.415   6.498  2.6295 -0.3787  0.3855
 7333SOL    HW233459   0.180   2.442   6.363 -0.1878 -2.2044  1.3764
 7334SOL     OW33460   1.363   4.113   3.909 -0.3772  0.6012 -0.9746
 7334SOL    HW133461   1.447   4.152   3.881 -0.8463  1.6547 -0.9172
 7334SOL    HW233462   1.311   4.137   3.832  2.2340  0.0668 -2.9061
 7335SOL     OW33463   2.650   0.075   3.978  0.4915 -0.1843 -0.2721
 7335SOL    HW133464   2.666   0.020   4.054 -1.2375 -2.5448 -1.6193
 7335SOL    HW233465   2.582   0.021   3.937 -0.5238  0.6954  0.2453
 7336SOL     OW33466   1.708   2.524   7.026 -0.3563 -0.0587 -0.0134
 7336SOL    HW133467   1.801   2.548   7.023 -0.7535  1.7347  1.8008
 7336SOL    HW233468   1.679   2.516   6.936 -1.3146  3.6918 -0.0195
 7337SOL     OW33469   2.657   1.231  10.465 -0.1201  1.3503  0.4827
 7337SOL    HW133470   2.713   1.153  10.464  0.9351  2.0883  1.5274
 7337SOL    HW233471   2.599   1.198  10.534  1.0277 -1.1684  0.2548
 7338SOL     OW33472   3.214   0.107   7.681 -0.7222  0.0465  0.0509
 7338SOL    HW133473   3.283   0.068   7.628 -2.3933 -2.4465 -0.2771
 7338SOL    HW233474   3.263   0.181   7.717  0.8404 -0.5457 -0.8230
 7339SOL     OW33475   0.158   3.321   1.852  0.1568  0.9618  0.3202
 7339SOL    HW133476   0.192   3.241   1.810  0.3423  1.2918 -0.1653
 7339SOL    HW233477   0.091   3.346   1.788  0.9219 -0.9988 -1.2522
 7340SOL     OW33478   0.206   2.037   9.653 -0.0033  0.1910  0.0212
 7340SOL    HW133479   0.268   1.965   9.663 -0.8126 -0.6754 -1.2909
 7340SOL    HW233480   0.215   2.091   9.732 -0.0681  0.0550  0.1211
 7341SOL     OW33481   0.095   2.874   0.035 -0.6974  0.0542 -0.2380
 7341SOL    HW133482   0.134   2.802   0.085  1.0012  0.6163 -0.7690
 7341SOL    HW233483   0.028   2.898   0.099 -1.1076 -0.0294 -0.6353
 7342SOL     OW33484   1.038   0.137   0.631  0.7028 -0.2001  0.7851
 7342SOL    HW133485   1.035   0.053   0.585  0.4935  0.9404 -1.2779
 7342SOL    HW233486   1.100   0.183   0.574 -2.2020  0.0027 -2.1785
 7343SOL     OW33487   0.179   0.984   5.032 -0.1882  0.1223  0.4451
 7343SOL    HW133488   0.093   1.023   5.052  1.6757  4.0865  0.6519
 7343SOL    HW233489   0.236   1.048   5.075 -0.3904  1.2369 -0.9457
 7344SOL     OW33490   1.768   0.731   4.665 -0.1622  0.1518 -0.0917
 7344SOL    HW133491   1.809   0.649   4.637  2.7461  0.9842  1.7543
 7344SOL    HW233492   1.838   0.772   4.716 -1.0213  0.9107  0.4875
 7345SOL     OW33493   3.150   2.935  14.899 -0.1291  0.0831  0.4198
 7345SOL    HW133494   3.121   3.012  14.850  3.3841  0.3217 -1.2527
 7345SOL    HW233495   3.063   2.917  14.935 -0.8260 -0.5433 -1.5953
 7346SOL     OW33496   2.864   1.519   6.075  0.7309 -0.4004  0.3994
 7346SOL    HW133497   2.952   1.487   6.096  0.5680 -1.2497 -0.2202
 7346SOL    HW233498   2.822   1.444   6.033  0.6678  0.3665 -0.8898
 7347SOL     OW33499   4.012   1.926  16.579 -0.5859  0.0725 -0.3752
 7347SOL    HW133500   3.973   2.013  16.589  1.0035  0.4922  2.2665
 7347SOL    HW233501   4.038   1.909  16.670 -1.8367  0.2551  0.0287
 7348SOL     OW33502   0.803   1.518   7.751 -0.3812 -0.0387  0.1408
 7348SOL    HW133503   0.876   1.511   7.813  0.2922 -2.5946 -0.9252
 7348SOL    HW233504   0.756   1.435   7.758 -1.1180  0.1525 -2.3347
 7349SOL     OW33505   2.345   3.689  11.663  0.2215 -0.7532 -0.2595
 7349SOL    HW133506   2.426   3.722  11.624  0.9334 -1.3007  0.7533
 7349SOL    HW233507   2.366   3.647  11.747 -1.5535  0.8072  0.9766
 7350SOL     OW33508   1.828   1.087   7.030  0.1468  0.7935 -0.3067
 7350SOL    HW133509   1.854   1.109   7.119  1.5432  0.5656 -0.6494
 7350SOL    HW233510   1.916   1.081   6.994  0.8233  0.3394  1.4405
 7351SOL     OW33511   0.008   4.427   4.253 -0.3035 -0.0084  0.9371
 7351SOL    HW133512   0.081   4.432   4.192 -0.7642  0.0385  0.3837
 7351SOL    HW233513   0.021   4.486   4.327 -1.0361 -1.8635  2.5564
 7352SOL     OW33514   0.274   3.043   3.504  0.1678 -0.3028 -0.1315
 7352SOL    HW133515   0.313   3.048   3.591  1.5536  0.7804 -0.8124
 7352SOL    HW233516   0.352   3.018   3.455  0.6420 -3.4706  2.2160
 7353SOL     OW33517   0.880   0.534  13.969 -0.6591 -0.4128  0.5544
 7353SOL    HW133518   0.967   0.514  13.936  0.0778  2.8375  0.5356
 7353SOL    HW233519   0.831   0.458  13.937  1.9493 -1.6596 -0.4309
 7354SOL     OW33520   0.188   3.392   6.948 -0.2888  0.0169  0.2580
 7354SOL    HW133521   0.267   3.405   6.897  0.9271  2.8642  2.8222
 7354SOL    HW233522   0.228   3.360   7.029  3.0966  0.4357 -1.3003
 7355SOL     OW33523   3.502   1.113  15.750 -0.1725 -0.4426  0.4857
 7355SOL    HW133524   3.466   1.055  15.682  3.5859 -1.3175 -0.7366
 7355SOL    HW233525   3.595   1.090  15.755  0.3787  1.9438  0.9534
 7356SOL     OW33526   3.962   0.869   9.301  0.4445 -0.4462  0.4945
 7356SOL    HW133527   3.979   0.820   9.382 -1.5113  1.4824  2.0518
 7356SOL    HW233528   4.050   0.903   9.288  1.3522 -2.2221  1.9422
 7357SOL     OW33529   3.813   1.701   2.557 -0.1035 -0.2012  0.0633
 7357SOL    HW133530   3.867   1.692   2.478 -0.5927 -0.7212 -0.2123
 7357SOL    HW233531   3.814   1.796   2.564  1.9949 -0.2530  0.5079
 7358SOL     OW33532   4.074   2.953  16.318  0.0125  0.0770  0.4293
 7358SOL    HW133533   4.036   3.038  16.295  0.3533  0.2681  0.5623
 7358SOL    HW233534   4.167   2.967  16.334  0.1355 -0.7135  0.4259
 7359SOL     OW33535   0.487   2.854   0.697 -0.7280  0.1074  0.0605
 7359SOL    HW133536   0.496   2.764   0.665  0.1728 -0.3706  1.6366
 7359SOL    HW233537   0.402   2.856   0.740 -0.9629  1.6376 -0.5005
 7360SOL     OW33538   3.940   4.177   3.439  0.3490  0.4402  0.0609
 7360SOL    HW133539   4.010   4.177   3.504  0.8624 -0.8778 -0.4875
 7360SOL    HW233540   3.874   4.233   3.480 -1.5453 -2.6631  1.2619
 7361SOL     OW33541   0.995   2.356   3.292  0.5361  0.2827  0.3330
 7361SOL    HW133542   1.063   2.379   3.355 -1.4736  2.0979  1.8082
 7361SOL    HW233543   1.046   2.353   3.211 -0.4399  0.9279 -0.3072
 7362SOL     OW33544   3.036   4.240  12.695 -0.4700 -0.4098 -0.7156
 7362SOL    HW133545   2.983   4.228  12.616  1.8492 -1.4135 -2.1279
 7362SOL    HW233546   2.966   4.270  12.752 -0.2564  1.2681 -1.3205
 7363SOL     OW33547   2.952   3.470   4.518 -0.2275  0.2378 -0.5320
 7363SOL    HW133548   2.862   3.437   4.522  0.0917 -0.5941 -0.2118
 7363SOL    HW233549   2.996   3.407   4.460 -0.8220 -0.2441 -0.4593
 7364SOL     OW33550   1.766   3.273   5.881 -0.0400  0.1965  0.1848
 7364SOL    HW133551   1.828   3.294   5.950  0.2518 -1.1007  0.3136
 7364SOL    HW233552   1.687   3.252   5.931  1.1740  0.8389  2.3199
 7365SOL     OW33553   4.037   2.379  13.054  0.7687 -0.0484 -0.1518
 7365SOL    HW133554   4.127   2.346  13.047 -0.0918 -2.2893 -0.9316
 7365SOL    HW233555   4.024   2.417  12.967 -0.6310 -1.0460 -0.3879
 7366SOL     OW33556   1.841   1.322   3.967  1.1556  0.0047  0.3498
 7366SOL    HW133557   1.787   1.251   3.932 -0.8615  0.2607  2.9122
 7366SOL    HW233558   1.839   1.376   3.887 -1.0419  0.3069  0.6030
 7367SOL     OW33559   0.233   3.948   6.576 -0.4858  0.5782 -1.0920
 7367SOL    HW133560   0.274   4.014   6.632 -0.3455  1.7348 -2.5476
 7367SOL    HW233561   0.188   3.893   6.641  1.2487 -1.3187 -1.5097
 7368SOL     OW33562   1.623   1.215   7.885  0.6006  0.2397 -0.1556
 7368SOL    HW133563   1.671   1.272   7.825 -0.9475  0.9813 -0.6929
 7368SOL    HW233564   1.622   1.134   7.834 -1.3347  0.5363 -0.5823
 7369SOL     OW33565   0.241   1.546   4.198 -0.7059  0.5686 -0.2908
 7369SOL    HW133566   0.288   1.629   4.205 -0.1731  0.2249  0.1535
 7369SOL    HW233567   0.174   1.568   4.133 -1.0507  0.9876  0.2002
 7370SOL     OW33568   1.946   2.504   9.349  0.7293 -0.0574  0.1952
 7370SOL    HW133569   1.934   2.462   9.435 -3.3635 -1.6526 -1.1666
 7370SOL    HW233570   1.861   2.536   9.321  0.4203 -0.8790  0.1878
 7371SOL     OW33571   1.486   3.775   3.401  0.1198 -0.0868  0.4793
 7371SOL    HW133572   1.486   3.690   3.446 -2.0224 -0.5793 -0.4452
 7371SOL    HW233573   1.517   3.847   3.456  2.8094 -1.1123  0.3000
 7372SOL     OW33574   1.206   4.001   0.517 -0.4721 -0.5933  0.3896
 7372SOL    HW133575   1.166   4.018   0.431 -0.7133 -1.1279  0.3929
 7372SOL    HW233576   1.129   4.018   0.572  0.0134 -1.1400  1.2310
 7373SOL     OW33577   1.088   1.281   2.928  0.1335 -0.0086  0.0145
 7373SOL    HW133578   1.170   1.238   2.952  0.3402  0.8866  0.9242
 7373SOL    HW233579   1.024   1.217   2.960  0.5816 -1.3180 -1.7195
 7374SOL     OW33580   2.425   2.978   9.399  0.0496 -0.1385  0.4192
 7374SOL    HW133581   2.511   2.939   9.414  0.0252 -1.1210 -1.9408
 7374SOL    HW233582   2.385   2.891   9.387 -0.9270  0.1974  1.2334
 7375SOL     OW33583   1.486   3.323   6.380  0.3498 -0.5149  0.2279
 7375SOL    HW133584   1.457   3.302   6.469  0.9993 -2.6386 -0.0465
 7375SOL    HW233585   1.438   3.262   6.325  0.1089 -0.6910  0.6307
 7376SOL     OW33586   2.944   1.252  15.750 -0.0143  0.6632  0.1546
 7376SOL    HW133587   2.873   1.197  15.717  2.0355 -1.5293 -0.5866
 7376SOL    HW233588   3.012   1.190  15.772 -2.0860 -1.1668  1.3750
 7377SOL     OW33589   3.814   0.447   0.282 -0.3559  0.0897 -0.2938
 7377SOL    HW133590   3.827   0.502   0.204  1.6671 -0.8132 -0.6133
 7377SOL    HW233591   3.794   0.359   0.251  0.3274  0.5213 -2.0291
 7378SOL     OW33592   2.667   4.299  15.390 -0.6349 -0.1057 -0.0133
 7378SOL    HW133593   2.590   4.266  15.343  0.9383 -2.4081 -0.9688
 7378SOL    HW233594   2.745   4.285  15.336  0.1886  1.8465  0.6736
 7379SOL     OW33595   3.421   4.023   6.984  0.1946 -0.2243 -0.5905
 7379SOL    HW133596   3.516   4.031   6.979  0.1894 -0.0143 -0.3629
 7379SOL    HW233597   3.414   3.944   7.038  0.1702  2.2299  2.9858
 7380SOL     OW33598   3.289   1.633   9.885  0.9247  0.5007 -0.0133
 7380SOL    HW133599   3.331   1.703   9.835 -0.2603  0.4945 -1.0040
 7380SOL    HW233600   3.344   1.606   9.959  1.1442  1.2260  0.0926
 7381SOL     OW33601   3.980   0.954   7.820  0.3713 -0.0592  0.5848
 7381SOL    HW133602   3.911   0.896   7.789  0.6510 -0.0117 -0.1194
 7381SOL    HW233603   4.045   0.893   7.855 -0.9367 -1.3391  0.7480
 7382SOL     OW33604   2.888   1.721   6.596 -0.3872 -0.2611  0.2579
 7382SOL    HW133605   2.803   1.710   6.639 -0.1174  2.6129  1.5635
 7382SOL    HW233606   2.895   1.648   6.535  0.4403  2.3959 -2.8048
 7383SOL     OW33607   1.221   3.387  16.218  0.1881 -0.1906 -0.0873
 7383SOL    HW133608   1.256   3.352  16.136 -2.4098  0.6162 -1.5352
 7383SOL    HW233609   1.296   3.437  16.251 -0.7733  1.5621 -0.5579
 7384SOL     OW33610   4.095   0.824  11.781 -0.5208 -0.4498  0.3037
 7384SOL    HW133611   4.121   0.756  11.719 -0.0355  0.2682 -0.2759
 7384SOL    HW233612   4.169   0.823  11.842 -0.2500 -1.0478 -0.0392
 7385SOL     OW33613   1.292   1.038  14.364 -0.0691  0.0854  0.4785
 7385SOL    HW133614   1.228   1.110  14.363  1.5272  1.5135  1.5060
 7385SOL    HW233615   1.249   0.954  14.348 -0.7806  0.1117  2.3131
 7386SOL     OW33616   3.255   1.621   7.345 -0.0138 -0.6898 -0.1421
 7386SOL    HW133617   3.329   1.679   7.324 -0.0949  0.8101  3.7657
 7386SOL    HW233618   3.179   1.668   7.308  0.6911  0.9671  0.4941
 7387SOL     OW33619   4.693   4.010   7.946  0.0072  0.1950  0.0612
 7387SOL    HW133620   4.641   4.049   7.876 -0.1391 -1.2346 -0.6201
 7387SOL    HW233621   0.057   4.037   7.922  0.5682 -1.0915  0.6823
 7388SOL     OW33622   0.241   2.802   7.020 -0.1766 -0.6832 -0.2849
 7388SOL    HW133623   0.296   2.808   6.941 -1.7199 -0.3555 -1.3264
 7388SOL    HW233624   0.291   2.848   7.088  0.7189  1.2533 -2.2374
 7389SOL     OW33625   0.244   0.405  11.512 -0.0523 -0.8965 -0.3588
 7389SOL    HW133626   0.227   0.334  11.574  0.3223 -1.1045 -0.4951
 7389SOL    HW233627   0.209   0.357  11.437 -0.2321 -2.2580  0.6132
 7390SOL     OW33628   3.386   3.924   7.312  0.3077 -0.3152  0.0105
 7390SOL    HW133629   3.457   3.862   7.302  2.5842  1.8707  2.3527
 7390SOL    HW233630   3.398   3.960   7.400 -0.0078 -1.1485  0.3962
 7391SOL     OW33631   3.763   4.526   8.152  0.5717 -0.6777  0.5839
 7391SOL    HW133632   3.754   4.589   8.080  0.4331  1.9645  2.9215
 7391SOL    HW233633   3.782   4.442   8.110 -3.5294 -1.1473 -0.2852
 7392SOL     OW33634   3.573   1.336  10.856 -0.4008  0.4032  0.1577
 7392SOL    HW133635   3.561   1.337  10.761 -0.6596 -0.5509  0.1727
 7392SOL    HW233636   3.635   1.263  10.863  0.6760  1.3382  0.3750
 7393SOL     OW33637   4.402   4.509   4.934  0.2461  0.7071  0.5252
 7393SOL    HW133638   4.435   4.476   4.851  0.3807 -0.6680  1.1202
 7393SOL    HW233639   4.359   4.590   4.907 -0.0363  0.3266 -0.1844
 7394SOL     OW33640   2.246   2.991   5.596 -0.2182  0.7998 -0.3495
 7394SOL    HW133641   2.317   2.995   5.659 -0.7246 -2.7844  0.4518
 7394SOL    HW233642   2.288   2.927   5.539  1.7776  0.1884  1.8079
 7395SOL     OW33643   2.927   1.386   6.670  0.7629  0.4321 -0.5649
 7395SOL    HW133644   2.931   1.444   6.747  2.6755  0.3403 -0.6006
 7395SOL    HW233645   2.853   1.327   6.683 -0.7662  2.4572 -0.0189
 7396SOL     OW33646   0.159   2.209   5.843 -0.7504 -0.1926 -0.0974
 7396SOL    HW133647   0.160   2.136   5.906 -2.1441 -1.5458 -1.6421
 7396SOL    HW233648   0.067   2.234   5.843 -1.0761 -1.3469 -1.0197
 7397SOL     OW33649   4.627   3.521   8.924  0.0166  0.3057 -0.4627
 7397SOL    HW133650   4.587   3.550   9.006 -1.0978 -0.6319 -0.6724
 7397SOL    HW233651   4.590   3.568   8.850 -0.6245 -3.7815 -2.7741
 7398SOL     OW33652   1.848   2.941  10.037  0.1817 -0.5165  0.2110
 7398SOL    HW133653   1.934   2.903  10.021 -0.8867 -1.5758 -3.1364
 7398SOL    HW233654   1.820   2.950   9.946  0.4477 -0.2068  0.1600
 7399SOL     OW33655   4.208   1.828   3.569  0.1104  0.2948  0.0793
 7399SOL    HW133656   4.219   1.770   3.493  1.1237 -0.1146  0.5425
 7399SOL    HW233657   4.207   1.768   3.643  0.2236  1.6658  1.2092
 7400SOL     OW33658   2.873   4.697   8.127  0.5639  0.2470 -0.0127
 7400SOL    HW133659   2.911   4.610   8.120  2.8816  1.1484  1.2969
 7400SOL    HW233660   2.843   4.700   8.036 -1.0578  1.4983  0.5679
 7401SOL     OW33661   4.410   0.482   2.405 -0.4262  0.2117  0.0975
 7401SOL    HW133662   4.399   0.544   2.477 -0.6339 -0.4621  0.6470
 7401SOL    HW233663   4.460   0.409   2.442  2.2094  2.4889  1.0141
 7402SOL     OW33664   3.046   0.393   7.654  0.6170  0.4791  0.4130
 7402SOL    HW133665   3.083   0.359   7.572 -0.3888 -1.7424  0.8920
 7402SOL    HW233666   3.115   0.447   7.692  1.8415 -0.7241 -0.1147
 7403SOL     OW33667   1.224   2.231   1.649 -0.0215 -0.2418 -0.4012
 7403SOL    HW133668   1.131   2.227   1.672 -0.2674  2.6504 -0.8638
 7403SOL    HW233669   1.224   2.237   1.553 -0.1158  0.5402 -0.3552
 7404SOL     OW33670   3.209   0.356  10.745  0.0488  0.2821 -0.1592
 7404SOL    HW133671   3.282   0.395  10.793  0.7781 -0.8547 -0.3404
 7404SOL    HW233672   3.245   0.268  10.738  1.7344  0.7381  2.4446
 7405SOL     OW33673   1.105   2.292  10.050  0.0313  0.3341 -0.4293
 7405SOL    HW133674   1.070   2.316  10.136  0.3546 -2.1927  0.4226
 7405SOL    HW233675   1.066   2.365  10.003  0.6617  1.5620  0.9631
 7406SOL     OW33676   3.493   0.958   4.915  0.1851 -0.1134 -0.3362
 7406SOL    HW133677   3.453   0.883   4.871  1.0787 -0.2990 -0.8507
 7406SOL    HW233678   3.492   0.920   5.003 -0.3757  1.3031  0.2696
 7407SOL     OW33679   2.533   3.707  17.503 -0.4709  0.3358  0.0789
 7407SOL    HW133680   2.532   3.656  17.583  1.5783 -2.6135 -1.7776
 7407SOL    HW233681   2.479   3.783  17.525 -0.4467  0.9927 -2.0852
 7408SOL     OW33682   2.686   2.272   6.573 -0.4872 -0.0367  0.1197
 7408SOL    HW133683   2.731   2.299   6.493  0.6317 -1.6683  0.1864
 7408SOL    HW233684   2.720   2.184   6.589  1.1481  0.2561 -1.6559
 7409SOL     OW33685   0.855   3.705   7.244  0.2031  0.5842 -0.0398
 7409SOL    HW133686   0.835   3.633   7.304 -2.2833  0.7375 -0.6879
 7409SOL    HW233687   0.875   3.654   7.165 -2.5407 -0.9329  0.2532
 7410SOL     OW33688   0.532   2.607   0.600 -0.5779  0.1833 -0.6020
 7410SOL    HW133689   0.491   2.572   0.522  2.0069  0.1536 -1.9575
 7410SOL    HW233690   0.615   2.559   0.602 -1.8334 -1.9829 -1.6954
 7411SOL     OW33691   4.678   3.635  14.133 -0.1970  0.1292  0.6647
 7411SOL    HW133692   4.587   3.608  14.143 -0.4646  0.1661 -1.6960
 7411SOL    HW233693   4.677   3.730  14.122 -0.3029  0.3350  2.5117
 7412SOL     OW33694   4.562   1.768   7.013  0.6476  0.0279  0.0023
 7412SOL    HW133695   4.471   1.737   7.012  0.2160  1.2477  1.8346
 7412SOL    HW233696   4.539   1.852   7.051 -0.4482 -0.0516 -0.4718
 7413SOL     OW33697   1.958   1.023  13.097 -0.3037  0.1829  0.0300
 7413SOL    HW133698   1.926   0.940  13.061 -1.1216 -0.2283  1.7082
 7413SOL    HW233699   2.049   1.013  13.123  0.5732 -0.7544 -3.4094
 7414SOL     OW33700   0.813   4.397   1.400 -0.0415 -0.0309 -0.6562
 7414SOL    HW133701   0.849   4.412   1.487  0.0117 -0.8892 -0.5225
 7414SOL    HW233702   0.883   4.424   1.341  0.6189 -0.9457 -0.2917
 7415SOL     OW33703   0.430   1.028   3.109  0.0269  0.0202  0.6031
 7415SOL    HW133704   0.493   1.100   3.119  0.2518 -0.5440  3.4789
 7415SOL    HW233705   0.350   1.064   3.069  0.1078 -2.0944 -1.4432
 7416SOL     OW33706   2.206   0.098   5.202 -0.3702  0.3613  0.5694
 7416SOL    HW133707   2.251   0.031   5.151  0.1727  0.6895  0.6280
 7416SOL    HW233708   2.129   0.116   5.148 -0.6438 -0.7949  0.5650
 7417SOL     OW33709   2.244   2.146   8.806 -0.2366 -0.1759  0.5261
 7417SOL    HW133710   2.173   2.103   8.854  0.3160  1.1649  2.5677
 7417SOL    HW233711   2.297   2.181   8.878  1.3675  0.5475 -1.0120
 7418SOL     OW33712   3.215   3.946  10.516 -0.2820  0.4428  0.3710
 7418SOL    HW133713   3.280   3.892  10.471 -0.6459 -0.5038  0.9770
 7418SOL    HW233714   3.138   3.890  10.526  0.7943 -0.9612  0.7346
 7419SOL     OW33715   4.232   4.053   5.993  0.4205 -0.0144 -0.3166
 7419SOL    HW133716   4.212   4.145   6.009  0.0914 -0.1608  0.0903
 7419SOL    HW233717   4.271   4.055   5.905 -1.0879  1.6259 -0.9531
 7420SOL     OW33718   0.733   1.979   1.092 -0.1853 -0.1828  0.6120
 7420SOL    HW133719   0.826   1.983   1.113  0.0169 -0.6980 -0.1961
 7420SOL    HW233720   0.718   2.069   1.063  1.1408  0.1762  1.0482
 7421SOL     OW33721   1.598   2.066   4.228  0.0817  0.1569  0.4064
 7421SOL    HW133722   1.643   2.150   4.237 -0.9475  0.7818 -0.2378
 7421SOL    HW233723   1.567   2.069   4.137 -0.1455 -1.2707  0.4400
 7422SOL     OW33724   3.994   3.493  16.863  0.2908  0.7840 -0.2533
 7422SOL    HW133725   3.996   3.588  16.866 -2.0345  0.8916 -1.9985
 7422SOL    HW233726   3.990   3.487  16.959 -1.3155 -0.9453 -0.4256
 7423SOL     OW33727   2.415   4.094  13.436  0.1679 -0.1453  0.6490
 7423SOL    HW133728   2.400   4.148  13.514  3.2687  0.9038  0.4957
 7423SOL    HW233729   2.355   4.137  13.376  0.8996 -1.6336 -1.1544
 7424SOL     OW33730   4.443   1.052   2.280 -0.3484 -0.0879  0.2824
 7424SOL    HW133731   4.483   1.087   2.201  0.5734  0.8655  1.1772
 7424SOL    HW233732   4.522   1.021   2.325  1.0936  1.3744 -1.2523
 7425SOL     OW33733   4.661   0.868   3.113 -0.2278  0.6551 -0.1079
 7425SOL    HW133734   4.640   0.775   3.123 -2.0628  1.1791  0.9423
 7425SOL    HW233735   0.013   0.862   3.056  1.2535 -0.6812  2.0475
 7426SOL     OW33736   1.630   4.539   4.708 -0.3599  0.1699 -0.7667
 7426SOL    HW133737   1.699   4.476   4.728 -0.4838  0.1418 -0.4234
 7426SOL    HW233738   1.683   4.618   4.690  2.2344 -1.3067  0.3812
 7427SOL     OW33739   2.062   3.087   1.580 -0.0488  0.6112  0.1914
 7427SOL    HW133740   1.989   3.121   1.631 -0.6172  0.6195 -0.6228
 7427SOL    HW233741   2.053   3.149   1.507  0.0485  0.1616 -0.2004
 7428SOL     OW33742   1.962   0.495   8.283 -0.1695 -0.5012 -0.3624
 7428SOL    HW133743   1.979   0.479   8.376  2.4118 -0.6011 -0.8583
 7428SOL    HW233744   1.912   0.417   8.257  0.5594 -1.2527  0.4756
 7429SOL     OW33745   0.007   1.726   2.929  0.4354  0.4451  0.0021
 7429SOL    HW133746   4.649   1.708   2.885  0.8230  1.1489 -1.0133
 7429SOL    HW233747   4.695   1.791   2.989 -0.5568 -0.0136 -0.1173
 7430SOL     OW33748   3.276   0.461   2.468 -0.1318  0.0887 -0.0243
 7430SOL    HW133749   3.282   0.407   2.390 -0.0952 -0.8693  0.6454
 7430SOL    HW233750   3.295   0.549   2.436 -1.9425  0.1537 -0.9302
 7431SOL     OW33751   3.466   2.380   6.694  0.1406 -0.6158  0.6488
 7431SOL    HW133752   3.511   2.353   6.774  3.5963 -0.7732 -1.3614
 7431SOL    HW233753   3.383   2.394   6.740 -1.0261 -4.1831 -0.3720
 7432SOL     OW33754   0.986   1.848   8.137 -0.0043 -0.6619  0.1414
 7432SOL    HW133755   1.024   1.935   8.131 -1.6392  0.1665  1.6425
 7432SOL    HW233756   1.039   1.807   8.205  1.7027 -0.7852 -1.2930
 7433SOL     OW33757   0.713   1.737   4.332 -0.7234 -0.1698 -0.0249
 7433SOL    HW133758   0.653   1.674   4.291 -1.5251 -0.1982  1.1580
 7433SOL    HW233759   0.720   1.688   4.415  0.8397  2.0548  1.1411
 7434SOL     OW33760   2.060   2.161   5.876  0.1402  0.3562 -0.2106
 7434SOL    HW133761   2.121   2.112   5.931  0.1210 -1.0477 -1.4476
 7434SOL    HW233762   1.981   2.153   5.928 -1.5984  1.8400 -2.5844
 7435SOL     OW33763   1.983   3.083  13.548  0.6979  0.2669 -0.0501
 7435SOL    HW133764   1.984   2.990  13.525  0.2796 -0.3915  2.5765
 7435SOL    HW233765   1.919   3.115  13.484  0.7121  2.8829  1.2359
 7436SOL     OW33766   3.860   2.468   1.423 -0.0867 -0.2201  0.5269
 7436SOL    HW133767   3.853   2.380   1.460 -0.9182 -0.5453 -0.3749
 7436SOL    HW233768   3.842   2.524   1.498 -1.7082 -1.6609  1.2130
 7437SOL     OW33769   1.367   0.688   7.370  0.1948 -0.6797  0.3226
 7437SOL    HW133770   1.305   0.696   7.297 -0.4899 -0.3898  0.9284
 7437SOL    HW233771   1.305   0.653   7.434  0.2998  0.5168  1.0889
 7438SOL     OW33772   3.318   3.624  15.588  0.3019 -0.2090  0.1197
 7438SOL    HW133773   3.364   3.541  15.596 -1.7092 -1.3321 -0.0109
 7438SOL    HW233774   3.378   3.685  15.544 -0.3142  0.3542  0.0556
 7439SOL     OW33775   0.935   0.559   3.585 -0.2256  0.0174  0.4720
 7439SOL    HW133776   0.998   0.630   3.573  0.4430 -0.7144 -0.3822
 7439SOL    HW233777   0.926   0.538   3.492  1.6439 -0.2437  0.3434
 7440SOL     OW33778   0.870   4.105   0.326  0.2777 -0.4978  0.1286
 7440SOL    HW133779   0.962   4.097   0.302  0.5010  1.2217  0.4072
 7440SOL    HW233780   0.826   4.036   0.277 -0.2641  0.1336 -0.2684
 7441SOL     OW33781   0.301   3.288   8.710 -0.3254 -0.1757 -0.1883
 7441SOL    HW133782   0.376   3.308   8.766  2.2382  0.4623 -3.8372
 7441SOL    HW233783   0.233   3.332   8.760  0.7230 -0.1603  1.2281
 7442SOL     OW33784   3.452   1.134  16.208  0.8964 -0.0993  0.6667
 7442SOL    HW133785   3.420   1.219  16.177  0.2588  0.7524  3.6368
 7442SOL    HW233786   3.455   1.153  16.302 -1.0963 -0.6007  0.8448
 7443SOL     OW33787   2.773   3.787   7.391 -0.4126  0.4288  0.4362
 7443SOL    HW133788   2.767   3.787   7.295  2.7684  1.1268  0.2202
 7443SOL    HW233789   2.701   3.838   7.428 -1.4697 -0.3757 -0.5127
 7444SOL     OW33790   3.022   2.055   8.559  0.1870  0.0440  0.3393
 7444SOL    HW133791   2.941   2.081   8.603  0.8383  1.5608  0.6430
 7444SOL    HW233792   3.072   2.134   8.539 -0.4360 -0.2361 -2.3025
 7445SOL     OW33793   2.678   0.267  10.432  0.0711 -0.1023 -0.1002
 7445SOL    HW133794   2.716   0.200  10.490 -0.8773  0.2586  0.9498
 7445SOL    HW233795   2.686   0.335  10.499  0.1294  0.5128 -0.7308
 7446SOL     OW33796   3.234   4.425   4.153 -0.6897 -0.4654 -0.1029
 7446SOL    HW133797   3.149   4.382   4.162 -1.7683  1.7756  0.6347
 7446SOL    HW233798   3.296   4.354   4.165  1.0039  0.8254 -1.1367
 7447SOL     OW33799   4.530   4.411   5.930 -0.1340 -0.3519  0.1572
 7447SOL    HW133800   4.569   4.463   6.000 -0.3654 -0.6984  0.5406
 7447SOL    HW233801   4.606   4.358   5.903  0.4715  0.1944  0.7833
 7448SOL     OW33802   0.899   3.842   9.751 -0.2923 -0.2928 -0.3880
 7448SOL    HW133803   0.927   3.882   9.833 -0.5670  0.0554 -0.4653
 7448SOL    HW233804   0.973   3.783   9.737  0.6959  0.7368  0.4719
 7449SOL     OW33805   3.122   3.421  16.110 -0.2478 -0.0964 -0.6584
 7449SOL    HW133806   3.202   3.408  16.160 -0.6025 -1.6216 -0.5057
 7449SOL    HW233807   3.123   3.363  16.034 -0.5686 -0.8328 -0.0990
 7450SOL     OW33808   1.961   4.617  14.362 -0.0833  0.3146  0.0362
 7450SOL    HW133809   1.917   4.614  14.277  1.0820  0.2411 -0.5623
 7450SOL    HW233810   2.017   4.695  14.357 -0.2316  0.4564  0.6323
 7451SOL     OW33811   2.764   3.946   6.876  0.5372  0.1911 -0.5926
 7451SOL    HW133812   2.739   4.033   6.846  0.7072  0.2765 -0.4819
 7451SOL    HW233813   2.852   3.943   6.838  1.3077 -0.0498  1.2082
 7452SOL     OW33814   4.482   1.403   2.204 -0.2308 -0.1588 -0.5737
 7452SOL    HW133815   4.412   1.463   2.178 -0.8501  0.1523  1.8243
 7452SOL    HW233816   4.482   1.414   2.299 -0.4126 -2.7136 -0.2768
 7453SOL     OW33817   0.032   3.810  13.282  0.3473  0.5173  0.7173
 7453SOL    HW133818   4.669   3.847  13.293  1.7110  3.4763  1.7802
 7453SOL    HW233819   0.017   3.715  13.283 -0.9203  0.7269  1.7552
 7454SOL     OW33820   2.722   3.623   1.327  0.3914 -0.4096 -0.2299
 7454SOL    HW133821   2.663   3.555   1.357 -1.2304  0.9481 -0.3493
 7454SOL    HW233822   2.719   3.606   1.232 -1.9393 -0.2186 -0.1895
 7455SOL     OW33823   1.930   1.092   5.364  0.2426  0.3644 -0.3293
 7455SOL    HW133824   1.872   1.146   5.418  1.6073  0.2034  1.2920
 7455SOL    HW233825   1.923   1.009   5.412  2.3520  1.1140  1.2869
 7456SOL     OW33826   3.566   0.792   6.956  0.3651 -0.1091  0.0146
 7456SOL    HW133827   3.489   0.735   6.956  0.3474 -0.0856 -0.1980
 7456SOL    HW233828   3.605   0.767   7.039  1.6601 -0.2277 -0.6320
 7457SOL     OW33829   1.222   2.971  14.167 -0.2887 -0.0517 -0.0608
 7457SOL    HW133830   1.249   2.883  14.193  0.8187  1.1137  2.7711
 7457SOL    HW233831   1.208   2.959  14.073 -0.4273  0.2506 -0.0808
 7458SOL     OW33832   4.595   3.437  13.588  0.0894  0.0532 -0.1417
 7458SOL    HW133833   4.578   3.423  13.495 -0.1299 -1.0501  0.0611
 7458SOL    HW233834   4.688   3.460  13.595 -0.3490  1.0693  2.1399
 7459SOL     OW33835   1.238   4.524   5.375 -0.0241  0.1998 -0.0236
 7459SOL    HW133836   1.250   4.491   5.286 -0.1045 -3.2183  1.2276
 7459SOL    HW233837   1.258   4.445   5.426  3.7093  0.4212 -1.1492
 7460SOL     OW33838   3.333   1.919   3.798  0.2936  0.7267 -0.4109
 7460SOL    HW133839   3.238   1.919   3.787 -0.0847 -0.9448  2.8696
 7460SOL    HW233840   3.345   1.879   3.884 -1.2220  3.6714  1.1531
 7461SOL     OW33841   1.475   2.541  17.618 -0.2544  0.2149 -0.3379
 7461SOL    HW133842   1.563   2.512  17.593 -1.1196 -1.6976 -1.1295
 7461SOL    HW233843   1.485   2.558   0.011  1.2673  0.4450 -0.5425
 7462SOL     OW33844   1.120   2.588   3.728  0.3901  0.2431 -0.0492
 7462SOL    HW133845   1.085   2.646   3.796  1.1439 -1.3654  1.7125
 7462SOL    HW233846   1.055   2.599   3.659 -0.0256 -1.3948  0.0849
 7463SOL     OW33847   0.709   4.229   2.830  0.3833  0.1590 -0.1367
 7463SOL    HW133848   0.730   4.144   2.791  1.1764 -0.3227  1.3753
 7463SOL    HW233849   0.677   4.202   2.916 -2.9860  2.7387 -0.6156
 7464SOL     OW33850   2.927   0.978  16.096 -0.4323  0.3088 -0.2656
 7464SOL    HW133851   2.983   1.017  16.163 -1.3534 -0.4624  0.9413
 7464SOL    HW233852   2.846   0.979  16.146 -0.9241 -0.3388 -1.0564
 7465SOL     OW33853   0.425   3.974   0.833 -0.6579 -0.0078  0.3456
 7465SOL    HW133854   0.346   4.028   0.842 -2.2622 -2.2859 -0.2108
 7465SOL    HW233855   0.414   3.911   0.904 -3.5818 -0.9671 -0.9433
 7466SOL     OW33856   1.092   3.779  16.182 -0.2528 -1.1366 -0.0065
 7466SOL    HW133857   1.179   3.809  16.156 -0.5312  1.1994  1.7486
 7466SOL    HW233858   1.106   3.757  16.274 -0.9215  0.6037  0.5037
 7467SOL     OW33859   4.268   3.670   4.014  0.1037  0.3911  0.1357
 7467SOL    HW133860   4.353   3.666   3.970  0.0489 -0.8813  0.1422
 7467SOL    HW233861   4.259   3.576   4.029  1.6774  0.0917 -0.7835
 7468SOL     OW33862   3.007   1.787  16.891 -0.7188  0.0709 -0.1671
 7468SOL    HW133863   2.947   1.793  16.965  0.0636 -0.0205  0.4755
 7468SOL    HW233864   3.090   1.824  16.921 -0.0552  0.4466 -2.4509
 7469SOL     OW33865   3.027   2.501   8.572  0.4481 -0.2993 -0.6864
 7469SOL    HW133866   3.054   2.517   8.663 -0.2629 -1.1231 -0.3354
 7469SOL    HW233867   3.112   2.486   8.530  0.3072 -0.2531 -0.9910
 7470SOL     OW33868   0.105   3.231   9.102 -0.3757 -0.2110 -0.0469
 7470SOL    HW133869   0.179   3.251   9.158  1.5380 -2.7966 -1.6775
 7470SOL    HW233870   0.036   3.273   9.153 -2.0888 -0.6257 -1.9676
 7471SOL     OW33871   1.391   2.252   9.312 -0.4659  0.4361 -0.4117
 7471SOL    HW133872   1.406   2.246   9.406 -0.4972 -1.8041 -0.5503
 7471SOL    HW233873   1.482   2.259   9.283 -1.1833  1.3173 -2.4531
 7472SOL     OW33874   1.828   0.013   3.371 -0.1336 -0.2059  0.2275
 7472SOL    HW133875   1.777   4.675   3.318 -0.0403  0.8049 -1.0644
 7472SOL    HW233876   1.763   0.075   3.403 -0.9205 -0.7449 -0.3303
 7473SOL     OW33877   1.582   2.376   2.303  0.6029 -0.3149 -0.1736
 7473SOL    HW133878   1.493   2.363   2.269  1.0294  0.8676 -1.7363
 7473SOL    HW233879   1.614   2.286   2.314  0.3668 -0.2827  0.8060
 7474SOL     OW33880   2.803   2.524   1.725 -0.0156 -0.0819  0.0246
 7474SOL    HW133881   2.798   2.440   1.680  1.2567 -0.7209  1.0694
 7474SOL    HW233882   2.713   2.551   1.741 -0.4107  0.2906 -2.7889
 7475SOL     OW33883   0.765   4.030  13.683  0.1747 -0.1222  0.1902
 7475SOL    HW133884   0.842   3.976  13.702 -0.4152 -1.6406 -1.7421
 7475SOL    HW233885   0.695   3.967  13.698  0.6283 -0.2186  1.8927
 7476SOL     OW33886   0.950   3.515   3.294 -0.6744 -0.2658 -0.2588
 7476SOL    HW133887   0.951   3.530   3.200  1.6746 -0.6127 -0.2844
 7476SOL    HW233888   1.043   3.531   3.311 -0.6730  0.0337 -0.5598
 7477SOL     OW33889   2.038   2.237   6.393  0.5821  0.3064  0.3625
 7477SOL    HW133890   1.963   2.277   6.437 -2.1135 -3.4791 -0.8273
 7477SOL    HW233891   2.096   2.218   6.466 -2.9014 -0.3705  2.9440
 7478SOL     OW33892   0.451   1.882   7.740 -0.2847  0.2764 -0.2831
 7478SOL    HW133893   0.463   1.796   7.780  0.4607 -0.0362 -1.1621
 7478SOL    HW233894   0.355   1.882   7.736 -0.2581  0.2985 -0.9670
 7479SOL     OW33895   0.280   0.608   5.783 -0.6423 -0.1414  0.2277
 7479SOL    HW133896   0.222   0.574   5.714 -2.2139  0.4934  1.2447
 7479SOL    HW233897   0.341   0.655   5.726  1.0368  1.5017  3.3822
 7480SOL     OW33898   0.918   1.622   7.331  0.2229 -0.4084 -0.1426
 7480SOL    HW133899   0.888   1.679   7.402  0.2864  1.7428 -1.8553
 7480SOL    HW233900   0.934   1.672   7.251 -3.6707 -0.4607 -0.9196
 7481SOL     OW33901   4.346   2.401   6.625  0.6507 -0.1882  0.0004
 7481SOL    HW133902   4.423   2.452   6.599 -0.1177  1.0252  0.0931
 7481SOL    HW233903   4.347   2.415   6.719 -0.5456 -0.4088  0.0475
 7482SOL     OW33904   1.017   2.464   6.690  0.0800 -0.3438  0.0616
 7482SOL    HW133905   0.950   2.396   6.692  0.3762 -0.6440 -0.2650
 7482SOL    HW233906   1.094   2.408   6.697 -0.5084 -1.3981 -1.8375
 7483SOL     OW33907   2.922   0.586   0.719  0.4819  0.4203 -0.9978
 7483SOL    HW133908   2.852   0.526   0.745  0.1637  0.3788 -1.9574
 7483SOL    HW233909   2.866   0.662   0.701 -0.2530  0.0530 -0.2795
 7484SOL     OW33910   2.856   1.225   3.580  0.3900 -0.2618 -0.0654
 7484SOL    HW133911   2.850   1.132   3.556 -1.6745  0.5542 -2.6377
 7484SOL    HW233912   2.870   1.260   3.492  0.0600  0.0177 -0.0026
 7485SOL     OW33913   3.591   3.451   8.483  0.3719 -0.2686 -0.4184
 7485SOL    HW133914   3.640   3.532   8.469 -0.9034  0.7702  1.0982
 7485SOL    HW233915   3.509   3.474   8.439 -0.1040 -0.1600  0.5262
 7486SOL     OW33916   0.966   4.024  14.131  0.0765  0.4792 -0.1492
 7486SOL    HW133917   1.010   4.076  14.198  3.4306  0.1054 -2.0470
 7486SOL    HW233918   1.010   4.054  14.052 -0.8230  1.9036 -0.1060
 7487SOL     OW33919   1.643   0.073   6.152 -0.0621  0.8244  0.1410
 7487SOL    HW133920   1.660   0.036   6.238 -0.5417 -0.8304 -0.4857
 7487SOL    HW233921   1.657   4.715   6.106  2.0984  0.7661  0.9076
 7488SOL     OW33922   3.789   3.448   4.404 -0.3609 -0.3057  0.2250
 7488SOL    HW133923   3.872   3.482   4.372 -0.0239 -0.4040  1.0132
 7488SOL    HW233924   3.818   3.389   4.473  0.2439  0.5221  0.6676
 7489SOL     OW33925   0.058   0.004   8.873 -0.0321 -0.5613 -0.0114
 7489SOL    HW133926   0.085   4.637   8.882 -0.8976 -0.6732  1.2742
 7489SOL    HW233927   4.710   4.719   8.812 -1.9042 -0.8689  2.2777
 7490SOL     OW33928   0.914   2.957   5.815 -0.1562  0.5880  0.1876
 7490SOL    HW133929   0.877   2.872   5.792  0.1668  0.0546  1.6350
 7490SOL    HW233930   0.842   3.000   5.861 -3.3881 -2.0741 -2.4206
 7491SOL     OW33931   2.412   0.776   8.490  0.2979  0.0521 -1.0407
 7491SOL    HW133932   2.365   0.840   8.544  3.6348  2.1725 -0.6635
 7491SOL    HW233933   2.453   0.725   8.559  0.7711  2.7432  0.6934
 7492SOL     OW33934   1.284   3.847  12.641 -0.0532  0.4617 -0.0439
 7492SOL    HW133935   1.333   3.791  12.702  0.2308 -0.9163 -1.5427
 7492SOL    HW233936   1.340   3.925  12.649 -0.9327  1.0134  0.8190
 7493SOL     OW33937   2.842   3.427  16.504 -0.1969 -0.1838  0.1320
 7493SOL    HW133938   2.885   3.510  16.484 -0.3989 -0.3288 -0.9097
 7493SOL    HW233939   2.899   3.419  16.581  2.3978  0.6623 -1.7096
 7494SOL     OW33940   3.104   3.269  13.477 -0.6150 -0.3572  0.1362
 7494SOL    HW133941   3.018   3.297  13.445 -0.5016 -0.4053 -0.2122
 7494SOL    HW233942   3.117   3.183  13.437 -0.2925 -0.1896 -0.1159
 7495SOL     OW33943   4.074   1.516   5.463 -0.0663 -0.1985 -0.5572
 7495SOL    HW133944   4.136   1.500   5.391  0.2365  2.3241 -0.8557
 7495SOL    HW233945   4.099   1.437   5.510  2.5656  1.1193  0.1923
 7496SOL     OW33946   4.510   0.408   7.783  0.1289 -0.2255 -0.1177
 7496SOL    HW133947   4.597   0.443   7.805  0.3384 -0.6290 -0.3049
 7496SOL    HW233948   4.478   0.376   7.867  0.9817 -1.6629 -0.3371
 7497SOL     OW33949   1.764   0.142  10.325 -0.3500 -0.0150  0.3047
 7497SOL    HW133950   1.757   0.134  10.230  0.0120 -0.4742  0.3167
 7497SOL    HW233951   1.753   0.236  10.339  1.5735  0.2111  0.2705
 7498SOL     OW33952   2.586   0.616  10.734  0.3810 -0.3628  0.3484
 7498SOL    HW133953   2.547   0.683  10.678  0.5283  0.9099  1.7880
 7498SOL    HW233954   2.631   0.557  10.674 -0.8052  0.0684 -0.9648
 7499SOL     OW33955   1.934   2.205   5.643 -0.1698 -0.7549 -0.2701
 7499SOL    HW133956   1.979   2.177   5.563 -1.6069 -1.6743 -0.7493
 7499SOL    HW233957   1.994   2.171   5.710 -1.4939 -1.6325  0.4569
 7500SOL     OW33958   1.652   4.068   1.771  0.2878  0.1515 -0.1604
 7500SOL    HW133959   1.731   4.122   1.760  0.0370  0.4581 -0.4633
 7500SOL    HW233960   1.664   4.039   1.862 -1.3565 -2.2523 -0.7075
 7501SOL     OW33961   1.431   1.352   4.187 -0.7848 -0.0564 -0.1719
 7501SOL    HW133962   1.455   1.423   4.129 -0.3611 -0.1226 -0.0764
 7501SOL    HW233963   1.515   1.335   4.230 -0.8216  0.4108  0.0859
 7502SOL     OW33964   0.259   3.058   6.610 -0.1400  0.4017  0.5290
 7502SOL    HW133965   0.329   3.070   6.547  1.4939  0.4871  2.3511
 7502SOL    HW233966   0.302   3.008   6.679 -1.1855 -0.8058  0.3138
 7503SOL     OW33967   4.466   0.668   3.381 -0.6888  0.0137  0.5389
 7503SOL    HW133968   4.550   0.704   3.351  0.1097 -3.9116 -1.9463
 7503SOL    HW233969   4.486   0.575   3.371  0.4762  0.1936  1.1855
 7504SOL     OW33970   0.139   2.793   1.045 -0.3566  0.3781 -0.0758
 7504SOL    HW133971   0.220   2.823   1.003 -1.5193  0.7902 -1.9759
 7504SOL    HW233972   0.075   2.856   1.012  0.7396  0.8387 -1.3305
 7505SOL     OW33973   2.984   2.813   9.442  0.2140 -0.2500  0.1580
 7505SOL    HW133974   2.956   2.773   9.524 -2.9421  0.4770 -0.5872
 7505SOL    HW233975   3.076   2.822   9.469  0.8452  0.3557 -2.2620
 7506SOL     OW33976   2.942   2.524   7.035 -0.3377 -0.0418 -0.1773
 7506SOL    HW133977   2.995   2.448   7.058 -0.8850 -0.2331  0.4169
 7506SOL    HW233978   2.856   2.482   7.030 -0.5975  0.5638 -0.8803
 7507SOL     OW33979   3.971   3.184   6.909 -0.2425 -0.3154 -0.2354
 7507SOL    HW133980   3.887   3.166   6.868  0.0611 -1.6538 -0.2659
 7507SOL    HW233981   4.028   3.108   6.900 -0.7779 -0.4493 -2.6226
 7508SOL     OW33982   1.583   0.837  10.377  0.4825 -0.3581 -0.0940
 7508SOL    HW133983   1.635   0.771  10.423  0.8921  2.0698  2.8834
 7508SOL    HW233984   1.577   0.796  10.290 -1.6398  0.2591 -0.2136
 7509SOL     OW33985   3.498   4.354  14.811 -0.6600  0.1870  0.3881
 7509SOL    HW133986   3.506   4.265  14.777 -0.3672 -0.4591  2.1607
 7509SOL    HW233987   3.542   4.338  14.895  1.9377 -2.5089 -1.4686
 7510SOL     OW33988   4.300   3.722   7.988  0.7446  0.1471 -0.2322
 7510SOL    HW133989   4.344   3.651   8.035 -0.4782  0.2768  1.1001
 7510SOL    HW233990   4.220   3.674   7.966  1.9673 -0.5809 -3.1434
 7511SOL     OW33991   3.418   3.615   4.740 -0.3646  0.0064  0.8561
 7511SOL    HW133992   3.443   3.684   4.679 -2.3270 -0.2812 -0.2659
 7511SOL    HW233993   3.347   3.571   4.693 -1.0563  1.5777  0.4502
 7512SOL     OW33994   3.642   2.455   6.151  0.0952  0.2163  0.2564
 7512SOL    HW133995   3.726   2.469   6.194  0.5842 -0.0422 -0.6302
 7512SOL    HW233996   3.602   2.541   6.161 -0.4815 -0.1136  0.7711
 7513SOL     OW33997   0.353   1.794   8.556  0.2822  0.4182  0.0380
 7513SOL    HW133998   0.285   1.786   8.489 -0.6872  0.7211  0.9714
 7513SOL    HW233999   0.371   1.702   8.574 -0.8440  0.0264 -0.8579
 7514SOL     OW34000   4.373   4.286  10.354  0.6918  0.4045  0.3202
 7514SOL    HW134001   4.414   4.219  10.298 -2.0443 -0.9974 -0.0086
 7514SOL    HW234002   4.305   4.234  10.397 -0.3435 -0.0806 -1.8886
 7515SOL     OW34003   3.131   2.567   2.365 -0.4429 -0.2425 -0.0046
 7515SOL    HW134004   3.109   2.614   2.284  1.0870 -0.5636 -0.6098
 7515SOL    HW234005   3.074   2.491   2.352  0.8603 -1.0326 -1.0697
 7516SOL     OW34006   3.336   1.508   0.359  0.3820  0.7766  0.3489
 7516SOL    HW134007   3.363   1.590   0.318  0.2916 -0.6264 -2.4528
 7516SOL    HW234008   3.335   1.519   0.455  0.5966 -1.6125  0.6318
 7517SOL     OW34009   1.779   3.093   2.412  0.8634  0.1159 -0.3877
 7517SOL    HW134010   1.787   2.999   2.396 -1.3500  0.2469 -2.3014
 7517SOL    HW234011   1.756   3.096   2.505 -1.9746 -0.5319 -1.0631
 7518SOL     OW34012   2.380   4.119   0.470 -0.0041  0.1112 -0.0369
 7518SOL    HW134013   2.474   4.137   0.470  0.1852 -0.8258 -2.0954
 7518SOL    HW234014   2.367   4.071   0.551 -0.1039 -1.0197 -0.7246
 7519SOL     OW34015   2.917   0.126   4.050 -0.2209 -0.2224  0.5486
 7519SOL    HW134016   2.839   0.098   4.001  0.7228  0.0556 -1.1099
 7519SOL    HW234017   2.972   0.048   4.046  0.0326  0.1130 -2.6282
 7520SOL     OW34018   4.309   4.621  10.695  0.0472 -0.8021 -0.1848
 7520SOL    HW134019   4.317   4.679  10.620 -0.4833  0.6641  0.8770
 7520SOL    HW234020   4.275   4.680  10.763  0.0826  0.0595 -0.9292
 7521SOL     OW34021   2.275   3.503   5.401 -0.3667  0.4058  0.1677
 7521SOL    HW134022   2.226   3.434   5.356 -2.2648  1.2148  0.9989
 7521SOL    HW234023   2.353   3.490   5.346 -2.8276 -3.7659 -2.3549
 7522SOL     OW34024   2.634   0.610  12.887  0.7363  0.0238 -0.1857
 7522SOL    HW134025   2.677   0.573  12.964  0.4519 -0.2388 -0.1511
 7522SOL    HW234026   2.694   0.587  12.816  0.4130  0.0998 -0.4842
 7523SOL     OW34027   1.880   1.914   9.666  0.9757 -0.0170  0.3419
 7523SOL    HW134028   1.960   1.915   9.719  1.4144 -2.3351 -0.2411
 7523SOL    HW234029   1.876   1.820   9.648 -0.7171 -0.0121  0.7275
 7524SOL     OW34030   3.409   2.480  11.650  0.1632 -0.2742  0.4586
 7524SOL    HW134031   3.452   2.444  11.572  0.7563  1.5738 -0.0660
 7524SOL    HW234032   3.369   2.398  11.677  0.1543 -1.4184 -3.1139
 7525SOL     OW34033   1.522   3.356   7.989 -0.3756  0.1885 -0.2936
 7525SOL    HW134034   1.604   3.397   7.961 -0.4976  0.2400 -0.5805
 7525SOL    HW234035   1.471   3.363   7.908 -1.2160  3.3531  0.5279
 7526SOL     OW34036   1.998   1.460   6.171 -0.3288  0.0607 -0.4951
 7526SOL    HW134037   2.033   1.488   6.256  1.8238 -1.8866 -0.7516
 7526SOL    HW234038   2.004   1.542   6.122 -0.5221  0.3034 -0.1128
 7527SOL     OW34039   0.944   3.302   6.952 -0.3536 -0.6917  0.8664
 7527SOL    HW134040   1.015   3.239   6.938 -0.0232 -0.5352  1.8169
 7527SOL    HW234041   0.908   3.327   6.867  0.3190 -2.1000  0.1638
 7528SOL     OW34042   3.190   4.201   5.701  0.5433 -0.4394 -0.2139
 7528SOL    HW134043   3.201   4.106   5.692  0.5553 -0.4676  0.1194
 7528SOL    HW234044   3.274   4.234   5.670  0.9932  0.0518  1.5756
 7529SOL     OW34045   2.185   1.633  10.616 -0.7684 -0.1867  0.2286
 7529SOL    HW134046   2.151   1.632  10.527 -0.8614  0.7886  0.2471
 7529SOL    HW234047   2.281   1.635  10.610 -0.6674 -0.3484  1.8639
 7530SOL     OW34048   4.628   3.278   5.188 -0.6522 -0.1187  0.4435
 7530SOL    HW134049   4.648   3.345   5.123 -0.7561 -0.8081 -0.2961
 7530SOL    HW234050   4.568   3.211   5.154  0.1145 -1.1906  1.1822
 7531SOL     OW34051   0.239   1.603   3.007  0.1131 -0.4660  0.2250
 7531SOL    HW134052   0.215   1.511   3.012 -1.6726 -0.0859 -1.2617
 7531SOL    HW234053   0.158   1.640   2.972  0.1822  1.9356  2.6706
 7532SOL     OW34054   2.378   3.789   4.865 -0.9073 -0.1218 -0.0952
 7532SOL    HW134055   2.445   3.728   4.835 -0.8895  0.1813 -0.6692
 7532SOL    HW234056   2.302   3.762   4.815 -0.6651 -3.2199  1.1989
 7533SOL     OW34057   3.776   3.943   1.231  0.1551  0.4299 -0.2557
 7533SOL    HW134058   3.741   3.901   1.310  0.4224 -0.8719 -0.8378
 7533SOL    HW234059   3.796   4.032   1.261 -2.9709  0.4305  1.8353
 7534SOL     OW34060   3.446   3.860   3.881  0.3237  0.2264 -0.2346
 7534SOL    HW134061   3.445   3.955   3.895  2.3157  0.3016 -0.6833
 7534SOL    HW234062   3.441   3.824   3.969 -2.8573  0.5033 -0.3074
 7535SOL     OW34063   0.519   4.379  17.625 -0.0449  0.2303  0.0207
 7535SOL    HW134064   0.478   4.389   0.011  2.3702  2.3628  0.9251
 7535SOL    HW234065   0.578   4.454  17.633  1.0682 -0.3853 -2.5751
 7536SOL     OW34066   1.409   2.680   0.422 -0.1521  0.2126 -0.2173
 7536SOL    HW134067   1.495   2.718   0.403 -0.9582  1.0902 -2.0769
 7536SOL    HW234068   1.402   2.693   0.517 -1.9285 -0.3282 -0.2861
 7537SOL     OW34069   3.192   3.711   4.889  0.5573  0.2244  0.0824
 7537SOL    HW134070   3.249   3.659   4.833 -1.5729 -1.3719 -0.6069
 7537SOL    HW234071   3.250   3.757   4.950 -0.5361  0.2555  1.1012
 7538SOL     OW34072   3.610   2.495  13.775 -0.2586 -0.0755  0.5383
 7538SOL    HW134073   3.647   2.559  13.714 -1.6407 -1.0256 -1.3063
 7538SOL    HW234074   3.529   2.536  13.805 -1.7122 -0.1765 -3.2693
 7539SOL     OW34075   3.701   3.086  12.528 -0.0412  0.1902  0.0482
 7539SOL    HW134076   3.734   3.174  12.548 -0.0683  0.8117 -2.5501
 7539SOL    HW234077   3.777   3.034  12.553  0.5134  0.7740 -0.3971
 7540SOL     OW34078   0.682   3.299   9.849 -0.0509 -0.2501  0.5539
 7540SOL    HW134079   0.746   3.269   9.785  0.2289 -0.2898  0.8544
 7540SOL    HW234080   0.603   3.252   9.822  1.0239 -1.9377  0.3448
 7541SOL     OW34081   1.796   1.277   3.369 -0.3869 -0.6777  0.1824
 7541SOL    HW134082   1.738   1.277   3.292  0.4974 -0.2516 -0.4909
 7541SOL    HW234083   1.729   1.256   3.434 -2.8871  0.7340 -1.9376
 7542SOL     OW34084   4.243   0.266   2.658  0.4378 -0.1768 -0.5226
 7542SOL    HW134085   4.331   0.237   2.636  1.6108  2.0534  1.3321
 7542SOL    HW234086   4.263   0.352   2.694 -0.8895 -0.5769  1.1835
 7543SOL     OW34087   1.325   1.729  10.751  0.4375  0.3251  0.1586
 7543SOL    HW134088   1.292   1.648  10.788  2.2036 -1.0289 -1.2428
 7543SOL    HW234089   1.413   1.723  10.787  0.3207  0.9616  0.5491
 7544SOL     OW34090   2.391   4.358   3.285  0.4030  0.6348 -0.2749
 7544SOL    HW134091   2.341   4.300   3.228  0.4646 -0.5277  0.8560
 7544SOL    HW234092   2.369   4.437   3.235 -1.4862  0.6820  0.6721
 7545SOL     OW34093   2.037   1.398  17.332 -0.1706 -0.1462  0.6085
 7545SOL    HW134094   2.017   1.398  17.238  2.7427 -0.7833 -0.0132
 7545SOL    HW234095   2.033   1.306  17.358  2.1851  0.2340  2.3014
 7546SOL     OW34096   3.973   4.376   1.458  0.1853 -0.0416  0.6434
 7546SOL    HW134097   4.012   4.451   1.411  1.9486 -0.3655  1.6092
 7546SOL    HW234098   4.058   4.349   1.491  0.0282 -2.1071 -0.6696
 7547SOL     OW34099   0.347   2.924   8.249  0.7071 -0.2113 -1.0321
 7547SOL    HW134100   0.313   2.844   8.289  0.4686  0.3784 -0.0551
 7547SOL    HW234101   0.388   2.960   8.328 -0.5700  3.2077 -1.9067
 7548SOL     OW34102   3.465   1.459   6.254 -0.0163  0.1778 -0.4824
 7548SOL    HW134103   3.533   1.449   6.321  0.6024 -2.7100 -1.5777
 7548SOL    HW234104   3.416   1.527   6.301  1.2288 -0.1013  1.2504
 7549SOL     OW34105   1.525   4.129   3.594 -0.0820 -0.1962  0.0161
 7549SOL    HW134106   1.558   4.153   3.680 -1.4084  0.1776  0.4144
 7549SOL    HW234107   1.608   4.137   3.547 -0.7585  1.2036 -0.9313
 7550SOL     OW34108   0.038   4.173   5.185 -0.1544  0.2058  0.0016
 7550SOL    HW134109   0.026   4.260   5.146  1.4143  0.2022 -0.4957
 7550SOL    HW234110   0.131   4.181   5.207 -0.1181 -0.2500  0.0112
 7551SOL     OW34111   4.576   4.720   8.065  0.2073 -0.1689 -0.1916
 7551SOL    HW134112   4.483   4.703   8.051  0.3757 -2.1242  1.0527
 7551SOL    HW234113   4.586   4.650   8.129  1.5006 -0.2532 -0.4989
 7552SOL     OW34114   0.959   3.925  11.707 -0.0377 -0.0164  0.1097
 7552SOL    HW134115   0.897   3.997  11.700 -0.5298 -0.3474  1.0905
 7552SOL    HW234116   1.033   3.969  11.747  0.2155 -1.7786  1.5996
 7553SOL     OW34117   1.838   2.700   2.739 -0.1907  0.9761  0.1394
 7553SOL    HW134118   1.777   2.660   2.677 -1.3050  0.8610  1.3153
 7553SOL    HW234119   1.845   2.645   2.816  2.1985  0.2560 -0.5835
 7554SOL     OW34120   3.992   2.720   3.645 -0.3865 -0.3409  0.0683
 7554SOL    HW134121   4.042   2.692   3.721  1.0980  3.3212  0.4310
 7554SOL    HW234122   4.029   2.805   3.622 -1.0443 -0.1733 -0.3743
 7555SOL     OW34123   1.650   2.251   7.970 -0.0537 -0.1539  0.0436
 7555SOL    HW134124   1.647   2.283   8.060 -1.6498  3.9711 -1.4554
 7555SOL    HW234125   1.617   2.161   7.971  2.4391 -1.0727  0.6285
 7556SOL     OW34126   3.047   1.875   1.766  0.2930  0.0356  0.2923
 7556SOL    HW134127   2.968   1.886   1.819 -0.6676  0.4599 -1.2102
 7556SOL    HW234128   3.014   1.814   1.699 -2.1019  0.5010  1.0392
 7557SOL     OW34129   1.452   1.273   8.355  0.4246  0.4493 -0.6763
 7557SOL    HW134130   1.453   1.178   8.368 -1.0852  0.5917  0.4446
 7557SOL    HW234131   1.427   1.284   8.263  1.8048  1.7588 -0.9126
 7558SOL     OW34132   2.868   3.951   9.318 -0.0918 -0.1743  0.3178
 7558SOL    HW134133   2.836   3.965   9.408  1.4709  3.2537  0.3456
 7558SOL    HW234134   2.952   3.997   9.320 -0.8797  1.2652  0.3410
 7559SOL     OW34135   3.974   1.287   3.871 -0.0618 -0.7750  0.4688
 7559SOL    HW134136   3.914   1.256   3.803 -0.0622 -3.2881  1.6218
 7559SOL    HW234137   4.060   1.281   3.831  0.2440 -2.4027  1.3966
 7560SOL     OW34138   0.386   3.253   7.813  0.6385  0.6129 -0.6341
 7560SOL    HW134139   0.383   3.161   7.839  1.5318  1.1679  1.4725
 7560SOL    HW234140   0.370   3.302   7.894 -2.1019 -1.2810 -0.0393
 7561SOL     OW34141   4.680   4.335   3.709 -0.3225  0.4686 -0.1552
 7561SOL    HW134142   4.614   4.266   3.709  0.2245 -0.0513  3.7436
 7561SOL    HW234143   4.703   4.336   3.616 -1.1178  0.3997 -0.3528
 7562SOL     OW34144   2.409   4.572   2.853 -0.4138  0.2425  0.4682
 7562SOL    HW134145   2.417   4.491   2.905  4.1894  1.5324  1.7137
 7562SOL    HW234146   2.331   4.618   2.884 -2.4745 -1.3085 -2.3991
 7563SOL     OW34147   3.620   0.719   7.212  0.2984 -0.1348  0.0173
 7563SOL    HW134148   3.584   0.646   7.262  1.1680 -1.1230 -0.8000
 7563SOL    HW234149   3.665   0.775   7.275 -3.0001  0.7937  1.5136
 7564SOL     OW34150   4.265   1.939   7.909 -0.7905 -0.1242  0.3586
 7564SOL    HW134151   4.276   1.845   7.919  1.0396 -0.2468 -2.8110
 7564SOL    HW234152   4.218   1.957   7.991 -0.9876 -0.4182  0.3081
 7565SOL     OW34153   1.462   4.047  11.635 -0.5078  0.4659  0.0316
 7565SOL    HW134154   1.479   4.129  11.589  1.6026 -0.3827 -0.6920
 7565SOL    HW234155   1.542   4.038  11.687 -0.4648  0.2011 -0.0780
 7566SOL     OW34156   2.480   3.148   8.646  0.5777  0.0893 -0.3024
 7566SOL    HW134157   2.400   3.177   8.602 -1.0139 -0.3717  2.2803
 7566SOL    HW234158   2.500   3.076   8.586 -2.2289 -0.8116 -0.1819
 7567SOL     OW34159   3.739   3.025  10.092  0.2464 -0.4301 -0.8078
 7567SOL    HW134160   3.834   3.023  10.101  0.1322 -0.4829  0.4261
 7567SOL    HW234161   3.710   2.947  10.140  0.8728  0.1125  0.4523
 7568SOL     OW34162   0.814   3.183   7.982 -0.2743 -0.5062  0.1783
 7568SOL    HW134163   0.750   3.254   7.990  0.0749 -0.7302  5.1892
 7568SOL    HW234164   0.758   3.111   7.951  0.8510 -1.1321 -0.4006
 7569SOL     OW34165   2.975   1.154  12.862  0.4053  0.3880  0.2910
 7569SOL    HW134166   2.901   1.203  12.826  0.4540 -1.3515 -2.1908
 7569SOL    HW234167   3.006   1.219  12.925 -0.1427  0.3970  0.5568
 7570SOL     OW34168   0.939   2.084  14.613 -0.3119 -0.5760 -0.7293
 7570SOL    HW134169   0.941   2.176  14.641 -1.1978 -0.7660 -0.0293
 7570SOL    HW234170   0.849   2.072  14.582 -0.7047  2.0437 -0.6026
 7571SOL     OW34171   2.829   1.814  15.535  0.5851 -0.2157 -0.1497
 7571SOL    HW134172   2.875   1.896  15.552  1.3357 -0.7604  0.4581
 7571SOL    HW234173   2.795   1.831  15.447  0.5410  0.7967  0.0617
 7572SOL     OW34174   2.880   3.539   2.424  0.0619 -0.9394 -0.1896
 7572SOL    HW134175   2.922   3.463   2.465 -0.9637 -0.6292  1.3764
 7572SOL    HW234176   2.841   3.491   2.350  1.0350 -0.6055 -0.9292
 7573SOL     OW34177   1.740   1.067   1.877 -0.0612  0.0758  0.2778
 7573SOL    HW134178   1.702   1.013   1.808 -0.3281  0.1061  0.4021
 7573SOL    HW234179   1.664   1.104   1.922 -1.3865 -0.9036 -1.1386
 7574SOL     OW34180   1.936   2.946   5.109 -0.7039  0.4659  0.2149
 7574SOL    HW134181   1.965   2.981   5.024  0.7517  0.5555  0.7527
 7574SOL    HW234182   1.917   2.853   5.095 -2.0087  0.9485 -1.1901
 7575SOL     OW34183   4.243   1.663   0.245  0.1843  0.5101 -0.5490
 7575SOL    HW134184   4.205   1.748   0.268 -3.5010 -1.4196  0.4675
 7575SOL    HW234185   4.174   1.604   0.275  1.4218 -2.3013 -3.2090
 7576SOL     OW34186   0.210   4.486   4.101 -0.1223 -0.5191  0.1548
 7576SOL    HW134187   0.210   4.419   4.032 -0.5878 -0.2653 -0.0877
 7576SOL    HW234188   0.204   4.564   4.046  3.6024  0.9674  1.8342
 7577SOL     OW34189   3.285   1.645   5.657 -0.8489  0.2148  0.2328
 7577SOL    HW134190   3.288   1.606   5.744 -0.8046 -0.8843 -0.2585
 7577SOL    HW234191   3.205   1.697   5.663 -1.3908 -0.3822 -1.9142
 7578SOL     OW34192   0.493   4.297   0.660  0.1457 -0.5857 -0.3707
 7578SOL    HW134193   0.433   4.369   0.643  1.0533  0.3533  0.3320
 7578SOL    HW234194   0.452   4.223   0.616  0.1386 -1.3755  0.9635
 7579SOL     OW34195   1.669   2.766   4.030  0.3301  1.1224 -0.1443
 7579SOL    HW134196   1.575   2.757   4.041  0.6394 -3.3989 -1.4073
 7579SOL    HW234197   1.673   2.810   3.945 -3.7747 -1.6440 -1.7207
 7580SOL     OW34198   1.801   1.476  11.369  0.2783  0.0580 -0.0509
 7580SOL    HW134199   1.872   1.539  11.365 -0.7739  1.1880 -0.8609
 7580SOL    HW234200   1.773   1.481  11.460 -1.2439 -0.1997 -0.5012
 7581SOL     OW34201   1.616   4.133   6.846  0.5887 -0.9742 -0.9359
 7581SOL    HW134202   1.578   4.127   6.933 -1.3126  1.7523 -1.5735
 7581SOL    HW234203   1.708   4.135   6.870  1.1647 -1.6036 -3.0683
 7582SOL     OW34204   3.962   3.384  15.712 -0.3693  0.1356  0.1124
 7582SOL    HW134205   3.943   3.458  15.769  0.6828  1.1179 -0.7999
 7582SOL    HW234206   3.898   3.394  15.641  0.2725 -0.8838 -0.6149
 7583SOL     OW34207   0.560   2.613   2.726 -0.3518  0.5363  0.2854
 7583SOL    HW134208   0.590   2.523   2.713  1.2854  1.3439 -1.4261
 7583SOL    HW234209   0.490   2.602   2.790 -0.1844  0.2026  0.4143
 7584SOL     OW34210   3.309   1.243   3.903 -0.1622 -0.2944  0.6839
 7584SOL    HW134211   3.244   1.221   3.970  2.7305 -0.6786  3.3410
 7584SOL    HW234212   3.375   1.273   3.966  1.5900 -1.9984 -0.3243
 7585SOL     OW34213   2.534   0.938  13.403 -0.3448  0.3572  0.1723
 7585SOL    HW134214   2.596   0.932  13.330  0.9428  1.0369  1.2142
 7585SOL    HW234215   2.516   1.031  13.404 -1.9301  0.0394  1.2633
 7586SOL     OW34216   2.217   2.409  16.440  0.3458 -0.7708 -0.2297
 7586SOL    HW134217   2.257   2.349  16.377 -1.2051 -1.6300 -0.3952
 7586SOL    HW234218   2.272   2.386  16.515 -0.0767  0.4116  0.4364
 7587SOL     OW34219   2.015   3.141   3.142  0.2216  0.4792 -0.3552
 7587SOL    HW134220   2.060   3.071   3.189  0.9129  1.1848  0.0319
 7587SOL    HW234221   1.968   3.091   3.075 -1.3874  0.9652  0.4191
 7588SOL     OW34222   3.315   1.564   5.298 -0.5072 -0.7393 -0.1666
 7588SOL    HW134223   3.346   1.473   5.292  1.9927  0.1702 -0.5720
 7588SOL    HW234224   3.229   1.554   5.340 -0.3685  3.0310  1.0019
 7589SOL     OW34225   1.432   3.264   8.936  0.6337 -0.3762  0.5447
 7589SOL    HW134226   1.456   3.355   8.951  0.8576 -0.2576 -0.4906
 7589SOL    HW234227   1.372   3.244   9.008 -0.2890  0.2094 -0.0567
 7590SOL     OW34228   4.329   2.120   1.049 -0.1977 -0.2630 -0.3190
 7590SOL    HW134229   4.251   2.091   1.096 -1.0602  2.0472 -0.3562
 7590SOL    HW234230   4.398   2.072   1.096  0.2098  0.9902  0.3842
 7591SOL     OW34231   1.536   1.641   7.835  0.0752  0.2667  0.2295
 7591SOL    HW134232   1.456   1.589   7.832  0.7634 -0.8807  1.7272
 7591SOL    HW234233   1.521   1.683   7.920  0.0971  0.2897  0.2223
 7592SOL     OW34234   0.824   3.893   5.142  0.2685  0.3226  0.3222
 7592SOL    HW134235   0.803   3.936   5.058 -3.0256 -2.5154 -0.2808
 7592SOL    HW234236   0.867   3.816   5.106 -0.1692 -0.2121  0.9571
 7593SOL     OW34237   3.931   1.138   0.297 -0.1840 -0.1754 -0.8172
 7593SOL    HW134238   3.877   1.059   0.296 -0.7173  0.1735  0.6889
 7593SOL    HW234239   4.013   1.095   0.276  0.7717  0.8972  0.7404
 7594SOL     OW34240   1.841   0.334   7.168 -0.0269  0.0457 -0.3338
 7594SOL    HW134241   1.771   0.348   7.232 -1.6864 -0.3335 -2.0642
 7594SOL    HW234242   1.832   0.244   7.136 -1.1884  0.7159 -1.8449
 7595SOL     OW34243   3.801   3.308   2.756 -0.2901  0.4056 -0.4186
 7595SOL    HW134244   3.715   3.299   2.797 -0.3438 -1.3281 -0.9255
 7595SOL    HW234245   3.803   3.401   2.733  0.3347  0.0708 -1.6721
 7596SOL     OW34246   2.263   1.543   4.152 -0.3100  0.0091 -0.2006
 7596SOL    HW134247   2.314   1.497   4.086 -0.4654 -2.7510  1.5789
 7596SOL    HW234248   2.196   1.474   4.162  0.6969 -0.8816  0.4837
 7597SOL     OW34249   1.905   0.839   8.926  0.0452 -0.3701 -0.0783
 7597SOL    HW134250   1.907   0.768   8.862 -0.7012  1.5278 -2.1992
 7597SOL    HW234251   1.812   0.835   8.950 -0.1312  0.1821 -0.6818
 7598SOL     OW34252   2.875   2.680  16.694 -0.1416  0.2900 -0.6221
 7598SOL    HW134253   2.944   2.700  16.631 -0.4950 -0.6347 -1.3033
 7598SOL    HW234254   2.927   2.700  16.771 -2.6812  0.8627  0.9445
 7599SOL     OW34255   1.668   1.652   5.706  0.3925  0.5321 -0.2320
 7599SOL    HW134256   1.746   1.684   5.752  0.4885 -2.9887  2.0770
 7599SOL    HW234257   1.592   1.677   5.758  0.0019  0.7198 -0.8937
 7600SOL     OW34258   3.571   1.117   3.218 -0.5521  0.3329 -0.1713
 7600SOL    HW134259   3.652   1.078   3.186 -1.2426 -1.2864 -0.0020
 7600SOL    HW234260   3.545   1.061   3.291 -2.2200  0.0077 -0.9992
 7601SOL     OW34261   4.564   4.721   4.033  0.5063 -0.3943  0.1743
 7601SOL    HW134262   4.608   4.642   4.002 -1.0845 -1.0142 -0.5103
 7601SOL    HW234263   4.490   0.006   3.972  0.3667  1.0114  0.5731
 7602SOL     OW34264   2.926   2.049   9.864 -0.0302 -0.0247  0.3663
 7602SOL    HW134265   2.956   2.132   9.901  1.5055 -1.4757  2.3708
 7602SOL    HW234266   2.865   2.009   9.925 -0.6665  0.6049  0.1446
 7603SOL     OW34267   4.635   0.845   5.627 -0.0789 -0.1499 -0.3035
 7603SOL    HW134268   4.556   0.791   5.620 -0.3089 -0.0086  1.3502
 7603SOL    HW234269   4.701   0.775   5.630 -0.1372 -0.2594 -1.5608
 7604SOL     OW34270   2.036   1.159   1.943  0.2107  0.1554 -0.3838
 7604SOL    HW134271   1.944   1.139   1.959  0.2061 -0.2054 -0.8526
 7604SOL    HW234272   2.077   1.077   1.970 -1.3793  0.7352  3.8011
 7605SOL     OW34273   2.614   3.797   6.201  0.2838  0.0530 -0.0699
 7605SOL    HW134274   2.683   3.736   6.178  0.8095  0.9735 -0.9305
 7605SOL    HW234275   2.543   3.745   6.162  1.5919 -0.1109 -2.2836
 7606SOL     OW34276   4.301   1.390   1.676  0.5983 -0.8183  0.2568
 7606SOL    HW134277   4.216   1.434   1.666  1.2611  0.5750  0.7052
 7606SOL    HW234278   4.290   1.306   1.632 -0.9282 -0.1544 -0.6230
 7607SOL     OW34279   3.102   1.846   3.266  0.3004 -0.1130 -0.3336
 7607SOL    HW134280   3.161   1.873   3.196  0.4131 -0.7911 -0.4972
 7607SOL    HW234281   3.099   1.913   3.335  1.3456 -1.5956  1.1467
 7608SOL     OW34282   0.562   0.418   7.319  0.1802  0.0528 -0.0891
 7608SOL    HW134283   0.535   0.359   7.249 -0.3205  0.9510 -0.6503
 7608SOL    HW234284   0.585   0.499   7.274 -0.6021  0.6081  0.5052
 7609SOL     OW34285   1.907   2.190   1.013  0.0352 -0.3358 -0.4447
 7609SOL    HW134286   2.001   2.176   1.007  0.1215 -0.3105  1.0117
 7609SOL    HW234287   1.872   2.125   0.953 -0.8995 -0.1614 -0.0858
 7610SOL     OW34288   1.717   2.747   5.941  0.2731 -0.0640 -0.9832
 7610SOL    HW134289   1.636   2.729   5.990  0.7587 -0.5776 -0.3716
 7610SOL    HW234290   1.731   2.838   5.969 -0.2134 -0.5440  0.8261
 7611SOL     OW34291   0.064   3.358   7.756 -0.5489  0.2373  0.0666
 7611SOL    HW134292   0.116   3.424   7.801  2.9402 -0.6567 -2.6575
 7611SOL    HW234293   4.702   3.395   7.775 -1.2707 -2.4625  2.0245
 7612SOL     OW34294   0.649   2.464   4.759 -0.2293 -0.1737 -0.6894
 7612SOL    HW134295   0.725   2.507   4.799 -0.4039 -0.0051 -0.5343
 7612SOL    HW234296   0.585   2.500   4.820 -0.4715 -1.9908  0.1031
 7613SOL     OW34297   0.330   2.599  17.278 -0.4156  0.4856  0.0941
 7613SOL    HW134298   0.387   2.540  17.328  0.1664  0.5895 -0.4346
 7613SOL    HW234299   0.288   2.538  17.217  0.0997 -0.5002  0.7097
 7614SOL     OW34300   0.881   2.719   6.795  0.1527 -0.5119  0.1674
 7614SOL    HW134301   0.845   2.801   6.829 -3.0203 -3.2161  3.3381
 7614SOL    HW234302   0.900   2.740   6.703  0.7284 -1.6408  0.0322
 7615SOL     OW34303   1.285   2.491   8.665 -0.2442 -0.0992  0.4527
 7615SOL    HW134304   1.305   2.560   8.601 -1.4168 -0.9003 -0.7841
 7615SOL    HW234305   1.328   2.412   8.631  0.1335 -0.2205  1.2220
 7616SOL     OW34306   1.778   4.535   2.363  0.2530 -0.5675  0.3178
 7616SOL    HW134307   1.852   4.595   2.357  0.2718 -1.2189 -6.6031
 7616SOL    HW234308   1.786   4.490   2.279  1.0143  0.8405 -0.3613
 7617SOL     OW34309   2.135   0.913   1.991 -0.5990 -0.4744 -0.0383
 7617SOL    HW134310   2.189   0.927   1.913 -0.6296 -0.3554 -0.0387
 7617SOL    HW234311   2.137   0.818   1.984 -0.8558 -0.2699 -2.6111
 7618SOL     OW34312   2.196   4.632   8.346 -0.1282  0.4558 -0.5997
 7618SOL    HW134313   2.142   4.603   8.419  0.4437  0.9225  0.0177
 7618SOL    HW234314   2.275   4.579   8.356 -1.8417 -1.8939  0.2813
 7619SOL     OW34315   1.797   4.070   2.908  0.0099 -0.2003 -0.3193
 7619SOL    HW134316   1.802   3.975   2.896  1.1123 -0.3652  1.4982
 7619SOL    HW234317   1.790   4.098   2.817 -1.5221  1.8518  0.4321
 7620SOL     OW34318   3.330   2.282   3.164  0.0430 -0.5157 -0.5304
 7620SOL    HW134319   3.412   2.234   3.159  0.2223 -0.0808 -1.6397
 7620SOL    HW234320   3.294   2.229   3.235  0.7987  0.3072  0.4667
 7621SOL     OW34321   3.941   1.200  15.721  0.3804  0.4131  0.7094
 7621SOL    HW134322   3.965   1.133  15.785  0.5312 -0.2685 -0.0480
 7621SOL    HW234323   3.847   1.187  15.718  0.2132  1.2084  2.7791
 7622SOL     OW34324   2.271   0.782  14.239  0.0433 -0.1575 -0.1549
 7622SOL    HW134325   2.241   0.775  14.330 -3.3509 -0.1317 -1.2547
 7622SOL    HW234326   2.195   0.764  14.183 -0.4404  1.2647  0.0269
 7623SOL     OW34327   3.441   0.733   2.699  0.2217 -0.0979 -0.3103
 7623SOL    HW134328   3.466   0.801   2.762  0.8520  0.8035 -1.5443
 7623SOL    HW234329   3.367   0.771   2.652 -0.6321 -0.7860  0.4771
 7624SOL     OW34330   1.073   4.708   2.806  0.5642  0.2678  0.4382
 7624SOL    HW134331   1.159   0.022   2.822  0.6617 -0.0037  0.5644
 7624SOL    HW234332   1.065   4.630   2.861  2.3464  0.7949  1.4115
 7625SOL     OW34333   1.358   0.472   7.742  0.0368  0.0343  0.2719
 7625SOL    HW134334   1.351   0.388   7.787 -1.6371 -1.1259 -2.1221
 7625SOL    HW234335   1.435   0.517   7.776  1.1541 -2.3857  0.9106
 7626SOL     OW34336   0.589   3.715   0.879 -0.3982  0.1200 -0.6256
 7626SOL    HW134337   0.638   3.781   0.829  1.3372  0.5307  1.6139
 7626SOL    HW234338   0.647   3.721   0.955 -0.9418  0.3955 -0.2372
 7627SOL     OW34339   1.999   2.839   5.659 -0.2095  0.6024  0.1943
 7627SOL    HW134340   1.978   2.852   5.566 -1.0564  1.8998  0.5663
 7627SOL    HW234341   2.050   2.920   5.661 -0.0321  0.5647 -2.4016
 7628SOL     OW34342   2.978   0.925   4.496 -0.4288  0.5131 -0.4862
 7628SOL    HW134343   2.943   0.920   4.407  1.2781 -0.9339 -1.0832
 7628SOL    HW234344   2.907   0.876   4.539 -1.6658  1.9766 -0.8495
 7629SOL     OW34345   0.194   3.735   6.245 -0.0432  0.3231  0.0195
 7629SOL    HW134346   0.219   3.679   6.172 -1.8847 -0.0339 -0.3452
 7629SOL    HW234347   0.176   3.820   6.204 -0.8495  0.5816  0.8914
 7630SOL     OW34348   2.462   3.530   4.804  0.0551  0.1644 -0.3546
 7630SOL    HW134349   2.519   3.506   4.877 -1.1567  1.8134  1.1254
 7630SOL    HW234350   2.423   3.442   4.798 -0.0807  0.5082 -4.8356
 7631SOL     OW34351   2.077   2.277   8.284 -0.8979  0.0269  0.1023
 7631SOL    HW134352   2.056   2.200   8.232 -1.6826 -1.2517  2.3078
 7631SOL    HW234353   2.002   2.286   8.343 -1.2197  0.6647 -0.4016
 7632SOL     OW34354   1.001   2.029   4.807  0.1604 -0.1606 -0.1333
 7632SOL    HW134355   1.096   2.036   4.812  0.2053 -1.1638  0.5392
 7632SOL    HW234356   0.977   2.116   4.777 -2.2689 -1.6372 -2.4922
 7633SOL     OW34357   2.190   4.468  12.854  0.6793  0.0579 -0.3216
 7633SOL    HW134358   2.139   4.449  12.775 -1.4039  1.2179  0.7370
 7633SOL    HW234359   2.278   4.477  12.819  0.9727 -1.2657  0.0641
 7634SOL     OW34360   3.840   2.850   4.343  0.3663 -0.2662 -0.0144
 7634SOL    HW134361   3.883   2.781   4.394  1.1034  0.7866  0.8108
 7634SOL    HW234362   3.868   2.927   4.393  0.3860 -2.1535  2.8945
 7635SOL     OW34363   4.579   1.389   8.163 -0.2438 -0.2533 -0.1527
 7635SOL    HW134364   4.493   1.393   8.122  0.0281  2.0858 -0.5182
 7635SOL    HW234365   4.632   1.451   8.113 -2.2740  1.0217 -0.7082
 7636SOL     OW34366   4.321   0.518   2.711  0.2384 -0.3668 -0.0737
 7636SOL    HW134367   4.394   0.563   2.669  0.5053 -2.0464 -1.4207
 7636SOL    HW234368   4.252   0.564   2.664  0.9120 -0.1342 -0.8370
 7637SOL     OW34369   1.532   3.562   2.065  0.2245 -0.1311 -0.1856
 7637SOL    HW134370   1.575   3.496   2.120 -3.0186 -0.8715  1.4231
 7637SOL    HW234371   1.613   3.595   2.027  0.0193  0.2328 -0.3026
 7638SOL     OW34372   3.286   3.246  14.807  0.0197 -0.0258 -0.4811
 7638SOL    HW134373   3.194   3.219  14.816  0.8950 -2.4343  0.9741
 7638SOL    HW234374   3.287   3.238  14.712  1.6599  3.5555 -0.7737
 7639SOL     OW34375   3.143   0.606   7.924 -0.2327  0.1329 -1.0347
 7639SOL    HW134376   3.050   0.624   7.939 -0.3517 -0.5689 -0.9647
 7639SOL    HW234377   3.148   0.528   7.978  2.0185  1.6149  0.9048
 7640SOL     OW34378   3.366   1.372   1.442 -0.0498  0.3072  0.2559
 7640SOL    HW134379   3.292   1.314   1.421  0.2014  0.6996 -1.7158
 7640SOL    HW234380   3.432   1.319   1.487 -1.7950 -1.1268  1.1417
 7641SOL     OW34381   0.047   0.546   8.178  0.1083  0.2673 -0.5017
 7641SOL    HW134382   0.096   0.606   8.235 -1.0598  0.7321  0.0181
 7641SOL    HW234383   0.029   0.466   8.226  2.2879  0.5775  0.8299
 7642SOL     OW34384   3.161   1.071  13.177 -0.5033  0.5841  0.3727
 7642SOL    HW134385   3.107   1.147  13.155  2.3638  2.3579 -0.6195
 7642SOL    HW234386   3.214   1.068  13.097 -0.5774  0.7185  0.3187
 7643SOL     OW34387   4.179   2.713   6.633  0.1777  0.5536  0.0576
 7643SOL    HW134388   4.263   2.691   6.595 -0.4367 -1.0998 -0.3273
 7643SOL    HW234389   4.142   2.758   6.557 -0.4618 -0.2179 -0.0881
 7644SOL     OW34390   4.340   1.514   9.105 -0.0401 -0.4910  0.0891
 7644SOL    HW134391   4.396   1.461   9.048  0.5776  0.8579 -0.5500
 7644SOL    HW234392   4.286   1.450   9.151  0.1306  0.9003  2.1877
 7645SOL     OW34393   3.527   1.018   9.723 -0.5094 -0.7355 -0.5131
 7645SOL    HW134394   3.467   1.091   9.709  0.8371  1.1135  3.4305
 7645SOL    HW234395   3.543   0.997   9.631  4.0621 -0.7770  0.3015
 7646SOL     OW34396   3.746   3.286   9.750  0.0500  0.3820  0.5026
 7646SOL    HW134397   3.746   3.382   9.758 -1.1382  0.4544 -0.5166
 7646SOL    HW234398   3.709   3.252   9.831 -0.6271 -0.9286 -0.3717
 7647SOL     OW34399   1.887   1.997   4.187 -0.0059  0.1418 -0.1849
 7647SOL    HW134400   1.964   1.948   4.157  0.1511  0.4181 -0.2383
 7647SOL    HW234401   1.845   1.933   4.243 -0.2795  0.4198 -0.0747
 7648SOL     OW34402   0.423   1.314   8.229  0.0084 -0.0136 -0.7347
 7648SOL    HW134403   0.363   1.304   8.155 -1.4085 -0.6805  0.5152
 7648SOL    HW234404   0.370   1.275   8.299  0.2974  0.8640 -0.0179
 7649SOL     OW34405   2.600   3.646   4.598  0.1499 -0.1368  0.2468
 7649SOL    HW134406   2.539   3.604   4.659  0.1619  1.7257  1.5374
 7649SOL    HW234407   2.645   3.573   4.555  0.1509  0.6543 -1.0684
 7650SOL     OW34408   2.424   0.688   2.851  0.4802  0.7146  0.6685
 7650SOL    HW134409   2.423   0.719   2.942  2.5146  1.5492  0.3913
 7650SOL    HW234410   2.420   0.769   2.801 -0.3876 -1.2980 -2.5457
 7651SOL     OW34411   3.279   3.417   7.097  0.0315  0.1652  0.1909
 7651SOL    HW134412   3.374   3.422   7.108  0.0648  0.6216 -0.2596
 7651SOL    HW234413   3.268   3.322   7.100  4.5180 -0.3336  0.8871
 7652SOL     OW34414   4.482   3.069   8.018 -0.5254  0.5479 -0.2853
 7652SOL    HW134415   4.430   2.994   8.048  1.3427 -1.1561 -1.3738
 7652SOL    HW234416   4.445   3.139   8.072  1.1100  0.5784  0.8044
 7653SOL     OW34417   4.449   3.428   6.868 -0.4590  0.1917 -0.5025
 7653SOL    HW134418   4.523   3.391   6.916 -0.2448  1.3272  0.0449
 7653SOL    HW234419   4.377   3.372   6.898 -0.4740  1.1378  1.2217
 7654SOL     OW34420   3.133   1.068   4.680 -0.2095 -0.0799  0.2802
 7654SOL    HW134421   3.065   1.025   4.628 -1.0746 -2.1130  3.0828
 7654SOL    HW234422   3.169   1.132   4.619  0.3397  1.9419  2.7103
 7655SOL     OW34423   0.418   1.324   0.526  0.3715 -0.3086 -0.1934
 7655SOL    HW134424   0.326   1.349   0.536 -0.2173 -1.0460 -4.0217
 7655SOL    HW234425   0.471   1.401   0.547  1.5949 -1.1356 -0.3040
 7656SOL     OW34426   2.273   1.010   7.252 -0.3315 -0.2158  0.0364
 7656SOL    HW134427   2.253   0.936   7.196  0.9165  0.3744 -1.1739
 7656SOL    HW234428   2.356   1.033   7.212 -0.0044  0.5856  1.1729
 7657SOL     OW34429   3.291   3.370   3.432 -0.4877  0.6104 -0.1009
 7657SOL    HW134430   3.296   3.290   3.484  1.8465  2.6166  2.7255
 7657SOL    HW234431   3.280   3.336   3.343  0.3837  1.0069 -0.3649
 7658SOL     OW34432   2.573   3.225   8.216  0.4755 -0.0176 -0.3368
 7658SOL    HW134433   2.480   3.247   8.219  0.1602 -1.3756 -0.1981
 7658SOL    HW234434   2.605   3.314   8.233  0.5542 -0.3694  1.3694
 7659SOL     OW34435   4.353   0.743   0.497  0.0388 -0.8103 -0.0625
 7659SOL    HW134436   4.282   0.780   0.548  1.0864  2.3648 -0.9285
 7659SOL    HW234437   4.408   0.710   0.568  0.1537  0.6714  0.5301
 7660SOL     OW34438   4.526   2.555   7.345 -0.0295  0.1200  0.4889
 7660SOL    HW134439   4.620   2.564   7.330 -0.1650  1.3753  0.3929
 7660SOL    HW234440   4.516   2.478   7.401  0.5333 -1.0881 -1.0631
 7661SOL     OW34441   0.485   4.079   1.602  0.4337 -0.2377 -0.5004
 7661SOL    HW134442   0.517   4.136   1.673  1.9226  0.5393 -1.7758
 7661SOL    HW234443   0.390   4.088   1.604  0.6690  1.7011  1.4079
 7662SOL     OW34444   2.654   2.767   2.957  0.0221 -0.2059  0.0509
 7662SOL    HW134445   2.630   2.675   2.963 -0.4264 -0.0479  0.6685
 7662SOL    HW234446   2.573   2.804   2.921  0.3027 -0.5061 -0.9041
 7663SOL     OW34447   2.536   0.562  16.304  0.1072  0.3819  0.4080
 7663SOL    HW134448   2.519   0.513  16.224 -2.0968  0.4877  0.8051
 7663SOL    HW234449   2.609   0.622  16.289 -0.2299  1.0826  1.5331
 7664SOL     OW34450   4.267   1.315   9.693 -0.5576  0.4444 -0.3554
 7664SOL    HW134451   4.273   1.372   9.617 -0.1778 -0.3089 -0.8851
 7664SOL    HW234452   4.239   1.389   9.747  0.5656 -0.5923  1.6687
 7665SOL     OW34453   2.809   4.257   5.016  0.1865 -0.5758  0.1775
 7665SOL    HW134454   2.855   4.287   4.937  0.8039 -1.1473  0.3215
 7665SOL    HW234455   2.847   4.172   5.037  0.0119 -0.2979  1.5929
 7666SOL     OW34456   3.938   0.642   4.770  0.7187 -0.0622  0.6625
 7666SOL    HW134457   3.927   0.653   4.865 -0.0863  2.0257  0.3152
 7666SOL    HW234458   3.861   0.587   4.751  0.9162  0.1047 -0.6054
 7667SOL     OW34459   3.642   3.428   4.036  0.2784 -0.2457 -0.2791
 7667SOL    HW134460   3.626   3.334   4.028 -0.7358 -0.1618  0.6977
 7667SOL    HW234461   3.553   3.457   4.056  0.2194 -0.2814 -0.4965
 7668SOL     OW34462   1.682   3.525   1.494 -0.0250  0.1032 -0.0036
 7668SOL    HW134463   1.756   3.533   1.435  0.4172  0.3755  0.5895
 7668SOL    HW234464   1.730   3.532   1.576 -2.2399  2.4742  1.0959
 7669SOL     OW34465   4.051   0.060   4.317  0.2781  0.1353 -0.2893
 7669SOL    HW134466   4.131   0.021   4.281 -0.0500  0.5888 -1.5089
 7669SOL    HW234467   4.092   0.141   4.347  0.8366 -0.5140  0.7141
 7670SOL     OW34468   0.211   1.106   9.516 -0.7191  0.0591 -0.3102
 7670SOL    HW134469   0.156   1.095   9.439 -0.0752 -1.5428 -0.5496
 7670SOL    HW234470   0.147   1.111   9.587  0.4036 -0.9748  0.7649
 7671SOL     OW34471   0.503   0.612  15.690  0.0293  0.0260 -0.3424
 7671SOL    HW134472   0.498   0.518  15.671 -0.4509  0.4852 -2.4687
 7671SOL    HW234473   0.441   0.627  15.761  0.7430  1.6691 -0.0616
 7672SOL     OW34474   3.479   4.682   8.143 -0.7847 -0.2323 -0.0642
 7672SOL    HW134475   3.550   4.679   8.207  0.1327  3.3278 -0.9557
 7672SOL    HW234476   3.407   4.711   8.199  0.9722  2.1010  0.9776
 7673SOL     OW34477   2.245   0.435  13.394  0.0485  0.2204 -0.2668
 7673SOL    HW134478   2.232   0.453  13.487 -2.1066  0.2361 -0.5703
 7673SOL    HW234479   2.158   0.421  13.357 -0.0202 -1.3003  0.4785
 7674SOL     OW34480   4.546   4.593   3.016 -0.3477  0.4583 -0.3570
 7674SOL    HW134481   4.473   4.532   3.027 -0.5814  0.9820  0.9789
 7674SOL    HW234482   4.516   4.659   3.078 -1.7596 -0.2850 -0.2445
 7675SOL     OW34483   1.185   3.532   4.888  0.4919 -0.0430 -0.1919
 7675SOL    HW134484   1.197   3.491   4.802 -1.9673 -0.9524 -0.0850
 7675SOL    HW234485   1.279   3.544   4.900  0.3186  0.5490  0.5573
 7676SOL     OW34486   4.111   0.702   6.061  0.1420  0.1341  0.3762
 7676SOL    HW134487   4.028   0.675   6.022  0.2011  0.2860  0.1420
 7676SOL    HW234488   4.138   0.774   6.003  1.2027 -0.8539 -0.3568
 7677SOL     OW34489   3.573   2.894   7.236 -0.2454 -0.4517  0.5428
 7677SOL    HW134490   3.620   2.924   7.159  0.6175 -1.4317  0.6826
 7677SOL    HW234491   3.498   2.848   7.198  0.5249  0.3398 -1.9150
 7678SOL     OW34492   3.706   0.880  17.650  0.0070  0.0470  0.1348
 7678SOL    HW134493   3.712   0.845   0.039  0.7057  1.0771  0.4935
 7678SOL    HW234494   3.708   0.972  17.676  0.8866  0.2432 -0.6596
 7679SOL     OW34495   4.693   4.698   6.776  0.4102 -0.2545 -0.4701
 7679SOL    HW134496   4.652   0.011   6.699 -1.6256 -0.8124  0.3375
 7679SOL    HW234497   0.052   0.016   6.758  0.5673 -1.0164 -1.5353
 7680SOL     OW34498   2.652   0.274  10.138 -0.1719 -0.0148 -0.0354
 7680SOL    HW134499   2.685   0.238  10.221  0.9158  2.2032  0.4880
 7680SOL    HW234500   2.590   0.339  10.170  0.9493  1.4600 -0.8524
 7681SOL     OW34501   0.240   0.736  16.250 -0.2579 -0.2040  0.1778
 7681SOL    HW134502   0.270   0.650  16.220  0.3669  0.7875 -2.0543
 7681SOL    HW234503   0.326   0.767  16.278 -0.6778  0.4177  0.7639
 7682SOL     OW34504   2.104   4.096  12.180 -0.2183  0.9899  0.2489
 7682SOL    HW134505   2.095   4.034  12.107  0.1522  1.2551 -0.0193
 7682SOL    HW234506   2.059   4.177  12.156  2.3793  2.0968 -0.9370
 7683SOL     OW34507   0.930   0.609   6.594  0.6321 -0.2657  0.1445
 7683SOL    HW134508   0.892   0.642   6.675 -0.2813 -0.0229 -0.3810
 7683SOL    HW234509   0.996   0.675   6.573  0.6867 -0.2366  0.4186
 7684SOL     OW34510   1.584   0.390  12.342  0.2055 -0.2929 -0.2598
 7684SOL    HW134511   1.510   0.450  12.329  2.2776  2.1253 -0.7150
 7684SOL    HW234512   1.660   0.440  12.312 -0.8125  0.6968 -1.1994
 7685SOL     OW34513   0.776   2.089   8.623 -0.1272 -0.1041  0.0517
 7685SOL    HW134514   0.788   2.125   8.536  0.9225  0.8773  0.6055
 7685SOL    HW234515   0.780   1.997   8.599  0.1798  0.0420 -0.4540
 7686SOL     OW34516   3.473   0.667   9.086 -0.3948 -0.2666 -0.0546
 7686SOL    HW134517   3.521   0.666   9.169 -1.6972  3.2648  0.7165
 7686SOL    HW234518   3.453   0.575   9.068  1.2115 -0.8033  0.8636
 7687SOL     OW34519   2.176   0.597   4.462  0.3308 -0.3038  0.4303
 7687SOL    HW134520   2.209   0.573   4.375 -0.9426 -0.2396 -0.0762
 7687SOL    HW234521   2.178   0.513   4.507 -0.0664  0.7985  2.4817
 7688SOL     OW34522   3.172   3.755  14.528 -0.7522 -0.2902 -0.0436
 7688SOL    HW134523   3.102   3.782  14.469  0.2551 -2.6408 -2.3119
 7688SOL    HW234524   3.237   3.814  14.490 -0.9047 -0.5647 -0.7439
 7689SOL     OW34525   1.095   1.820   7.655  0.4034  0.0184  0.0922
 7689SOL    HW134526   1.146   1.859   7.584  0.2616  0.2824  0.1379
 7689SOL    HW234527   1.111   1.726   7.646  0.0938  0.0378 -0.6771
 7690SOL     OW34528   2.125   0.688  10.868  0.0700 -0.3623 -0.3786
 7690SOL    HW134529   2.175   0.754  10.915 -0.4118  0.7495 -1.4182
 7690SOL    HW234530   2.175   0.608  10.886  0.0870 -0.6432 -1.6610
 7691SOL     OW34531   4.023   1.377   6.594 -0.1750  0.2627 -0.2252
 7691SOL    HW134532   4.106   1.403   6.635  0.2780 -0.3244 -0.7533
 7691SOL    HW234533   3.996   1.459   6.552 -1.9867  0.3271  1.0857
 7692SOL     OW34534   2.665   3.153   4.567  0.1554  0.1434 -0.0590
 7692SOL    HW134535   2.609   3.109   4.631  0.0098 -0.1166 -0.3718
 7692SOL    HW234536   2.679   3.087   4.499 -0.6496  0.7267 -0.7805
 7693SOL     OW34537   1.357   1.649   3.688 -0.2697 -0.4263 -1.0117
 7693SOL    HW134538   1.373   1.649   3.594  1.4208 -1.7172 -0.7343
 7693SOL    HW234539   1.374   1.742   3.703  0.2161 -0.7393  0.3764
 7694SOL     OW34540   1.490   3.708  14.758 -0.1543  0.7453 -0.1866
 7694SOL    HW134541   1.443   3.664  14.828 -0.0569  2.4264  0.9266
 7694SOL    HW234542   1.518   3.638  14.699  0.9188  0.4704  0.6427
 7695SOL     OW34543   2.766   3.823   5.164 -0.2267  0.4114  0.1769
 7695SOL    HW134544   2.782   3.751   5.224 -0.6973  0.6542  0.5923
 7695SOL    HW234545   2.670   3.817   5.156 -0.3854 -1.4269  3.7399
 7696SOL     OW34546   4.481   3.176   5.674  0.4931  0.3089 -0.3392
 7696SOL    HW134547   4.534   3.233   5.729 -1.2763  2.0401 -0.4255
 7696SOL    HW234548   4.484   3.225   5.592  1.3698 -0.0986 -0.5429
 7697SOL     OW34549   2.609   2.246   4.702  0.1645  0.8782 -0.4637
 7697SOL    HW134550   2.568   2.190   4.768 -1.5837  2.1380 -0.4831
 7697SOL    HW234551   2.633   2.188   4.630  0.7441  1.3749 -0.6674
 7698SOL     OW34552   4.018   0.039  11.752  0.5428 -1.2618 -0.2782
 7698SOL    HW134553   3.942   0.069  11.703 -0.2350 -0.1705  1.5994
 7698SOL    HW234554   3.992   4.682  11.794 -3.8011  0.6893  0.7755
 7699SOL     OW34555   1.601   3.983   5.013 -0.1578 -0.1785 -0.2637
 7699SOL    HW134556   1.687   3.987   5.054 -0.5901  0.3678  0.5937
 7699SOL    HW234557   1.586   4.073   4.983  1.1742 -0.3294 -1.3571
 7700SOL     OW34558   0.112   2.094   8.949 -0.0803  0.6350 -0.2562
 7700SOL    HW134559   0.150   2.049   8.873  1.5194  0.5354  0.5967
 7700SOL    HW234560   0.164   2.049   9.016  0.8641  0.7603 -0.9010
 7701SOL     OW34561   1.786   3.161  10.152  0.8095 -0.1635  0.0623
 7701SOL    HW134562   1.808   3.078  10.109 -1.5466 -1.0716  0.6212
 7701SOL    HW234563   1.805   3.230  10.088  1.4094 -0.7705 -0.4139
 7702SOL     OW34564   1.526   2.487   4.385 -0.1049  0.3911 -0.1886
 7702SOL    HW134565   1.530   2.577   4.417  0.0616  0.2347  0.2275
 7702SOL    HW234566   1.459   2.493   4.317 -0.0356  0.2958 -0.2656
 7703SOL     OW34567   2.622   4.000   4.906  0.1319  0.0408  0.3305
 7703SOL    HW134568   2.554   3.937   4.881  0.6433 -0.5246  0.3502
 7703SOL    HW234569   2.693   3.936   4.915 -1.8752 -2.2285  0.0255
 7704SOL     OW34570   2.372   2.224   1.974  0.2682  0.4089 -0.0946
 7704SOL    HW134571   2.293   2.210   1.922  0.7741 -1.2659 -0.3819
 7704SOL    HW234572   2.334   2.214   2.062 -3.0907 -1.3064 -1.7502
 7705SOL     OW34573   3.446   3.350  15.724 -0.5434  0.0906 -0.3981
 7705SOL    HW134574   3.467   3.390  15.809 -1.1201 -0.2506 -0.0942
 7705SOL    HW234575   3.498   3.274  15.750 -2.5317 -0.8680  0.8317
 7706SOL     OW34576   0.177   4.646   3.574  0.3872 -0.6079 -0.3405
 7706SOL    HW134577   0.171   4.708   3.501 -0.8604  0.7095  0.8739
 7706SOL    HW234578   0.144   4.567   3.531  0.1629 -0.4461 -0.4674
 7707SOL     OW34579   4.111   2.921   6.905 -0.6638  0.8937 -0.2115
 7707SOL    HW134580   4.199   2.889   6.924 -0.8230  0.1426 -0.7341
 7707SOL    HW234581   4.059   2.855   6.951  1.8656 -1.7179 -1.0585
 7708SOL     OW34582   1.515   2.954   1.919 -0.0854 -0.4861  0.1470
 7708SOL    HW134583   1.553   3.037   1.889 -0.2753 -0.4553 -0.0117
 7708SOL    HW234584   1.455   2.921   1.852 -2.0849 -0.0532  1.7288
 7709SOL     OW34585   4.527   0.175   8.274  0.2412 -0.6411 -0.6613
 7709SOL    HW134586   4.579   0.152   8.351 -0.0068  4.0071  0.9128
 7709SOL    HW234587   4.557   0.108   8.212  2.5022  1.2179 -1.5838
 7710SOL     OW34588   2.559   2.015  16.982  0.3413  0.5862 -0.1309
 7710SOL    HW134589   2.617   2.012  17.059  1.5067 -2.9622 -1.1966
 7710SOL    HW234590   2.482   1.964  17.008  1.4987 -0.7204  0.7202
 7711SOL     OW34591   1.709   4.174  10.828 -0.2414  0.3170  0.3255
 7711SOL    HW134592   1.696   4.154  10.735 -0.6108  2.4215 -0.0833
 7711SOL    HW234593   1.751   4.260  10.827  0.9839 -0.2953 -0.8224
 7712SOL     OW34594   2.364   2.756   9.071  0.1389  0.1167 -0.2151
 7712SOL    HW134595   2.436   2.721   9.123  0.5754  0.3437 -0.6710
 7712SOL    HW234596   2.300   2.761   9.142 -0.3495  1.0703 -0.7219
 7713SOL     OW34597   0.000   2.670   6.279 -0.5298 -0.0227 -0.2284
 7713SOL    HW134598   0.018   2.667   6.185 -2.3302 -1.8460 -0.5162
 7713SOL    HW234599   0.076   2.715   6.317 -0.6595  0.6167 -0.7282
 7714SOL     OW34600   0.279   2.590   2.276 -0.3187  0.2725  0.0808
 7714SOL    HW134601   0.361   2.540   2.273 -1.9442 -2.2998 -0.7540
 7714SOL    HW234602   0.269   2.596   2.181  1.3484  1.6155 -0.0199
 7715SOL     OW34603   3.847   1.647   3.692  0.0761  0.0845  0.0609
 7715SOL    HW134604   3.884   1.709   3.628  0.2620  1.0928  1.1373
 7715SOL    HW234605   3.920   1.617   3.746  1.3531  1.5383 -0.8515
 7716SOL     OW34606   0.715   2.364   5.635 -0.1915  0.2178 -0.1814
 7716SOL    HW134607   0.795   2.386   5.684 -1.6462  3.2217  0.8440
 7716SOL    HW234608   0.691   2.283   5.679  1.8672 -0.7241 -0.8110
 7717SOL     OW34609   1.578   2.014   9.189 -0.2500 -0.6418 -0.0728
 7717SOL    HW134610   1.530   1.955   9.131 -1.9943  0.1497  0.5778
 7717SOL    HW234611   1.592   1.960   9.266  0.6547  0.8046  0.7899
 7718SOL     OW34612   2.135   3.430   8.681 -0.0454  0.3605  0.3753
 7718SOL    HW134613   2.051   3.474   8.666  0.4095  1.1567  0.1416
 7718SOL    HW234614   2.195   3.494   8.720 -0.2809  1.1146 -0.4789
 7719SOL     OW34615   3.558   0.813   5.144 -0.5368 -0.0746  0.0710
 7719SOL    HW134616   3.575   0.843   5.233 -2.0532 -0.8291  0.6276
 7719SOL    HW234617   3.646   0.779   5.132  0.3848  2.1991  0.4890
 7720SOL     OW34618   4.696   1.052   7.329  0.5740 -0.3663  0.1205
 7720SOL    HW134619   4.630   1.122   7.329 -0.3638 -1.2353  3.3318
 7720SOL    HW234620   4.651   0.985   7.381 -0.9431 -0.5197 -1.4090
 7721SOL     OW34621   0.898   3.420  15.122 -0.4486 -0.0337 -0.0380
 7721SOL    HW134622   0.806   3.403  15.144 -0.1310 -2.6257 -0.7348
 7721SOL    HW234623   0.897   3.435  15.027 -0.4627  0.4335  0.0363
 7722SOL     OW34624   2.652   1.663   6.734 -0.3551 -0.7725 -0.5013
 7722SOL    HW134625   2.579   1.639   6.678 -1.4456 -0.3932  0.7634
 7722SOL    HW234626   2.609   1.667   6.819 -0.6643  0.0136 -0.7004
 7723SOL     OW34627   4.705   3.584   5.611 -0.2500 -0.2543 -0.9201
 7723SOL    HW134628   4.656   3.505   5.590 -2.3092  0.8678 -0.2870
 7723SOL    HW234629   0.028   3.558   5.690  0.8071 -0.3864 -1.5923
 7724SOL     OW34630   1.614   1.364   5.722 -0.2297  0.5513  0.4815
 7724SOL    HW134631   1.521   1.380   5.742 -0.4403  0.0820 -0.1046
 7724SOL    HW234632   1.657   1.446   5.744 -0.2204  0.8693 -0.6971
 7725SOL     OW34633   1.635   4.189   0.672 -0.9825 -0.0208 -0.7750
 7725SOL    HW134634   1.699   4.232   0.729 -4.0232  2.0005  1.1606
 7725SOL    HW234635   1.654   4.098   0.694 -2.4878  0.1782  1.3277
 7726SOL     OW34636   0.912   2.946   8.511 -0.0509  0.7067  0.4321
 7726SOL    HW134637   0.951   2.871   8.465 -2.3537 -0.6210  0.6621
 7726SOL    HW234638   0.896   3.006   8.438  0.1847 -0.5623 -0.6619
 7727SOL     OW34639   0.728   3.216   7.405  0.5305  0.3858 -0.4259
 7727SOL    HW134640   0.803   3.157   7.410 -0.7294 -0.7102  4.7398
 7727SOL    HW234641   0.665   3.178   7.466  1.9823  0.9681  1.4379
 7728SOL     OW34642   2.525   1.170   7.584 -0.2323 -0.0147 -0.5267
 7728SOL    HW134643   2.500   1.103   7.648  1.7248  3.2339  3.6297
 7728SOL    HW234644   2.594   1.215   7.634 -2.3035  2.3589  0.1774
 7729SOL     OW34645   1.163   1.151   5.944  0.4350  0.0290 -0.1622
 7729SOL    HW134646   1.145   1.070   5.992  3.0321 -0.6100 -0.2829
 7729SOL    HW234647   1.098   1.149   5.874  0.6334 -1.5228 -0.3194
 7730SOL     OW34648   2.361   3.401  17.435 -0.0178  0.6444  0.8114
 7730SOL    HW134649   2.267   3.404  17.419  0.0546 -1.6033  0.0684
 7730SOL    HW234650   2.359   3.420  17.529  0.6429  0.3138  0.8862
 7731SOL     OW34651   0.416   0.246   2.866 -0.0814 -0.1449  0.0026
 7731SOL    HW134652   0.452   0.212   2.948 -2.0674 -1.2012  0.4244
 7731SOL    HW234653   0.480   0.212   2.803 -0.7481 -0.5944 -0.4374
 7732SOL     OW34654   0.232   4.005   7.626  0.1951  0.3039 -0.4560
 7732SOL    HW134655   0.222   3.948   7.550 -0.2552 -0.1797 -0.0261
 7732SOL    HW234656   0.139   4.025   7.629  0.3030  0.9168 -1.1070
 7733SOL     OW34657   0.784   3.250   0.107  0.6211  0.2321  0.4911
 7733SOL    HW134658   0.759   3.286   0.023  2.2683 -0.4942 -0.3096
 7733SOL    HW234659   0.751   3.320   0.163 -1.4315 -0.9918  0.8167
 7734SOL     OW34660   0.622   2.791   4.770 -0.0896 -0.0002  0.4535
 7734SOL    HW134661   0.693   2.779   4.708  1.9965  1.2753  2.6203
 7734SOL    HW234662   0.671   2.777   4.852  0.4516 -0.3517  0.0709
 7735SOL     OW34663   0.931   0.919   9.986  0.4710 -0.3193 -0.4316
 7735SOL    HW134664   1.026   0.925   9.999  0.4411 -1.5336  0.3086
 7735SOL    HW234665   0.910   0.974   9.911  0.5108  3.3663  2.2813
 7736SOL     OW34666   4.315   0.274   8.708 -0.1865  0.4534  0.3425
 7736SOL    HW134667   4.302   0.339   8.640  0.4230 -0.5729 -0.7441
 7736SOL    HW234668   4.380   0.222   8.661  1.9479  2.2073  1.3293
 7737SOL     OW34669   3.101   3.261  16.429  0.1983  0.0625 -0.7321
 7737SOL    HW134670   3.081   3.179  16.383  0.0831 -0.4374  0.2107
 7737SOL    HW234671   3.188   3.241  16.464 -0.0500  0.2937  0.0209
 7738SOL     OW34672   1.865   3.928   6.568  0.0447  0.3526 -0.7913
 7738SOL    HW134673   1.920   3.988   6.516  1.9423 -0.9558 -0.3072
 7738SOL    HW234674   1.903   3.935   6.656 -0.9405  0.6819 -0.3880
 7739SOL     OW34675   4.034   0.869   0.922 -0.5700 -0.0740 -0.0283
 7739SOL    HW134676   4.067   0.953   0.954  1.2617 -0.0813 -1.9019
 7739SOL    HW234677   4.060   0.801   0.985 -1.0922 -0.7524 -0.5496
 7740SOL     OW34678   4.402   3.327   7.637  0.3599  0.1674 -0.3774
 7740SOL    HW134679   4.408   3.411   7.593  1.8991  0.4528  0.3886
 7740SOL    HW234680   4.447   3.353   7.717  2.3339 -0.1768 -1.3806
 7741SOL     OW34681   2.109   3.436   6.698 -0.1322 -0.1725  0.4519
 7741SOL    HW134682   2.043   3.430   6.767 -0.6277 -0.5313 -0.0482
 7741SOL    HW234683   2.062   3.500   6.644 -2.6786 -1.4642  1.1262
 7742SOL     OW34684   0.814   4.166   6.548  0.2885 -0.1255  0.0276
 7742SOL    HW134685   0.826   4.237   6.486 -0.3781  1.7564  2.0504
 7742SOL    HW234686   0.802   4.087   6.495 -2.2952  0.5216 -0.3457
 7743SOL     OW34687   1.045   3.383   8.651 -0.0691  0.4673 -0.7400
 7743SOL    HW134688   0.953   3.357   8.660 -0.0120  0.5074 -0.0527
 7743SOL    HW234689   1.092   3.300   8.648  0.1490  0.4783  2.9933
 7744SOL     OW34690   1.545   0.050   8.321  0.7007  0.3599  0.0236
 7744SOL    HW134691   1.575   0.003   8.243  0.1828  0.3148 -0.1456
 7744SOL    HW234692   1.527   0.138   8.289  0.5755  0.4293  0.2889
 7745SOL     OW34693   0.097   2.780   8.918 -0.1234 -0.6015  0.1483
 7745SOL    HW134694   0.036   2.845   8.951 -0.1839 -0.0779 -1.0046
 7745SOL    HW234695   0.168   2.789   8.982 -0.6956  0.7972  0.5874
 7746SOL     OW34696   3.122   4.509   5.073  0.1555 -0.1325 -0.5794
 7746SOL    HW134697   3.210   4.501   5.035  0.6629 -1.8998  0.9969
 7746SOL    HW234698   3.134   4.468   5.158  2.1585  0.7914 -0.4156
 7747SOL     OW34699   4.043   2.110  12.919 -0.4250 -0.2064  0.6963
 7747SOL    HW134700   4.023   2.192  12.965  0.3426  0.6388 -0.4758
 7747SOL    HW234701   4.030   2.043  12.986  0.5343 -0.7332  0.3633
 7748SOL     OW34702   3.423   1.798   2.435  0.7991  0.0047  0.1787
 7748SOL    HW134703   3.362   1.769   2.367 -0.6680 -0.3886  1.6485
 7748SOL    HW234704   3.505   1.792   2.387  0.8216  2.3639 -0.0640
 7749SOL     OW34705   1.528   0.315   8.175 -0.2222  0.0926 -0.4665
 7749SOL    HW134706   1.443   0.331   8.217 -0.1605 -0.3374 -0.1824
 7749SOL    HW234707   1.580   0.383   8.218  1.7203  0.0518 -2.8097
 7750SOL     OW34708   3.633   0.564   0.817 -0.8497 -0.2592  0.2576
 7750SOL    HW134709   3.645   0.521   0.902  0.3799  0.6514  0.5332
 7750SOL    HW234710   3.578   0.640   0.836 -0.1004  0.3673 -0.0851
 7751SOL     OW34711   4.233   3.539   8.215  0.1222  0.6052  0.5523
 7751SOL    HW134712   4.180   3.483   8.273  1.2569 -1.8057 -0.7737
 7751SOL    HW234713   4.168   3.609   8.212 -0.0221  0.4826  0.7954
 7752SOL     OW34714   3.939   0.738   7.060  0.5687  0.9166 -0.1116
 7752SOL    HW134715   3.848   0.721   7.086  0.3558  0.5314 -1.1080
 7752SOL    HW234716   3.929   0.721   6.966  1.5086 -0.0022 -0.0332
 7753SOL     OW34717   4.515   4.557   9.217  0.1147  0.2654 -0.0848
 7753SOL    HW134718   4.453   4.591   9.153 -1.1888 -0.8513  0.5898
 7753SOL    HW234719   4.566   4.497   9.162  4.8746  2.6273  1.7765
 7754SOL     OW34720   1.005   3.652   7.780 -0.0831 -0.3559  0.3647
 7754SOL    HW134721   1.095   3.676   7.805 -0.7168  1.7137  0.6539
 7754SOL    HW234722   1.001   3.570   7.829  1.0946 -0.0865  0.9077
 7755SOL     OW34723   3.938   1.364   2.633  0.2055 -0.0534 -0.2209
 7755SOL    HW134724   3.917   1.347   2.541 -1.0935 -1.8926  0.4496
 7755SOL    HW234725   3.855   1.340   2.674 -1.4045  1.0720 -2.8386
 7756SOL     OW34726   2.337   2.907   9.952  1.1350 -0.3967  0.1352
 7756SOL    HW134727   2.372   2.996   9.955 -0.9880  0.3787  1.3958
 7756SOL    HW234728   2.333   2.900   9.857 -0.9859 -0.6722  0.2416
 7757SOL     OW34729   1.186   3.504  14.444  0.4896 -0.0760  0.0154
 7757SOL    HW134730   1.147   3.499  14.357  0.1088  0.8396  0.1279
 7757SOL    HW234731   1.187   3.411  14.465 -0.2051 -0.4988 -1.8432
 7758SOL     OW34732   3.073   2.624   6.695 -0.5208  0.0613 -0.1282
 7758SOL    HW134733   3.032   2.630   6.608  1.2067 -0.3159 -0.9673
 7758SOL    HW234734   3.091   2.530   6.704 -3.0561 -0.3369  0.7936
 7759SOL     OW34735   0.152   3.871  10.076 -0.1763 -0.0785  0.5067
 7759SOL    HW134736   0.210   3.946  10.068 -0.2263 -0.0578  0.3510
 7759SOL    HW234737   0.112   3.878   9.989 -0.3578 -1.1361  0.4962
 7760SOL     OW34738   1.198   1.903  12.563  0.0155  0.3982 -0.1503
 7760SOL    HW134739   1.232   1.950  12.487 -0.3746  0.5053 -0.2581
 7760SOL    HW234740   1.142   1.838  12.521  1.0910  0.0111 -0.9758
 7761SOL     OW34741   1.387   3.353   7.148  0.3073 -0.3159  0.0286
 7761SOL    HW134742   1.376   3.418   7.217 -1.4561 -1.3198  0.6793
 7761SOL    HW234743   1.352   3.404   7.075  2.9700  1.0278 -0.3345
 7762SOL     OW34744   1.338   2.501  13.637  0.0149 -0.2090 -0.1865
 7762SOL    HW134745   1.391   2.434  13.679 -1.3881 -0.6256  0.9333
 7762SOL    HW234746   1.263   2.446  13.613 -1.5070  1.4613  0.7926
 7763SOL     OW34747   2.441   3.322  13.804  0.0839  0.2650  0.3738
 7763SOL    HW134748   2.466   3.232  13.823  0.1710 -0.1645 -1.7674
 7763SOL    HW234749   2.524   3.361  13.831 -0.3706  0.3088  1.7143
 7764SOL     OW34750   0.238   0.753  15.821  0.3960  0.8839  0.0393
 7764SOL    HW134751   0.216   0.751  15.728 -0.2311 -0.9529  0.2425
 7764SOL    HW234752   0.169   0.698  15.856  0.3310 -0.1394 -1.7507
 7765SOL     OW34753   2.743   0.042   7.136  0.0841 -0.6019 -0.5557
 7765SOL    HW134754   2.815   0.005   7.187 -0.1118 -0.6542 -0.3161
 7765SOL    HW234755   2.759   0.136   7.135  1.0119 -0.7346  3.3611
 7766SOL     OW34756   3.825   4.219   5.621 -0.1453  0.1762 -0.5081
 7766SOL    HW134757   3.745   4.200   5.669 -0.3784 -1.3047 -1.4708
 7766SOL    HW234758   3.852   4.294   5.675  0.0346 -0.0912 -0.2267
 7767SOL     OW34759   1.931   4.169  13.146  0.4558 -0.6304 -0.7442
 7767SOL    HW134760   1.871   4.094  13.154 -2.0633  1.4251 -0.3279
 7767SOL    HW234761   1.947   4.185  13.239 -0.7776  0.8444 -0.7802
 7768SOL     OW34762   1.499   1.329   6.644  0.4512  0.4071 -0.4550
 7768SOL    HW134763   1.435   1.262   6.619  0.4963  0.0401  0.4089
 7768SOL    HW234764   1.520   1.295   6.731 -0.2185  0.5000 -0.2606
 7769SOL     OW34765   3.972   3.565   3.094 -0.3031 -0.2313  0.0608
 7769SOL    HW134766   3.892   3.512   3.093 -0.1716 -0.4309  0.0860
 7769SOL    HW234767   4.040   3.497   3.091  0.1868  0.1172  3.0933
 7770SOL     OW34768   1.372   0.588   1.450 -0.0933  0.5198 -0.2670
 7770SOL    HW134769   1.386   0.672   1.492 -0.1650  0.3777  0.0382
 7770SOL    HW234770   1.287   0.602   1.408 -1.9412 -2.3244  2.5220
 7771SOL     OW34771   0.789   0.357   7.430 -0.1802 -0.5792  0.2170
 7771SOL    HW134772   0.710   0.382   7.382  0.0989 -0.8960 -0.4060
 7771SOL    HW234773   0.846   0.357   7.353  0.2838  0.0753  0.5553
 7772SOL     OW34774   3.203   3.651   3.894 -0.1954  0.4584 -0.1527
 7772SOL    HW134775   3.195   3.745   3.906 -1.9838  0.2108  0.5830
 7772SOL    HW234776   3.201   3.636   3.799 -0.0618 -0.7242  0.0200
 7773SOL     OW34777   4.367   2.895   8.214  0.0442  0.0363 -0.3032
 7773SOL    HW134778   4.416   2.963   8.259  2.7925 -0.4560 -2.5286
 7773SOL    HW234779   4.286   2.896   8.265 -0.6727 -2.3483 -1.3556
 7774SOL     OW34780   1.182   1.762  12.185 -0.0043  0.4416  0.6633
 7774SOL    HW134781   1.133   1.769  12.103  2.0634  0.3193 -0.5885
 7774SOL    HW234782   1.218   1.850  12.192  0.2648  0.2207  2.0599
 7775SOL     OW34783   3.190   0.878   1.819 -0.1303 -0.0093 -0.7786
 7775SOL    HW134784   3.102   0.894   1.853  0.4132 -2.2093  1.6905
 7775SOL    HW234785   3.212   0.799   1.868  1.0117  0.0857 -1.1213
 7776SOL     OW34786   1.748   0.027   8.487  0.3112 -0.2928 -0.9547
 7776SOL    HW134787   1.666   0.043   8.439 -0.3076 -0.3805  0.0643
 7776SOL    HW234788   1.777   0.115   8.509  0.0868 -0.7981  1.3889
 7777SOL     OW34789   3.898   0.723   0.590 -0.1856 -0.0664  0.5665
 7777SOL    HW134790   3.854   0.800   0.552 -0.4590 -1.2633 -1.5520
 7777SOL    HW234791   3.845   0.648   0.564  1.3127 -0.7912 -0.4476
 7778SOL     OW34792   2.102   2.582   5.723 -0.1445 -0.7001 -0.5179
 7778SOL    HW134793   2.128   2.542   5.640 -3.1376 -0.5987 -1.4993
 7778SOL    HW234794   2.070   2.669   5.699  2.7247  1.1970  2.4901
 7779SOL     OW34795   3.414   0.758   2.313  0.5363 -0.7886  0.9767
 7779SOL    HW134796   3.347   0.695   2.289 -2.1822  1.5115  2.5136
 7779SOL    HW234797   3.434   0.804   2.231 -1.3794 -0.9375  0.4278
 7780SOL     OW34798   0.010   1.864  11.138  0.3978 -0.0984 -0.2593
 7780SOL    HW134799   0.085   1.833  11.189  0.9210  1.8495  0.1760
 7780SOL    HW234800   4.670   1.876  11.207 -0.6652 -0.8722 -1.1202
 7781SOL     OW34801   3.907   2.908   6.708  0.0313  0.2573  0.4508
 7781SOL    HW134802   3.976   2.870   6.761  0.2927 -0.1096 -0.1541
 7781SOL    HW234803   3.949   2.917   6.622  0.7460  3.4001  1.1409
 7782SOL     OW34804   4.291   3.815  10.378  0.1288 -0.9827  0.3594
 7782SOL    HW134805   4.366   3.759  10.354 -0.3245 -0.5743 -1.9889
 7782SOL    HW234806   4.240   3.761  10.438  1.1453 -2.5888 -0.2148
 7783SOL     OW34807   3.242   1.849   8.185  0.0279  0.9419 -0.0070
 7783SOL    HW134808   3.180   1.854   8.258  2.6965  1.6129  2.1779
 7783SOL    HW234809   3.324   1.831   8.230 -0.1446 -1.1892 -0.5151
 7784SOL     OW34810   1.794   2.065  12.517 -0.1455 -0.0367 -0.6389
 7784SOL    HW134811   1.775   2.142  12.464  1.7837  1.0504  0.2363
 7784SOL    HW234812   1.867   2.097  12.571 -1.4338 -0.7353  1.5203
 7785SOL     OW34813   1.822   2.130   3.254 -0.6072 -0.1995  0.7683
 7785SOL    HW134814   1.792   2.040   3.243  2.1971 -1.1879  1.1273
 7785SOL    HW234815   1.913   2.110   3.277  0.0351  1.2458 -0.4971
 7786SOL     OW34816   3.386   2.168   4.114 -0.5472  0.3389  0.1916
 7786SOL    HW134817   3.299   2.189   4.081 -1.0622  0.7031  1.7786
 7786SOL    HW234818   3.417   2.250   4.151 -3.2725  1.2489  0.4279
 7787SOL     OW34819   4.286   2.539  14.749 -0.5034 -0.2905  0.1552
 7787SOL    HW134820   4.254   2.573  14.832 -2.9971 -1.2218 -0.4182
 7787SOL    HW234821   4.373   2.512  14.780  0.4505 -0.6193 -2.8025
 7788SOL     OW34822   1.518   1.196  14.380  0.0706  0.4537  0.1806
 7788SOL    HW134823   1.429   1.164  14.392 -0.3484  0.7875 -2.1515
 7788SOL    HW234824   1.511   1.288  14.354 -0.3789  0.8712  1.7439
 7789SOL     OW34825   3.892   3.990   4.068  0.0067  0.0128  0.0263
 7789SOL    HW134826   3.859   3.911   4.024 -0.0999  0.3828 -0.5554
 7789SOL    HW234827   3.973   3.959   4.110  0.6317 -0.3011 -1.4282
 7790SOL     OW34828   3.106   0.451   2.017  0.0334  0.3852  0.4381
 7790SOL    HW134829   3.025   0.461   2.067 -0.7601 -0.6254 -0.6646
 7790SOL    HW234830   3.096   0.359   1.994 -0.5177  0.5029  0.2047
 7791SOL     OW34831   0.172   1.711   3.650 -0.1224 -0.5756  0.0076
 7791SOL    HW134832   0.093   1.668   3.618 -0.2432  0.3170 -0.9052
 7791SOL    HW234833   0.144   1.767   3.723 -3.1035 -1.3113 -0.5757
 7792SOL     OW34834   4.400   2.817   2.868  0.7702 -0.2979  0.2040
 7792SOL    HW134835   4.343   2.796   2.941 -0.3939  0.6438 -0.4327
 7792SOL    HW234836   4.460   2.882   2.906 -2.9232  1.4183  3.0031
 7793SOL     OW34837   0.422   0.101  11.660  0.1585 -0.0050  0.6162
 7793SOL    HW134838   0.413   0.012  11.693 -0.7109 -0.7800 -1.6713
 7793SOL    HW234839   0.337   0.135  11.688 -0.4219 -0.8272 -0.1432
 7794SOL     OW34840   1.125   0.823  14.373  0.4332  0.2797  0.1086
 7794SOL    HW134841   1.129   0.738  14.327 -0.1339  0.1707  0.2577
 7794SOL    HW234842   1.032   0.824  14.394  0.7532 -0.1860  1.5600
 7795SOL     OW34843   3.271   3.071   4.349  0.5980 -0.9135 -0.4816
 7795SOL    HW134844   3.315   3.062   4.264  2.3158  0.9550  0.2153
 7795SOL    HW234845   3.230   2.985   4.358  0.3191 -0.4263  2.6768
 7796SOL     OW34846   0.459   3.241   4.078 -0.6599 -0.7213  0.3777
 7796SOL    HW134847   0.502   3.322   4.051  1.7877 -1.8637  0.8987
 7796SOL    HW234848   0.526   3.173   4.068 -0.4149 -0.5493  0.8293
 7797SOL     OW34849   3.589   2.204   3.147 -0.4167 -0.4809  0.2299
 7797SOL    HW134850   3.608   2.239   3.060  0.5301  0.9928  1.0295
 7797SOL    HW234851   3.665   2.230   3.199  0.6782  0.1719 -1.6848
 7798SOL     OW34852   1.459   1.015  14.579 -0.3878 -0.2235 -0.4107
 7798SOL    HW134853   1.515   1.091  14.594 -1.8373  0.2285  2.8798
 7798SOL    HW234854   1.387   1.051  14.527 -0.8902  0.2173  0.5916
 7799SOL     OW34855   3.101   0.878   0.845 -0.2503 -0.0241 -0.3323
 7799SOL    HW134856   3.016   0.882   0.801  0.0107  0.6675 -0.7753
 7799SOL    HW234857   3.132   0.966   0.825 -0.3534  0.0851 -0.0071
 7800SOL     OW34858   0.686   3.547   6.456  0.2444 -0.5499 -0.1083
 7800SOL    HW134859   0.603   3.506   6.480 -0.9076  0.9005 -1.7192
 7800SOL    HW234860   0.718   3.488   6.388 -2.5928 -0.4837 -1.4553
 7801SOL     OW34861   2.698   4.349   0.181 -0.0965  0.2584 -0.0339
 7801SOL    HW134862   2.738   4.343   0.094  0.8211 -0.1560  0.4176
 7801SOL    HW234863   2.628   4.412   0.161  1.1236  1.6712  0.1109
 7802SOL     OW34864   2.163   2.754   8.205 -0.1577 -0.4690 -0.5126
 7802SOL    HW134865   2.075   2.770   8.171  0.4580  0.0451 -1.8611
 7802SOL    HW234866   2.210   2.822   8.157  0.2665 -1.5235 -1.6052
 7803SOL     OW34867   2.705   2.449  10.751  0.1834  0.4557 -0.2899
 7803SOL    HW134868   2.643   2.411  10.689  0.3093  1.1445 -0.8275
 7803SOL    HW234869   2.770   2.496  10.699  2.9319  0.3904  3.0192
 7804SOL     OW34870   1.447   1.281   2.270  0.2392  0.5706 -0.4455
 7804SOL    HW134871   1.462   1.351   2.205 -1.6648  1.1423 -0.2922
 7804SOL    HW234872   1.494   1.205   2.236 -0.2065 -0.2811  0.8501
 7805SOL     OW34873   4.240   1.167   2.420  0.4828 -0.2458 -0.2599
 7805SOL    HW134874   4.318   1.147   2.367 -0.9192 -1.5161 -1.8390
 7805SOL    HW234875   4.265   1.163   2.512  0.0357 -1.3489 -0.1858
 7806SOL     OW34876   1.971   1.037   9.635  0.1451  0.6206 -0.0242
 7806SOL    HW134877   2.038   1.020   9.702  0.2896 -1.1811 -0.6294
 7806SOL    HW234878   1.963   0.954   9.588  1.8719 -0.6470  1.9164
 7807SOL     OW34879   1.042   4.639  17.133  0.1207  0.9077  0.2143
 7807SOL    HW134880   0.977   4.586  17.088  1.0894  1.1511 -1.4507
 7807SOL    HW234881   1.102   4.572  17.165  0.5844  1.5909  0.7730
 7808SOL     OW34882   3.192   4.608   8.233  0.0276  0.0226 -0.2224
 7808SOL    HW134883   3.117   4.583   8.179  0.1380 -1.4764  0.3142
 7808SOL    HW234884   3.205   4.523   8.274  1.0687  1.2320  1.9678
 7809SOL     OW34885   1.873   3.391   6.866  0.5130 -0.0695  0.0285
 7809SOL    HW134886   1.780   3.375   6.848  0.8577 -1.5278 -0.4414
 7809SOL    HW234887   1.890   3.316   6.923 -0.9596 -0.3640  0.0695
 7810SOL     OW34888   2.979   3.913   6.698  0.1385  0.0451  0.3876
 7810SOL    HW134889   3.031   3.880   6.626  1.1940  1.6647  0.4081
 7810SOL    HW234890   3.053   3.932   6.757  0.7212  1.2913 -0.7512
 7811SOL     OW34891   3.414   0.662   8.444 -0.2974 -0.3203 -0.3945
 7811SOL    HW134892   3.397   0.725   8.375  2.0923 -0.9209 -1.5272
 7811SOL    HW234893   3.409   0.580   8.394  1.8987 -0.2020 -0.7903
 7812SOL     OW34894   2.584   4.711   3.179  0.1773 -0.1664 -0.0992
 7812SOL    HW134895   2.588   0.046   3.105 -0.6657 -1.6143 -1.3190
 7812SOL    HW234896   2.506   4.659   3.161  0.2843 -0.1376 -0.6491
 7813SOL     OW34897   1.720   3.699   8.003  0.2953  0.3015  0.2165
 7813SOL    HW134898   1.656   3.710   7.933  1.1755  0.7047 -0.5189
 7813SOL    HW234899   1.792   3.655   7.958 -0.5910 -1.1083  0.1672
 7814SOL     OW34900   4.184   2.350   2.874  0.1133 -0.5288 -0.0835
 7814SOL    HW134901   4.181   2.289   2.801  0.2751  0.7566 -1.1666
 7814SOL    HW234902   4.203   2.436   2.837 -1.6481  0.8100  2.1267
 7815SOL     OW34903   0.476   4.259   4.680 -0.1900  0.2592  0.2267
 7815SOL    HW134904   0.547   4.205   4.715 -0.4080  0.0759  0.3902
 7815SOL    HW234905   0.518   4.311   4.612 -1.1024  0.6052 -0.0838
 7816SOL     OW34906   1.815   1.496   3.703 -0.1288 -0.3072  0.1591
 7816SOL    HW134907   1.734   1.474   3.656  0.3915  0.7157 -1.2227
 7816SOL    HW234908   1.876   1.445   3.649  1.1453 -0.6706  1.9550
 7817SOL     OW34909   0.448   2.471   4.988 -0.1935  0.4651  0.6923
 7817SOL    HW134910   0.400   2.389   4.972 -0.4079  0.7350 -0.0299
 7817SOL    HW234911   0.514   2.448   5.053  0.9467 -0.2485 -0.7440
 7818SOL     OW34912   2.183   1.832   8.350 -0.1385  0.3307 -0.1739
 7818SOL    HW134913   2.194   1.879   8.432  0.2962  0.2595 -0.1896
 7818SOL    HW234914   2.152   1.901   8.293 -1.3621 -1.6708 -1.9391
 7819SOL     OW34915   1.859   3.045   3.604  0.5029  0.3199  0.0949
 7819SOL    HW134916   1.885   3.010   3.519 -1.3337  0.3006 -0.4604
 7819SOL    HW234917   1.930   3.008   3.656  1.1579 -0.8927 -1.6923
 7820SOL     OW34918   3.779   4.499   4.407 -0.0896  0.2660  0.4781
 7820SOL    HW134919   3.836   4.432   4.370 -0.4887  0.5411 -0.6364
 7820SOL    HW234920   3.801   4.493   4.500 -2.2570 -0.8822  0.8983
 7821SOL     OW34921   3.478   1.979   1.681  0.4954  0.1056 -0.1288
 7821SOL    HW134922   3.517   1.952   1.599 -0.3090 -0.4034 -0.3484
 7821SOL    HW234923   3.428   2.050   1.641  0.9931  0.1807 -0.6069
 7822SOL     OW34924   1.353   0.106   0.769 -0.0584  0.5818 -0.3642
 7822SOL    HW134925   1.311   0.058   0.697  0.6955  0.6061 -0.8284
 7822SOL    HW234926   1.369   0.031   0.825  3.1226  2.5560  1.3796
 7823SOL     OW34927   1.696   2.328   7.655  0.0291 -0.1623  0.3246
 7823SOL    HW134928   1.781   2.286   7.643  0.4926  2.1428 -4.6215
 7823SOL    HW234929   1.634   2.259   7.632  2.0435 -1.4229 -1.3265
 7824SOL     OW34930   2.190   3.358   9.011 -0.7463 -0.3594 -0.5147
 7824SOL    HW134931   2.149   3.295   9.071 -0.5896  0.9493  0.9788
 7824SOL    HW234932   2.115   3.390   8.960  0.6035 -1.0658 -2.8978
 7825SOL     OW34933   4.509   0.136   4.439 -0.1147  0.1270  0.1966
 7825SOL    HW134934   4.507   0.216   4.492  1.5150  1.2665 -1.4394
 7825SOL    HW234935   4.590   0.146   4.389 -1.3291  1.9338 -1.4052
 7826SOL     OW34936   3.129   0.415  16.681 -0.5328 -0.5021  0.4493
 7826SOL    HW134937   3.218   0.380  16.685  1.6242  4.8528 -0.1087
 7826SOL    HW234938   3.142   0.498  16.727  1.0864 -1.6634  2.0838
 7827SOL     OW34939   3.600   3.764   7.278 -0.5767 -0.0406  0.3314
 7827SOL    HW134940   3.666   3.804   7.334 -0.0407 -3.3119  2.0109
 7827SOL    HW234941   3.581   3.686   7.330 -2.1376  0.7152  0.8896
 7828SOL     OW34942   3.717   2.428  11.206 -0.2777  0.4002  0.9591
 7828SOL    HW134943   3.645   2.376  11.171  1.4193 -0.6905 -0.9714
 7828SOL    HW234944   3.776   2.365  11.247 -1.0301  0.0787  1.5310
 7829SOL     OW34945   4.102   2.936   3.552  0.3813  0.4130  0.5627
 7829SOL    HW134946   4.081   2.978   3.636 -0.2688 -0.9841  1.0942
 7829SOL    HW234947   4.068   2.996   3.485 -2.7545  2.1980  3.7130
 7830SOL     OW34948   1.804   0.173   1.129 -0.0455  0.6664 -0.5620
 7830SOL    HW134949   1.779   0.088   1.094  1.4197  0.9010 -2.2039
 7830SOL    HW234950   1.896   0.146   1.136 -0.1727  0.3271 -0.2208
 7831SOL     OW34951   1.014   1.528   6.398 -0.0048 -0.0592  0.1353
 7831SOL    HW134952   0.930   1.484   6.404 -0.2417  0.3485 -0.1593
 7831SOL    HW234953   1.027   1.554   6.489 -4.2978  1.8730  0.1869
 7832SOL     OW34954   2.685   1.476   7.656  0.4258  0.6018  0.2455
 7832SOL    HW134955   2.637   1.463   7.738  0.5545 -1.4588 -0.0064
 7832SOL    HW234956   2.739   1.397   7.662 -0.2252  0.1583  0.3759
 7833SOL     OW34957   2.350   4.653   6.842 -0.2798  0.3310  0.4065
 7833SOL    HW134958   2.427   4.628   6.894 -0.6366 -0.2597  0.6383
 7833SOL    HW234959   2.381   4.715   6.775 -1.3974  0.2838 -0.1524
 7834SOL     OW34960   3.821   0.997   4.669  0.3989 -0.1485 -0.1765
 7834SOL    HW134961   3.787   0.962   4.752  0.6776  0.7286  0.3132
 7834SOL    HW234962   3.914   1.011   4.689  0.7015 -1.7835 -0.4474
 7835SOL     OW34963   4.462   4.362   7.477  0.3274  0.2678 -0.3514
 7835SOL    HW134964   4.481   4.367   7.384 -0.3872  0.5120 -0.4888
 7835SOL    HW234965   4.441   4.269   7.485 -1.9213  0.7739 -0.4082
 7836SOL     OW34966   1.688   4.111   3.260  0.0013  0.3184 -0.1948
 7836SOL    HW134967   1.612   4.070   3.217 -0.5042  1.0963 -0.0355
 7836SOL    HW234968   1.689   4.057   3.339 -0.1257  0.2655 -0.2292
 7837SOL     OW34969   1.564   2.277   4.569 -0.9584  0.5460  0.5027
 7837SOL    HW134970   1.559   2.353   4.627 -2.2305 -1.0940  2.5479
 7837SOL    HW234971   1.572   2.326   4.487 -1.3710  1.4677  1.0115
 7838SOL     OW34972   1.071   1.780   8.962  0.1300  0.4276  0.2573
 7838SOL    HW134973   1.106   1.768   9.051 -1.2116 -2.1763  0.4267
 7838SOL    HW234974   1.136   1.739   8.904 -0.4924 -0.3530  0.1088
 7839SOL     OW34975   0.073   1.924   1.406  0.6317  0.0886  0.6216
 7839SOL    HW134976   0.010   1.872   1.457 -0.2963  0.7842  0.1924
 7839SOL    HW234977   0.146   1.864   1.394  1.2421  0.9476  0.0955
 7840SOL     OW34978   0.309   0.080   2.273 -0.3709  0.7933  0.1982
 7840SOL    HW134979   0.280   0.099   2.183 -2.3649  0.4926  0.7863
 7840SOL    HW234980   0.393   0.034   2.268  0.1177  1.7966 -0.9257
 7841SOL     OW34981   3.454   2.940   8.016  0.0880  0.5219  0.4083
 7841SOL    HW134982   3.383   2.902   7.965  1.6267 -2.3192  0.3397
 7841SOL    HW234983   3.528   2.923   7.957  0.1678  0.9304  0.3933
 7842SOL     OW34984   1.319   0.307   5.733 -0.1709 -0.0302 -0.6700
 7842SOL    HW134985   1.279   0.221   5.747  1.4241 -0.5920  0.4989
 7842SOL    HW234986   1.363   0.287   5.650  1.3506 -0.3249  0.2109
 7843SOL     OW34987   0.119   0.355   6.102  0.1632 -0.2174 -0.2171
 7843SOL    HW134988   0.111   0.429   6.161 -2.6395 -1.6135  1.1387
 7843SOL    HW234989   0.196   0.390   6.058 -0.3721  1.4740  0.1998
 7844SOL     OW34990   0.104   1.415   3.835 -0.7175 -0.2513 -0.0292
 7844SOL    HW134991   0.125   1.328   3.869 -0.5664  0.3564  1.4536
 7844SOL    HW234992   0.179   1.412   3.776 -0.5496 -0.6618  0.2036
 7845SOL     OW34993   1.089   4.472   4.366  0.1789 -0.5529 -0.2673
 7845SOL    HW134994   1.157   4.466   4.433 -0.2493  2.2652  0.4029
 7845SOL    HW234995   1.116   4.557   4.331 -1.3499  0.5956  1.3770
 7846SOL     OW34996   3.602   3.259   4.813  0.7426 -0.1089  0.0491
 7846SOL    HW134997   3.509   3.238   4.804  0.5314  0.9281 -0.2465
 7846SOL    HW234998   3.646   3.245   4.729 -4.0360 -0.1624 -2.4349
 7847SOL     OW34999   1.181   1.372   6.780 -0.1850 -0.3875 -0.7747
 7847SOL    HW135000   1.134   1.319   6.845 -1.0013  1.1185 -0.1086
 7847SOL    HW235001   1.251   1.313   6.754 -0.5892 -1.0606 -0.3569
 7848SOL     OW35002   4.109   0.696   1.117 -0.7526  0.0750  0.3426
 7848SOL    HW135003   4.073   0.609   1.098  1.5541 -0.5710 -1.1104
 7848SOL    HW235004   4.078   0.700   1.208 -0.6429 -0.4853  0.4048
 7849SOL     OW35005   1.573   1.112   5.506  0.6150  0.5245  0.4266
 7849SOL    HW135006   1.497   1.117   5.564  0.5105  1.6597  0.1955
 7849SOL    HW235007   1.546   1.190   5.456  0.7336  0.3837  0.1429
 7850SOL     OW35008   1.245   4.701   9.441 -0.1561  0.1012 -0.0677
 7850SOL    HW135009   1.319   4.646   9.465 -0.0006  0.0372 -0.6864
 7850SOL    HW235010   1.210   4.645   9.372 -1.5886  0.1752  0.5929
 7851SOL     OW35011   0.155   1.100   1.912 -0.3022 -0.3691 -0.3743
 7851SOL    HW135012   0.219   1.168   1.934 -1.5745  0.5299  0.5745
 7851SOL    HW235013   0.138   1.108   1.818  1.0647  0.3160 -0.5620
 7852SOL     OW35014   2.211   1.711   5.147 -0.1429  0.1494  0.2313
 7852SOL    HW135015   2.203   1.706   5.242 -1.8800 -0.6410  0.0327
 7852SOL    HW235016   2.275   1.782   5.137  1.5798 -1.2804  1.0060
 7853SOL     OW35017   1.640   3.615   5.575 -0.2174 -0.0719 -0.6892
 7853SOL    HW135018   1.586   3.693   5.563 -1.9054 -1.1603 -0.1263
 7853SOL    HW235019   1.605   3.546   5.518 -0.9386 -0.9436  0.8321
 7854SOL     OW35020   1.021   3.599  15.295  0.1567 -0.0688 -0.5850
 7854SOL    HW135021   1.090   3.534  15.306  2.4215  2.2440 -1.3189
 7854SOL    HW235022   0.956   3.540  15.255 -1.5029  1.3692  0.0051
 7855SOL     OW35023   0.518   4.434  11.498 -0.1229  0.3645  0.5856
 7855SOL    HW135024   0.527   4.464  11.407  0.2352  1.4569  0.9788
 7855SOL    HW235025   0.575   4.360  11.520  1.7855  1.0195 -2.1628
 7856SOL     OW35026   0.308   0.714   3.563 -0.7855 -0.1747  0.1351
 7856SOL    HW135027   0.392   0.701   3.518 -2.1631 -2.6909 -1.7718
 7856SOL    HW235028   0.281   0.797   3.526  0.0048 -0.5013 -1.2105
 7857SOL     OW35029   2.781   2.179  17.638 -0.0894 -0.0778 -0.1460
 7857SOL    HW135030   2.857   2.153  17.690 -0.0566  0.2367 -0.0365
 7857SOL    HW235031   2.754   2.257  17.687 -0.3456 -0.9272  1.0546
 7858SOL     OW35032   2.343   0.568  10.551  0.3102  0.0530 -0.4415
 7858SOL    HW135033   2.372   0.539  10.465  0.0810 -0.1414 -0.4518
 7858SOL    HW235034   2.252   0.539  10.559 -1.0242  4.2166 -0.5804
 7859SOL     OW35035   4.070   4.656  11.146 -0.3748  0.3393 -0.3341
 7859SOL    HW135036   3.975   4.656  11.133 -0.6677  2.8079  1.8492
 7859SOL    HW235037   4.105   4.568  11.141  0.3198  0.7451 -2.7675
 7860SOL     OW35038   2.863   3.641  12.095  0.9635 -0.4593 -0.0240
 7860SOL    HW135039   2.856   3.642  12.191  1.6571 -0.8592  0.0297
 7860SOL    HW235040   2.942   3.691  12.074  0.2408 -0.3247 -2.4788
 7861SOL     OW35041   2.270   1.017   3.778  0.1035  0.3008 -0.1670
 7861SOL    HW135042   2.178   1.028   3.801 -0.0186 -3.7551  1.3010
 7861SOL    HW235043   2.269   1.003   3.683 -0.0804 -1.0550  0.0317
 7862SOL     OW35044   4.176   3.376   3.069 -0.2055  0.4825 -0.0015
 7862SOL    HW135045   4.145   3.302   3.017  0.7504 -0.0014  0.1121
 7862SOL    HW235046   4.221   3.329   3.139 -1.7794 -0.2592  0.5226
 7863SOL     OW35047   3.287   2.275   2.309 -0.3145 -0.1050 -0.2252
 7863SOL    HW135048   3.201   2.297   2.346  0.1703  1.2949  0.0614
 7863SOL    HW235049   3.333   2.359   2.309  0.2457 -0.4120  0.7058
 7864SOL     OW35050   0.981   3.134  12.448  0.3822  0.1127 -0.4703
 7864SOL    HW135051   0.964   3.226  12.465  0.3980 -0.3870  2.2630
 7864SOL    HW235052   0.899   3.093  12.419  1.6867 -0.1062 -3.8288
 7865SOL     OW35053   0.753   2.774   7.434  0.0790 -0.2119  0.3426
 7865SOL    HW135054   0.782   2.848   7.488  2.1563 -0.9465  0.2511
 7865SOL    HW235055   0.748   2.811   7.346  3.6650 -0.1397  0.1622
 7866SOL     OW35056   3.497   0.014  16.008  0.2045  0.0098  0.1292
 7866SOL    HW135057   3.502   0.042  15.917 -1.9049 -1.5631 -0.4624
 7866SOL    HW235058   3.486   4.644  16.006  0.8907 -0.0933  0.8841
 7867SOL     OW35059   3.923   0.461   1.474  0.1423 -0.4747  0.1791
 7867SOL    HW135060   3.881   0.490   1.555 -1.8796 -0.8931 -0.7337
 7867SOL    HW235061   4.016   0.472   1.496  0.0598 -0.4637  0.5240
 7868SOL     OW35062   2.543   2.211   8.746  0.4870  0.1462 -0.2455
 7868SOL    HW135063   2.518   2.141   8.806 -2.8657  2.0044  0.5104
 7868SOL    HW235064   2.525   2.177   8.658  0.3325  1.1660 -0.6134
 7869SOL     OW35065   2.664   2.558   6.400 -0.0382  0.9136 -0.3211
 7869SOL    HW135066   2.619   2.549   6.317 -1.1161  0.4381  0.3213
 7869SOL    HW235067   2.599   2.587   6.464  1.4553 -0.1121  1.6722
 7870SOL     OW35068   2.132   4.614   3.814 -0.0591  0.0804 -0.0511
 7870SOL    HW135069   2.158   4.546   3.876  1.7542  2.1198  1.4328
 7870SOL    HW235070   2.208   4.614   3.756  0.7318 -2.2683  0.9631
 7871SOL     OW35071   2.615   3.510   5.069 -0.4500  0.1260 -0.7431
 7871SOL    HW135072   2.598   3.466   5.152 -0.4961 -0.2281 -0.9391
 7871SOL    HW235073   2.575   3.594   5.090  1.0137  0.9339 -1.1821
 7872SOL     OW35074   2.240   2.274   4.437 -0.3429 -0.1214 -0.1311
 7872SOL    HW135075   2.256   2.315   4.522  0.3654  1.2392 -0.9291
 7872SOL    HW235076   2.202   2.188   4.459 -0.0532 -0.7093 -1.9749
 7873SOL     OW35077   3.259   4.639  11.306 -0.9636 -0.3227 -0.3668
 7873SOL    HW135078   3.167   4.614  11.300 -1.8720  2.7358  0.6670
 7873SOL    HW235079   3.258   4.691  11.387  2.5503 -2.1111  0.7898
 7874SOL     OW35080   3.694   0.377   3.252  0.2863 -0.3576  0.7295
 7874SOL    HW135081   3.781   0.413   3.238 -1.5504  2.4560 -3.6912
 7874SOL    HW235082   3.715   0.287   3.226 -2.7533 -0.6306 -0.8781
 7875SOL     OW35083   2.880   0.703   7.339 -0.2404  0.2889  0.8087
 7875SOL    HW135084   2.972   0.699   7.366 -0.2185  0.7623  0.8018
 7875SOL    HW235085   2.880   0.648   7.260 -1.4891  2.1295 -0.4545
 7876SOL     OW35086   0.458   4.228   8.770 -0.2806 -0.2968  0.5192
 7876SOL    HW135087   0.479   4.319   8.791 -2.5633  0.1963  0.7309
 7876SOL    HW235088   0.478   4.181   8.851  0.1662  0.1640  0.6789
 7877SOL     OW35089   3.523   3.424  17.621 -0.2099  0.2069 -0.2792
 7877SOL    HW135090   3.458   3.479  17.579 -0.2325 -0.8427 -1.6131
 7877SOL    HW235091   3.483   3.414   0.007 -2.4165 -1.4291 -1.4981
 7878SOL     OW35092   2.425   0.508  12.546  0.0793  0.3821  0.5551
 7878SOL    HW135093   2.381   0.455  12.481  0.1098 -1.2341  1.8530
 7878SOL    HW235094   2.386   0.595  12.538 -1.3720 -0.1816  1.5293
 7879SOL     OW35095   1.235   3.569   1.785 -0.3855 -0.3442  0.3351
 7879SOL    HW135096   1.313   3.547   1.734 -0.1779  0.2644  0.3956
 7879SOL    HW235097   1.192   3.627   1.723  1.0185  1.3971  0.9882
 7880SOL     OW35098   0.800   4.236   2.477  0.7570 -0.1038 -0.0541
 7880SOL    HW135099   0.885   4.241   2.521  0.3435 -0.2637  0.7518
 7880SOL    HW235100   0.767   4.326   2.471  0.2234 -0.3569 -0.9794
 7881SOL     OW35101   2.762   1.484   8.051 -0.0737  0.4694  0.7478
 7881SOL    HW135102   2.811   1.457   8.129  0.1820  3.6546  1.7079
 7881SOL    HW235103   2.799   1.570   8.033  1.2474  0.0053  1.1957
 7882SOL     OW35104   0.650   2.868   2.687  0.0249  0.2241 -0.2105
 7882SOL    HW135105   0.728   2.822   2.718  0.5821  1.7442  0.6858
 7882SOL    HW235106   0.585   2.801   2.707  0.3579 -0.0735 -0.1202
 7883SOL     OW35107   4.349   3.885   7.164 -0.8007 -0.3016  0.7952
 7883SOL    HW135108   4.335   3.837   7.082  0.5005  2.0850 -0.8196
 7883SOL    HW235109   4.336   3.975   7.134 -1.0637  0.0350  1.9523
 7884SOL     OW35110   0.753   3.096   3.520 -0.3542 -0.4673  0.4202
 7884SOL    HW135111   0.837   3.069   3.482 -1.1101 -0.6458 -1.1140
 7884SOL    HW235112   0.770   3.082   3.613 -1.0374  2.2835  0.9579
 7885SOL     OW35113   4.337   3.646   0.530  0.0826 -0.1760  0.2911
 7885SOL    HW135114   4.407   3.629   0.467  0.6283  0.0110  0.8419
 7885SOL    HW235115   4.285   3.715   0.488 -0.7535 -1.4051 -0.6613
 7886SOL     OW35116   1.231   1.339   5.371 -0.3980 -0.3129 -0.7767
 7886SOL    HW135117   1.315   1.306   5.337  1.3099  1.5914  1.5933
 7886SOL    HW235118   1.196   1.389   5.297 -0.9149 -0.8484 -0.8974
 7887SOL     OW35119   4.401   2.581  12.613  0.0570 -0.1032  0.6352
 7887SOL    HW135120   4.336   2.584  12.683 -0.2482  1.4199  0.2934
 7887SOL    HW235121   4.461   2.515  12.647  0.6943 -0.0204 -0.3192
 7888SOL     OW35122   1.712   0.714   3.051 -0.3518 -0.4167  0.3921
 7888SOL    HW135123   1.793   0.701   3.000 -1.1782  2.5128 -1.6420
 7888SOL    HW235124   1.651   0.648   3.020  0.7548 -2.2595  2.1075
 7889SOL     OW35125   3.598   4.212   2.972  0.1951 -0.0530 -0.0114
 7889SOL    HW135126   3.615   4.214   2.878 -0.4518  0.2732 -0.1170
 7889SOL    HW235127   3.610   4.118   2.985 -0.9771 -0.1006  0.6616
 7890SOL     OW35128   4.469   0.162   1.403  0.1474  0.2881 -0.5300
 7890SOL    HW135129   4.538   0.097   1.387 -1.5884 -1.2907 -1.5266
 7890SOL    HW235130   4.411   0.113   1.462  2.8850 -0.9530  1.1434
 7891SOL     OW35131   0.327   0.314   8.306 -0.1146 -0.0607 -0.1720
 7891SOL    HW135132   0.235   0.327   8.329 -0.7776 -3.7931 -0.7792
 7891SOL    HW235133   0.362   0.331   8.394 -0.7366 -1.7832  0.4114
 7892SOL     OW35134   0.937   3.753  10.948 -0.1065  0.0486 -0.8671
 7892SOL    HW135135   0.916   3.782  11.037  0.4751  0.5341 -0.8885
 7892SOL    HW235136   0.862   3.785  10.899  0.2234 -1.1046 -2.1310
 7893SOL     OW35137   0.303   0.667  13.138  0.1203 -0.6803  0.0198
 7893SOL    HW135138   0.279   0.575  13.152  0.5216 -0.5563  1.5864
 7893SOL    HW235139   0.225   0.699  13.094 -0.0815 -0.8438  0.2540
 7894SOL     OW35140   1.488   3.567   5.867 -0.1265  0.3808 -0.1181
 7894SOL    HW135141   1.496   3.574   5.962  1.4905 -1.8392 -0.1025
 7894SOL    HW235142   1.412   3.625   5.855 -0.6982 -0.2804  0.2901
 7895SOL     OW35143   1.830   1.703   8.211 -0.3541  0.3793  0.0223
 7895SOL    HW135144   1.907   1.647   8.214 -1.0357 -0.4733  1.3788
 7895SOL    HW235145   1.771   1.633   8.238  0.0272 -0.0652 -0.3023
 7896SOL     OW35146   3.103   0.139  10.992  0.5094 -0.5283 -0.0394
 7896SOL    HW135147   3.127   0.107  11.078 -1.6066 -1.1051  0.3394
 7896SOL    HW235148   3.108   0.235  10.993 -0.7925 -0.4642  0.4611
 7897SOL     OW35149   4.176   0.518   1.997  0.0916 -0.0460 -0.3077
 7897SOL    HW135150   4.223   0.450   1.949  0.8638 -0.9669  1.7555
 7897SOL    HW235151   4.168   0.583   1.927 -0.5902 -0.2202 -0.3919
 7898SOL     OW35152   2.493   1.230   8.207  0.2265  0.1055  0.9844
 7898SOL    HW135153   2.565   1.210   8.267  1.6851  1.8975 -0.1970
 7898SOL    HW235154   2.426   1.171   8.243 -0.3936 -0.5255 -1.1993
 7899SOL     OW35155   2.775   2.207   5.509 -0.2032 -0.1277 -0.5482
 7899SOL    HW135156   2.835   2.229   5.438 -0.1385  0.6202 -0.2632
 7899SOL    HW235157   2.699   2.253   5.475 -1.4158 -1.2266  0.6866
 7900SOL     OW35158   2.577   1.289  10.924 -0.3666 -0.1247  0.4575
 7900SOL    HW135159   2.550   1.277  10.833  0.3819 -0.9444  0.3430
 7900SOL    HW235160   2.504   1.238  10.959  1.0074 -2.8255 -0.6057
 7901SOL     OW35161   3.235   2.087   2.575  0.3332 -0.3270 -0.2983
 7901SOL    HW135162   3.274   2.152   2.634  0.3402 -0.9249  0.3523
 7901SOL    HW235163   3.171   2.143   2.531 -1.6774  0.2538  3.2616
 7902SOL     OW35164   2.187   4.578   5.625 -0.2200 -0.1669 -0.0056
 7902SOL    HW135165   2.278   4.595   5.600 -0.9932  3.6761 -0.1674
 7902SOL    HW235166   2.144   4.634   5.560 -1.0735 -0.0293  0.6880
 7903SOL     OW35167   1.461   2.833   7.793 -0.1536  0.4316  0.2937
 7903SOL    HW135168   1.371   2.815   7.822 -1.0435 -2.1097 -3.8665
 7903SOL    HW235169   1.493   2.878   7.870 -0.8581  0.9765  0.2695
 7904SOL     OW35170   1.391   3.017   4.242  0.5964 -0.0203  0.0859
 7904SOL    HW135171   1.478   2.999   4.277  1.0377 -0.6653 -1.3759
 7904SOL    HW235172   1.384   3.112   4.234  1.1030  0.1375  1.4558
 7905SOL     OW35173   2.426   4.591   5.489  0.5208 -0.1059 -0.4115
 7905SOL    HW135174   2.485   4.666   5.489  1.3347 -0.7333  1.4694
 7905SOL    HW235175   2.391   4.587   5.400 -2.9737 -0.8786  0.9629
 7906SOL     OW35176   2.108   2.404  15.434  0.3693 -0.1909 -0.5248
 7906SOL    HW135177   2.104   2.491  15.474  1.5084  0.9467 -2.8852
 7906SOL    HW235178   2.018   2.392  15.402  0.0571  0.7981 -0.0242
 7907SOL     OW35179   0.398   3.167  11.571 -0.0924 -0.3385 -0.1027
 7907SOL    HW135180   0.317   3.119  11.588 -0.6590  1.2882  1.8833
 7907SOL    HW235181   0.427   3.147  11.482  0.0342  1.1502 -0.4057
 7908SOL     OW35182   4.534   0.146   2.289  0.0731  0.2329 -0.1898
 7908SOL    HW135183   4.612   0.177   2.242 -0.4464  2.9967  0.7512
 7908SOL    HW235184   4.472   0.192   2.233  0.2503  1.6208  0.7538
 7909SOL     OW35185   0.708   0.666   1.324 -0.5744  0.0598 -0.4244
 7909SOL    HW135186   0.687   0.592   1.268  1.0670  0.9700 -2.2448
 7909SOL    HW235187   0.801   0.687   1.321 -0.2052 -1.7738 -1.5908
 7910SOL     OW35188   2.147   3.316   3.973  0.1983 -0.1768  0.1179
 7910SOL    HW135189   2.187   3.284   4.054 -0.5821 -0.3624  0.4261
 7910SOL    HW235190   2.084   3.245   3.959  1.3469 -1.5193  1.6978
 7911SOL     OW35191   4.456   3.625   6.684 -0.4997 -0.1804  0.4104
 7911SOL    HW135192   4.412   3.572   6.618  1.7185 -0.3303 -0.9489
 7911SOL    HW235193   4.455   3.569   6.762 -2.7249  0.3317  0.7472
 7912SOL     OW35194   3.638   4.540   7.288  0.0983 -0.7074 -0.4717
 7912SOL    HW135195   3.587   4.468   7.326 -0.7569  0.9023  1.4239
 7912SOL    HW235196   3.584   4.544   7.210  0.9323 -0.2253 -1.0260
 7913SOL     OW35197   3.979   0.742   6.734  0.0671 -0.3121 -0.8968
 7913SOL    HW135198   4.047   0.778   6.678 -0.8358 -0.0298 -1.8068
 7913SOL    HW235199   3.925   0.820   6.738 -1.0194 -1.2080  2.1826
 7914SOL     OW35200   4.372   4.644   2.403 -0.3865 -0.1200 -0.2278
 7914SOL    HW135201   4.439   4.644   2.472 -0.7948 -0.8685  0.1646
 7914SOL    HW235202   4.386   0.001   2.353 -1.3556  0.2863  0.1737
 7915SOL     OW35203   4.642   1.863   5.822 -0.2372 -0.6745  0.4580
 7915SOL    HW135204   4.666   1.809   5.747  0.3550  3.7739 -2.5672
 7915SOL    HW235205   4.716   1.838   5.877  0.4248 -0.8607 -0.5235
 7916SOL     OW35206   0.010   4.723   1.432 -0.3576 -0.1324 -0.0161
 7916SOL    HW135207   0.092   0.011   1.384 -0.1136  0.5726  0.5869
 7916SOL    HW235208   0.035   4.651   1.491 -1.2126  0.8380  1.5384
 7917SOL     OW35209   3.777   4.277  16.806 -0.2261  0.2549 -0.6300
 7917SOL    HW135210   3.798   4.312  16.892 -1.3578 -1.7349  0.4649
 7917SOL    HW235211   3.822   4.193  16.818  3.6338  2.4125 -0.2027
 7918SOL     OW35212   0.049   0.323  10.099 -0.0772 -0.2724  0.0201
 7918SOL    HW135213   0.115   0.393  10.090  0.1235 -0.6686 -1.5708
 7918SOL    HW235214   0.106   0.246  10.099  1.1804  0.6283 -1.9662
 7919SOL     OW35215   2.984   4.261   3.941  0.1502  0.3822  0.5265
 7919SOL    HW135216   3.003   4.171   3.970 -0.2326 -0.2713 -1.2608
 7919SOL    HW235217   2.889   4.272   3.949 -0.0716 -1.7004  0.7395
 7920SOL     OW35218   3.348   4.634   8.819  0.0688 -0.3580  0.3200
 7920SOL    HW135219   3.320   4.599   8.903 -0.7687 -0.7551 -0.1329
 7920SOL    HW235220   3.277   4.604   8.763  0.9410  0.1056 -1.0510
 7921SOL     OW35221   3.867   2.547   7.925 -0.7060 -0.2946 -0.5898
 7921SOL    HW135222   3.907   2.512   8.004  0.4195 -0.0677 -1.0658
 7921SOL    HW235223   3.775   2.537   7.950 -0.7414 -0.7957 -0.9206
 7922SOL     OW35224   2.968   0.813  10.248  0.6595  0.4857 -0.2298
 7922SOL    HW135225   2.976   0.779  10.337  0.8657 -3.0323 -1.5743
 7922SOL    HW235226   2.874   0.811  10.232  0.5104 -1.1237  0.7781
 7923SOL     OW35227   1.720   0.998  16.823  0.1555 -0.5257 -0.5513
 7923SOL    HW135228   1.801   0.997  16.772  1.1012  0.8956  0.9186
 7923SOL    HW235229   1.755   1.041  16.902 -2.3870  0.0187  0.2816
 7924SOL     OW35230   2.008   1.300   2.654 -0.2474 -0.3971  0.4050
 7924SOL    HW135231   1.977   1.243   2.584  3.3560 -1.5938 -0.2463
 7924SOL    HW235232   2.035   1.383   2.613 -1.0241 -0.6953 -0.7053
 7925SOL     OW35233   3.042   0.523   6.393 -0.9108 -0.4542 -0.3065
 7925SOL    HW135234   3.076   0.556   6.476  0.5342  1.8987 -1.8224
 7925SOL    HW235235   3.054   0.592   6.328 -0.1523  2.0189  2.4815
 7926SOL     OW35236   1.907   3.516   5.272 -0.6444 -0.3646 -0.0124
 7926SOL    HW135237   1.908   3.532   5.366 -0.4994  0.1808 -0.1064
 7926SOL    HW235238   1.885   3.423   5.271 -1.6760 -0.1147  0.4766
 7927SOL     OW35239   2.382   2.473   1.827 -0.2616  0.4718  0.0160
 7927SOL    HW135240   2.348   2.526   1.899  0.9858  1.0359  0.1847
 7927SOL    HW235241   2.399   2.391   1.873 -1.5357 -0.9159 -1.9926
 7928SOL     OW35242   0.239   3.901  12.802  0.9877 -0.4164 -0.3447
 7928SOL    HW135243   0.275   3.968  12.745 -0.7072 -0.3439 -1.3307
 7928SOL    HW235244   0.173   3.860  12.746  0.4900  0.3910 -0.3419
 7929SOL     OW35245   3.160   2.282   3.607  0.4800  0.5405 -0.3737
 7929SOL    HW135246   3.126   2.321   3.687 -0.0086 -0.5682 -0.0463
 7929SOL    HW235247   3.244   2.250   3.641  0.1972  0.3012  0.1001
 7930SOL     OW35248   1.290   1.610   4.964 -0.7688 -0.0136  0.1002
 7930SOL    HW135249   1.242   1.589   5.044 -0.5245 -2.3620 -0.3612
 7930SOL    HW235250   1.384   1.622   4.981 -0.7733  1.3046 -0.8038
 7931SOL     OW35251   1.150   3.304   5.690 -0.4663 -0.2065 -0.1538
 7931SOL    HW135252   1.240   3.294   5.721 -0.0135 -0.0362 -1.4286
 7931SOL    HW235253   1.125   3.213   5.677 -0.0768 -0.6363  2.1839
 7932SOL     OW35254   1.895   1.979   7.553  0.0115 -0.4149  0.1307
 7932SOL    HW135255   1.815   1.929   7.539  0.4001 -1.3542  1.2903
 7932SOL    HW235256   1.961   1.911   7.569  0.8344  0.2096 -0.5928
 7933SOL     OW35257   3.864   1.053   5.532 -0.5065 -0.1068  0.5035
 7933SOL    HW135258   3.826   1.098   5.607  0.2987  1.1637  0.1468
 7933SOL    HW235259   3.936   1.015   5.583  0.3474  0.6042 -0.1833
 7934SOL     OW35260   2.652   1.758   7.164  0.2362  0.6248 -0.6584
 7934SOL    HW135261   2.695   1.800   7.238  1.5530 -0.8585 -0.5825
 7934SOL    HW235262   2.722   1.722   7.109 -0.5119 -1.4154 -0.2598
 7935SOL     OW35263   2.472   0.659   2.305 -0.3696 -0.4191  0.0735
 7935SOL    HW135264   2.393   0.617   2.271 -0.2463  0.0568 -0.8001
 7935SOL    HW235265   2.508   0.695   2.223 -0.9122  0.1031  0.0690
 7936SOL     OW35266   2.712   0.505   3.971  0.8635 -0.3993 -0.6361
 7936SOL    HW135267   2.734   0.442   3.902  1.5654  1.9540 -2.5980
 7936SOL    HW235268   2.754   0.462   4.045 -0.7019  1.8853  1.6017
 7937SOL     OW35269   1.889   3.499   6.069  0.0406  0.3410 -0.1632
 7937SOL    HW135270   1.886   3.594   6.074 -3.6645 -0.0371  4.8392
 7937SOL    HW235271   1.847   3.478   6.153 -2.2870  0.0384 -1.3993
 7938SOL     OW35272   0.102   2.188  11.975 -0.5600  0.7477 -0.9388
 7938SOL    HW135273   0.114   2.283  11.969  0.2932  0.8393  2.2130
 7938SOL    HW235274   0.147   2.176  12.058  1.1428  1.1556 -1.7946
 7939SOL     OW35275   0.940   2.849   3.907  0.0248  0.0180  0.5170
 7939SOL    HW135276   0.950   2.907   3.831 -0.0819 -0.7173 -0.0492
 7939SOL    HW235277   0.991   2.894   3.975  1.9772  1.2135 -1.6938
 7940SOL     OW35278   2.403   1.741   4.287  0.1919 -0.2289 -0.4052
 7940SOL    HW135279   2.363   1.687   4.219 -0.7137 -0.8088  0.6024
 7940SOL    HW235280   2.493   1.755   4.258 -0.6805 -0.5911 -3.3082
 7941SOL     OW35281   1.274   2.007  12.031 -0.0377 -0.5039 -0.0158
 7941SOL    HW135282   1.312   2.082  11.985 -1.2698  0.5347  0.6948
 7941SOL    HW235283   1.188   1.999  11.991  0.1561 -2.0050 -0.1349
 7942SOL     OW35284   2.624   0.808   7.898 -0.6161  0.3054  0.3549
 7942SOL    HW135285   2.562   0.852   7.956  0.2646  0.8709  0.8690
 7942SOL    HW235286   2.596   0.830   7.810 -3.2620 -0.5624  0.9888
 7943SOL     OW35287   1.160   0.901   6.781 -0.0712  0.2655  0.5380
 7943SOL    HW135288   1.230   0.966   6.790 -0.5349  0.6334  1.4564
 7943SOL    HW235289   1.104   0.943   6.716  1.2054  1.1704  0.0229
 7944SOL     OW35290   1.806   2.842  10.832 -0.4562 -0.2829  0.5640
 7944SOL    HW135291   1.887   2.820  10.878  0.6169  2.5662  0.0133
 7944SOL    HW235292   1.786   2.758  10.790  1.7605 -1.6819  2.2810
 7945SOL     OW35293   2.958   0.111   3.673  0.1682  0.3613  0.1217
 7945SOL    HW135294   2.891   0.045   3.653  1.4953 -1.0874  0.4402
 7945SOL    HW235295   2.982   0.135   3.583  1.7618 -1.3283  0.0800
 7946SOL     OW35296   2.331   0.048   4.196 -0.0082  0.0399 -0.0180
 7946SOL    HW135297   2.336   4.677   4.196  1.2194  0.1136  1.1998
 7946SOL    HW235298   2.303   0.068   4.106  1.8551  0.1066 -0.5762
 7947SOL     OW35299   3.875   1.934   6.716  0.1559  0.2324  0.2357
 7947SOL    HW135300   3.828   1.904   6.638  0.2772  0.4128  0.0929
 7947SOL    HW235301   3.819   2.005   6.747  1.2265 -0.9838  5.0140
 7948SOL     OW35302   2.091   2.704   7.919 -0.1159  0.2883  0.2690
 7948SOL    HW135303   2.110   2.632   7.979  1.1698  1.2507  1.0041
 7948SOL    HW235304   2.010   2.674   7.877 -0.5402  2.2011 -0.3002
 7949SOL     OW35305   1.357   2.352   0.301  0.3258 -0.1728  0.2183
 7949SOL    HW135306   1.414   2.414   0.256 -1.8803  1.0130 -0.9572
 7949SOL    HW235307   1.424   2.284   0.311 -1.0132 -1.7062 -1.2663
 7950SOL     OW35308   0.312   0.627  11.652  0.2455 -0.4323 -0.8395
 7950SOL    HW135309   0.225   0.666  11.658 -0.3743 -2.2175  1.3445
 7950SOL    HW235310   0.296   0.546  11.604 -0.2909  0.0855 -1.5384
 7951SOL     OW35311   2.340   2.114   6.902  0.0540  0.3456 -0.0323
 7951SOL    HW135312   2.272   2.169   6.865  2.2117  1.1612 -2.8018
 7951SOL    HW235313   2.397   2.105   6.825  1.1436 -2.3802  1.0773
 7952SOL     OW35314   3.449   0.145  17.067 -0.3084  0.1237 -0.0199
 7952SOL    HW135315   3.541   0.170  17.077  0.2303 -2.4766  1.5978
 7952SOL    HW235316   3.409   0.206  17.130 -2.8648  1.0019 -2.4800
 7953SOL     OW35317   2.255   3.342   1.342  0.4669  0.6325  0.2892
 7953SOL    HW135318   2.193   3.298   1.284  1.6374 -0.2916 -0.2650
 7953SOL    HW235319   2.248   3.435   1.318 -0.7010  0.0853 -1.4712
 7954SOL     OW35320   1.256   0.703   5.306 -0.2486  0.1479 -0.2093
 7954SOL    HW135321   1.162   0.697   5.321 -0.3423  1.0940 -0.4567
 7954SOL    HW235322   1.290   0.787   5.334 -0.9068  0.2065  0.3968
 7955SOL     OW35323   3.842   3.641   6.365  0.1576 -0.0914  0.2759
 7955SOL    HW135324   3.911   3.633   6.430  1.5461 -0.8438 -1.2946
 7955SOL    HW235325   3.828   3.549   6.341 -1.0901 -0.1609  1.2813
 7956SOL     OW35326   1.679   2.749   2.064  0.3940 -0.3994  0.3281
 7956SOL    HW135327   1.687   2.745   1.969 -0.3279  0.1230  0.2551
 7956SOL    HW235328   1.587   2.737   2.088  0.3134 -1.0043 -0.3177
 7957SOL     OW35329   0.785   3.939   1.954  0.3892 -0.2030 -0.1125
 7957SOL    HW135330   0.820   4.028   1.952  0.6420 -0.3287 -1.5750
 7957SOL    HW235331   0.710   3.951   2.012 -1.4067 -0.4134 -2.3897
 7958SOL     OW35332   1.970   2.350  12.825  0.7354 -0.0044  0.3998
 7958SOL    HW135333   1.966   2.331  12.918  3.3531  1.6159  0.8424
 7958SOL    HW235334   2.059   2.314  12.815  0.0644 -2.1221  2.0005
 7959SOL     OW35335   2.516   0.743   6.430 -0.1021  0.1408 -0.2348
 7959SOL    HW135336   2.467   0.738   6.348  0.4089  0.0749 -0.5342
 7959SOL    HW235337   2.444   0.745   6.494  0.0345 -0.3618 -0.0653
 7960SOL     OW35338   4.270   4.200   9.081  0.1800  0.2787 -0.0533
 7960SOL    HW135339   4.231   4.195   9.169 -0.7942  0.5062 -0.4665
 7960SOL    HW235340   4.200   4.248   9.037 -1.0226  0.5479  2.1139
 7961SOL     OW35341   2.602   0.212   2.977  0.2291 -0.0765 -0.1424
 7961SOL    HW135342   2.587   0.170   2.892  1.3866 -1.3330  0.2717
 7961SOL    HW235343   2.594   0.303   2.949  3.0828  0.0284 -0.6644
 7962SOL     OW35344   0.575   2.059  13.844  0.7132  0.3745 -0.0914
 7962SOL    HW135345   0.590   2.154  13.842 -1.1239  0.6391 -1.3592
 7962SOL    HW235346   0.547   2.029  13.757 -1.6533  2.0479  0.0818
 7963SOL     OW35347   3.780   1.047  13.568  0.5554 -0.3261 -0.1290
 7963SOL    HW135348   3.849   1.062  13.503  1.1915 -0.7949  0.4458
 7963SOL    HW235349   3.726   0.981  13.523  0.9800 -0.3572 -0.5944
 7964SOL     OW35350   3.676   0.692   4.387  0.9337  0.2412  0.2704
 7964SOL    HW135351   3.742   0.662   4.325 -0.2030 -0.2839 -0.6868
 7964SOL    HW235352   3.715   0.777   4.408 -3.7264  2.4250  0.2980
 7965SOL     OW35353   3.952   1.881   7.745 -0.2326  0.0184 -0.6050
 7965SOL    HW135354   4.037   1.838   7.745  0.6801  1.8302 -1.6376
 7965SOL    HW235355   3.975   1.956   7.799 -0.0950  1.2004 -2.3210
 7966SOL     OW35356   3.801   4.153   7.384  0.0335  0.6055 -0.9472
 7966SOL    HW135357   3.843   4.128   7.301 -1.4401 -0.0879 -1.4926
 7966SOL    HW235358   3.820   4.246   7.374 -1.5570  1.1423  1.1303
 7967SOL     OW35359   2.050   4.008  14.226 -0.1616 -0.0111  0.0454
 7967SOL    HW135360   1.998   4.061  14.165  1.3539 -2.0291 -2.9759
 7967SOL    HW235361   2.128   3.989  14.174 -0.6224  0.0425 -0.6700
 7968SOL     OW35362   2.452   0.219   4.578 -0.0794 -0.5878 -0.2400
 7968SOL    HW135363   2.517   0.196   4.511  0.6298  0.8731 -0.0709
 7968SOL    HW235364   2.372   0.192   4.533  0.5265 -2.9625  0.1421
 7969SOL     OW35365   2.151   0.517   5.864 -0.6351 -0.9016 -0.0363
 7969SOL    HW135366   2.143   0.610   5.889  1.0859 -0.3765 -1.4921
 7969SOL    HW235367   2.207   0.541   5.791 -1.0648 -0.0312 -0.0915
 7970SOL     OW35368   2.745   1.914   5.910 -0.0748 -0.1632 -0.2693
 7970SOL    HW135369   2.731   1.894   5.818 -0.8919  0.8393 -0.3654
 7970SOL    HW235370   2.759   2.008   5.900 -3.1557  0.4872  1.2913
 7971SOL     OW35371   3.829   0.918  14.802 -0.7023 -0.0659 -0.3320
 7971SOL    HW135372   3.791   0.950  14.720 -0.1171 -0.2701 -0.6820
 7971SOL    HW235373   3.880   0.997  14.817 -1.1728  0.2930 -0.6343
 7972SOL     OW35374   1.435   0.584  11.412 -0.0464 -0.4662  0.0448
 7972SOL    HW135375   1.385   0.608  11.334  0.0586  3.4244  1.1564
 7972SOL    HW235376   1.374   0.540  11.471  0.9085 -1.2065  0.4815
 7973SOL     OW35377   3.758   1.219   5.164 -0.1025  0.1885 -0.3090
 7973SOL    HW135378   3.676   1.178   5.193 -0.7202  0.3344 -1.8653
 7973SOL    HW235379   3.717   1.255   5.086 -0.2454  1.0066  0.1383
 7974SOL     OW35380   2.013   2.615   2.490 -0.8743 -0.3725 -0.7615
 7974SOL    HW135381   1.938   2.583   2.540 -0.4354  0.2697  0.3177
 7974SOL    HW235382   2.080   2.578   2.548 -0.5806  0.9372 -0.2685
 7975SOL     OW35383   1.263   4.441   0.149 -0.1466 -0.1246 -0.6478
 7975SOL    HW135384   1.301   4.356   0.169 -1.7014 -0.5455  0.4861
 7975SOL    HW235385   1.173   4.418   0.170 -0.4174  1.5998  0.1168
 7976SOL     OW35386   4.622   3.592   8.020 -0.2719  0.1385  0.3184
 7976SOL    HW135387   4.698   3.650   8.019  0.3287 -0.6554 -0.3615
 7976SOL    HW235388   4.596   3.600   8.111 -0.1637 -2.9267  0.6272
 7977SOL     OW35389   2.647   4.266   3.323 -0.0825  0.1463 -0.6975
 7977SOL    HW135390   2.639   4.264   3.228  1.3762 -0.4858 -0.8073
 7977SOL    HW235391   2.568   4.320   3.333 -0.1636 -0.4476  1.7317
 7978SOL     OW35392   1.806   3.646  13.045 -0.0045 -0.2086  0.0002
 7978SOL    HW135393   1.714   3.671  13.057 -0.0550 -0.3936 -0.0090
 7978SOL    HW235394   1.792   3.630  12.952  0.1286  1.6577 -0.3500
 7979SOL     OW35395   4.562   0.416  11.641 -0.2995  0.7093 -0.1715
 7979SOL    HW135396   4.468   0.432  11.634 -0.7599 -0.9363  2.4486
 7979SOL    HW235397   4.565   0.328  11.601 -1.5236  0.9598 -0.8303
 7980SOL     OW35398   3.160   0.740   3.841  0.4744  0.3220  0.1836
 7980SOL    HW135399   3.115   0.820   3.868  1.1082  0.9821 -0.7362
 7980SOL    HW235400   3.135   0.726   3.750  0.0864  2.0143  0.0349
 7981SOL     OW35401   3.236   4.346   8.286  0.1219 -0.0541 -0.3434
 7981SOL    HW135402   3.236   4.289   8.209 -2.8736 -0.8508  0.2630
 7981SOL    HW235403   3.327   4.326   8.309 -0.4716 -2.1573  0.1201
 7982SOL     OW35404   0.315   4.504   1.400 -0.2456  0.1460 -0.4175
 7982SOL    HW135405   0.375   4.462   1.462  0.1646  0.8338 -0.3534
 7982SOL    HW235406   0.370   4.496   1.322  0.5212  1.0504  0.0344
 7983SOL     OW35407   3.299   2.144   3.401  0.0384 -0.0184  0.0631
 7983SOL    HW135408   3.233   2.079   3.426 -0.3405 -0.1323 -1.2372
 7983SOL    HW235409   3.279   2.210   3.468  2.1382  0.0198  0.6494
 7984SOL     OW35410   0.570   4.482   7.100 -0.0047 -0.0918  0.0601
 7984SOL    HW135411   0.487   4.450   7.134 -0.4098 -0.8996 -1.7272
 7984SOL    HW235412   0.616   4.413   7.053 -0.2995 -0.5209  0.4080
 7985SOL     OW35413   0.148   0.417   5.244 -0.2110 -0.2366 -0.2907
 7985SOL    HW135414   0.161   0.428   5.150  0.5124 -3.3891 -0.5623
 7985SOL    HW235415   0.128   0.506   5.274  0.8538  0.5288 -1.8818
 7986SOL     OW35416   1.847   2.674   8.778  0.1630  0.1027  0.6585
 7986SOL    HW135417   1.866   2.615   8.705  0.1268  2.8496 -1.5602
 7986SOL    HW235418   1.794   2.743   8.738  1.7992  0.9240 -0.0644
 7987SOL     OW35419   4.259   1.503   4.477 -0.1890 -0.2326  0.2519
 7987SOL    HW135420   4.267   1.538   4.389  0.0082 -4.0956 -1.2716
 7987SOL    HW235421   4.349   1.469   4.479  0.2365  0.9069  0.5624
 7988SOL     OW35422   4.348   0.360   7.370 -0.2392  0.0658 -0.0676
 7988SOL    HW135423   4.403   0.422   7.322  0.7683 -1.0037 -0.3002
 7988SOL    HW235424   4.369   0.278   7.326  0.5231 -0.3190  1.0160
 7989SOL     OW35425   2.876   0.738   3.345 -0.0681  0.1480  0.0904
 7989SOL    HW135426   2.897   0.678   3.273  1.5271 -1.2198  1.7002
 7989SOL    HW235427   2.787   0.705   3.360 -0.6739  1.4732 -0.6109
 7990SOL     OW35428   1.700   3.635  15.211 -0.2961 -0.2483  0.5735
 7990SOL    HW135429   1.745   3.719  15.213 -0.7771  0.0034  0.7374
 7990SOL    HW235430   1.627   3.652  15.152  0.5422 -0.2650 -0.4599
 7991SOL     OW35431   2.764   1.932  10.059  0.1359  0.7656  0.0274
 7991SOL    HW135432   2.800   1.941  10.147 -0.6858 -0.3424  0.4835
 7991SOL    HW235433   2.676   1.969  10.071 -0.4907 -0.5931 -0.4125
 7992SOL     OW35434   0.032   2.073   4.284 -0.0904 -0.4590 -0.5091
 7992SOL    HW135435   0.027   2.149   4.341  1.1411  0.0392 -1.0698
 7992SOL    HW235436   0.107   2.106   4.235 -0.6203 -0.4198 -1.2799
 7993SOL     OW35437   1.405   4.306   2.001 -0.3143  0.6788 -0.5536
 7993SOL    HW135438   1.372   4.386   2.042  1.0280  0.8055  0.2660
 7993SOL    HW235439   1.480   4.292   2.059 -1.9717  2.5405  2.0525
 7994SOL     OW35440   3.181   0.745   4.618 -0.3903 -0.5349  0.7414
 7994SOL    HW135441   3.106   0.722   4.673 -2.1389  0.5712 -1.1785
 7994SOL    HW235442   3.182   0.841   4.623  0.0759 -0.4614 -0.8283
 7995SOL     OW35443   2.447   3.274   2.267  0.4428 -0.4399 -0.3004
 7995SOL    HW135444   2.475   3.182   2.265 -2.1305 -1.2323  0.8143
 7995SOL    HW235445   2.416   3.287   2.177  2.7840  0.7628 -0.9427
 7996SOL     OW35446   2.703   2.053   1.677 -0.5170 -0.2949  0.4194
 7996SOL    HW135447   2.732   2.002   1.601 -0.2675 -0.4805  0.6403
 7996SOL    HW235448   2.611   2.027   1.686 -0.5809 -0.7589 -1.6586
 7997SOL     OW35449   2.923   2.289   4.176  0.1027 -0.0444 -0.6516
 7997SOL    HW135450   2.971   2.267   4.256  3.7853 -0.2555 -2.9618
 7997SOL    HW235451   2.844   2.321   4.221  1.8718  0.7771  1.8725
 7998SOL     OW35452   3.124   1.679  14.731 -0.1554 -0.5096  0.3350
 7998SOL    HW135453   3.155   1.743  14.666 -1.8222  1.6109  1.6441
 7998SOL    HW235454   3.049   1.725  14.768  0.9687  0.7056  1.1203
 7999SOL     OW35455   4.575   2.504   5.962  0.1199  0.4243  0.0079
 7999SOL    HW135456   4.555   2.422   5.918  0.4550  0.5738 -0.4177
 7999SOL    HW235457   4.663   2.475   5.987  0.1372  0.4197 -0.0602
 8000SOL     OW35458   0.893   1.974   4.152  0.2090 -0.6191 -0.0199
 8000SOL    HW135459   0.817   1.916   4.150  0.8198 -1.3024 -3.8780
 8000SOL    HW235460   0.954   1.922   4.099  2.0357  2.3108 -0.8410
 8001SOL     OW35461   2.844   2.803   5.194 -0.4355 -0.4035 -0.0263
 8001SOL    HW135462   2.772   2.768   5.142  0.2163 -0.8905 -0.5983
 8001SOL    HW235463   2.875   2.728   5.245  0.7470  0.6810  0.8526
 8002SOL     OW35464   1.907   1.233   6.033  0.0134  0.3752  0.3073
 8002SOL    HW135465   1.864   1.162   6.082  0.3139  0.4365  0.6625
 8002SOL    HW235466   1.932   1.298   6.099  1.9295  1.1107 -1.1538
 8003SOL     OW35467   2.670   3.514   3.433  0.1095 -0.0714 -0.1639
 8003SOL    HW135468   2.706   3.588   3.481 -0.8244  1.0510 -1.1942
 8003SOL    HW235469   2.636   3.462   3.506  2.4329  0.8337  1.5282
 8004SOL     OW35470   2.915   3.233   3.333  0.1723  0.3243 -0.0024
 8004SOL    HW135471   2.965   3.294   3.278  2.1551 -0.5533  0.8171
 8004SOL    HW235472   2.928   3.149   3.291  0.6344  0.6312 -0.4782
 8005SOL     OW35473   2.286   2.236   2.212  0.0500  0.1464 -0.7616
 8005SOL    HW135474   2.238   2.166   2.256  1.7088  1.1261  2.6705
 8005SOL    HW235475   2.224   2.309   2.218  0.0442  0.0301  0.7242
 8006SOL     OW35476   3.324   0.336  17.551  0.0440  0.2338  0.1986
 8006SOL    HW135477   3.411   0.314  17.585  0.1647  0.2591 -0.0899
 8006SOL    HW235478   3.341   0.389  17.473  1.9974 -0.8371 -0.0924
 8007SOL     OW35479   3.974   3.486  17.408 -0.0249  0.0991  0.3445
 8007SOL    HW135480   4.045   3.491  17.473 -0.4767 -2.3184  1.0403
 8007SOL    HW235481   3.905   3.453  17.465  2.8720 -0.0295  3.8154
 8008SOL     OW35482   0.875   1.171   7.274 -0.6645  0.3984  0.0961
 8008SOL    HW135483   0.800   1.112   7.261 -1.4325  1.9094 -2.3903
 8008SOL    HW235484   0.949   1.124   7.313 -0.7580  0.8969  0.8752
 8009SOL     OW35485   2.477   2.829   6.999  0.3240  0.5571  0.4848
 8009SOL    HW135486   2.409   2.825   7.065  0.3021 -1.1495  0.3648
 8009SOL    HW235487   2.541   2.760   7.020 -0.0354  0.3512  0.8870
 8010SOL     OW35488   0.190   1.273   6.803  0.3185  0.2260 -0.2043
 8010SOL    HW135489   0.153   1.197   6.849  0.4557 -0.9395 -2.0099
 8010SOL    HW235490   0.284   1.262   6.813  0.2836  0.3424  0.2178
 8011SOL     OW35491   0.374   1.655   9.387 -0.3193  0.1746  0.1923
 8011SOL    HW135492   0.421   1.596   9.445 -0.8232 -1.8215 -1.4358
 8011SOL    HW235493   0.443   1.718   9.365 -0.9015  1.3740  1.7593
 8012SOL     OW35494   1.054   2.088  12.230 -0.1010 -0.2915 -0.0690
 8012SOL    HW135495   0.996   2.029  12.182 -1.3923 -0.6486  1.9111
 8012SOL    HW235496   0.999   2.105  12.306  0.4798 -0.2114  0.3316
 8013SOL     OW35497   3.778   3.675  16.334  0.5165  0.0230 -0.0158
 8013SOL    HW135498   3.773   3.622  16.413 -1.2979 -0.2406 -0.3004
 8013SOL    HW235499   3.870   3.702  16.330 -0.1152  2.1283 -0.1990
 8014SOL     OW35500   4.575   1.766   6.470 -0.2886  0.0441  0.3808
 8014SOL    HW135501   4.653   1.821   6.478 -1.5733  1.5877  2.1416
 8014SOL    HW235502   4.538   1.741   6.555 -3.7876  0.9901 -0.8753
 8015SOL     OW35503   2.585   1.868   5.218  0.9106  0.0280  0.5089
 8015SOL    HW135504   2.569   1.837   5.307  0.6705  2.2466  1.2190
 8015SOL    HW235505   2.603   1.780   5.184  3.2271  0.0394  1.6924
 8016SOL     OW35506   3.980   0.545  17.698  0.2938  0.1343 -0.5872
 8016SOL    HW135507   4.025   0.490   0.062  1.1142 -0.4265 -1.6391
 8016SOL    HW235508   3.966   0.628   0.042 -0.6007 -0.3603  0.0566
 8017SOL     OW35509   1.118   0.752  11.150 -0.1405 -0.2232  0.2033
 8017SOL    HW135510   1.136   0.669  11.194 -2.1265  0.0910  1.6342
 8017SOL    HW235511   1.200   0.796  11.170  0.1412 -0.7452  0.1977
 8018SOL     OW35512   2.781   3.795   5.789 -0.0435  0.4439  0.4922
 8018SOL    HW135513   2.853   3.804   5.851 -0.2670 -1.6524  1.0389
 8018SOL    HW235514   2.728   3.868   5.822  0.1996  0.2511  1.2859
 8019SOL     OW35515   0.511   3.231   5.123  0.5468 -0.2441  0.4263
 8019SOL    HW135516   0.593   3.192   5.092 -0.4549 -0.5698 -1.7408
 8019SOL    HW235517   0.537   3.321   5.143  1.4758 -0.2264 -0.8329
 8020SOL     OW35518   0.278   2.033   4.938 -0.5145 -0.3741 -0.1477
 8020SOL    HW135519   0.237   1.988   5.012 -0.2762 -0.9649 -0.3701
 8020SOL    HW235520   0.343   1.969   4.909  1.1464  1.6148 -0.8476
 8021SOL     OW35521   0.360   1.347  15.347 -0.6657  0.6150  0.2525
 8021SOL    HW135522   0.450   1.321  15.325 -0.8147 -1.0222  1.5770
 8021SOL    HW235523   0.386   1.439  15.356  1.2342  0.2154 -1.0622
 8022SOL     OW35524   4.658   2.968   4.860 -0.0286 -0.4971 -0.2856
 8022SOL    HW135525   4.641   2.877   4.885 -1.9832 -0.2089 -0.6074
 8022SOL    HW235526   0.010   2.978   4.804  0.5083 -2.1870  0.1425
 8023SOL     OW35527   1.251   0.052  16.057 -0.1266 -0.0870  0.4934
 8023SOL    HW135528   1.300   0.054  16.140 -0.8573  2.0766  0.8747
 8023SOL    HW235529   1.167   0.017  16.086 -0.3404 -1.6203 -2.0099
 8024SOL     OW35530   2.805   0.101   7.467  0.1541  0.1169  0.2650
 8024SOL    HW135531   2.882   0.082   7.413 -1.6466  0.9555 -2.5795
 8024SOL    HW235532   2.846   0.086   7.552  1.0623 -2.0302 -0.5559
 8025SOL     OW35533   4.220   3.631   3.238  0.2154 -0.6890  0.1911
 8025SOL    HW135534   4.160   3.578   3.184 -2.2945 -0.4532  2.7528
 8025SOL    HW235535   4.216   3.599   3.328 -2.7854  1.6848  0.8972
 8026SOL     OW35536   3.719   1.519   8.510 -0.9741  0.0218 -0.3556
 8026SOL    HW135537   3.690   1.429   8.495 -1.0154 -0.1733  0.8568
 8026SOL    HW235538   3.636   1.568   8.504 -0.9031  0.1890 -0.0029
 8027SOL     OW35539   1.302   0.128   6.651 -0.3724  0.6782 -0.0951
 8027SOL    HW135540   1.383   0.179   6.651  0.1769 -0.1896 -0.7160
 8027SOL    HW235541   1.260   0.148   6.567  0.4373  0.8852 -0.4511
 8028SOL     OW35542   0.784   3.720   7.628  0.7593  0.0312 -0.6331
 8028SOL    HW135543   0.852   3.722   7.696  0.6671 -1.3287 -0.4862
 8028SOL    HW235544   0.784   3.643   7.571 -2.5765  0.1892 -0.8642
 8029SOL     OW35545   0.133   2.664   7.807 -0.1415 -0.5217 -0.2976
 8029SOL    HW135546   0.168   2.731   7.749  0.8297 -0.5008  0.3126
 8029SOL    HW235547   0.211   2.622   7.842  1.2237  0.7613 -1.7758
 8030SOL     OW35548   0.269   1.261  16.373 -0.5816 -0.2163 -0.4470
 8030SOL    HW135549   0.312   1.247  16.288 -1.5976 -1.9788 -0.6759
 8030SOL    HW235550   0.256   1.170  16.399 -2.1142 -0.4376 -1.9122
 8031SOL     OW35551   3.197   2.416   4.838 -0.3177  0.2729  0.6085
 8031SOL    HW135552   3.260   2.426   4.909 -0.0785  1.1983  0.2753
 8031SOL    HW235553   3.205   2.325   4.810  1.2652  0.7112 -0.4393
 8032SOL     OW35554   3.367   1.694   3.545 -0.3275  0.2191 -0.2339
 8032SOL    HW135555   3.421   1.617   3.563 -1.4196 -0.2879  0.8619
 8032SOL    HW235556   3.425   1.764   3.575  0.5219 -0.1040 -1.1090
 8033SOL     OW35557   0.456   1.600   2.821  0.2943 -0.4799  0.2048
 8033SOL    HW135558   0.400   1.607   2.899 -0.5122  1.6104 -0.5533
 8033SOL    HW235559   0.473   1.690   2.793  0.7358 -0.4942  0.4222
 8034SOL     OW35560   1.580   3.830   1.650  0.0657  0.6469  0.2329
 8034SOL    HW135561   1.670   3.805   1.673 -0.2351 -0.3454  0.3260
 8034SOL    HW235562   1.597   3.924   1.654 -0.1614  0.8184 -2.8909
 8035SOL     OW35563   2.014   4.247  12.851  0.4705  0.0056 -0.2724
 8035SOL    HW135564   2.100   4.274  12.883  1.0590 -0.0656 -1.7934
 8035SOL    HW235565   1.973   4.230  12.935  0.2552  0.1869 -0.3417
 8036SOL     OW35566   4.230   0.367   4.639 -0.1226  0.3982 -0.2831
 8036SOL    HW135567   4.149   0.362   4.691 -0.1264  0.6776 -0.2659
 8036SOL    HW235568   4.219   0.297   4.574  2.8505 -1.3086  1.0216
 8037SOL     OW35569   2.850   3.455  15.514  0.0374 -0.2027  0.0512
 8037SOL    HW135570   2.940   3.423  15.512  0.0915  0.0767 -1.4610
 8037SOL    HW235571   2.838   3.485  15.604 -1.0551 -2.3103  0.6125
 8038SOL     OW35572   3.759   3.880   7.472 -0.6904 -0.2710  0.3658
 8038SOL    HW135573   3.752   3.974   7.454 -0.6027 -0.8739 -2.7809
 8038SOL    HW235574   3.842   3.861   7.428 -0.8967 -2.7366  1.0295
 8039SOL     OW35575   3.953   0.619   5.657 -0.2301  0.6251 -0.2690
 8039SOL    HW135576   4.012   0.560   5.704 -1.9209  0.0620  1.1370
 8039SOL    HW235577   4.022   0.648   5.598  0.2300  0.1859  0.0551
 8040SOL     OW35578   3.990   0.421   5.445 -0.3372  0.4706 -0.3576
 8040SOL    HW135579   3.913   0.430   5.500 -1.2299 -0.0556 -1.5250
 8040SOL    HW235580   4.033   0.501   5.476 -0.3886  0.7865 -1.1037
 8041SOL     OW35581   2.882   3.490   9.182  0.4092 -0.1526 -0.0605
 8041SOL    HW135582   2.890   3.560   9.247  0.7865  0.1893 -0.4838
 8041SOL    HW235583   2.861   3.420   9.244  1.4746  0.0818  0.5589
 8042SOL     OW35584   3.406   2.902  12.117 -0.2680 -0.6360  0.4800
 8042SOL    HW135585   3.332   2.893  12.177 -1.8587  1.1570 -1.2097
 8042SOL    HW235586   3.468   2.958  12.165  1.7045  0.1538 -3.0128
 8043SOL     OW35587   1.508   0.026   7.796 -0.0189 -0.5483  0.6777
 8043SOL    HW135588   1.451   0.085   7.846 -0.7873  0.3606 -1.2649
 8043SOL    HW235589   1.443   4.701   7.746  1.5654 -0.4120 -1.5360
 8044SOL     OW35590   1.607   2.725  16.200  0.2101  0.1190  0.5855
 8044SOL    HW135591   1.697   2.752  16.178  0.2849 -0.1080  0.6033
 8044SOL    HW235592   1.566   2.742  16.115 -3.3838  0.1733  2.3357
 8045SOL     OW35593   2.727   1.838   3.668 -1.3712  0.1464  0.1344
 8045SOL    HW135594   2.791   1.820   3.737 -1.4271  0.8888  0.3766
 8045SOL    HW235595   2.713   1.746   3.645 -0.6000  0.0093  0.1985
 8046SOL     OW35596   2.416   2.999   5.819  0.3965  0.3705 -0.6965
 8046SOL    HW135597   2.363   3.003   5.899  0.6693 -0.8307 -0.4578
 8046SOL    HW235598   2.455   2.912   5.825  0.1871  0.3895  0.9270
 8047SOL     OW35599   1.525   4.548  17.110 -0.2890 -0.3541  0.4038
 8047SOL    HW135600   1.542   4.628  17.159 -4.7010  0.6407  0.3374
 8047SOL    HW235601   1.455   4.580  17.052  0.5751  0.3657 -0.2365
 8048SOL     OW35602   4.487   1.039   9.037 -0.1984 -0.1349 -0.5413
 8048SOL    HW135603   4.522   0.955   9.007  0.2299 -0.4292  0.7889
 8048SOL    HW235604   4.503   1.028   9.131 -1.1134  0.0156 -0.3629
 8049SOL     OW35605   0.797   2.205   0.954  0.3666 -0.0411 -0.5585
 8049SOL    HW135606   0.721   2.180   0.901  1.3679  2.5598 -3.2063
 8049SOL    HW235607   0.848   2.253   0.889 -0.3459  0.5375 -0.6918
 8050SOL     OW35608   4.585   3.054   8.684 -0.4961 -0.4141  0.1749
 8050SOL    HW135609   4.551   2.982   8.631 -2.9243  0.4694  0.5484
 8050SOL    HW235610   4.510   3.071   8.741 -1.2796 -0.3168 -0.8842
 8051SOL     OW35611   2.227   2.957  17.282  0.0190 -0.2501 -0.5018
 8051SOL    HW135612   2.207   2.868  17.251 -1.1520  0.5126 -1.9622
 8051SOL    HW235613   2.322   2.958  17.293 -0.1339 -1.5668  0.9554
 8052SOL     OW35614   2.346   0.053   6.412  0.2630 -0.3233  0.1505
 8052SOL    HW135615   2.375   0.113   6.344 -1.1786  0.1655 -0.0250
 8052SOL    HW235616   2.415   0.050   6.479  0.0990  2.3405  0.4357
 8053SOL     OW35617   3.243   4.598  13.959 -0.5799 -0.0266  0.5786
 8053SOL    HW135618   3.308   4.560  14.019  0.5019 -3.0327 -2.4709
 8053SOL    HW235619   3.162   4.560  13.992 -1.4739  1.3604 -0.0100
 8054SOL     OW35620   4.644   3.145   2.174 -0.1641  0.4414 -0.2926
 8054SOL    HW135621   4.722   3.200   2.161  0.9932 -0.7808  1.3534
 8054SOL    HW235622   4.597   3.204   2.233  1.3781  0.0174  1.3581
 8055SOL     OW35623   0.340   0.013   1.745  0.0818  0.1285  0.2666
 8055SOL    HW135624   0.274   0.067   1.703 -0.9685  0.4668  2.3724
 8055SOL    HW235625   0.305   4.653   1.717  1.2356  0.3637 -1.9713
 8056SOL     OW35626   0.773   0.044   3.154 -0.2417 -0.7890  0.0903
 8056SOL    HW135627   0.708   0.060   3.222 -1.5885 -0.2074 -1.3239
 8056SOL    HW235628   0.822   0.126   3.154 -1.1542 -0.2472 -0.9482
 8057SOL     OW35629   3.023   4.592   6.942  0.5599  0.2163  0.1099
 8057SOL    HW135630   3.094   4.536   6.911  0.9415 -0.2579  1.8265
 8057SOL    HW235631   3.042   4.669   6.889 -1.8841  1.5542  1.1576
 8058SOL     OW35632   4.343   1.998   8.198  0.1785  0.1334 -0.7363
 8058SOL    HW135633   4.363   2.066   8.263  0.6207 -0.3174 -0.4044
 8058SOL    HW235634   4.394   2.021   8.121  3.0001 -0.5133  0.9663
 8059SOL     OW35635   0.443   3.048   3.715  0.7987  0.8361 -0.2131
 8059SOL    HW135636   0.511   2.991   3.678 -2.1598 -2.1665 -1.0587
 8059SOL    HW235637   0.404   2.997   3.786 -0.9526  2.1212 -0.2463
 8060SOL     OW35638   2.009   1.718   6.591  0.4110  0.1631 -0.5549
 8060SOL    HW135639   1.965   1.798   6.619 -2.5294 -0.6362 -2.8665
 8060SOL    HW235640   2.086   1.710   6.647 -1.3349  0.7081  1.9106
 8061SOL     OW35641   2.298   3.375  14.540 -0.2978  0.3670  0.0405
 8061SOL    HW135642   2.270   3.467  14.541  0.6625  0.6703 -0.8378
 8061SOL    HW235643   2.226   3.320  14.511  1.7736 -3.2122  1.6760
 8062SOL     OW35644   3.964   1.549   5.084 -0.3729  0.0675  0.1235
 8062SOL    HW135645   3.953   1.522   4.993 -1.7312 -1.2016  0.6695
 8062SOL    HW235646   3.877   1.528   5.117 -0.9854  1.0899 -0.8712
 8063SOL     OW35647   2.921   4.032   7.204 -0.3055  0.1486  0.6654
 8063SOL    HW135648   2.842   3.983   7.183 -0.3692  0.2621  0.6361
 8063SOL    HW235649   2.891   4.123   7.190 -2.0598 -0.9067 -2.5643
 8064SOL     OW35650   3.614   0.706   0.260  0.0490 -0.7615 -0.3970
 8064SOL    HW135651   3.635   0.638   0.195  1.8824  2.2583 -2.9089
 8064SOL    HW235652   3.536   0.660   0.292  0.7055  0.0549  2.3919
 8065SOL     OW35653   3.300   3.062   5.847 -0.5875 -0.2705  0.2103
 8065SOL    HW135654   3.352   3.132   5.807 -1.5656 -0.4444 -1.3364
 8065SOL    HW235655   3.319   2.997   5.779  0.2613  0.8904 -0.6713
 8066SOL     OW35656   0.881   3.327   5.239  0.6337  0.5522  0.2517
 8066SOL    HW135657   0.895   3.295   5.150 -2.1428 -2.7233  0.9648
 8066SOL    HW235658   0.919   3.257   5.291  1.3441  0.3609 -0.5252
 8067SOL     OW35659   3.912   3.844   3.169  0.1301 -0.1785  0.3284
 8067SOL    HW135660   3.905   3.761   3.121  3.8676  0.8769 -2.0960
 8067SOL    HW235661   3.995   3.873   3.132 -0.2446 -0.9839 -1.1451
 8068SOL     OW35662   1.800   4.121   2.647 -0.6512  0.3367 -1.3071
 8068SOL    HW135663   1.736   4.084   2.586 -1.5543 -2.7107  1.5154
 8068SOL    HW235664   1.804   4.207   2.604  0.9746  1.1518  0.4969
 8069SOL     OW35665   1.382   3.697  13.231 -0.6170 -0.5199 -0.1016
 8069SOL    HW135666   1.346   3.752  13.300 -2.2548  2.9398 -3.7445
 8069SOL    HW235667   1.324   3.621  13.240 -0.5563 -0.6078 -0.4240
 8070SOL     OW35668   1.207   3.589   8.578 -0.5624  0.2077 -0.3010
 8070SOL    HW135669   1.292   3.548   8.592 -1.0688 -0.6993  0.1424
 8070SOL    HW235670   1.149   3.525   8.619 -0.4682  1.0363  1.1349
 8071SOL     OW35671   3.851   3.356   6.231  0.3305 -0.3066  0.3799
 8071SOL    HW135672   3.811   3.270   6.219  0.4555  0.0691 -2.7218
 8071SOL    HW235673   3.872   3.337   6.323 -0.7477 -2.5741  0.1430
 8072SOL     OW35674   0.501   3.850   4.212 -0.1151  0.4040 -0.6540
 8072SOL    HW135675   0.565   3.816   4.276  0.4827  1.3838 -0.7333
 8072SOL    HW235676   0.418   3.821   4.250 -0.1733  1.1960 -0.1721
 8073SOL     OW35677   0.504   3.639  12.872 -0.3155  0.0733 -0.6466
 8073SOL    HW135678   0.460   3.699  12.933 -0.6964  0.2998 -1.1527
 8073SOL    HW235679   0.470   3.672  12.790 -0.7370  0.4667 -0.3139
 8074SOL     OW35680   1.834   2.642   6.229 -0.1340  0.3082  0.4514
 8074SOL    HW135681   1.860   2.580   6.160 -1.1143  0.3741  0.0364
 8074SOL    HW235682   1.902   2.709   6.219  0.1022 -0.0845 -0.5984
 8075SOL     OW35683   3.881   1.317  16.139  0.1980  0.0302 -0.1154
 8075SOL    HW135684   3.880   1.366  16.221 -1.1467  1.9820 -1.3176
 8075SOL    HW235685   3.803   1.351  16.095 -0.1871  0.6996  1.0902
 8076SOL     OW35686   1.816   4.014  11.059 -0.8071  0.3295 -0.4752
 8076SOL    HW135687   1.804   4.022  10.964  1.3112 -0.3289 -0.8118
 8076SOL    HW235688   1.894   4.064  11.083 -0.3366 -0.4122 -0.4210
 8077SOL     OW35689   4.391   1.254   1.889  0.4074 -0.6979 -0.4373
 8077SOL    HW135690   4.385   1.309   1.811 -1.1641 -1.1771 -0.6538
 8077SOL    HW235691   4.477   1.281   1.921  0.1940 -0.3170 -0.1821
 8078SOL     OW35692   3.627   4.492   3.055 -0.2388 -0.2161  0.1267
 8078SOL    HW135693   3.616   4.409   3.008  2.1924  0.4793 -1.6649
 8078SOL    HW235694   3.631   4.457   3.144  2.7376  0.8001  0.3980
 8079SOL     OW35695   3.836   2.160   4.392 -0.1318  0.4632  0.2034
 8079SOL    HW135696   3.829   2.137   4.485 -0.4600  1.9933  0.5482
 8079SOL    HW235697   3.915   2.213   4.395  0.7767 -1.1739  5.5208
 8080SOL     OW35698   1.282   3.179   3.427 -0.7314 -0.0027  0.6585
 8080SOL    HW135699   1.338   3.104   3.451 -0.5427 -0.6542 -1.7747
 8080SOL    HW235700   1.285   3.233   3.505 -1.1511  1.7598 -0.5592
 8081SOL     OW35701   3.844   4.137   6.805 -0.0477 -0.3346 -0.4527
 8081SOL    HW135702   3.879   4.060   6.762  1.8732  0.8264 -0.9488
 8081SOL    HW235703   3.899   4.202   6.761  0.5235 -1.2706 -1.1098
 8082SOL     OW35704   3.892   0.227   9.317 -0.3429  0.5871 -0.0471
 8082SOL    HW135705   3.830   0.243   9.389  2.3151 -0.3967  2.4698
 8082SOL    HW235706   3.966   0.206   9.374 -1.8418  0.7051  1.9772
 8083SOL     OW35707   0.582   3.059   3.025  0.1714 -0.3435 -0.0892
 8083SOL    HW135708   0.672   3.090   3.039  0.3697 -1.0691  0.2688
 8083SOL    HW235709   0.561   3.104   2.943  2.8029  1.1540  0.0574
 8084SOL     OW35710   4.159   4.275   8.701  0.2220 -0.8386 -0.2300
 8084SOL    HW135711   4.131   4.202   8.756  1.1594 -0.3110  0.9621
 8084SOL    HW235712   4.252   4.249   8.699  0.9089  1.4372  1.8505
 8085SOL     OW35713   3.990   0.303   4.839  0.0937 -0.2843 -0.0502
 8085SOL    HW135714   3.900   0.300   4.869  0.2809 -0.6936  0.4705
 8085SOL    HW235715   3.993   0.211   4.811  0.4618 -0.5843  0.9599
 8086SOL     OW35716   4.110   2.074   1.419 -0.3937 -0.3140  1.0276
 8086SOL    HW135717   4.146   2.151   1.464 -1.4530 -0.1006  1.4967
 8086SOL    HW235718   4.188   2.018   1.427 -0.1476 -0.4902 -2.3840
 8087SOL     OW35719   3.597   3.778  15.290 -0.5930 -0.1251 -0.2774
 8087SOL    HW135720   3.688   3.804  15.302 -2.2397  5.1273  0.5659
 8087SOL    HW235721   3.616   3.689  15.261 -0.2213 -0.1299 -0.0241
 8088SOL     OW35722   1.827   4.123   7.249 -0.3573  0.1055  0.7567
 8088SOL    HW135723   1.902   4.179   7.271 -0.6854 -0.0186  2.1836
 8088SOL    HW235724   1.864   4.062   7.185  0.0277 -0.1181  1.1917
 8089SOL     OW35725   0.582   3.740   8.882  0.1203  0.5490 -0.0308
 8089SOL    HW135726   0.602   3.832   8.899 -2.9245  1.1072  0.4790
 8089SOL    HW235727   0.617   3.709   8.966 -0.6838  1.2325  0.5491
 8090SOL     OW35728   1.709   3.391  10.284  0.0291 -0.3699  0.6155
 8090SOL    HW135729   1.685   3.454  10.216  0.6360  0.7326  1.4063
 8090SOL    HW235730   1.717   3.308  10.236 -1.9171 -1.8202  2.8300
 8091SOL     OW35731   2.985   3.425   8.133 -0.1393 -0.4494  0.0602
 8091SOL    HW135732   2.928   3.448   8.059 -1.2229 -1.1153  0.6811
 8091SOL    HW235733   3.013   3.515   8.152 -0.8060  0.1955 -1.9356
 8092SOL     OW35734   3.120   1.399   6.095  0.2220 -0.0651  0.8871
 8092SOL    HW135735   3.169   1.341   6.153 -0.6225 -0.2262  1.4339
 8092SOL    HW235736   3.061   1.339   6.050  0.5512 -1.0868  1.8359
 8093SOL     OW35737   3.967   3.799   6.985 -0.0107 -0.1725 -0.2333
 8093SOL    HW135738   3.952   3.726   7.045 -0.8318 -0.0623 -0.2950
 8093SOL    HW235739   4.011   3.758   6.911 -0.2070 -0.5447 -0.1463
 8094SOL     OW35740   0.753   2.153  17.420 -0.3228  0.3268 -0.2453
 8094SOL    HW135741   0.784   2.126  17.506 -0.9986  0.6560  0.1053
 8094SOL    HW235742   0.817   2.122  17.355  0.4494 -1.1249  1.2140
 8095SOL     OW35743   2.623   0.657   3.475 -0.1262 -0.0126  0.2710
 8095SOL    HW135744   2.636   0.714   3.551 -1.6501  0.1152  0.4493
 8095SOL    HW235745   2.530   0.661   3.454  0.3266  0.0765 -1.6750
 8096SOL     OW35746   0.000   0.928   8.303 -0.4363  0.3338  0.5203
 8096SOL    HW135747   0.067   0.900   8.240 -0.7575  0.2428  0.2226
 8096SOL    HW235748   0.013   1.022   8.295  0.7022  0.0783 -0.7152
 8097SOL     OW35749   1.118   1.085   8.398 -0.1898 -0.9556  0.0329
 8097SOL    HW135750   1.030   1.102   8.430  0.7651 -1.5722  2.9470
 8097SOL    HW235751   1.130   1.174   8.365 -0.8929 -0.6160  0.7014
 8098SOL     OW35752   1.524   1.357   7.004 -0.2714  0.5242  0.1194
 8098SOL    HW135753   1.504   1.286   7.065 -1.4492  0.1445 -0.7131
 8098SOL    HW235754   1.574   1.313   6.935  0.3835  0.3865  0.6771
 8099SOL     OW35755   2.005   2.245   4.989 -0.4508 -0.2643 -0.1771
 8099SOL    HW135756   2.024   2.210   5.076 -0.5406  0.9035  0.3116
 8099SOL    HW235757   1.909   2.251   4.994 -0.4549 -0.6236  0.2096
 8100SOL     OW35758   2.395   3.096   6.401  0.2231  0.2417  0.1091
 8100SOL    HW135759   2.326   3.152   6.436 -1.8092 -2.2492  0.0609
 8100SOL    HW235760   2.465   3.160   6.383  1.0575 -1.0635 -1.2442
 8101SOL     OW35761   3.490   2.137   8.952 -0.0811  0.0986  0.1707
 8101SOL    HW135762   3.494   2.080   9.028 -1.3391  1.5552  1.3404
 8101SOL    HW235763   3.441   2.086   8.887  1.6069 -2.9932  1.3654
 8102SOL     OW35764   2.703   2.733   4.496  0.2983 -0.1781 -0.6152
 8102SOL    HW135765   2.768   2.741   4.426  1.4949 -0.3928  0.4884
 8102SOL    HW235766   2.638   2.788   4.451  1.2423  0.0239 -1.7410
 8103SOL     OW35767   3.221   0.703   7.685  0.4247 -0.3194  0.1437
 8103SOL    HW135768   3.211   0.651   7.765  1.0327 -1.8792 -0.8049
 8103SOL    HW235769   3.173   0.784   7.703 -0.0925  0.1541 -3.4699
 8104SOL     OW35770   2.584   4.217   1.067 -0.1808  0.1328 -0.5699
 8104SOL    HW135771   2.651   4.197   1.132  0.1080 -1.6133 -1.4084
 8104SOL    HW235772   2.515   4.219   1.133  1.5412 -3.9527  1.3449
 8105SOL     OW35773   3.353   0.835   8.225 -0.4447  0.3032  0.0634
 8105SOL    HW135774   3.381   0.758   8.174 -2.2569  0.7796 -1.6631
 8105SOL    HW235775   3.415   0.902   8.197 -0.4713  0.1908 -0.2685
 8106SOL     OW35776   4.182   4.380   9.620  0.0810  0.2306  0.0221
 8106SOL    HW135777   4.274   4.403   9.629 -0.1023 -0.0410  2.6942
 8106SOL    HW235778   4.161   4.444   9.552 -0.9053  0.9601  1.0071
 8107SOL     OW35779   3.204   1.128   2.033 -0.4369  0.5230 -0.5760
 8107SOL    HW135780   3.263   1.074   1.980 -1.8840 -0.2304 -1.4362
 8107SOL    HW235781   3.215   1.212   1.988  0.3338  0.2618 -0.8682
 8108SOL     OW35782   0.357   3.622  11.361 -0.6861  0.0713 -0.2465
 8108SOL    HW135783   0.403   3.691  11.312 -1.2427  1.8621  1.7281
 8108SOL    HW235784   0.266   3.650  11.362 -0.1761  1.7337  0.2996
 8109SOL     OW35785   0.625   0.660  13.909 -0.0210 -0.6586  0.3893
 8109SOL    HW135786   0.560   0.637  13.975 -1.4005 -0.2662 -0.8436
 8109SOL    HW235787   0.701   0.609  13.937 -0.0655 -2.1541 -2.1936
 8110SOL     OW35788   3.822   2.860   5.691 -0.3328  0.0453  0.7698
 8110SOL    HW135789   3.737   2.869   5.733 -0.1561  0.9902  0.9288
 8110SOL    HW235790   3.835   2.953   5.671  0.5191 -0.3539 -0.4831
 8111SOL     OW35791   2.231   3.542   3.457  0.1482 -0.2684 -0.2465
 8111SOL    HW135792   2.293   3.471   3.446  0.5909 -0.0566  0.8451
 8111SOL    HW235793   2.288   3.614   3.430  1.3138 -0.6359  1.2032
 8112SOL     OW35794   4.335   1.111   2.691 -0.0651 -0.0785 -0.0274
 8112SOL    HW135795   4.278   1.034   2.693  1.4094 -1.1849 -0.9080
 8112SOL    HW235796   4.273   1.177   2.721 -0.4461 -0.4350 -0.0370
 8113SOL     OW35797   3.816   4.660   2.584  0.1579  0.1769 -0.1448
 8113SOL    HW135798   3.878   4.627   2.519 -0.7468  0.4049 -1.1244
 8113SOL    HW235799   3.869   4.710   2.646 -0.1514  0.5830 -0.2125
 8114SOL     OW35800   2.831   3.121   6.461 -0.4220  0.9017 -0.7891
 8114SOL    HW135801   2.895   3.075   6.407 -0.1259  0.1758  0.1797
 8114SOL    HW235802   2.885   3.196   6.485  0.9533  0.0649 -1.2547
 8115SOL     OW35803   3.344   0.475  11.183  0.1455  0.1574  0.0806
 8115SOL    HW135804   3.364   0.382  11.198 -1.2152 -0.3320 -1.1384
 8115SOL    HW235805   3.254   0.467  11.153  0.2585  1.0041 -0.4815
 8116SOL     OW35806   3.815   4.187   8.393  0.2038  0.3777  0.4162
 8116SOL    HW135807   3.746   4.122   8.378 -0.1930  0.8702  0.1241
 8116SOL    HW235808   3.860   4.140   8.463 -1.8135  0.0766  1.5375
 8117SOL     OW35809   0.958   0.505   7.875 -0.3361  0.3651  0.3189
 8117SOL    HW135810   0.920   0.516   7.788 -0.0400  0.7637  0.2354
 8117SOL    HW235811   0.895   0.454   7.924  0.6200 -0.3911  0.7665
 8118SOL     OW35812   1.203   2.773   5.994 -0.2350 -0.9040  0.0063
 8118SOL    HW135813   1.203   2.815   5.908 -2.1096 -1.5727 -0.3208
 8118SOL    HW235814   1.194   2.849   6.052 -0.4208 -0.7590 -0.2137
 8119SOL     OW35815   1.376   0.844  16.094 -0.6157  0.3273  0.0474
 8119SOL    HW135816   1.390   0.931  16.132  1.4019  1.3508 -3.0631
 8119SOL    HW235817   1.282   0.850  16.080 -0.1208  3.5861 -1.8125
 8120SOL     OW35818   0.791   0.701   7.210  0.1436 -0.8399  0.2521
 8120SOL    HW135819   0.850   0.686   7.284 -0.7918 -1.3607  0.8927
 8120SOL    HW235820   0.817   0.637   7.145  1.6833  0.2163 -0.1739
 8121SOL     OW35821   0.001   2.632  13.195 -0.8162  0.1051 -0.3333
 8121SOL    HW135822   4.714   2.547  13.153 -0.6618 -0.0119 -0.1385
 8121SOL    HW235823   0.090   2.656  13.170 -2.4468  3.3287 -3.2049
 8122SOL     OW35824   3.358   1.201   6.609 -0.1021 -0.1951  0.3434
 8122SOL    HW135825   3.285   1.257   6.582 -0.6840 -0.8813  0.4617
 8122SOL    HW235826   3.327   1.190   6.698 -1.0273  1.1188  0.1839
 8123SOL     OW35827   4.070   0.128   3.952  0.0410  0.5917  0.6629
 8123SOL    HW135828   4.062   0.148   3.859 -0.6287 -1.0722  0.3541
 8123SOL    HW235829   4.148   0.071   3.949 -2.0501 -2.0762 -2.6108
 8124SOL     OW35830   2.433   0.979  12.980 -0.0567  0.2882 -0.1209
 8124SOL    HW135831   2.507   1.017  12.934  0.6159  1.0183  1.5820
 8124SOL    HW235832   2.363   1.027  12.936 -2.6144 -2.4133  0.9509
 8125SOL     OW35833   3.908   2.498  16.146 -0.4942 -0.0144  0.4511
 8125SOL    HW135834   3.896   2.592  16.165 -0.0754 -0.8449  4.8240
 8125SOL    HW235835   3.878   2.459  16.229  0.5045  0.5943  1.1015
 8126SOL     OW35836   0.073   2.355   5.134  0.0054  0.4526  0.6428
 8126SOL    HW135837   0.042   2.290   5.197  1.3922 -0.2711  0.5610
 8126SOL    HW235838   0.070   2.304   5.053 -1.0205 -0.6353  1.3588
 8127SOL     OW35839   1.092   0.577   3.956 -0.4289 -0.0942  0.1143
 8127SOL    HW135840   1.112   0.484   3.946 -3.1174 -0.4947 -1.5511
 8127SOL    HW235841   1.092   0.575   4.052  0.8105 -1.4433  0.0835
 8128SOL     OW35842   3.588   3.418   1.482  0.2424  0.6000 -0.5993
 8128SOL    HW135843   3.592   3.456   1.394  3.5718  0.3026 -0.5781
 8128SOL    HW235844   3.511   3.362   1.483  0.8419 -0.2118 -0.0029
 8129SOL     OW35845   3.842   0.988   8.489  0.3847 -0.6035  0.1668
 8129SOL    HW135846   3.856   0.934   8.566 -0.7608 -2.7266 -1.1233
 8129SOL    HW235847   3.843   0.937   8.407 -0.0527 -0.5268  0.1126
 8130SOL     OW35848   4.637   1.712  12.894 -0.0559 -0.4243 -0.0938
 8130SOL    HW135849   4.572   1.678  12.833  0.4316 -1.0810 -0.2584
 8130SOL    HW235850   4.603   1.672  12.974 -0.1633  0.9577  0.5462
 8131SOL     OW35851   0.983   2.033   8.803  0.0469  0.0304  0.2905
 8131SOL    HW135852   0.895   2.029   8.767  0.8364  1.1774 -1.7698
 8131SOL    HW235853   0.999   1.945   8.837  1.5222  0.3131  0.3376
 8132SOL     OW35854   1.975   3.910  17.326  0.0060 -0.3780 -0.0888
 8132SOL    HW135855   2.069   3.897  17.320  0.2584  0.9455  0.8817
 8132SOL    HW235856   1.941   3.830  17.286 -1.2401  0.8376 -1.5205
 8133SOL     OW35857   0.728   2.170  11.472 -0.7211  0.0210  0.0280
 8133SOL    HW135858   0.634   2.188  11.476  0.4052  5.7754  0.4302
 8133SOL    HW235859   0.733   2.162  11.377 -0.7544 -0.7853  0.0933
 8134SOL     OW35860   2.422   2.649   4.048  0.0317 -0.8113 -0.0766
 8134SOL    HW135861   2.404   2.648   4.141 -0.2618  1.2585 -0.1000
 8134SOL    HW235862   2.367   2.577   4.019  1.6188 -1.6156 -1.0949
 8135SOL     OW35863   1.026   1.582   6.686 -0.0523 -0.5893  0.0395
 8135SOL    HW135864   0.953   1.559   6.744 -0.7624 -0.0541 -0.6374
 8135SOL    HW235865   1.088   1.521   6.726 -0.0822 -1.0737 -0.6357
 8136SOL     OW35866   0.889   0.236   7.183  0.3354 -0.1058  0.5782
 8136SOL    HW135867   0.846   0.178   7.119  0.9841 -0.0049  0.0550
 8136SOL    HW235868   0.882   0.178   7.259  0.1016 -2.0549 -0.9452
 8137SOL     OW35869   2.448   0.095   7.616  0.4629  0.7223  0.6486
 8137SOL    HW135870   2.368   0.148   7.623 -0.5797 -0.8140  0.4403
 8137SOL    HW235871   2.499   0.154   7.671  3.2243  0.4107 -1.6151
 8138SOL     OW35872   0.646   3.952  12.917 -1.0467  0.2257  0.0057
 8138SOL    HW135873   0.652   3.865  12.877 -0.9002  0.4537 -0.4642
 8138SOL    HW235874   0.611   3.931  13.004 -2.5895  0.3968 -0.5679
 8139SOL     OW35875   1.439   0.199   6.024 -0.1156 -0.3956 -0.2100
 8139SOL    HW135876   1.362   0.144   6.038 -1.8380  1.5658 -1.9445
 8139SOL    HW235877   1.506   0.147   6.069 -0.7099 -1.0249 -0.0645
 8140SOL     OW35878   2.810   0.202  10.863 -0.2453 -0.3809  0.2750
 8140SOL    HW135879   2.814   0.248  10.947 -1.2052  0.2512 -0.0314
 8140SOL    HW235880   2.901   0.175  10.854 -0.3598 -0.7578  0.2456
 8141SOL     OW35881   3.822   2.684  11.585 -0.0426  0.5065 -0.2688
 8141SOL    HW135882   3.785   2.719  11.504 -1.3305  2.3664  1.1093
 8141SOL    HW235883   3.886   2.750  11.613 -0.5803  1.3089 -0.9271
 8142SOL     OW35884   0.933   2.906   3.436 -0.2764 -0.1572 -0.3291
 8142SOL    HW135885   0.920   2.820   3.475  1.1897 -0.8645 -1.3946
 8142SOL    HW235886   0.878   2.887   3.360 -1.2397  3.7208 -0.5998
 8143SOL     OW35887   2.985   0.205   3.435  0.5035 -0.1121  0.1539
 8143SOL    HW135888   2.966   0.181   3.344  4.1331  0.5102 -0.7650
 8143SOL    HW235889   3.075   0.235   3.425  0.0858  0.6045 -1.3875
 8144SOL     OW35890   2.342   4.236   1.463  0.5405 -0.1917 -0.0614
 8144SOL    HW135891   2.437   4.244   1.470  0.3722  1.6236  0.0463
 8144SOL    HW235892   2.337   4.173   1.392 -0.7158  1.0132 -1.0203
 8145SOL     OW35893   3.771   2.292   9.463 -0.1738  0.3767  0.2607
 8145SOL    HW135894   3.721   2.318   9.385  0.6952  1.0484 -0.0748
 8145SOL    HW235895   3.748   2.200   9.472  1.1720 -0.1809 -2.0862
 8146SOL     OW35896   2.336   2.049   3.515  0.1835  0.3684  0.1698
 8146SOL    HW135897   2.412   2.083   3.562  0.5348  1.0139 -0.8451
 8146SOL    HW235898   2.365   1.962   3.489  0.0570  0.4525 -0.2654
 8147SOL     OW35899   0.563   3.105  15.240 -0.0904  0.0005 -0.4598
 8147SOL    HW135900   0.556   3.178  15.177 -2.7081  0.9539  0.9295
 8147SOL    HW235901   0.511   3.046  15.186 -1.4858  1.1476 -0.3830
 8148SOL     OW35902   3.519   1.969   5.048  0.2119 -0.3940  0.1102
 8148SOL    HW135903   3.457   1.900   5.070  2.8507 -2.5993  0.5975
 8148SOL    HW235904   3.504   1.964   4.954 -2.7064  0.3940  0.5314
 8149SOL     OW35905   4.660   1.463  10.685 -0.1694 -0.1198  0.6650
 8149SOL    HW135906   4.701   1.393  10.736  1.7081  0.0840 -0.5439
 8149SOL    HW235907   4.605   1.407  10.630  2.4244 -0.5069 -1.5441
 8150SOL     OW35908   2.096   3.388  10.062  0.2465  0.1209  0.3997
 8150SOL    HW135909   2.061   3.453  10.123  2.2248  0.5602  1.0503
 8150SOL    HW235910   2.189   3.404  10.073  0.0343  0.6260  1.5308
 8151SOL     OW35911   1.151   2.104  13.014 -0.5917  0.2877  0.3398
 8151SOL    HW135912   1.222   2.110  13.078 -0.0860 -1.5168 -0.0579
 8151SOL    HW235913   1.188   2.042  12.951 -2.0477 -2.5413  2.2760
 8152SOL     OW35914   0.826   0.254   5.748 -0.0096 -0.4327 -0.3571
 8152SOL    HW135915   0.830   0.207   5.665 -0.1845  1.2176 -1.2866
 8152SOL    HW235916   0.907   0.218   5.785 -0.9539 -1.0075  1.1448
 8153SOL     OW35917   4.404   1.120   8.112  0.1238  0.3132  0.2649
 8153SOL    HW135918   4.390   1.212   8.090  2.0164  0.4795 -0.2292
 8153SOL    HW235919   4.335   1.119   8.179 -0.9301 -3.1087 -0.8889
 8154SOL     OW35920   2.194   3.462   2.209 -0.3354  0.0910  0.4570
 8154SOL    HW135921   2.228   3.438   2.295  1.2298  0.2339 -0.1123
 8154SOL    HW235922   2.227   3.389   2.155 -1.2811  1.3126 -1.7786
 8155SOL     OW35923   2.592   2.770   9.723 -0.0767  0.0229 -0.5504
 8155SOL    HW135924   2.517   2.829   9.716  0.2246  0.4313 -0.3283
 8155SOL    HW235925   2.578   2.702   9.657  3.6424 -2.4819  1.2588
 8156SOL     OW35926   1.066   1.442   5.591  0.0506  0.6329  0.2504
 8156SOL    HW135927   1.138   1.421   5.531 -0.6685  0.6102 -0.5938
 8156SOL    HW235928   1.013   1.500   5.537  0.7088  1.8829  0.9601
 8157SOL     OW35929   3.995   1.422   9.865  0.2817 -0.1779 -0.0276
 8157SOL    HW135930   4.082   1.462   9.859  0.9379 -1.7954 -1.2105
 8157SOL    HW235931   3.950   1.499   9.900 -1.7957 -0.9954 -0.9084
 8158SOL     OW35932   3.677   1.101   4.065  0.1982 -0.0732  0.5782
 8158SOL    HW135933   3.772   1.109   4.063  0.2364 -1.1700 -1.8051
 8158SOL    HW235934   3.664   1.118   4.159  0.4795  1.0869  0.4135
 8159SOL     OW35935   1.639   3.124  16.597  0.5994 -0.0260 -0.0336
 8159SOL    HW135936   1.613   3.162  16.513 -2.7424 -3.5796 -0.6190
 8159SOL    HW235937   1.557   3.082  16.624  1.8731 -1.1124  2.0742
 8160SOL     OW35938   3.903   3.139  17.044 -0.7347 -0.3566 -0.1848
 8160SOL    HW135939   3.961   3.176  17.110 -0.4751 -2.2142  0.6401
 8160SOL    HW235940   3.960   3.146  16.967 -0.8969 -1.9378 -0.4484
 8161SOL     OW35941   0.817   0.427   5.263 -0.5506  0.3223  0.0485
 8161SOL    HW135942   0.847   0.338   5.277  2.1253  1.1972 -0.0872
 8161SOL    HW235943   0.817   0.457   5.354 -1.2573  2.4306 -0.6353
 8162SOL     OW35944   1.257   3.398   1.371  0.2870  0.4382  0.3147
 8162SOL    HW135945   1.198   3.472   1.355 -1.3467 -1.0390 -0.3590
 8162SOL    HW235946   1.198   3.338   1.417 -0.1784  1.8773  1.6186
 8163SOL     OW35947   1.970   3.705   0.072 -0.7019  0.1691  0.1655
 8163SOL    HW135948   1.919   3.765   0.018  0.8967  0.2230 -1.2579
 8163SOL    HW235949   2.055   3.750   0.069 -0.3424 -0.1861  4.3266
 8164SOL     OW35950   2.621   3.243   6.345  0.1482  0.0322  0.1853
 8164SOL    HW135951   2.633   3.332   6.379 -0.8296 -1.1187  3.5353
 8164SOL    HW235952   2.697   3.201   6.386  1.3235  1.7764 -0.1881
 8165SOL     OW35953   3.481   3.954   3.236  0.1343 -0.2463 -0.4346
 8165SOL    HW135954   3.499   3.971   3.329 -0.5850 -0.8263 -0.1881
 8165SOL    HW235955   3.435   4.033   3.208  0.2327 -0.4628 -1.2115
 8166SOL     OW35956   1.386   1.513  11.135  0.6351  0.2165  0.1051
 8166SOL    HW135957   1.378   1.499  11.229 -0.8106  1.3885  0.1551
 8166SOL    HW235958   1.476   1.546  11.125  0.1736  1.4848  0.1032
 8167SOL     OW35959   4.406   0.074   5.165  0.1585  0.0536  0.1151
 8167SOL    HW135960   4.478   0.138   5.160 -0.7287  1.0288 -0.3499
 8167SOL    HW235961   4.369   0.075   5.077 -0.9692 -1.7927  0.5748
 8168SOL     OW35962   2.624   2.306  17.062 -0.0441  0.2399 -0.4701
 8168SOL    HW135963   2.605   2.262  17.145  1.0877 -0.8258 -0.7846
 8168SOL    HW235964   2.542   2.292  17.014  0.3075 -1.9410 -0.4196
 8169SOL     OW35965   2.877   2.195   3.404  0.0023  0.1557 -0.0197
 8169SOL    HW135966   2.790   2.174   3.438  0.7365 -1.4095  0.8692
 8169SOL    HW235967   2.868   2.157   3.316 -0.6135  1.0780 -0.3643
 8170SOL     OW35968   3.708   1.197  16.750 -0.0510 -0.0532  0.4318
 8170SOL    HW135969   3.791   1.238  16.773  0.7675 -0.8834 -1.0816
 8170SOL    HW235970   3.691   1.249  16.671  1.0532  1.4532  1.1875
 8171SOL     OW35971   4.074   1.163   8.471  0.3074 -0.4164 -0.8628
 8171SOL    HW135972   4.111   1.158   8.382  1.5341  0.7518 -0.3995
 8171SOL    HW235973   4.009   1.092   8.468 -0.7439  0.4407  2.3711
 8172SOL     OW35974   3.554   2.392   4.131  0.5705  0.5028 -0.2271
 8172SOL    HW135975   3.597   2.462   4.082  0.6511 -0.4921 -1.5580
 8172SOL    HW235976   3.620   2.322   4.135  0.9613  0.8893  0.0598
 8173SOL     OW35977   3.151   1.366   8.796 -0.3834 -0.3631  0.4372
 8173SOL    HW135978   3.179   1.292   8.742  0.7447  0.4497 -0.0893
 8173SOL    HW235979   3.060   1.335   8.801 -0.3024 -0.7663 -0.6335
 8174SOL     OW35980   1.462   0.578   4.879  0.5709 -0.3169 -0.7769
 8174SOL    HW135981   1.501   0.594   4.965 -2.6550 -0.4170  0.6915
 8174SOL    HW235982   1.369   0.592   4.898  0.3296 -2.0581 -0.6602
 8175SOL     OW35983   0.529   2.346   2.546 -0.3869 -0.0845  0.1118
 8175SOL    HW135984   0.576   2.263   2.536 -0.3043 -0.0831  0.4926
 8175SOL    HW235985   0.481   2.329   2.627 -0.7961 -0.2982 -0.1711
 8176SOL     OW35986   1.116   2.236   5.830 -0.3956  0.7016 -0.4339
 8176SOL    HW135987   1.054   2.288   5.780 -0.4189  0.8321 -0.2694
 8176SOL    HW235988   1.095   2.259   5.921  0.5495 -1.5546  0.3572
 8177SOL     OW35989   0.981   3.581   5.288  0.2140 -0.2327 -0.2726
 8177SOL    HW135990   0.985   3.617   5.199 -0.2375  2.2374  0.7157
 8177SOL    HW235991   1.009   3.490   5.271  1.3791  0.0807 -0.0585
 8178SOL     OW35992   0.676   0.914   2.771  0.2652  0.0943 -0.3336
 8178SOL    HW135993   0.583   0.900   2.785  0.3138  1.9593  1.8595
 8178SOL    HW235994   0.724   0.850   2.823  1.3010  1.8137  0.8421
 8179SOL     OW35995   2.401   0.632   0.427 -0.1673 -0.4908  0.2268
 8179SOL    HW135996   2.483   0.636   0.476 -1.1475 -0.6034  1.9082
 8179SOL    HW235997   2.334   0.614   0.493 -0.5638  1.1803  0.2786
 8180SOL     OW35998   3.359   2.870   1.410 -0.4743 -0.0921 -0.3269
 8180SOL    HW135999   3.425   2.833   1.352 -0.2063  0.3897 -0.3280
 8180SOL    HW236000   3.281   2.821   1.383 -1.5007  1.7188 -0.6996
 8181SOL     OW36001   2.915   2.035   9.281  0.6706 -0.0081 -0.4676
 8181SOL    HW136002   2.981   2.052   9.348 -0.3616 -0.3413  0.6364
 8181SOL    HW236003   2.867   2.118   9.276 -0.5879 -0.7815 -1.3448
 8182SOL     OW36004   0.280   3.455  11.046 -0.1416  0.0689  0.1872
 8182SOL    HW136005   0.358   3.462  11.102 -0.7946  0.3644  1.0725
 8182SOL    HW236006   0.330   3.417  10.974 -0.5128  0.5406 -0.3182
 8183SOL     OW36007   0.449   4.089  11.277  0.2564  0.8607 -0.6001
 8183SOL    HW136008   0.420   4.176  11.249  2.6183  1.4400 -1.2159
 8183SOL    HW236009   0.461   4.034  11.199  3.6322 -0.1091  0.6026
 8184SOL     OW36010   0.587   1.115  11.148 -0.7438 -0.1890  0.1638
 8184SOL    HW136011   0.549   1.034  11.184  1.5336 -0.7442  1.3185
 8184SOL    HW236012   0.612   1.092  11.059 -0.0200  0.1255  0.2895
 8185SOL     OW36013   1.087   3.955   5.629  0.1522  0.2421  0.4669
 8185SOL    HW136014   1.076   4.050   5.620 -0.4482  0.1654  0.3691
 8185SOL    HW236015   1.042   3.936   5.711 -1.8485  1.9672 -0.2191
 8186SOL     OW36016   2.962   4.112  10.613  0.0277 -0.9240 -0.3841
 8186SOL    HW136017   3.000   4.180  10.668  1.1821 -0.7328 -1.4203
 8186SOL    HW236018   3.043   4.064  10.598  0.1874 -0.7909  0.0551
 8187SOL     OW36019   2.427   2.618   6.519  0.1911 -0.9019  0.0089
 8187SOL    HW136020   2.445   2.709   6.494  1.7607 -1.7942 -2.0798
 8187SOL    HW236021   2.331   2.621   6.516  0.2137  1.0637  0.8967
 8188SOL     OW36022   3.737   3.130   6.760  0.3742  0.0743  0.3730
 8188SOL    HW136023   3.811   3.086   6.717 -0.7012 -0.5388 -0.8438
 8188SOL    HW236024   3.668   3.066   6.744  0.4022 -0.3103  1.7621
 8189SOL     OW36025   4.621   1.307   4.675 -0.0413  0.3419 -0.6536
 8189SOL    HW136026   4.715   1.309   4.659  0.0306 -0.4962 -0.2893
 8189SOL    HW236027   4.587   1.370   4.611 -0.8813  0.4694 -0.0962
 8190SOL     OW36028   0.713   0.863   8.991  0.2477  0.1605  0.5183
 8190SOL    HW136029   0.737   0.953   8.971 -2.6716  0.9401  0.6012
 8190SOL    HW236030   0.756   0.861   9.076  1.7000 -0.6973 -0.2197
 8191SOL     OW36031   0.631   0.081   6.230  1.0063  0.3563 -0.2590
 8191SOL    HW136032   0.668   0.004   6.272 -2.7971 -0.0358  2.3552
 8191SOL    HW236033   0.592   0.035   6.155  1.0601 -0.8311  0.4492
 8192SOL     OW36034   3.778   3.317   1.178 -0.1792  0.4971 -0.0605
 8192SOL    HW136035   3.758   3.253   1.246  1.5182 -0.2167 -0.2179
 8192SOL    HW236036   3.874   3.309   1.175 -0.2933 -0.6317 -0.7616
 8193SOL     OW36037   0.633   0.781   7.443 -0.2982 -0.7178  0.2151
 8193SOL    HW136038   0.560   0.807   7.387 -0.1833 -3.7224 -1.3165
 8193SOL    HW236039   0.706   0.771   7.381  1.0801 -1.4440  1.9571
 8194SOL     OW36040   1.970   3.913   6.810 -0.3160 -0.2536  0.3110
 8194SOL    HW136041   1.971   3.826   6.851 -0.2257 -0.5161 -0.2474
 8194SOL    HW236042   1.945   3.966   6.885 -0.2081  1.7046 -1.0424
 8195SOL     OW36043   1.034   2.187   3.802 -0.1311  0.9331  0.2369
 8195SOL    HW136044   0.953   2.136   3.803  0.0756  0.6155  0.8531
 8195SOL    HW236045   1.085   2.135   3.865  0.3418  0.4847 -0.5225
 8196SOL     OW36046   1.132   4.069   0.253 -0.0919 -0.1087 -0.0224
 8196SOL    HW136047   1.184   3.999   0.212 -0.9387  0.7042 -2.4952
 8196SOL    HW236048   1.192   4.144   0.255  0.5326 -0.5370 -2.1320
 8197SOL     OW36049   2.672   1.287   6.002 -0.4487 -0.8312 -0.4920
 8197SOL    HW136050   2.640   1.216   5.947  0.7900 -0.2312 -1.9820
 8197SOL    HW236051   2.673   1.257   6.093 -0.0966 -1.4385 -0.6957
 8198SOL     OW36052   3.827   1.886  13.129 -0.2971 -0.3479 -0.1965
 8198SOL    HW136053   3.868   1.948  13.189 -2.5677 -1.3771  2.3683
 8198SOL    HW236054   3.807   1.821  13.195  2.5110  0.3469  1.3518
 8199SOL     OW36055   1.860   2.837  16.135 -0.5588 -0.4289  0.0182
 8199SOL    HW136056   1.953   2.832  16.159 -0.2301  1.4509 -0.8911
 8199SOL    HW236057   1.827   2.893  16.205 -0.9783  1.7469 -1.9464
 8200SOL     OW36058   0.803   4.557  10.362  0.6994  0.2422 -0.2395
 8200SOL    HW136059   0.766   4.595  10.282  0.7146 -0.5620 -0.6311
 8200SOL    HW236060   0.838   4.632  10.410 -2.5150 -0.0458  2.4861
 8201SOL     OW36061   1.827   1.137   6.339 -0.7543  0.1921 -0.0437
 8201SOL    HW136062   1.778   1.093   6.270  2.2952  0.6088 -2.4653
 8201SOL    HW236063   1.775   1.132   6.419 -1.9630 -0.0807 -0.8540
 8202SOL     OW36064   0.676   4.299   0.333 -0.6630 -0.1361 -0.2400
 8202SOL    HW136065   0.739   4.228   0.347 -0.2502  0.2145 -0.3054
 8202SOL    HW236066   0.731   4.376   0.347  1.2258 -2.0249  2.5204
 8203SOL     OW36067   4.407   0.829   3.603 -0.3911  0.3328  0.0754
 8203SOL    HW136068   4.413   0.791   3.515 -0.1238 -0.0593  0.2639
 8203SOL    HW236069   4.350   0.772   3.654 -0.2794 -0.3990 -0.6035
 8204SOL     OW36070   3.560   4.183   8.073 -0.0990 -0.5095  0.0604
 8204SOL    HW136071   3.560   4.136   8.156 -0.4563  2.1902  1.5942
 8204SOL    HW236072   3.634   4.243   8.080 -0.3790 -0.3373  1.4954
 8205SOL     OW36073   1.834   0.980  10.404  0.4206 -0.0128 -0.1564
 8205SOL    HW136074   1.824   1.041  10.331  2.1592 -1.1338 -1.3408
 8205SOL    HW236075   1.746   0.957  10.432  0.4989 -0.0187  0.0817
 8206SOL     OW36076   1.825   0.030  16.105  0.1128  0.4727 -0.0785
 8206SOL    HW136077   1.821   0.014  16.199  1.1174  1.2439  0.0893
 8206SOL    HW236078   1.859   0.119  16.098 -0.0974  0.3516 -3.0405
 8207SOL     OW36079   0.734   0.787  17.513 -0.0642 -0.0754  0.0892
 8207SOL    HW136080   0.749   0.725  17.442  1.0881  0.1909  0.1027
 8207SOL    HW236081   0.697   0.727  17.578 -1.4919 -0.2564 -0.8779
 8208SOL     OW36082   2.977   3.552   8.734  0.1787 -0.0988 -0.3456
 8208SOL    HW136083   2.936   3.527   8.651 -0.3550 -0.7029  0.1012
 8208SOL    HW236084   2.999   3.466   8.769  2.0793 -0.0177 -1.3359
 8209SOL     OW36085   3.878   0.326   2.571 -0.5186 -0.1436  0.9609
 8209SOL    HW136086   3.788   0.341   2.542 -0.4210  1.7525  1.6523
 8209SOL    HW236087   3.921   0.333   2.486 -0.9541  0.3336  0.7779
 8210SOL     OW36088   3.814   2.358  13.349 -0.0024  0.2256 -0.3017
 8210SOL    HW136089   3.872   2.332  13.421  0.4919  0.5032 -0.5965
 8210SOL    HW236090   3.863   2.325  13.273 -1.9143  1.0423 -1.8780
 8211SOL     OW36091   0.003   4.638   0.858  0.6586 -0.2345  0.2080
 8211SOL    HW136092   4.719   4.552   0.817 -1.2109  0.1049 -0.1180
 8211SOL    HW236093   0.081   4.622   0.911  1.6990 -0.4255 -1.3769
 8212SOL     OW36094   0.847   1.884   8.458  0.0957 -0.3150 -0.3669
 8212SOL    HW136095   0.801   1.820   8.405 -0.3740  0.2788 -0.6726
 8212SOL    HW236096   0.920   1.827   8.483 -2.3704 -2.4106  1.9931
 8213SOL     OW36097   1.594   0.150  13.651 -0.0401  0.3665 -0.2327
 8213SOL    HW136098   1.500   0.164  13.645  0.0635  1.4833  0.7834
 8213SOL    HW236099   1.605   0.107  13.566 -3.3281 -1.0397  0.0898
 8214SOL     OW36100   2.688   2.617   0.338 -0.0283 -0.4449 -0.0806
 8214SOL    HW136101   2.595   2.593   0.333 -0.1073  0.0294 -0.9652
 8214SOL    HW236102   2.728   2.548   0.284  0.1167  1.8620 -2.9440
 8215SOL     OW36103   1.043   3.785   6.693 -0.7404 -0.2619  0.5804
 8215SOL    HW136104   0.953   3.812   6.675 -0.5972 -1.4991 -2.1021
 8215SOL    HW236105   1.064   3.722   6.625  1.7859  0.5737  0.5822
 8216SOL     OW36106   0.818   1.017   8.423 -0.2648  0.3103  0.5758
 8216SOL    HW136107   0.817   0.948   8.488 -0.9777  0.4537  0.7202
 8216SOL    HW236108   0.737   1.059   8.451 -0.5926 -0.4071  0.6865
 8217SOL     OW36109   3.496   0.961   6.592 -0.0636 -0.4267  0.7957
 8217SOL    HW136110   3.461   1.050   6.596 -0.7145 -0.7805  2.7394
 8217SOL    HW236111   3.431   0.911   6.541  2.3344 -1.7704 -0.9682
 8218SOL     OW36112   1.766   3.797   2.883  0.1677  0.1451  1.1046
 8218SOL    HW136113   1.852   3.772   2.849  0.2246 -0.8476  1.9960
 8218SOL    HW236114   1.700   3.750   2.833  0.6294  0.8760 -0.1967
 8219SOL     OW36115   4.050   3.802   2.540 -0.2430 -0.1502 -0.0970
 8219SOL    HW136116   4.072   3.761   2.456  1.6252  1.2144 -0.2679
 8219SOL    HW236117   4.098   3.885   2.528  0.3964 -0.7524 -1.8197
 8220SOL     OW36118   2.763   2.958  14.502 -0.1919 -1.0029  0.3311
 8220SOL    HW136119   2.748   2.871  14.465  1.6665 -1.5450  0.8483
 8220SOL    HW236120   2.737   3.015  14.430  0.4951 -0.2720  0.6577
 8221SOL     OW36121   1.755   2.299   3.637 -0.6232  0.4105  0.5570
 8221SOL    HW136122   1.811   2.272   3.710  0.6259 -1.0576 -0.9313
 8221SOL    HW236123   1.685   2.237   3.619  0.9577 -1.0505 -0.5539
 8222SOL     OW36124   1.798   1.286  15.512  0.0805 -0.2463 -0.1854
 8222SOL    HW136125   1.809   1.345  15.438 -1.0900  2.1869  1.6138
 8222SOL    HW236126   1.885   1.251  15.534 -0.1775  0.1287  1.4173
 8223SOL     OW36127   2.016   1.723   8.612 -0.0588 -0.5624  0.2786
 8223SOL    HW136128   2.044   1.692   8.526 -0.9414  2.1157 -0.9526
 8223SOL    HW236129   1.942   1.780   8.591  2.4089  2.4664 -0.2287
 8224SOL     OW36130   3.773   3.296   5.701 -0.0896  0.1503 -0.0359
 8224SOL    HW136131   3.846   3.267   5.757 -0.1412 -0.1986 -0.1516
 8224SOL    HW236132   3.800   3.386   5.684 -0.8221  0.5852  1.0824
 8225SOL     OW36133   1.516   3.847   4.211 -0.0481  0.4262 -0.5608
 8225SOL    HW136134   1.471   3.856   4.127 -0.8988 -1.6307 -0.3430
 8225SOL    HW236135   1.464   3.900   4.271  1.3559 -0.6947  1.6526
 8226SOL     OW36136   2.632   1.510  12.575  0.0549  0.4323 -0.2993
 8226SOL    HW136137   2.637   1.605  12.571  0.2531  0.4870  1.1753
 8226SOL    HW236138   2.537   1.512  12.589  0.0670 -1.2268  0.1175
 8227SOL     OW36139   0.042   4.419   3.460 -0.1273 -0.1154 -0.0444
 8227SOL    HW136140   0.132   4.415   3.427  0.2412 -0.0222  0.9580
 8227SOL    HW236141   0.000   4.401   3.375  1.0623  0.4184 -0.7456
 8228SOL     OW36142   0.164   1.857   1.721 -0.5125  0.2752 -0.4254
 8228SOL    HW136143   0.220   1.793   1.677 -2.6511 -1.6976 -0.2755
 8228SOL    HW236144   0.173   1.938   1.670 -0.4046  0.7445  0.3317
 8229SOL     OW36145   1.233   3.141   8.578 -0.1374 -0.0797  0.3330
 8229SOL    HW136146   1.231   3.147   8.482  2.9867 -4.4631 -0.0252
 8229SOL    HW236147   1.319   3.178   8.597  0.8143 -2.1254  0.0707
 8230SOL     OW36148   3.456   2.259   7.466  0.1477  0.1509 -0.2179
 8230SOL    HW136149   3.414   2.238   7.549 -0.1421  0.9013 -0.1818
 8230SOL    HW236150   3.484   2.171   7.440 -0.0436  0.1777 -0.5126
 8231SOL     OW36151   2.280   2.668  16.128 -0.1879  0.3334  0.1556
 8231SOL    HW136152   2.352   2.707  16.078  0.3776  1.1808  1.6192
 8231SOL    HW236153   2.310   2.668  16.219  0.4360  0.6715 -0.0473
 8232SOL     OW36154   1.067   3.603   4.530  0.1975  0.1659 -0.1104
 8232SOL    HW136155   1.052   3.639   4.618  0.3829 -1.5565  0.6193
 8232SOL    HW236156   1.156   3.634   4.511 -0.6983  2.1336 -1.1830
 8233SOL     OW36157   2.949   2.422   2.629  0.2245  0.2141 -0.7559
 8233SOL    HW136158   2.940   2.511   2.595 -2.3189  0.4117  0.4080
 8233SOL    HW236159   2.859   2.390   2.639  0.2361  0.1750 -0.7738
 8234SOL     OW36160   1.448   1.970   2.400  0.1202 -0.0269  0.2285
 8234SOL    HW136161   1.534   1.928   2.401  0.7358  1.2301 -0.2802
 8234SOL    HW236162   1.471   2.054   2.439  1.4093 -0.4968  0.4686
 8235SOL     OW36163   2.841   2.096  10.346  0.1128 -0.4726  0.4418
 8235SOL    HW136164   2.764   2.148  10.323 -1.0520 -2.7061 -0.7682
 8235SOL    HW236165   2.914   2.152  10.322 -1.2749  0.4051 -1.6936
 8236SOL     OW36166   4.001   1.211   9.428 -0.1045 -0.3758  0.5164
 8236SOL    HW136167   3.977   1.125   9.392 -3.7578  1.5598 -1.7111
 8236SOL    HW236168   4.096   1.197   9.429 -0.1841 -1.1215 -2.2889
 8237SOL     OW36169   2.862   1.380   4.502  0.1683  0.3093 -0.2154
 8237SOL    HW136170   2.861   1.386   4.406 -0.6432  2.3540 -0.0755
 8237SOL    HW236171   2.769   1.388   4.525  0.2119 -0.3374  0.1709
 8238SOL     OW36172   2.582   3.676   8.783  0.1906  0.3861 -0.0903
 8238SOL    HW136173   2.586   3.582   8.766 -2.7100 -0.2161  2.5425
 8238SOL    HW236174   2.663   3.692   8.832 -1.4943 -1.2711  3.2481
 8239SOL     OW36175   0.129   1.757   4.692  0.0192 -0.1788  0.4287
 8239SOL    HW136176   0.135   1.747   4.787  0.7745  1.4511  0.5476
 8239SOL    HW236177   0.202   1.703   4.664  1.0458  1.6133 -0.3697
 8240SOL     OW36178   1.067   3.651   0.830  0.7821  0.1088 -0.4188
 8240SOL    HW136179   1.156   3.674   0.804 -0.1231  1.2370 -2.5019
 8240SOL    HW236180   1.026   3.633   0.746  0.6701  0.0287 -0.3477
 8241SOL     OW36181   1.186   0.597   7.536  0.2020 -0.1600  1.0895
 8241SOL    HW136182   1.166   0.507   7.510  0.6116  0.7319 -2.2854
 8241SOL    HW236183   1.250   0.580   7.606  1.8710 -1.0958 -0.6667
 8242SOL     OW36184   2.056   3.496   5.795  0.0417  0.1225 -0.4059
 8242SOL    HW136185   2.118   3.435   5.834  3.1663  1.8464 -2.6234
 8242SOL    HW236186   1.981   3.480   5.852  0.6178  0.6707  0.4983
 8243SOL     OW36187   3.671   1.351  11.244  0.1048 -0.4371  0.3701
 8243SOL    HW136188   3.721   1.429  11.220 -0.7210  0.1330  0.5003
 8243SOL    HW236189   3.741   1.299  11.282 -0.7184 -1.0980  0.9791
 8244SOL     OW36190   1.758   1.065  14.396  0.3420  0.1537  0.2279
 8244SOL    HW136191   1.679   1.118  14.384 -0.8653 -1.4608  1.1334
 8244SOL    HW236192   1.766   1.028  14.484 -1.2201 -1.3875 -0.3031
 8245SOL     OW36193   3.681   4.209   6.533 -0.0994 -0.0270  0.5003
 8245SOL    HW136194   3.741   4.212   6.608 -0.6952  1.2908  0.9249
 8245SOL    HW236195   3.723   4.271   6.474 -0.1017 -1.0843 -0.6041
 8246SOL     OW36196   0.508   2.648   0.140  0.3234  0.2294 -0.1215
 8246SOL    HW136197   0.465   2.659   0.055 -0.3518 -1.4231  0.0030
 8246SOL    HW236198   0.556   2.729   0.155  0.7525  0.3942 -2.3836
 8247SOL     OW36199   2.173   3.914   3.292 -0.2664  0.1988 -0.1310
 8247SOL    HW136200   2.113   3.867   3.349 -0.2438  1.4172  0.9018
 8247SOL    HW236201   2.182   3.857   3.216 -1.9563 -0.0453 -0.1460
 8248SOL     OW36202   4.496   1.324   2.490 -0.3806 -0.4767 -0.0385
 8248SOL    HW136203   4.590   1.318   2.473 -0.3837 -1.4327  0.2733
 8248SOL    HW236204   4.494   1.295   2.581  1.4033 -0.7306 -0.0731
 8249SOL     OW36205   3.583   4.654   2.719  0.1668 -0.3259  0.0568
 8249SOL    HW136206   3.598   0.024   2.714  1.4192 -0.5646 -0.5573
 8249SOL    HW236207   3.668   4.640   2.677  1.6886  0.9712  2.7264
 8250SOL     OW36208   4.599   1.747  15.301  0.1688  0.6913  0.1342
 8250SOL    HW136209   4.527   1.732  15.240 -2.3347  2.0113  2.7861
 8250SOL    HW236210   4.549   1.800  15.363  1.5127  0.5933  1.3152
 8251SOL     OW36211   0.686   0.059  11.786 -1.0816 -0.5533 -0.0463
 8251SOL    HW136212   0.599   0.024  11.766 -1.8229  0.0025  2.2474
 8251SOL    HW236213   0.721   0.075  11.698 -0.1580  1.0353  0.6154
 8252SOL     OW36214   1.012   0.182   7.595 -0.6959 -0.2534  0.0312
 8252SOL    HW136215   1.073   0.234   7.542  1.2374  1.0323  3.5611
 8252SOL    HW236216   0.958   0.141   7.528 -0.4002 -1.8551  0.7850
 8253SOL     OW36217   2.737   0.491   5.066  0.3992 -0.4067  0.0304
 8253SOL    HW136218   2.689   0.418   5.028 -0.3373 -0.5973  1.2899
 8253SOL    HW236219   2.754   0.450   5.151  2.0798  1.6524  0.6699
 8254SOL     OW36220   2.376   3.733   7.230  0.2354  0.6001 -0.1357
 8254SOL    HW136221   2.377   3.637   7.234 -2.1732  0.6111  0.6396
 8254SOL    HW236222   2.382   3.743   7.135 -0.6608 -3.5489 -0.6271
 8255SOL     OW36223   1.833   2.260  10.152 -0.2722 -0.0898 -0.0443
 8255SOL    HW136224   1.836   2.190  10.087  1.5585  0.0811 -0.1326
 8255SOL    HW236225   1.801   2.214  10.230  2.7048 -0.2142  1.0800
 8256SOL     OW36226   4.160   1.081   8.237  0.1771 -0.1508  0.6482
 8256SOL    HW136227   4.164   0.985   8.242  0.4970 -0.2434 -1.2829
 8256SOL    HW236228   4.088   1.089   8.174  1.9484 -3.2833 -1.8006
 8257SOL     OW36229   4.670   3.845   2.359  0.2557  0.3091 -0.2457
 8257SOL    HW136230   4.645   3.766   2.311 -3.3389 -0.0509  2.2195
 8257SOL    HW236231   0.033   3.846   2.322  0.9029  1.2081  1.2940
 8258SOL     OW36232   3.583   2.493   8.666 -0.4989 -0.4786  0.8400
 8258SOL    HW136233   3.554   2.583   8.678 -2.7248 -0.7872 -1.9798
 8258SOL    HW236234   3.520   2.455   8.728 -0.7835 -1.5082 -0.0637
 8259SOL     OW36235   4.302   1.424   0.749 -0.4468 -0.4692  0.2745
 8259SOL    HW136236   4.370   1.357   0.758  0.9099  0.7537 -0.8706
 8259SOL    HW236237   4.361   1.499   0.746 -0.4279 -0.3491  3.6308
 8260SOL     OW36238   3.926   0.128   5.846  0.6671 -0.6174 -0.4261
 8260SOL    HW136239   3.918   0.213   5.801  1.9082 -0.1357  0.2522
 8260SOL    HW236240   4.014   0.097   5.826  1.6112  1.4444  0.5000
 8261SOL     OW36241   1.580   4.508   5.701  0.4595  0.2199  0.3963
 8261SOL    HW136242   1.603   4.598   5.679 -2.1147  1.0740  1.2012
 8261SOL    HW236243   1.642   4.499   5.773 -1.0857  0.8909  1.8322
 8262SOL     OW36244   0.338   3.308   4.928  0.0259 -0.0520  0.7765
 8262SOL    HW136245   0.368   3.273   5.012  2.3012  0.4362  0.1751
 8262SOL    HW236246   0.423   3.328   4.888 -0.1711 -0.8599 -0.0442
 8263SOL     OW36247   3.374   0.625   5.201  0.0838  0.1385 -0.4166
 8263SOL    HW136248   3.435   0.693   5.174  1.7182  0.0180  2.9765
 8263SOL    HW236249   3.295   0.648   5.153 -0.4198  0.8635  0.7487
 8264SOL     OW36250   0.379   4.060   9.298 -0.2679  0.1133  0.0672
 8264SOL    HW136251   0.440   4.044   9.370 -0.0415  0.1090 -0.1239
 8264SOL    HW236252   0.397   3.986   9.240 -2.4945  1.0803 -1.8417
 8265SOL     OW36253   4.391   3.594   7.507 -0.4415 -0.6445  0.4530
 8265SOL    HW136254   4.340   3.674   7.493 -0.3053 -1.3877 -4.3492
 8265SOL    HW236255   4.456   3.623   7.571  1.8255 -1.5098 -1.4621
 8266SOL     OW36256   3.014   2.551  15.682  0.2524  0.7701  0.1172
 8266SOL    HW136257   3.005   2.537  15.588  0.5982 -0.5183  0.2794
 8266SOL    HW236258   2.967   2.635  15.678  1.2988  1.2682 -1.4434
 8267SOL     OW36259   3.423   3.012  17.303 -0.4576  0.3071 -0.0538
 8267SOL    HW136260   3.484   3.086  17.303  0.1041 -0.1662  0.9430
 8267SOL    HW236261   3.345   3.064  17.282 -0.8227 -0.3167 -0.2136
 8268SOL     OW36262   3.475   3.412  13.932 -0.2099  0.2584  0.1271
 8268SOL    HW136263   3.478   3.332  13.880 -0.3159  0.1097  0.3537
 8268SOL    HW236264   3.420   3.473  13.882 -0.0224  0.8191  0.6013
 8269SOL     OW36265   0.894   3.552   3.017  0.0575 -0.3223  0.0126
 8269SOL    HW136266   0.954   3.515   2.952 -1.0669 -0.1568 -1.1191
 8269SOL    HW236267   0.813   3.542   2.966  0.5752 -0.7019 -0.7324
 8270SOL     OW36268   4.570   2.320  16.415  0.3516  0.0519  0.4895
 8270SOL    HW136269   4.490   2.335  16.364  0.7753  2.7479  0.5953
 8270SOL    HW236270   4.641   2.288  16.358  1.7913  1.2584  1.6083
 8271SOL     OW36271   2.098   2.241  14.711 -0.2181  0.5084  0.4286
 8271SOL    HW136272   2.117   2.289  14.630 -1.8594 -1.4201 -1.0967
 8271SOL    HW236273   2.031   2.184  14.673 -0.2127 -0.2114  1.5123
 8272SOL     OW36274   0.308   2.348   0.153  0.1080 -0.5303  0.3179
 8272SOL    HW136275   0.275   2.309   0.234 -0.5078 -0.5560  0.0543
 8272SOL    HW236276   0.398   2.317   0.142 -0.6148 -1.4679 -3.1777
 8273SOL     OW36277   1.116   4.125  14.340 -0.3750  0.0918  0.1318
 8273SOL    HW136278   1.162   4.050  14.378 -0.5473  0.7999  1.7231
 8273SOL    HW236279   1.068   4.159  14.415  0.4838  1.3400  0.1173
 8274SOL     OW36280   2.509   2.065   2.763  0.1353  0.2941 -0.2692
 8274SOL    HW136281   2.595   2.036   2.732  0.4456 -1.3708  2.1146
 8274SOL    HW236282   2.506   2.153   2.727 -3.4443  0.9162  1.6412
 8275SOL     OW36283   4.174   0.223  16.100 -0.1558 -0.0563  0.2098
 8275SOL    HW136284   4.110   0.212  16.171  1.4001 -1.4595  1.3823
 8275SOL    HW236285   4.199   0.315  16.109 -0.4210  0.0210  0.1532
 8276SOL     OW36286   4.131   2.602  11.476  0.4461 -0.1217  0.5525
 8276SOL    HW136287   4.108   2.692  11.500 -0.1141  0.1199 -0.8978
 8276SOL    HW236288   4.223   2.584  11.497  0.6051 -1.0879 -1.0072
 8277SOL     OW36289   4.345   3.581   1.960  0.2527 -1.4049 -0.2772
 8277SOL    HW136290   4.317   3.578   1.869 -0.1279  0.1308 -0.2153
 8277SOL    HW236291   4.381   3.670   1.961 -2.7375 -0.1958  2.2598
 8278SOL     OW36292   1.400   4.134   1.802 -0.9070  0.5093  0.1464
 8278SOL    HW136293   1.486   4.097   1.785 -0.6702  0.5478  1.2585
 8278SOL    HW236294   1.414   4.183   1.883  0.5583  0.5315 -0.1215
 8279SOL     OW36295   1.181   3.522   9.162  0.7516  0.2414 -0.2064
 8279SOL    HW136296   1.168   3.489   9.073 -0.6105 -0.9205  0.4296
 8279SOL    HW236297   1.094   3.556   9.180  0.1350 -0.6745 -1.4652
 8280SOL     OW36298   1.402   1.625   6.887 -0.0992 -0.5359  0.2714
 8280SOL    HW136299   1.372   1.543   6.927 -3.1372  0.4008 -0.1624
 8280SOL    HW236300   1.488   1.621   6.930 -0.4246  0.7490  1.0354
 8281SOL     OW36301   1.726   2.205  12.769 -0.6656  0.1276  0.2097
 8281SOL    HW136302   1.707   2.227  12.861 -1.0807  0.3935  0.0633
 8281SOL    HW236303   1.819   2.225  12.764 -1.1787  2.1952 -1.0319
 8282SOL     OW36304   0.061   0.659   5.355  0.3947 -0.4278  0.8926
 8282SOL    HW136305   0.154   0.678   5.340 -0.1901  0.3236 -1.7611
 8282SOL    HW236306   0.076   0.613   5.438 -0.5415 -2.4044 -0.0247
 8283SOL     OW36307   2.762   1.688   9.933 -0.4950  0.5780  0.5102
 8283SOL    HW136308   2.769   1.773   9.975  0.6802 -0.7149  2.9784
 8283SOL    HW236309   2.851   1.653   9.939 -0.7622 -0.3848 -1.1415
 8284SOL     OW36310   0.996   3.419   4.338 -0.0695 -0.7536 -0.2881
 8284SOL    HW136311   1.041   3.479   4.399 -1.1538 -0.6630  0.4249
 8284SOL    HW236312   0.937   3.475   4.288  1.5775 -0.3671 -1.8113
 8285SOL     OW36313   3.508   4.006   7.875 -0.4981  0.1935  0.4570
 8285SOL    HW136314   3.592   3.979   7.839 -0.2491  0.1728  1.0501
 8285SOL    HW236315   3.514   4.055   7.957  0.5654  0.2596  0.3382
 8286SOL     OW36316   2.422   1.295   4.420  0.1441  0.0391 -0.2945
 8286SOL    HW136317   2.422   1.203   4.392  0.3890  0.2312 -0.9268
 8286SOL    HW236318   2.477   1.286   4.498  0.4345 -0.9966 -0.6161
 8287SOL     OW36319   0.107   3.894   0.705 -0.0213 -0.2949 -0.0929
 8287SOL    HW136320   0.032   3.953   0.706  1.9229  2.2055 -1.6408
 8287SOL    HW236321   0.137   3.900   0.614  1.4239 -1.0086  0.3352
 8288SOL     OW36322   2.150   1.834   5.746 -0.1407 -0.1418  0.1544
 8288SOL    HW136323   2.219   1.854   5.810  0.2717 -2.9620  0.5999
 8288SOL    HW236324   2.186   1.839   5.658 -0.0862  0.0301  0.1867
 8289SOL     OW36325   1.032   4.376   0.242  0.2293  0.1189 -0.2816
 8289SOL    HW136326   1.044   4.319   0.318  0.0625  0.6947  0.1697
 8289SOL    HW236327   0.960   4.428   0.276  0.0328 -0.2534 -0.1316
 8290SOL     OW36328   1.867   1.886   2.048  0.1888  0.0857  0.1287
 8290SOL    HW136329   1.788   1.866   1.999  1.0495 -0.4412 -1.0374
 8290SOL    HW236330   1.939   1.885   1.985  0.2681  1.1850  0.1937
 8291SOL     OW36331   4.481   0.370   3.747  0.1500 -0.1085  0.4139
 8291SOL    HW136332   4.449   0.381   3.658  1.3205 -0.4804 -0.0545
 8291SOL    HW236333   4.492   0.275   3.748  0.6740 -0.0805 -2.0379
 8292SOL     OW36334   3.839   2.226   1.558  0.2029  0.9159 -0.2488
 8292SOL    HW136335   3.783   2.149   1.572 -0.5129  1.5506  0.3443
 8292SOL    HW236336   3.871   2.237   1.647 -2.7528 -1.2289  1.0768
 8293SOL     OW36337   1.490   0.729   6.600 -0.3994  0.3250 -0.3678
 8293SOL    HW136338   1.459   0.753   6.688  1.0266 -3.2554  1.1359
 8293SOL    HW236339   1.530   0.647   6.630 -0.7369  0.0663 -0.6218
 8294SOL     OW36340   4.293   1.467   6.636 -0.5348 -0.7594  0.2812
 8294SOL    HW136341   4.373   1.429   6.600 -0.0352 -1.4559  2.1229
 8294SOL    HW236342   4.312   1.561   6.641  0.3621 -0.9230 -0.1217
 8295SOL     OW36343   0.344   4.545   4.375  0.1149  0.0909  0.4936
 8295SOL    HW136344   0.256   4.581   4.390 -0.3757 -1.0912  0.4956
 8295SOL    HW236345   0.398   4.617   4.344 -0.3062 -0.2645 -1.0549
 8296SOL     OW36346   3.293   4.378  17.305  0.3288  0.0270  0.2393
 8296SOL    HW136347   3.358   4.403  17.239  2.0146 -0.8571  1.5438
 8296SOL    HW236348   3.340   4.306  17.349 -0.1362  0.0293  0.7442
 8297SOL     OW36349   1.847   1.235  16.262  0.2661  0.9668 -0.1580
 8297SOL    HW136350   1.885   1.158  16.304 -2.0907  0.9901  1.9808
 8297SOL    HW236351   1.767   1.199  16.225 -0.2341  0.7715  1.1176
 8298SOL     OW36352   4.114   1.441   5.898 -0.0462  0.2578  0.2778
 8298SOL    HW136353   4.057   1.365   5.912  1.0303 -0.7493 -0.8268
 8298SOL    HW236354   4.098   1.489   5.979 -0.1463 -1.4603  1.2756
 8299SOL     OW36355   0.013   1.593  11.275 -0.2839 -0.2030  0.0536
 8299SOL    HW136356   0.015   1.514  11.329  0.3143 -0.4938 -0.3951
 8299SOL    HW236357   4.649   1.585  11.238 -0.7264  2.8178  0.5063
 8300SOL     OW36358   0.667   2.197   8.859 -0.4020  0.3264 -0.3753
 8300SOL    HW136359   0.689   2.167   8.771 -2.4965 -1.0181 -0.4496
 8300SOL    HW236360   0.712   2.280   8.848  2.0930 -1.0754 -0.6219
 8301SOL     OW36361   2.463   3.956  13.189  0.4553  0.2710 -0.2028
 8301SOL    HW136362   2.432   3.970  13.278 -1.2670 -0.5264 -0.6899
 8301SOL    HW236363   2.558   3.959  13.203  0.9560 -0.0188 -3.5218
 8302SOL     OW36364   2.007   3.148   9.749  0.1230 -0.2048 -0.3609
 8302SOL    HW136365   1.941   3.084   9.776  0.3651 -0.3183 -0.0388
 8302SOL    HW236366   2.070   3.081   9.722  1.1271  0.2514  0.8352
 8303SOL     OW36367   1.922   2.542   6.604 -0.4105  0.0134  0.2309
 8303SOL    HW136368   1.868   2.621   6.610  0.6101  0.9521 -2.9107
 8303SOL    HW236369   1.874   2.497   6.535  2.7575 -0.3907 -1.7181
 8304SOL     OW36370   1.093   2.332   6.365  0.5082 -0.1206  0.1618
 8304SOL    HW136371   1.178   2.314   6.324  0.9162 -0.2217  1.0479
 8304SOL    HW236372   1.082   2.424   6.340 -0.2285 -0.8539 -2.1409
 8305SOL     OW36373   4.327   2.793   3.800  0.1364  0.5331 -0.1670
 8305SOL    HW136374   4.371   2.709   3.814 -0.6719  0.1173 -0.1352
 8305SOL    HW236375   4.272   2.804   3.877  1.5537  1.3579  0.7361
 8306SOL     OW36376   1.084   4.477   1.838 -0.2687  0.0318 -0.3091
 8306SOL    HW136377   1.114   4.463   1.928  2.2640 -0.8632 -1.2900
 8306SOL    HW236378   1.003   4.525   1.857  0.6111  0.4317  2.3850
 8307SOL     OW36379   3.049   4.295  10.805  0.2174 -0.3712 -0.2448
 8307SOL    HW136380   3.109   4.278  10.878 -1.1673 -2.9211  0.2757
 8307SOL    HW236381   2.986   4.345  10.856  0.6203  2.0966 -2.1545
 8308SOL     OW36382   0.496   0.716  11.829 -0.8352 -0.6492  0.6475
 8308SOL    HW136383   0.434   0.667  11.775 -2.8925  0.5302  1.9568
 8308SOL    HW236384   0.475   0.804  11.798  1.5495 -0.3760 -0.1790
 8309SOL     OW36385   0.636   1.512   6.838  0.8245  0.3477 -0.9061
 8309SOL    HW136386   0.722   1.541   6.868 -1.4892  5.2871  0.8684
 8309SOL    HW236387   0.661   1.470   6.755 -0.7664 -1.5771 -0.4008
 8310SOL     OW36388   2.317   0.783  13.351 -0.5423 -0.5000  0.1965
 8310SOL    HW136389   2.307   0.750  13.440  0.6751 -0.2340  0.4253
 8310SOL    HW236390   2.396   0.836  13.355  0.2479 -1.7431  0.9633
 8311SOL     OW36391   1.668   1.000   8.070 -0.2757  0.4780  0.7596
 8311SOL    HW136392   1.623   0.925   8.109 -1.4195  0.3796 -0.7444
 8311SOL    HW236393   1.594   1.058   8.057  0.2341  0.7079 -1.0770
 8312SOL     OW36394   2.234   1.776  12.503  0.3063  0.1318 -0.4494
 8312SOL    HW136395   2.256   1.789  12.595  0.9089  1.8452 -0.8515
 8312SOL    HW236396   2.138   1.769  12.511  0.2753  0.7857 -0.2389
 8313SOL     OW36397   2.278   4.132  15.414  0.4784  0.4703 -0.5141
 8313SOL    HW136398   2.297   4.198  15.348 -1.7167  1.1421 -0.4780
 8313SOL    HW236399   2.184   4.120  15.397  0.0913  0.1310  1.9544
 8314SOL     OW36400   0.219   1.206   5.743  0.8162 -0.1477  0.3072
 8314SOL    HW136401   0.217   1.190   5.649  0.6843  2.5132 -0.1540
 8314SOL    HW236402   0.149   1.271   5.751  0.3382 -0.2768 -3.0856
 8315SOL     OW36403   1.185   1.404   1.536  0.1067 -0.2494  0.0121
 8315SOL    HW136404   1.251   1.436   1.474  0.2049 -0.7817 -0.1578
 8315SOL    HW236405   1.193   1.480   1.594  2.7053  0.7934 -1.6707
 8316SOL     OW36406   1.691   4.707   6.409  0.5582 -0.2025  0.1752
 8316SOL    HW136407   1.741   0.050   6.455 -2.2564  1.4099  0.8377
 8316SOL    HW236408   1.666   4.642   6.475 -2.1284  0.6312 -0.0479
 8317SOL     OW36409   1.914   0.625  17.470  0.1634 -0.0370  0.0877
 8317SOL    HW136410   1.870   0.568  17.407 -0.6206 -3.2894  3.5903
 8317SOL    HW236411   1.989   0.647  17.415 -0.4148 -0.4754 -0.8782
 8318SOL     OW36412   4.487   1.201   0.778  0.9143 -0.5588 -0.2425
 8318SOL    HW136413   4.418   1.141   0.749  1.6734 -1.9838  0.9239
 8318SOL    HW236414   4.549   1.193   0.706  0.0421 -0.6581 -0.9805
 8319SOL     OW36415   2.245   2.585   6.189  0.3477  0.2302 -0.0500
 8319SOL    HW136416   2.172   2.523   6.195  0.1210  0.4673 -0.3253
 8319SOL    HW236417   2.322   2.529   6.184  0.3985  0.4267 -1.5651
 8320SOL     OW36418   2.085   2.756  14.390 -0.6632 -0.4717  0.9026
 8320SOL    HW136419   2.148   2.695  14.351 -1.5474 -0.8913  0.1319
 8320SOL    HW236420   2.105   2.737  14.481  2.2046 -1.1983  0.1412
 8321SOL     OW36421   2.220   2.734   8.473  0.3135 -0.2693 -0.9272
 8321SOL    HW136422   2.194   2.753   8.383  0.6262  0.9910 -0.7388
 8321SOL    HW236423   2.173   2.802   8.520  2.1658 -0.1635  0.7382
 8322SOL     OW36424   3.033   2.691   6.052  0.4153  0.2826 -0.4049
 8322SOL    HW136425   3.059   2.599   6.052 -3.2160 -0.7254 -1.1486
 8322SOL    HW236426   2.981   2.701   5.973 -1.2383  1.8770  0.8970
 8323SOL     OW36427   0.235   3.189   7.607 -0.5735  0.0796  0.6273
 8323SOL    HW136428   0.150   3.220   7.636 -0.7122 -0.5437  0.8959
 8323SOL    HW236429   0.291   3.231   7.673 -1.0164 -0.1457  1.1489
 8324SOL     OW36430   3.662   0.111  16.592  0.1297 -0.3419 -0.5233
 8324SOL    HW136431   3.583   0.137  16.544 -0.7292  1.0332  1.6287
 8324SOL    HW236432   3.618   0.080  16.671  1.3718 -0.6035  0.0570
 8325SOL     OW36433   4.404   1.511  15.878  0.4846 -0.0174 -0.2897
 8325SOL    HW136434   4.394   1.570  15.803 -0.0544  0.6471  0.3208
 8325SOL    HW236435   4.314   1.487  15.897  0.0385 -0.0731 -2.4459
 8326SOL     OW36436   0.616   3.122  10.978  0.1542 -0.4558  0.1789
 8326SOL    HW136437   0.612   3.058  11.049  3.0125  0.5394  1.2176
 8326SOL    HW236438   0.687   3.081  10.929  1.8043  1.3151  1.0837
 8327SOL     OW36439   4.124   4.253   3.235 -0.1417 -0.2325  0.5430
 8327SOL    HW136440   4.052   4.239   3.296  1.0585 -0.6885  1.8548
 8327SOL    HW236441   4.200   4.266   3.291 -1.7947  1.3842  2.3747
 8328SOL     OW36442   0.002   0.595   2.318  0.3470 -0.5271 -0.4475
 8328SOL    HW136443   4.648   0.542   2.303  0.7012 -0.7372 -1.5182
 8328SOL    HW236444   0.069   0.550   2.268  1.0637  0.5667 -0.4623
 8329SOL     OW36445   2.832   3.302   4.090  0.4777 -0.3498  0.3275
 8329SOL    HW136446   2.874   3.271   4.011  3.0377  2.7263  0.4742
 8329SOL    HW236447   2.770   3.369   4.059 -0.4928 -1.8016 -0.8313
 8330SOL     OW36448   2.887   1.766   6.992  0.1587 -0.2332  0.5511
 8330SOL    HW136449   2.918   1.692   6.940  0.7880  0.0026  0.5927
 8330SOL    HW236450   2.860   1.824   6.921 -1.7551 -1.7493  0.0457
 8331SOL     OW36451   4.257   0.716   0.124 -0.4843 -0.0187  0.4487
 8331SOL    HW136452   4.202   0.723   0.046  2.7685 -0.6233 -1.9229
 8331SOL    HW236453   4.320   0.785   0.105  0.6125 -0.6982  1.6154
 8332SOL     OW36454   1.472   4.343  12.316  0.4131  0.0239 -0.3661
 8332SOL    HW136455   1.410   4.331  12.388  0.1077  2.2030 -0.2781
 8332SOL    HW236456   1.506   4.418  12.365  0.7663  0.7485 -1.7283
 8333SOL     OW36457   2.556   1.183  12.788  0.7116  0.2123 -0.0879
 8333SOL    HW136458   2.629   1.242  12.807  0.5273  0.5351 -0.3799
 8333SOL    HW236459   2.478   1.236  12.775  1.0697  1.2197  1.8621
 8334SOL     OW36460   4.175   0.228  15.241 -0.2733 -0.4999  0.2617
 8334SOL    HW136461   4.085   0.213  15.271 -0.2363 -1.2258  0.0034
 8334SOL    HW236462   4.172   0.179  15.160 -5.2358 -1.5801  1.0671
 8335SOL     OW36463   2.503   4.720   4.768 -0.1399  0.0917 -0.1639
 8335SOL    HW136464   2.553   4.669   4.705 -0.2042  1.5629 -1.4077
 8335SOL    HW236465   2.573   0.034   4.821 -1.2903 -1.2106  2.3265
 8336SOL     OW36466   1.306   1.869  14.422  0.5596  0.0099 -0.3811
 8336SOL    HW136467   1.249   1.913  14.485 -0.0351  1.6442 -2.0508
 8336SOL    HW236468   1.320   1.945  14.366 -3.0412 -0.3770 -1.7943
 8337SOL     OW36469   4.136   4.046   8.860 -0.3106  0.0313 -0.3951
 8337SOL    HW136470   4.177   3.960   8.869  1.4079  0.5047 -3.5090
 8337SOL    HW236471   4.128   4.070   8.952  0.1072 -1.2650 -0.0172
 8338SOL     OW36472   3.774   3.182   2.438 -0.1428 -0.0197  0.2939
 8338SOL    HW136473   3.810   3.112   2.492  1.2249  2.0358  2.0715
 8338SOL    HW236474   3.825   3.168   2.358 -0.6785  0.7475 -0.1852
 8339SOL     OW36475   0.899   3.876   5.817 -0.1754 -0.0500 -0.1971
 8339SOL    HW136476   0.812   3.855   5.784  0.3333 -0.6547 -1.1502
 8339SOL    HW236477   0.909   3.792   5.862 -0.4715 -0.2856 -0.5694
 8340SOL     OW36478   4.487   1.087   6.725  0.0944  0.1025 -0.5772
 8340SOL    HW136479   4.532   1.065   6.644  2.3795  1.4057  0.3193
 8340SOL    HW236480   4.527   1.172   6.744 -0.2973 -0.2664  1.9721
 8341SOL     OW36481   1.361   0.984   7.843 -0.1736  0.5340 -0.5471
 8341SOL    HW136482   1.304   0.907   7.839 -0.0359  0.4481 -0.7966
 8341SOL    HW236483   1.310   1.037   7.905 -1.5716 -2.2501  0.6791
 8342SOL     OW36484   0.689   2.568   9.095 -0.8403  0.2842  0.1219
 8342SOL    HW136485   0.690   2.554   9.000  1.7847  2.1517 -0.1326
 8342SOL    HW236486   0.688   2.664   9.103  2.7612  0.5206 -2.1676
 8343SOL     OW36487   1.838   0.432   7.735  0.2339  0.0333  0.1259
 8343SOL    HW136488   1.909   0.488   7.767  0.9936 -0.6553 -0.3128
 8343SOL    HW236489   1.834   0.367   7.805  1.4598  0.9054  1.0202
 8344SOL     OW36490   0.407   1.517   6.449 -0.1022 -0.3471  0.2085
 8344SOL    HW136491   0.322   1.527   6.407 -0.2957  1.8224  1.1303
 8344SOL    HW236492   0.454   1.563   6.379  0.3728 -0.3711  0.5097
 8345SOL     OW36493   2.293   4.512  13.656 -0.5498 -0.2147 -0.0973
 8345SOL    HW136494   2.372   4.563  13.675 -0.5277 -1.1087  2.2317
 8345SOL    HW236495   2.265   4.557  13.577 -2.1745 -0.6066  0.2659
 8346SOL     OW36496   4.407   4.230   3.648  0.2337 -0.0880 -0.4513
 8346SOL    HW136497   4.454   4.255   3.569  0.9710 -1.1762 -0.3608
 8346SOL    HW236498   4.326   4.275   3.626  0.4354  0.0548 -0.9140
 8347SOL     OW36499   4.287   1.455   8.707 -0.0372  0.1198  0.3905
 8347SOL    HW136500   4.198   1.428   8.731  0.0812 -1.0396 -0.5000
 8347SOL    HW236501   4.296   1.381   8.648  0.8261 -0.7770  1.6493
 8348SOL     OW36502   0.226   0.872   8.167 -0.1874  0.2001  0.4258
 8348SOL    HW136503   0.310   0.909   8.193  0.2734 -0.6766  0.1719
 8348SOL    HW236504   0.250   0.795   8.116  2.7690  2.1651 -1.1627
 8349SOL     OW36505   0.302   1.186  12.735 -0.9985  0.2642 -0.2685
 8349SOL    HW136506   0.311   1.268  12.686 -0.1389  1.4670  1.9053
 8349SOL    HW236507   0.393   1.177  12.762 -0.8442  0.8174 -0.6034
 8350SOL     OW36508   4.056   3.230   2.624  0.4780  0.1701  0.1061
 8350SOL    HW136509   4.071   3.291   2.552  0.2747 -0.7354 -0.7143
 8350SOL    HW236510   3.968   3.250   2.658  0.4937 -1.8745  1.3965
 8351SOL     OW36511   0.335   0.458   7.846 -0.6478 -0.4144 -0.1635
 8351SOL    HW136512   0.274   0.463   7.773 -1.8675  1.1177  0.9723
 8351SOL    HW236513   0.419   0.475   7.803 -0.6691 -0.3888 -0.1949
 8352SOL     OW36514   4.724   1.590   3.378 -0.0534 -0.1993 -0.6493
 8352SOL    HW136515   0.065   1.527   3.348  0.7350  0.6614 -0.7289
 8352SOL    HW236516   4.722   1.570   3.471  2.4911 -0.8917 -0.7363
 8353SOL     OW36517   2.159   2.254   3.596  0.1202  0.6215 -0.1713
 8353SOL    HW136518   2.208   2.195   3.537  0.8795 -0.9443  2.0094
 8353SOL    HW236519   2.189   2.227   3.683 -2.5821  0.0870  0.5954
 8354SOL     OW36520   0.152   1.893  10.588  0.4477 -0.2401  0.7382
 8354SOL    HW136521   0.171   1.803  10.616 -0.5075 -1.3854 -2.2639
 8354SOL    HW236522   0.076   1.902  10.645 -1.2369  0.5721 -1.6908
 8355SOL     OW36523   2.467   4.335   5.438  0.3242  0.4185  0.7529
 8355SOL    HW136524   2.469   4.429   5.457  1.4728  0.5486  0.0068
 8355SOL    HW236525   2.382   4.326   5.396 -0.0094 -0.2391  1.5779
 8356SOL     OW36526   4.357   4.701   1.956  0.1933  0.6639  0.3295
 8356SOL    HW136527   4.408   4.620   1.946  0.5545  1.0146 -0.5856
 8356SOL    HW236528   4.405   0.034   1.897 -0.2315  1.1660  0.4754
 8357SOL     OW36529   2.478   4.016   7.892  0.4804 -0.5447  0.6346
 8357SOL    HW136530   2.522   4.012   7.807  1.0969  2.7030  0.8198
 8357SOL    HW236531   2.393   4.050   7.863  0.5644  0.1982  1.2542
 8358SOL     OW36532   4.354   2.723   7.970  0.1640  0.4083  0.4188
 8358SOL    HW136533   4.384   2.633   7.984 -0.3739  0.0711 -0.5653
 8358SOL    HW236534   4.355   2.755   8.060  0.8622 -0.2679  0.6497
 8359SOL     OW36535   2.263   1.346   8.558  0.1148 -0.4094  0.1260
 8359SOL    HW136536   2.214   1.301   8.627  0.4559 -0.9925 -0.0133
 8359SOL    HW236537   2.191   1.380   8.505 -0.3887  0.1548  1.1808
 8360SOL     OW36538   3.014   1.363   3.390  0.3735 -0.1534 -0.4236
 8360SOL    HW136539   3.106   1.341   3.408  0.1063 -2.1195 -1.5578
 8360SOL    HW236540   3.028   1.458   3.388  0.7000 -0.1348  2.0698
 8361SOL     OW36541   0.777   4.171   1.103 -0.6571 -0.0049  0.4761
 8361SOL    HW136542   0.699   4.166   1.047  0.5136  1.0832 -1.2343
 8361SOL    HW236543   0.832   4.221   1.043 -2.3741  0.9830 -0.2967
 8362SOL     OW36544   0.488   3.718   8.344  0.0666  0.1240  0.2416
 8362SOL    HW136545   0.404   3.695   8.383  0.1560 -0.7911 -0.1048
 8362SOL    HW236546   0.538   3.753   8.418 -1.0749  3.0195 -0.3600
 8363SOL     OW36547   4.608   3.894   1.133  0.1772 -0.4159  0.3472
 8363SOL    HW136548   4.683   3.863   1.082  1.1930  0.0692  1.5736
 8363SOL    HW236549   4.540   3.832   1.105 -1.6958  0.9134  2.0386
 8364SOL     OW36550   1.199   3.235  14.531 -0.2809  0.0061  0.7150
 8364SOL    HW136551   1.127   3.246  14.593 -0.3745  0.2971  0.5558
 8364SOL    HW236552   1.169   3.165  14.474 -2.0863  1.3492  0.0269
 8365SOL     OW36553   1.087   3.425  17.655  0.3025 -0.6171 -0.6471
 8365SOL    HW136554   1.036   3.449  17.577 -0.3200 -1.4891 -0.5129
 8365SOL    HW236555   1.154   3.491  17.639  1.0666 -1.1219  0.5426
 8366SOL     OW36556   2.930   1.595   3.634  0.0036 -0.5311  0.3160
 8366SOL    HW136557   2.998   1.617   3.571 -2.0352 -2.4470 -2.5075
 8366SOL    HW236558   2.849   1.583   3.585 -1.8908  0.7686  3.1147
 8367SOL     OW36559   2.118   3.360  17.579 -0.4547 -0.0400  0.1782
 8367SOL    HW136560   2.088   3.270  17.565 -0.1156 -0.0406 -0.5949
 8367SOL    HW236561   2.142   3.355  17.671  0.4169  1.4575  0.0330
 8368SOL     OW36562   2.817   1.993   5.203  0.2899 -0.4549  0.3006
 8368SOL    HW136563   2.821   2.001   5.108 -0.2843  0.1376  0.3245
 8368SOL    HW236564   2.724   2.003   5.222  0.0371 -2.4696  0.0255
 8369SOL     OW36565   4.167   1.761   7.654  0.0347 -0.2511 -0.2429
 8369SOL    HW136566   4.209   1.756   7.568 -1.7584 -1.1405 -1.0671
 8369SOL    HW236567   4.234   1.745   7.721 -0.3523  0.7033  0.3735
 8370SOL     OW36568   4.096   0.612   7.685  0.1980 -0.3376  0.0712
 8370SOL    HW136569   4.112   0.522   7.715  1.9222 -0.4006 -1.0270
 8370SOL    HW236570   4.146   0.665   7.747  1.8486 -2.1745  0.2958
 8371SOL     OW36571   4.651   4.398  14.551 -0.0746 -0.0278 -0.5376
 8371SOL    HW136572   4.591   4.454  14.503  0.6642  1.7406  0.5509
 8371SOL    HW236573   4.623   4.311  14.524  1.5082 -0.8189  0.3363
 8372SOL     OW36574   1.135   1.587   4.755 -0.0307 -0.0058  0.4030
 8372SOL    HW136575   1.173   1.605   4.841 -1.4993  0.1005  1.0201
 8372SOL    HW236576   1.125   1.672   4.712  1.7319 -1.4613 -2.8795
 8373SOL     OW36577   0.124   4.563   7.323 -0.5446 -0.4232 -0.0242
 8373SOL    HW136578   0.213   4.559   7.286 -0.1181 -1.3497  1.1096
 8373SOL    HW236579   0.114   4.481   7.370  0.3343 -0.6102 -0.1531
 8374SOL     OW36580   2.334   3.000   4.078 -0.2504 -0.4788  0.2411
 8374SOL    HW136581   2.278   2.923   4.069 -0.6389  0.0542 -1.9656
 8374SOL    HW236582   2.344   3.018   3.985  0.8105  0.2115  0.4928
 8375SOL     OW36583   0.015   1.154   9.715  0.2413 -1.0335 -0.3588
 8375SOL    HW136584   4.664   1.098   9.697  0.4806 -1.2700 -0.6123
 8375SOL    HW236585   0.036   1.120   9.802  1.3447 -0.3754 -0.3657
 8376SOL     OW36586   4.122   2.119   3.569  0.3913 -0.2660  0.0170
 8376SOL    HW136587   4.135   2.025   3.582  1.4720 -0.2029 -0.6373
 8376SOL    HW236588   4.071   2.114   3.488 -1.0774  0.0794  0.9227
 8377SOL     OW36589   2.804   3.677   1.950 -0.2334 -0.1854  0.5967
 8377SOL    HW136590   2.716   3.676   1.987 -0.4567 -3.8633  0.0051
 8377SOL    HW236591   2.850   3.683   2.034  0.2157  2.0714  0.1762
 8378SOL     OW36592   0.403   4.641  13.010 -0.4021 -0.0733 -0.2311
 8378SOL    HW136593   0.460   4.718  13.008 -2.2174  1.2867 -0.5976
 8378SOL    HW236594   0.468   4.572  13.021 -1.7249 -1.2705  0.2243
 8379SOL     OW36595   4.294   1.964   8.537 -0.0322  0.1423 -0.1771
 8379SOL    HW136596   4.320   1.960   8.629 -0.6474 -4.2540 -0.2236
 8379SOL    HW236597   4.236   2.040   8.542 -0.3937 -0.2800  2.0508
 8380SOL     OW36598   2.382   2.446   2.841 -0.8790 -0.1089 -0.3156
 8380SOL    HW136599   2.470   2.444   2.879 -0.2808  0.1309 -1.6759
 8380SOL    HW236600   2.404   2.387   2.769  1.9675 -1.0725  1.3450
 8381SOL     OW36601   0.778   2.611  17.325  0.1789 -0.1801  0.8049
 8381SOL    HW136602   0.749   2.547  17.391  0.3275 -0.7335  0.3255
 8381SOL    HW236603   0.866   2.619  17.362 -0.0637  0.8963  1.1396
 8382SOL     OW36604   1.794   1.963   6.543 -0.2309  0.3068  0.2142
 8382SOL    HW136605   1.856   1.948   6.472  2.0224  0.3245  2.1648
 8382SOL    HW236606   1.724   1.902   6.523  1.9315 -1.4080 -2.1670
 8383SOL     OW36607   1.892   0.549   3.816  0.7723  0.1238  0.0135
 8383SOL    HW136608   1.874   0.489   3.888 -0.2243 -0.3763 -0.6609
 8383SOL    HW236609   1.855   0.492   3.748  0.2345  1.2612 -0.6518
 8384SOL     OW36610   0.096   3.770   8.039  0.0446 -0.0290  0.0964
 8384SOL    HW136611   0.059   3.857   8.024 -1.0061  0.0155  2.8972
 8384SOL    HW236612   0.186   3.789   8.066 -0.1892 -0.9035  1.4792
 8385SOL     OW36613   3.630   3.179   7.794  0.3890  0.0276 -0.1602
 8385SOL    HW136614   3.675   3.095   7.785  0.5873  0.0171  0.9317
 8385SOL    HW236615   3.543   3.148   7.768  0.7655 -0.5849 -0.6435
 8386SOL     OW36616   3.436   2.495   6.449 -0.2376  0.4463 -0.3033
 8386SOL    HW136617   3.449   2.457   6.536 -0.8228 -3.0189 -1.7655
 8386SOL    HW236618   3.505   2.458   6.395 -0.4560 -2.0174  1.1191
 8387SOL     OW36619   0.379   2.000  11.193 -0.1422 -0.0428  0.2529
 8387SOL    HW136620   0.351   2.084  11.230  0.9429  0.6234 -0.4461
 8387SOL    HW236621   0.355   1.935  11.259  0.9501 -1.2404 -0.5292
 8388SOL     OW36622   0.361   4.152   8.174 -1.3288 -0.2700  0.1518
 8388SOL    HW136623   0.308   4.080   8.139 -1.7044  0.7217 -1.3153
 8388SOL    HW236624   0.404   4.179   8.092 -0.2079 -1.6097  0.2950
 8389SOL     OW36625   4.654   1.684  10.447  0.3572 -0.2249  0.0283
 8389SOL    HW136626   4.641   1.598  10.407 -2.3967 -0.1216  0.6702
 8389SOL    HW236627   4.597   1.739  10.394  0.5074  1.0149  1.1438
 8390SOL     OW36628   4.523   0.893   8.037 -0.4743 -0.1460 -0.3348
 8390SOL    HW136629   4.478   0.975   8.060 -1.9513 -1.8753  2.9664
 8390SOL    HW236630   4.529   0.839   8.116  1.4445 -2.1391 -1.8227
 8391SOL     OW36631   0.481   1.953   3.231 -0.0826  0.0190 -0.9947
 8391SOL    HW136632   0.546   1.906   3.178  0.1296 -1.0903  0.2531
 8391SOL    HW236633   0.404   1.968   3.176 -1.7895  1.2241  1.7689
 8392SOL     OW36634   3.245   3.271   3.191  0.0980  0.3497  0.0080
 8392SOL    HW136635   3.213   3.184   3.168  1.7340 -0.2613 -0.0197
 8392SOL    HW236636   3.256   3.301   3.101 -0.2276 -0.3815 -0.2783
 8393SOL     OW36637   1.425   1.045  12.715  0.4097 -0.8526  0.5661
 8393SOL    HW136638   1.340   1.008  12.740 -0.6452  2.8093  2.4248
 8393SOL    HW236639   1.468   1.049  12.801  2.3583 -2.3835 -0.3340
 8394SOL     OW36640   0.766   4.210  13.072  0.4693  0.0013 -0.0565
 8394SOL    HW136641   0.764   4.197  13.167  0.5603 -0.8744 -0.1710
 8394SOL    HW236642   0.702   4.279  13.054 -0.0978 -0.6438 -0.5375
 8395SOL     OW36643   4.627   2.334   8.583  0.6398  0.1327 -0.1073
 8395SOL    HW136644   4.719   2.311   8.590  0.0443 -1.8462  1.2732
 8395SOL    HW236645   4.621   2.424   8.615 -0.5595 -0.1666  0.4996
 8396SOL     OW36646   2.696   1.457   1.245 -0.4847 -0.7600  0.1135
 8396SOL    HW136647   2.628   1.479   1.309 -0.7541 -0.4391 -0.2846
 8396SOL    HW236648   2.704   1.362   1.260  0.2504 -0.2334  3.0749
 8397SOL     OW36649   2.721   2.656   7.264 -0.1944  0.0528 -0.4989
 8397SOL    HW136650   2.790   2.649   7.198 -1.4133 -1.8109 -1.5815
 8397SOL    HW236651   2.760   2.627   7.347  1.8512  3.6445 -0.2122
 8398SOL     OW36652   3.942   4.032   1.515  0.1753 -0.1718  0.1396
 8398SOL    HW136653   3.967   4.124   1.508  0.0688 -0.1340  0.2682
 8398SOL    HW236654   3.847   4.041   1.506  0.0368 -1.5290  0.2526
 8399SOL     OW36655   4.666   4.578  17.204 -0.9989 -0.4154 -0.3035
 8399SOL    HW136656   4.685   4.661  17.247 -2.4094 -0.3997  0.2973
 8399SOL    HW236657   0.029   4.539  17.213 -0.6786  0.6510  1.2801
 8400SOL     OW36658   2.437   0.180   5.370  0.0290 -0.8788  0.6859
 8400SOL    HW136659   2.371   0.218   5.428 -0.8873 -1.7840  0.2374
 8400SOL    HW236660   2.388   0.160   5.290 -0.6557 -0.7869  1.0766
 8401SOL     OW36661   4.071   1.011  17.552  0.6288  0.2562  0.2195
 8401SOL    HW136662   4.005   1.081  17.544  0.2772 -0.0815  0.1516
 8401SOL    HW236663   4.030   0.949  17.491  3.0308  0.4887 -1.6346
 8402SOL     OW36664   4.126   4.369   4.689  0.0435 -0.0425  0.4407
 8402SOL    HW136665   4.189   4.382   4.618  0.3629 -0.0453  0.7236
 8402SOL    HW236666   4.047   4.345   4.639  0.0316  1.1808 -0.1324
 8403SOL     OW36667   0.461   1.807  10.526 -0.0931  0.2551 -0.5823
 8403SOL    HW136668   0.421   1.723  10.549  0.9220 -0.2826 -0.7773
 8403SOL    HW236669   0.506   1.767  10.452  2.8868 -1.1699  2.0241
 8404SOL     OW36670   3.300   2.791   6.003  0.1834  0.5615  0.3583
 8404SOL    HW136671   3.316   2.886   5.997  2.3980  0.0826 -0.9428
 8404SOL    HW236672   3.205   2.795   5.991 -0.0005 -2.2129  1.0149
 8405SOL     OW36673   4.549   0.892   8.773  0.3748 -0.4224  0.2134
 8405SOL    HW136674   4.538   0.901   8.678 -2.2364  0.3228  0.5683
 8405SOL    HW236675   4.459   0.870   8.797  0.5280  0.3205  1.5143
 8406SOL     OW36676   2.467   1.846  16.746  0.6495  0.4534  0.0605
 8406SOL    HW136677   2.487   1.878  16.834  2.0088 -1.9094  0.6092
 8406SOL    HW236678   2.475   1.930  16.700  2.5542 -0.0810 -0.5797
 8407SOL     OW36679   3.462   4.561   3.587  0.1261  0.3022 -0.3144
 8407SOL    HW136680   3.392   4.626   3.587  0.7023  0.9226  0.7857
 8407SOL    HW236681   3.535   4.604   3.631  0.4868 -1.1954  0.5714
 8408SOL     OW36682   0.649   2.828   7.152 -0.4718  0.7263 -0.1202
 8408SOL    HW136683   0.569   2.875   7.174 -1.0606  0.3474 -1.4450
 8408SOL    HW236684   0.706   2.886   7.100  2.1400  0.2583  2.1933
 8409SOL     OW36685   3.877   3.453  16.031  0.2960  0.7860 -0.2254
 8409SOL    HW136686   3.938   3.509  16.079 -0.5398  0.5409  1.1344
 8409SOL    HW236687   3.800   3.509  16.030  0.2458  0.7017 -1.3307
 8410SOL     OW36688   2.107   2.434   8.677 -0.0069 -0.3291 -0.3856
 8410SOL    HW136689   2.161   2.495   8.728 -0.6222 -0.2141  0.1235
 8410SOL    HW236690   2.095   2.361   8.737 -1.1415  1.6700  1.8310
 8411SOL     OW36691   3.081   2.000   6.434  0.4582  0.2590  0.2039
 8411SOL    HW136692   3.161   1.980   6.385  1.2050  0.8116  1.1914
 8411SOL    HW236693   3.028   1.938   6.384 -0.8377  0.2951  1.5503
 8412SOL     OW36694   0.366   1.084   7.822 -0.8023 -0.1005  0.3897
 8412SOL    HW136695   0.397   1.005   7.866  0.2251 -0.3231 -0.7086
 8412SOL    HW236696   0.449   1.131   7.809 -0.9548  0.0025 -0.2252
 8413SOL     OW36697   0.319   1.414   7.083  0.3264  0.3312  0.6525
 8413SOL    HW136698   0.244   1.400   7.025 -0.4878 -1.7673  2.1730
 8413SOL    HW236699   0.288   1.381   7.167 -2.2334  0.3981 -0.2663
 8414SOL     OW36700   4.694   4.173   6.112  0.6617 -0.4852  0.8178
 8414SOL    HW136701   0.000   4.256   6.148  0.3859 -0.2166  0.4386
 8414SOL    HW236702   4.696   4.186   6.017 -0.4042  0.8186  0.9744
 8415SOL     OW36703   0.786   2.596  16.900  0.3484 -0.7245  0.0929
 8415SOL    HW136704   0.714   2.619  16.960  0.1058  0.7221 -0.7673
 8415SOL    HW236705   0.738   2.558  16.826 -2.6927  3.6995 -0.2299
 8416SOL     OW36706   3.440   1.012  13.895  0.0813  0.0975 -0.1474
 8416SOL    HW136707   3.384   0.935  13.890 -0.4881  0.5462 -0.8173
 8416SOL    HW236708   3.446   1.026  13.989 -0.3875  1.3790 -0.3012
 8417SOL     OW36709   2.808   2.126   6.144 -0.0248  0.0314 -0.1552
 8417SOL    HW136710   2.875   2.096   6.205  0.0290  1.5948  0.5480
 8417SOL    HW236711   2.809   2.214   6.179 -0.7103  0.3247 -0.8680
 8418SOL     OW36712   3.595   1.095   4.337  0.0230  0.1699 -0.4688
 8418SOL    HW136713   3.546   1.119   4.415 -0.6328 -1.5238 -0.3771
 8418SOL    HW236714   3.669   1.041   4.364 -0.6073 -0.5239 -0.1277
 8419SOL     OW36715   2.582   2.601   2.240 -0.0116  0.0362  0.6596
 8419SOL    HW136716   2.511   2.578   2.299 -0.3252  0.3819  0.4162
 8419SOL    HW236717   2.563   2.547   2.163 -0.3627  1.1789 -0.0445
 8420SOL     OW36718   3.172   0.146   9.588 -0.4541 -0.5509 -0.6830
 8420SOL    HW136719   3.151   0.237   9.569 -1.6300 -1.0342 -1.7367
 8420SOL    HW236720   3.115   0.091   9.533  1.0145 -0.1551 -2.6086
 8421SOL     OW36721   0.897   2.409   1.523 -0.4970 -0.3134  0.7506
 8421SOL    HW136722   0.861   2.320   1.523  1.2541 -1.0260 -0.9607
 8421SOL    HW236723   0.861   2.443   1.441  1.9588 -0.3647 -0.3422
 8422SOL     OW36724   0.824   2.072  16.453  0.2573  0.2918  0.9240
 8422SOL    HW136725   0.783   1.994  16.491  0.5024  0.4233  1.4582
 8422SOL    HW236726   0.888   2.026  16.399  1.8585  1.7193  1.6246
 8423SOL     OW36727   1.687   2.710   8.484 -0.3814  0.2621 -0.2210
 8423SOL    HW136728   1.689   2.704   8.388 -1.5847 -1.5261 -0.1222
 8423SOL    HW236729   1.738   2.789   8.500  0.4549 -0.6135  1.3491
 8424SOL     OW36730   2.111   3.337   3.585  0.2839 -0.2315 -0.3584
 8424SOL    HW136731   2.146   3.271   3.646  0.1215  0.0539  0.0457
 8424SOL    HW236732   2.181   3.402   3.581  0.2034 -0.0768  0.5687
 8425SOL     OW36733   0.479   2.047   9.499 -0.1535 -0.4709  0.2194
 8425SOL    HW136734   0.481   2.141   9.481  0.0822 -0.3461  0.9065
 8425SOL    HW236735   0.433   2.017   9.420 -1.0576 -0.5352  0.7659
 8426SOL     OW36736   1.401   2.340   7.787  0.3204 -0.2921 -0.6798
 8426SOL    HW136737   1.372   2.287   7.861  0.3659 -1.0966 -1.2436
 8426SOL    HW236738   1.323   2.339   7.731  0.5471 -0.8077 -0.9829
 8427SOL     OW36739   2.088   2.597   7.318 -0.1762 -0.2167 -0.5398
 8427SOL    HW136740   2.092   2.513   7.273 -0.2989  0.7537 -2.3647
 8427SOL    HW236741   2.007   2.579   7.366  0.5902 -1.5578  0.2423
 8428SOL     OW36742   4.487   3.894   8.136  0.3085 -0.6200 -0.1257
 8428SOL    HW136743   4.435   3.850   8.069  1.1472 -0.4898 -0.8529
 8428SOL    HW236744   4.551   3.943   8.085 -1.2752  0.0114 -1.5371
 8429SOL     OW36745   1.492   1.677   7.415  0.4424 -0.0574  0.3513
 8429SOL    HW136746   1.498   1.772   7.399 -0.1750 -0.1637 -0.5146
 8429SOL    HW236747   1.436   1.675   7.492 -0.2686  2.8422 -0.1010
 8430SOL     OW36748   4.458   1.105   1.449 -0.4085  0.2499 -0.6567
 8430SOL    HW136749   4.490   1.186   1.410  0.8766  0.1296  0.1426
 8430SOL    HW236750   4.371   1.126   1.483 -0.7707 -1.5746 -0.4411
 8431SOL     OW36751   3.007   2.966   2.268 -0.2313  0.0268 -0.5596
 8431SOL    HW136752   2.912   2.961   2.265 -0.2495 -0.1231  0.1329
 8431SOL    HW236753   3.018   2.982   2.362  2.0330  0.4524 -0.8925
 8432SOL     OW36754   1.460   3.313   2.960 -0.0883 -0.3096  0.3015
 8432SOL    HW136755   1.509   3.371   3.019 -3.1401  2.3705  0.2531
 8432SOL    HW236756   1.495   3.238   3.007 -2.6411  0.1474  2.9929
 8433SOL     OW36757   2.068   2.844   3.149  0.4591  0.4425 -0.0194
 8433SOL    HW136758   2.065   2.755   3.184 -2.6372  0.1416 -1.0709
 8433SOL    HW236759   2.091   2.831   3.057  0.7812  1.1368 -0.0378
 8434SOL     OW36760   2.186   2.641  14.597  0.2002 -0.2568 -0.0484
 8434SOL    HW136761   2.170   2.547  14.589  1.9201 -0.6066  0.6916
 8434SOL    HW236762   2.222   2.650  14.686 -0.6692 -1.2535  0.4049
 8435SOL     OW36763   2.246   0.041   2.219 -0.0308 -0.2987 -0.2300
 8435SOL    HW136764   2.176   0.031   2.283 -0.2298 -2.9650 -0.8722
 8435SOL    HW236765   2.307   4.695   2.239 -1.1541 -1.1006  0.3619
 8436SOL     OW36766   3.359   4.615   9.499  0.2426 -0.5079  0.3918
 8436SOL    HW136767   3.304   4.544   9.533 -0.2386 -0.2885  0.0692
 8436SOL    HW236768   3.312   4.685   9.544 -2.3016 -1.8498 -0.1306
 8437SOL     OW36769   3.298   2.822   6.723  0.3497 -0.9719  0.8614
 8437SOL    HW136770   3.257   2.908   6.716  1.3104 -0.6141 -0.3929
 8437SOL    HW236771   3.236   2.764   6.679  1.3910 -0.4168 -1.3403
 8438SOL     OW36772   4.469   2.202   8.069  0.3315  0.3595  0.2575
 8438SOL    HW136773   4.508   2.211   8.156 -0.8378  0.7114  0.7502
 8438SOL    HW236774   4.520   2.271   8.028 -0.2541  0.5851 -0.0948
 8439SOL     OW36775   1.643   3.153  11.089 -0.0688  0.5683  0.2632
 8439SOL    HW136776   1.611   3.074  11.045  1.9523 -1.6749  2.8208
 8439SOL    HW236777   1.569   3.176  11.145 -1.3312 -1.5311 -0.5240
 8440SOL     OW36778   4.474   4.615   0.979  0.6155  0.1068 -0.0908
 8440SOL    HW136779   4.497   4.690   1.034 -1.1271 -1.2254  2.4527
 8440SOL    HW236780   4.553   4.598   0.928  1.3836 -1.2387  1.5325
 8441SOL     OW36781   1.031   1.763   8.647  0.0337  0.1443  0.7744
 8441SOL    HW136782   1.111   1.711   8.640 -0.0235 -0.1538  2.2378
 8441SOL    HW236783   1.056   1.853   8.625  3.2267 -0.3385  2.4200
 8442SOL     OW36784   4.383   2.073   4.346  0.2887  0.1741 -0.0291
 8442SOL    HW136785   4.300   2.091   4.390  2.1854  1.8012  2.9395
 8442SOL    HW236786   4.417   2.158   4.319 -2.2801  1.3029  0.2820
 8443SOL     OW36787   0.805   2.314   6.672  0.2499 -0.3416  0.2462
 8443SOL    HW136788   0.724   2.320   6.620 -0.3365 -2.0908  0.9709
 8443SOL    HW236789   0.784   2.249   6.738 -0.3750  0.8475  1.2141
 8444SOL     OW36790   1.021   3.822   3.800 -0.0008 -0.5124 -0.1335
 8444SOL    HW136791   1.017   3.789   3.711  2.2863  1.6432 -1.0488
 8444SOL    HW236792   1.113   3.847   3.809 -0.2498  0.3469  0.0096
 8445SOL     OW36793   1.348   0.474   6.261 -0.0137  0.5058  0.2593
 8445SOL    HW136794   1.409   0.503   6.193  0.9343  0.2211  0.9870
 8445SOL    HW236795   1.262   0.465   6.220 -0.9544 -1.5766  2.7243
 8446SOL     OW36796   3.120   3.826   6.478 -0.2145 -0.1494  0.1465
 8446SOL    HW136797   3.157   3.912   6.498  1.7603 -1.0455  0.3439
 8446SOL    HW236798   3.175   3.792   6.407 -0.6535  1.2207 -0.8502
 8447SOL     OW36799   2.978   0.983  11.962 -0.1187 -0.0668  0.0838
 8447SOL    HW136800   3.058   0.982  12.014 -0.2763 -0.4392  0.3190
 8447SOL    HW236801   2.993   0.896  11.926 -1.5236 -1.1215  2.0425
 8448SOL     OW36802   3.310   3.283   7.401  0.2475  0.0188  0.7168
 8448SOL    HW136803   3.219   3.305   7.417 -0.1135 -1.3548  0.5566
 8448SOL    HW236804   3.311   3.240   7.315  0.4946  1.7588 -0.1396
 8449SOL     OW36805   2.222   1.053   5.871  0.0840  0.1268 -0.5704
 8449SOL    HW136806   2.148   1.072   5.813 -0.6501 -0.1700  0.2697
 8449SOL    HW236807   2.240   1.135   5.917  0.7088 -0.0977 -0.4042
 8450SOL     OW36808   2.202   1.951   8.598 -0.5486  0.1849  0.5118
 8450SOL    HW136809   2.225   2.010   8.669 -1.4488  0.6904  0.3755
 8450SOL    HW236810   2.153   1.882   8.642  2.0845 -2.6841 -1.0322
 8451SOL     OW36811   0.400   2.683   4.459 -0.8880  0.1403  0.1700
 8451SOL    HW136812   0.365   2.667   4.546 -0.9156 -0.1648  0.1028
 8451SOL    HW236813   0.492   2.661   4.471 -0.4287  2.4439  1.0156
 8452SOL     OW36814   4.039   1.739   2.401 -0.3313  0.2891  0.0206
 8452SOL    HW136815   4.083   1.819   2.429 -2.4882  1.7458 -0.7207
 8452SOL    HW236816   4.035   1.753   2.306  2.2561 -2.1376 -0.4190
 8453SOL     OW36817   2.897   1.176  13.561  0.0604  0.9251 -0.3781
 8453SOL    HW136818   2.881   1.111  13.629  0.1546  1.0112 -0.2752
 8453SOL    HW236819   2.992   1.169  13.563  0.0559  1.2231  0.8439
 8454SOL     OW36820   2.491   2.559   7.222 -0.4511  0.1764 -0.2468
 8454SOL    HW136821   2.470   2.549   7.315  0.5160  0.0853 -0.0350
 8454SOL    HW236822   2.566   2.618   7.230  0.5175 -0.8747 -1.5450
 8455SOL     OW36823   3.415   1.163   0.242 -0.2003  0.3883  0.3930
 8455SOL    HW136824   3.500   1.200   0.266 -0.2810  0.6952  0.2078
 8455SOL    HW236825   3.373   1.232   0.190 -0.2109  0.8772  1.0544
 8456SOL     OW36826   2.067   3.425   7.674  0.7613  0.7671 -0.5713
 8456SOL    HW136827   2.147   3.379   7.699 -0.1455 -0.7978 -0.5872
 8456SOL    HW236828   2.113   3.473   7.605  2.3415 -0.5470 -0.4451
 8457SOL     OW36829   3.179   2.326   7.366 -0.4795  0.0144  0.1141
 8457SOL    HW136830   3.273   2.334   7.348 -0.5087 -1.3949 -0.6614
 8457SOL    HW236831   3.174   2.377   7.447  0.3211  1.5409 -0.8034
 8458SOL     OW36832   2.593   2.815   0.063 -0.3514  0.7067  0.0230
 8458SOL    HW136833   2.632   2.872   0.130  0.3576 -1.0188  1.0718
 8458SOL    HW236834   2.599   2.868  17.684 -0.0405 -0.3188 -0.6375
 8459SOL     OW36835   1.494   3.850   6.196 -0.0810 -0.3441 -0.5563
 8459SOL    HW136836   1.566   3.878   6.139  0.9515 -0.7394  0.5419
 8459SOL    HW236837   1.517   3.759   6.217 -0.1275 -0.4442 -0.9298
 8460SOL     OW36838   4.005   4.126  16.133  0.3866 -0.5025  0.3938
 8460SOL    HW136839   4.089   4.172  16.130  0.3649 -0.6214 -2.1345
 8460SOL    HW236840   3.983   4.109  16.041  2.5507 -1.9981  0.1652
 8461SOL     OW36841   1.172   2.072   7.064  0.0644 -0.3665  0.3924
 8461SOL    HW136842   1.144   2.105   7.150  2.2746  0.3150  0.8520
 8461SOL    HW236843   1.268   2.078   7.061  0.1453 -1.8101  0.0425
 8462SOL     OW36844   0.704   1.567   3.067  0.0003  0.0945 -0.0580
 8462SOL    HW136845   0.652   1.638   3.031  0.2549  0.3232  0.0267
 8462SOL    HW236846   0.797   1.579   3.049 -0.6526  1.9766 -2.1807
 8463SOL     OW36847   0.124   0.278   3.063  0.4578  0.6915  0.2552
 8463SOL    HW136848   0.066   0.244   2.995 -0.5372  0.0380  1.4280
 8463SOL    HW236849   0.208   0.260   3.021 -1.1298 -0.2663 -2.5166
 8464SOL     OW36850   2.714   0.435   4.498 -0.5943 -0.4557  0.5628
 8464SOL    HW136851   2.650   0.477   4.441  0.3372 -2.0813 -1.6599
 8464SOL    HW236852   2.702   0.473   4.585 -0.1221 -0.0028  0.4346
 8465SOL     OW36853   1.895   4.434   3.211  0.0657  0.2586 -0.1940
 8465SOL    HW136854   1.861   4.428   3.300 -0.9835  0.2098 -0.6006
 8465SOL    HW236855   1.889   4.343   3.180 -0.3927  0.1804  0.1330
 8466SOL     OW36856   0.993   4.128   3.645 -0.0340  0.0093 -0.4327
 8466SOL    HW136857   1.018   4.188   3.574 -3.0864  0.9158 -0.7137
 8466SOL    HW236858   1.059   4.058   3.646 -2.3829 -2.1451  1.3358
 8467SOL     OW36859   4.623   2.561   1.329  0.5914  0.2469  0.3905
 8467SOL    HW136860   4.604   2.639   1.276  0.6781  0.9877  1.4434
 8467SOL    HW236861   4.535   2.527   1.346  1.0568 -0.5956  1.0971
 8468SOL     OW36862   3.670   2.652   7.725 -0.2515  0.8308 -0.1152
 8468SOL    HW136863   3.659   2.572   7.675 -0.6831  1.4213 -0.9531
 8468SOL    HW236864   3.765   2.662   7.736 -0.4679 -0.7950  3.3164
 8469SOL     OW36865   2.718   1.041   3.881  0.2647 -0.5425  0.2716
 8469SOL    HW136866   2.801   1.049   3.834  0.8475 -1.5658  1.1190
 8469SOL    HW236867   2.737   0.956   3.922 -0.5259 -1.3922 -1.0893
 8470SOL     OW36868   2.212   4.079   6.706 -0.9740 -0.3599  0.4791
 8470SOL    HW136869   2.234   3.987   6.721  1.9425  0.3501  0.6605
 8470SOL    HW236870   2.292   4.105   6.659 -0.1380 -0.3408  1.8844
 8471SOL     OW36871   0.027   3.537  10.006  0.1062  0.4545 -0.7052
 8471SOL    HW136872   4.697   3.606  10.042  0.7252  0.1477  0.8275
 8471SOL    HW236873   0.114   3.578  10.003  0.2244  0.2774  0.4322
 8472SOL     OW36874   2.226   4.191   2.905  0.2657 -0.4659  0.1072
 8472SOL    HW136875   2.189   4.196   2.993 -1.3525 -1.5685 -0.5119
 8472SOL    HW236876   2.142   4.211   2.864  0.0683 -0.2200  0.6292
 8473SOL     OW36877   0.002   1.187   8.313  0.3975 -0.8611 -0.0397
 8473SOL    HW136878   4.676   1.234   8.246 -0.8006 -0.2032  1.3179
 8473SOL    HW236879   4.712   1.226   8.399 -2.8531 -1.1389 -0.4692
 8474SOL     OW36880   2.263   2.153  13.399  0.3528  0.0916 -0.0713
 8474SOL    HW136881   2.221   2.225  13.351  0.6410 -0.3960 -1.0484
 8474SOL    HW236882   2.236   2.081  13.342 -1.3229  0.7482 -0.1224
 8475SOL     OW36883   0.926   1.223   1.884 -0.3826 -0.0923  0.2637
 8475SOL    HW136884   0.873   1.226   1.963  0.7383  1.5067  0.9510
 8475SOL    HW236885   0.956   1.132   1.879 -3.7824 -1.1481 -0.4569
 8476SOL     OW36886   1.150   3.532   7.541  0.2838  0.3832  0.1453
 8476SOL    HW136887   1.123   3.479   7.465 -1.4331  0.0091  1.0291
 8476SOL    HW236888   1.069   3.563   7.582 -0.1269 -2.4181  1.4239
 8477SOL     OW36889   2.823   1.539   8.543  0.2460  0.3826  0.4934
 8477SOL    HW136890   2.829   1.634   8.553  0.3065  0.2838  1.4434
 8477SOL    HW236891   2.772   1.520   8.622  1.4046 -2.6758  0.5199
 8478SOL     OW36892   4.197   0.623   3.041  0.3312 -0.3137  0.2441
 8478SOL    HW136893   4.248   0.704   3.036  0.1492 -0.1780  0.6078
 8478SOL    HW236894   4.113   0.667   3.034  1.4255  1.7597  0.1754
 8479SOL     OW36895   1.247   2.939  12.400  0.3107 -0.1589  0.3897
 8479SOL    HW136896   1.288   2.995  12.334 -0.3923  0.2581  0.3083
 8479SOL    HW236897   1.322   2.927  12.458  0.6176 -2.7687 -0.5456
 8480SOL     OW36898   1.310   1.731   6.403  0.5051  0.2667 -0.1744
 8480SOL    HW136899   1.234   1.773   6.442  0.1347 -0.5973  0.0517
 8480SOL    HW236900   1.330   1.673   6.477  1.4442 -2.1163 -2.2858
 8481SOL     OW36901   3.754   1.867   6.368 -0.2657  0.7974 -0.2028
 8481SOL    HW136902   3.766   1.957   6.400 -2.2516 -0.1458  3.1385
 8481SOL    HW236903   3.675   1.846   6.417 -1.3307  2.7364 -1.0691
 8482SOL     OW36904   3.723   1.815   4.497  0.0820  0.3222  0.1083
 8482SOL    HW136905   3.772   1.897   4.496 -0.8597  0.8401 -2.0376
 8482SOL    HW236906   3.798   1.757   4.508 -1.4034 -1.3989  1.2903
 8483SOL     OW36907   4.378   4.394  14.716 -0.0454  0.3816 -0.0016
 8483SOL    HW136908   4.462   4.430  14.685  0.9027  0.4102  2.6421
 8483SOL    HW236909   4.331   4.477  14.726  0.6151  0.8478 -0.7129
 8484SOL     OW36910   0.184   2.525   1.868  0.1168  0.2701 -0.1611
 8484SOL    HW136911   0.223   2.580   1.935 -0.4252 -0.2393  0.5833
 8484SOL    HW236912   0.244   2.538   1.795 -2.2614  1.9260 -1.8200
 8485SOL     OW36913   1.869   3.644  10.356  0.2256  0.2147 -0.4869
 8485SOL    HW136914   1.828   3.580  10.297 -1.0730  0.5498  0.0615
 8485SOL    HW236915   1.962   3.645  10.333  0.4526  0.9990  0.4971
 8486SOL     OW36916   0.795   1.354   6.358  0.0535 -0.1090 -0.1685
 8486SOL    HW136917   0.866   1.324   6.302 -2.0128 -0.5279 -2.5225
 8486SOL    HW236918   0.718   1.329   6.307 -0.8933  1.9147  0.2895
 8487SOL     OW36919   0.027   2.907   6.886  0.7154 -0.7909  0.0798
 8487SOL    HW136920   0.109   2.899   6.933 -0.3278 -2.5442  1.5898
 8487SOL    HW236921   4.699   2.856   6.947  0.2951  0.2215  0.5675
 8488SOL     OW36922   2.373   3.428  17.099 -0.4451 -0.1685  0.3916
 8488SOL    HW136923   2.421   3.456  17.022 -0.0009  0.7765  1.0159
 8488SOL    HW236924   2.281   3.435  17.076  0.5615  3.2074 -2.5597
 8489SOL     OW36925   0.512   3.007   2.524  0.2072 -0.0302 -0.1861
 8489SOL    HW136926   0.451   2.939   2.497  0.1315 -0.4031  0.9431
 8489SOL    HW236927   0.564   2.977   2.598  0.3853 -0.2840 -0.4132
 8490SOL     OW36928   1.705   1.804   1.847 -0.5018 -0.0922  0.1176
 8490SOL    HW136929   1.676   1.883   1.801 -0.7536 -1.0948 -1.4394
 8490SOL    HW236930   1.747   1.757   1.775  1.4105  0.0442  1.1370
 8491SOL     OW36931   3.537   0.018   5.091  0.4629  0.1297  0.0280
 8491SOL    HW136932   3.515   4.650   5.085 -1.6495  0.6866 -0.5173
 8491SOL    HW236933   3.471   0.068   5.044  1.9281  2.8410  0.8356
 8492SOL     OW36934   2.502   2.250   9.598 -0.0624 -1.0766  0.2575
 8492SOL    HW136935   2.569   2.182   9.589  1.2401  0.1145  0.9884
 8492SOL    HW236936   2.436   2.223   9.534  1.2245  0.6426 -1.8021
 8493SOL     OW36937   1.220   1.539   4.486 -0.0559 -0.0958 -0.7212
 8493SOL    HW136938   1.190   1.538   4.577  1.5871 -0.9757 -0.2009
 8493SOL    HW236939   1.276   1.616   4.489  3.4719 -2.7110  0.3604
 8494SOL     OW36940   1.578   1.450   3.486  0.1026 -0.0868 -1.0457
 8494SOL    HW136941   1.524   1.524   3.458 -2.0250 -2.1594 -2.3677
 8494SOL    HW236942   1.521   1.376   3.466  1.5344 -1.1443 -1.2373
 8495SOL     OW36943   3.933   1.779   2.124  0.1645  0.1880 -0.1023
 8495SOL    HW136944   3.907   1.687   2.124 -0.8389  0.4389  4.1330
 8495SOL    HW236945   3.917   1.797   2.032 -1.1639 -0.7611 -0.0647
 8496SOL     OW36946   4.047   3.126  17.597  0.0683  0.2460  0.6220
 8496SOL    HW136947   3.990   3.084  17.533 -1.4460  0.8974  1.5264
 8496SOL    HW236948   4.087   3.197  17.547  1.8599 -1.1616  0.0835
 8497SOL     OW36949   0.700   3.374   3.543  0.2269  0.3459  0.6847
 8497SOL    HW136950   0.748   3.291   3.536 -0.8155  0.0432 -2.8313
 8497SOL    HW236951   0.625   3.353   3.599  0.2474  1.8841  1.2855
 8498SOL     OW36952   0.398   2.120   8.958  0.0781  0.0068  0.2993
 8498SOL    HW136953   0.483   2.146   8.924  1.7490 -3.3525  1.8588
 8498SOL    HW236954   0.344   2.148   8.885  0.8254  0.5079 -0.0557
 8499SOL     OW36955   0.673   3.332   0.555  0.2445 -0.0299 -0.2134
 8499SOL    HW136956   0.679   3.427   0.564  2.1896 -0.2087  0.3005
 8499SOL    HW236957   0.747   3.313   0.497  0.9006 -3.9385  1.9406
 8500SOL     OW36958   1.221   2.305  12.737 -0.7015 -0.4414 -0.6541
 8500SOL    HW136959   1.272   2.225  12.752 -0.1413 -0.1194 -0.8305
 8500SOL    HW236960   1.280   2.358  12.790 -1.3519  0.4236 -0.7899
 8501SOL     OW36961   2.245   3.628   5.649  0.1768  0.1151 -0.5910
 8501SOL    HW136962   2.244   3.580   5.566  1.6661  1.8075 -1.5967
 8501SOL    HW236963   2.152   3.614   5.663 -0.4331  2.8103 -1.8870
 8502SOL     OW36964   4.583   3.352   5.475 -0.1866  0.3396 -0.1670
 8502SOL    HW136965   4.595   3.339   5.380 -1.7403  1.4343 -0.4976
 8502SOL    HW236966   4.495   3.388   5.477 -0.4088 -0.2498  0.4731
 8503SOL     OW36967   0.284   2.661   5.591  0.2972  0.2917  0.6324
 8503SOL    HW136968   0.284   2.693   5.501 -1.1627  0.1092  0.5637
 8503SOL    HW236969   0.189   2.653   5.600  0.4919 -0.5789  1.9080
 8504SOL     OW36970   3.092   4.352   6.356 -0.0231  0.0855  0.3203
 8504SOL    HW136971   3.069   4.422   6.296  3.6342  2.4175  1.6727
 8504SOL    HW236972   3.007   4.309   6.362  0.5028 -1.1046 -0.7164
 8505SOL     OW36973   3.025   1.637   1.594  0.5911  0.5941 -0.2851
 8505SOL    HW136974   3.114   1.672   1.597  1.0425 -0.4576 -1.4643
 8505SOL    HW236975   3.040   1.547   1.621  0.5189  0.6863  0.0709
 8506SOL     OW36976   2.362   3.258   0.977  0.6138 -0.2584  0.0676
 8506SOL    HW136977   2.435   3.310   1.011 -1.4839  2.0974  1.0305
 8506SOL    HW236978   2.292   3.269   1.042  0.6039  0.6613 -0.0965
 8507SOL     OW36979   2.330   1.949   5.168  0.4805 -0.5905 -0.6687
 8507SOL    HW136980   2.421   1.937   5.196  1.2392  3.0304 -1.5618
 8507SOL    HW236981   2.309   2.026   5.220  2.9538 -0.3527 -0.0050
 8508SOL     OW36982   4.239   1.526   9.842  0.4298 -0.6545  0.0867
 8508SOL    HW136983   4.249   1.525   9.937  2.0708 -0.7828 -0.0887
 8508SOL    HW236984   4.259   1.616   9.815  0.3761  0.3734  3.5314
 8509SOL     OW36985   1.131   1.856   3.449  0.1550 -0.1659  0.3247
 8509SOL    HW136986   1.111   1.821   3.362  0.8835 -2.2086  0.9654
 8509SOL    HW236987   1.068   1.927   3.458  0.9416  0.3934  1.4405
 8510SOL     OW36988   3.886   1.102  13.052  0.2591  0.0194 -0.1812
 8510SOL    HW136989   3.951   1.042  13.016  0.1756  0.0620 -0.4046
 8510SOL    HW236990   3.864   1.053  13.131 -1.8380 -3.5903 -3.0072
 8511SOL     OW36991   0.444   2.552   6.939 -0.4515  0.3003 -0.2880
 8511SOL    HW136992   0.449   2.464   6.978  0.8685  1.6234  2.5484
 8511SOL    HW236993   0.537   2.563   6.917  0.4549 -3.2064  1.8012
 8512SOL     OW36994   3.677   1.729  12.720 -0.5031  0.0570 -0.6935
 8512SOL    HW136995   3.645   1.646  12.685  2.2588 -1.8529  1.3066
 8512SOL    HW236996   3.767   1.718  12.688 -0.7614 -0.6515 -1.1547
 8513SOL     OW36997   1.835   1.253   4.724  0.1999 -0.1335 -0.5615
 8513SOL    HW136998   1.766   1.305   4.683 -0.7236 -0.9909 -0.0937
 8513SOL    HW236999   1.788   1.211   4.796  0.8704 -0.0586 -0.0765
 8514SOL     OW37000   0.067   2.515  15.586 -0.1107  0.1795 -0.6841
 8514SOL    HW137001   0.038   2.591  15.536 -0.6273 -0.3871 -1.2397
 8514SOL    HW237002   0.161   2.521  15.571  0.4882 -1.3041  2.4949
 8515SOL     OW37003   0.474   1.230   6.899 -0.3634 -0.6193  0.1159
 8515SOL    HW137004   0.500   1.322   6.905 -0.5440 -0.6165  0.8665
 8515SOL    HW237005   0.528   1.192   6.968  0.5504 -0.8956 -0.7544
 8516SOL     OW37006   1.182   3.346   0.702 -0.1492  0.4572 -0.4365
 8516SOL    HW137007   1.236   3.311   0.632 -0.0316 -1.2217  0.4731
 8516SOL    HW237008   1.140   3.423   0.663 -0.7802 -0.7476 -2.1285
 8517SOL     OW37009   1.296   1.586   1.708  0.7589 -0.3986  0.4603
 8517SOL    HW137010   1.354   1.624   1.641 -1.6143  4.2193  1.0501
 8517SOL    HW237011   1.358   1.592   1.781 -0.2315  0.8334  1.1866
 8518SOL     OW37012   2.962   2.196   0.146 -0.3101  0.2349  0.6853
 8518SOL    HW137013   3.048   2.156   0.164  0.1366  1.4198  1.1829
 8518SOL    HW237014   2.911   2.139   0.203 -0.7103 -0.3955 -0.3064
 8519SOL     OW37015   0.827   4.560  15.830  0.3213  0.7288 -0.4551
 8519SOL    HW137016   0.845   4.467  15.821 -0.5734  0.5059  0.0776
 8519SOL    HW237017   0.732   4.573  15.831  0.4382  1.4990  1.1988
 8520SOL     OW37018   0.432   2.284   6.999 -0.3263 -0.4437  0.6081
 8520SOL    HW137019   0.511   2.270   6.947 -0.9362  0.1356 -0.5077
 8520SOL    HW237020   0.371   2.226   6.953  1.1414 -0.9095 -0.7443
 8521SOL     OW37021   2.996   0.519  10.723 -0.0062  0.1984  0.4442
 8521SOL    HW137022   3.059   0.458  10.761  0.8467  0.7055 -0.1618
 8521SOL    HW237023   2.995   0.586  10.792  1.1782  0.6738  0.0005
 8522SOL     OW37024   1.980   0.132   2.343  0.2578 -0.1016  0.0412
 8522SOL    HW137025   1.985   0.161   2.434 -1.8615  1.4690 -0.3357
 8522SOL    HW237026   2.002   0.203   2.283 -0.8960 -0.1483 -0.4476
 8523SOL     OW37027   3.291   1.389   8.399 -0.0074  0.2323  0.1593
 8523SOL    HW137028   3.207   1.397   8.444  0.1606  0.5584  0.4149
 8523SOL    HW237029   3.262   1.395   8.307  1.2024 -1.3214 -0.3056
 8524SOL     OW37030   4.101   2.882   6.435 -0.3481  0.2171 -0.0158
 8524SOL    HW137031   4.088   2.844   6.348 -0.4553  0.7874 -0.2514
 8524SOL    HW237032   4.141   2.967   6.416 -1.8089  0.9240  0.0136
 8525SOL     OW37033   1.933   2.354  12.112 -0.6351 -0.1359  0.0090
 8525SOL    HW137034   1.930   2.419  12.041 -0.1232  0.0042  0.1186
 8525SOL    HW237035   1.981   2.398  12.182 -1.7558 -0.8129  1.1889
 8526SOL     OW37036   0.385   0.948   4.387  0.2447 -0.0111  0.1988
 8526SOL    HW137037   0.315   0.961   4.451 -3.1228 -0.9641 -3.3036
 8526SOL    HW237038   0.426   1.034   4.378  1.7944 -0.6924  0.6115
 8527SOL     OW37039   0.600   4.430  13.033  0.6167  0.0656 -0.1491
 8527SOL    HW137040   0.680   4.483  13.031 -0.1188  1.1818  0.2272
 8527SOL    HW237041   0.586   4.424  12.939  1.5497  0.6328 -0.3274
 8528SOL     OW37042   4.365   3.082   8.826 -0.2743  0.3202 -0.4544
 8528SOL    HW137043   4.272   3.078   8.803  0.0217 -0.1708 -1.5414
 8528SOL    HW237044   4.374   3.054   8.917  2.6910  3.4885  0.2105
 8529SOL     OW37045   0.846   0.220   8.697  0.2598 -0.2407 -1.0707
 8529SOL    HW137046   0.756   0.195   8.676 -0.0893  0.9205 -0.9455
 8529SOL    HW237047   0.848   0.295   8.638 -1.6171  1.1267  0.5720
 8530SOL     OW37048   3.422   3.939   6.160 -0.8104 -0.0731 -0.0777
 8530SOL    HW137049   3.394   4.027   6.185 -2.5535  0.3321 -3.4782
 8530SOL    HW237050   3.367   3.887   6.218  0.0975  1.5580  2.2451
 8531SOL     OW37051   4.378   0.065   6.182  0.5371  0.2310 -0.8030
 8531SOL    HW137052   4.449   0.103   6.129  0.4618  0.5918 -0.6471
 8531SOL    HW237053   4.360   0.138   6.242 -1.1973  0.6553 -1.8407
 8532SOL     OW37054   2.707   2.280   0.609  0.0503 -0.5881 -0.4276
 8532SOL    HW137055   2.801   2.300   0.610 -0.3981  1.3958  1.9335
 8532SOL    HW237056   2.695   2.279   0.514 -1.0768 -2.5556 -0.2497
 8533SOL     OW37057   4.701   2.378   3.901  0.5433  0.2689 -0.6111
 8533SOL    HW137058   0.033   2.386   3.978  0.9617 -0.5197 -0.8359
 8533SOL    HW237059   0.034   2.395   3.827  0.0416  1.9751 -0.6132
 8534SOL     OW37060   0.470   3.947   0.553  0.3392  0.2394  0.4003
 8534SOL    HW137061   0.554   3.993   0.543 -0.4670  1.0560 -2.5261
 8534SOL    HW237062   0.457   3.945   0.648 -1.8616  1.4757  0.1139
 8535SOL     OW37063   0.333   2.602   4.704 -0.4717  0.2053 -0.3699
 8535SOL    HW137064   0.249   2.625   4.743 -0.1690 -0.4725  0.6933
 8535SOL    HW237065   0.359   2.542   4.774  0.7794  1.5342  0.3065
 8536SOL     OW37066   2.892   4.635  13.049  0.6606  0.1735  0.0877
 8536SOL    HW137067   2.984   4.657  13.063 -0.1767  2.8527  1.3491
 8536SOL    HW237068   2.905   4.606  12.958  1.0820 -0.4117  0.3383
 8537SOL     OW37069   4.179   0.137   2.413 -0.1925  0.2989  0.2756
 8537SOL    HW137070   4.212   0.190   2.485  0.3179 -0.0323  0.2841
 8537SOL    HW237071   4.182   0.056   2.465  0.8572  0.1412 -0.0399
 8538SOL     OW37072   3.439   3.101   4.562  0.4265  1.0303 -0.0310
 8538SOL    HW137073   3.477   3.020   4.527 -2.1516  0.5785 -1.7667
 8538SOL    HW237074   3.378   3.122   4.491 -0.1598  0.3481  0.2628
 8539SOL     OW37075   0.715   3.405   6.240  0.2672  0.3412 -0.4654
 8539SOL    HW137076   0.748   3.417   6.151 -1.6970  0.2876 -1.2026
 8539SOL    HW237077   0.761   3.324   6.261  3.7210  1.8670 -2.1258
 8540SOL     OW37078   3.205   4.096  17.127  0.3630  0.0813  0.5638
 8540SOL    HW137079   3.113   4.096  17.154  0.5352 -2.7368  1.0930
 8540SOL    HW237080   3.195   4.179  17.079  0.0315  0.1135  0.6824
 8541SOL     OW37081   2.291   2.292   5.245 -0.1593  0.6077 -0.5363
 8541SOL    HW137082   2.198   2.289   5.223 -0.0939 -2.2130 -0.3806
 8541SOL    HW237083   2.324   2.334   5.165  0.2654 -0.7022 -1.0421
 8542SOL     OW37084   3.127   3.470  14.570  0.5730  0.2970 -0.6234
 8542SOL    HW137085   3.214   3.482  14.609 -0.4864  1.9421  1.1964
 8542SOL    HW237086   3.113   3.555  14.528 -5.1435  0.1701  0.9887
 8543SOL     OW37087   2.637   1.653  13.244  0.6973  0.2784 -0.5502
 8543SOL    HW137088   2.549   1.647  13.281  0.8601 -1.2693 -0.4106
 8543SOL    HW237089   2.621   1.729  13.188 -0.2073  1.5328  1.4456
 8544SOL     OW37090   0.746   2.179   1.737 -0.4357 -0.4881  0.0737
 8544SOL    HW137091   0.736   2.192   1.831  2.6051  0.5950  0.2298
 8544SOL    HW237092   0.824   2.126   1.727  0.2950  0.6936 -0.4898
 8545SOL     OW37093   2.645   0.703   6.054  0.2984 -0.5049 -0.4788
 8545SOL    HW137094   2.569   0.688   6.110 -0.4139  0.3279 -1.2250
 8545SOL    HW237095   2.696   0.623   6.070  1.0163  0.2032  0.8603
 8546SOL     OW37096   2.040   0.939   0.129  0.2521  0.4316 -0.1963
 8546SOL    HW137097   2.132   0.913   0.133  0.3399  0.8982  0.8899
 8546SOL    HW237098   1.993   0.858   0.109 -0.2788  0.6366  0.2151
 8547SOL     OW37099   1.164   4.141  12.126  0.3914 -0.0876 -0.7486
 8547SOL    HW137100   1.085   4.089  12.137 -0.1198  0.7138 -0.6804
 8547SOL    HW237101   1.200   4.123  12.213 -0.7541  4.0882  0.5928
 8548SOL     OW37102   1.365   0.876  14.829 -0.2341  0.1194  0.1201
 8548SOL    HW137103   1.369   0.919  14.743 -2.4643 -1.1100 -0.6270
 8548SOL    HW237104   1.288   0.923  14.862 -1.0364  0.0122 -1.5614
 8549SOL     OW37105   4.671   1.418  11.464 -0.4904  0.0293 -0.1089
 8549SOL    HW137106   0.010   1.381  11.525  0.2225 -0.8018 -1.3473
 8549SOL    HW237107   4.610   1.344  11.460  0.1514 -0.4514 -1.1482
 8550SOL     OW37108   0.841   2.774   0.733  0.4582 -0.5408 -0.1149
 8550SOL    HW137109   0.852   2.869   0.739  1.4624 -0.6693  0.1240
 8550SOL    HW237110   0.928   2.735   0.722 -0.2270 -1.8464 -0.8540
 8551SOL     OW37111   2.866   0.470   2.166  0.3148  0.4672  0.2956
 8551SOL    HW137112   2.846   0.561   2.145 -4.2635 -0.9953 -1.7054
 8551SOL    HW237113   2.803   0.456   2.236  0.9860 -0.2057  0.7670
 8552SOL     OW37114   4.586   3.092   9.331  0.8310  0.6457  0.4687
 8552SOL    HW137115   4.613   3.170   9.282  0.5093 -0.3372 -1.2950
 8552SOL    HW237116   4.641   3.109   9.407  1.4015  2.6561 -0.3806
 8553SOL     OW37117   0.026   0.858   4.236  0.2648  0.0276 -0.2579
 8553SOL    HW137118   4.707   0.940   4.262  0.5684  0.8596 -2.3902
 8553SOL    HW237119   4.694   0.800   4.288  0.5218 -0.8197 -0.9272
 8554SOL     OW37120   0.396   2.592   7.802 -0.5107 -0.3180 -0.3980
 8554SOL    HW137121   0.410   2.595   7.896  2.8529  1.0662 -0.9100
 8554SOL    HW237122   0.478   2.573   7.756 -0.3484  0.7772 -0.5731
 8555SOL     OW37123   2.042   2.972   9.365  0.0755 -0.2833  0.4249
 8555SOL    HW137124   2.059   2.880   9.341 -0.3977 -0.5094  0.9721
 8555SOL    HW237125   1.975   2.992   9.300  0.2674  2.6247  1.1402
 8556SOL     OW37126   1.681   4.082   5.437  0.1972 -0.7285  0.0826
 8556SOL    HW137127   1.733   4.003   5.422 -1.5991 -1.8075 -0.5791
 8556SOL    HW237128   1.634   4.063   5.518 -2.3037 -0.8122 -1.3514
 8557SOL     OW37129   2.167   3.844   5.882  0.2660  0.1449 -0.2450
 8557SOL    HW137130   2.185   3.904   5.955 -0.9573  1.5861 -1.1194
 8557SOL    HW237131   2.247   3.856   5.831  1.3289 -1.9215  0.9542
 8558SOL     OW37132   1.219   4.418  17.235  0.4561  0.5977  0.3301
 8558SOL    HW137133   1.305   4.451  17.212  0.3806 -0.7193 -1.8588
 8558SOL    HW237134   1.214   4.333  17.190 -1.4233  2.1335 -2.3706
 8559SOL     OW37135   3.369   2.039   2.221  0.9019 -0.2863 -0.2037
 8559SOL    HW137136   3.355   2.133   2.236 -1.2490 -0.5487 -0.5496
 8559SOL    HW237137   3.293   2.017   2.166 -0.6590  1.8115  1.0608
 8560SOL     OW37138   4.048   2.918   8.321  0.0013  0.0316  0.2811
 8560SOL    HW137139   4.051   3.011   8.298 -0.5601  0.0690  0.3539
 8560SOL    HW237140   4.112   2.921   8.392  0.6697  0.5695 -0.3403
 8561SOL     OW37141   3.671   2.101  16.701  0.4902  0.4071  0.0999
 8561SOL    HW137142   3.652   2.191  16.677 -1.1678 -0.3349 -1.3148
 8561SOL    HW237143   3.763   2.106  16.730 -0.1103 -1.2545  2.3324
 8562SOL     OW37144   0.894   3.989   0.048 -0.2017 -0.0911  0.3193
 8562SOL    HW137145   0.977   4.013   0.008  0.4403  0.5140  2.0066
 8562SOL    HW237146   0.919   3.903   0.083  1.1824  0.8452  1.6248
 8563SOL     OW37147   1.202   4.723  14.408 -0.1879 -0.4387 -0.0755
 8563SOL    HW137148   1.282   4.675  14.385  1.0950  1.6811  0.0001
 8563SOL    HW237149   1.146   4.665  14.357 -2.6975  0.4413  1.7192
 8564SOL     OW37150   4.278   0.124   9.712  0.5679 -0.0508 -0.3639
 8564SOL    HW137151   4.279   0.119   9.808 -1.7161  0.1044 -0.3433
 8564SOL    HW237152   4.359   0.171   9.693 -0.5414  2.1814  0.5202
 8565SOL     OW37153   4.317   0.084  16.540  0.1290  0.3068 -0.3875
 8565SOL    HW137154   4.299   0.173  16.509 -3.1661 -0.7551 -1.6139
 8565SOL    HW237155   4.304   0.084  16.635 -1.1807  0.4863 -0.5575
 8566SOL     OW37156   0.926   3.261   0.424 -0.0759  0.1842  0.2902
 8566SOL    HW137157   0.950   3.278   0.333  2.1127 -1.7654  0.5104
 8566SOL    HW237158   0.934   3.166   0.432  3.1021  0.4276 -0.0510
 8567SOL     OW37159   3.533   1.205  16.975  0.6841 -0.2425  0.5522
 8567SOL    HW137160   3.592   1.198  16.900 -0.7847  1.9438 -0.8454
 8567SOL    HW237161   3.529   1.300  16.988 -2.7444 -0.6669  2.8272
 8568SOL     OW37162   2.533   0.535   7.818 -0.0288  0.5739 -0.0327
 8568SOL    HW137163   2.540   0.528   7.913 -2.2231  0.9900  0.1551
 8568SOL    HW237164   2.599   0.604   7.807 -0.4459  1.2098  1.5235
 8569SOL     OW37165   2.464   2.450   3.209 -0.3164  0.0184 -0.2533
 8569SOL    HW137166   2.465   2.356   3.190  1.1451 -0.0420  0.0881
 8569SOL    HW237167   2.555   2.453   3.238 -0.5152 -1.1157  0.4981
 8570SOL     OW37168   1.941   3.203   6.339 -0.5072 -0.4601 -0.2436
 8570SOL    HW137169   1.867   3.178   6.394  0.9969 -2.7161  0.7440
 8570SOL    HW237170   2.014   3.207   6.401  1.0973 -0.5361 -2.1465
 8571SOL     OW37171   1.058   0.218   7.878  0.1997 -0.2636 -0.3176
 8571SOL    HW137172   1.090   0.306   7.861 -0.2277 -0.2586 -1.0790
 8571SOL    HW237173   1.021   0.193   7.794  0.8155  2.5403 -1.4014
 8572SOL     OW37174   1.475   2.379   1.368  0.1732 -0.2439  0.3762
 8572SOL    HW137175   1.569   2.391   1.357  0.2479  0.1164  1.4125
 8572SOL    HW237176   1.446   2.450   1.425 -0.7168 -0.0099 -0.3557
 8573SOL     OW37177   2.977   4.280   5.520 -0.3934 -0.1200  0.1099
 8573SOL    HW137178   3.016   4.366   5.534  0.7648 -0.5874 -0.2968
 8573SOL    HW237179   3.017   4.222   5.584 -1.7437  0.5830  1.5984
 8574SOL     OW37180   2.265   1.929   3.146 -0.8591 -0.0524 -0.3846
 8574SOL    HW137181   2.212   1.988   3.092 -0.7090  1.5343  1.2084
 8574SOL    HW237182   2.278   1.975   3.229  0.4445 -3.2057  1.1514
 8575SOL     OW37183   2.142   3.176   5.072 -0.0282  0.3943 -0.0300
 8575SOL    HW137184   2.115   3.149   4.984  0.2963 -0.9148  0.2759
 8575SOL    HW237185   2.202   3.106   5.098  0.6904  1.4415  1.1137
 8576SOL     OW37186   3.729   3.966  15.686 -0.5012  0.0065  0.1986
 8576SOL    HW137187   3.649   4.010  15.717  0.3602  1.0409  0.9616
 8576SOL    HW237188   3.757   4.030  15.620 -1.6997  0.8453  0.4928
 8577SOL     OW37189   0.918   2.671   0.355 -0.3558  0.1428 -0.1724
 8577SOL    HW137190   1.008   2.668   0.322 -0.9276 -0.4602 -1.6750
 8577SOL    HW237191   0.939   2.676   0.449 -0.8164 -1.9152  0.0380
 8578SOL     OW37192   0.945   0.533   3.289  0.4998 -0.6270 -0.1156
 8578SOL    HW137193   0.938   0.505   3.198 -4.0944 -2.0755  0.7174
 8578SOL    HW237194   1.012   0.476   3.326 -0.3450 -1.5215  0.0182
 8579SOL     OW37195   0.235   2.354  16.679 -0.5022  0.2523  0.2930
 8579SOL    HW137196   0.236   2.440  16.639 -1.4935 -0.6818 -1.7175
 8579SOL    HW237197   0.281   2.306  16.610 -0.6438 -1.9339  1.7108
 8580SOL     OW37198   4.272   1.794  10.526 -0.0259  0.1353 -0.4057
 8580SOL    HW137199   4.287   1.728  10.458 -1.0614  1.7846 -2.2527
 8580SOL    HW237200   4.184   1.827  10.507 -0.0330 -1.0847 -2.4909
 8581SOL     OW37201   4.135   2.624   8.212  0.3807  0.2270 -0.6005
 8581SOL    HW137202   4.118   2.712   8.244 -2.9865 -0.4765 -0.3809
 8581SOL    HW237203   4.045   2.607   8.184  0.2035 -0.7517  0.5763
 8582SOL     OW37204   0.177   1.715   0.043 -0.2631  0.5071 -0.1466
 8582SOL    HW137205   0.249   1.771   0.071  0.4003 -1.3739  1.8477
 8582SOL    HW237206   0.143   1.708   0.132  1.0220  3.5150  0.6004
 8583SOL     OW37207   0.029   2.290  10.101  0.0111  0.0429 -0.6862
 8583SOL    HW137208   4.691   2.220  10.117 -0.1148  0.2359 -0.3416
 8583SOL    HW237209   4.688   2.353  10.072 -1.4717 -1.1328  0.1431
 8584SOL     OW37210   2.075   1.088   7.645 -0.6834 -0.5945 -0.4588
 8584SOL    HW137211   2.037   1.157   7.591 -1.0398 -2.5214 -2.6738
 8584SOL    HW237212   2.107   1.027   7.578  0.2877 -2.7029  1.9189
 8585SOL     OW37213   1.266   3.440   8.219  0.1194  0.2428 -0.3615
 8585SOL    HW137214   1.185   3.471   8.260  0.5952  1.4611 -0.3521
 8585SOL    HW237215   1.304   3.521   8.187 -1.5440  1.3219  0.4253
 8586SOL     OW37216   0.090   0.345   4.115  0.1426  0.0965  0.3431
 8586SOL    HW137217   0.165   0.405   4.120  0.4338 -0.2759  0.4427
 8586SOL    HW237218   0.044   0.392   4.046 -0.6301 -0.5856  0.3895
 8587SOL     OW37219   1.639   3.075   3.012  0.1876 -0.9144 -0.0964
 8587SOL    HW137220   1.617   2.992   2.970 -1.2089 -1.7128  2.1845
 8587SOL    HW237221   1.725   3.089   2.973 -1.3240 -0.3538 -3.2322
 8588SOL     OW37222   0.861   1.551   9.581  0.0222 -0.4538  0.3685
 8588SOL    HW137223   0.872   1.593   9.667  0.3782 -2.9571  1.5366
 8588SOL    HW237224   0.795   1.609   9.543  0.2652  0.5295  1.4573
 8589SOL     OW37225   2.316   1.874   2.787  0.1215  0.0878  0.2724
 8589SOL    HW137226   2.386   1.937   2.769 -0.8903  0.9478 -0.6427
 8589SOL    HW237227   2.238   1.918   2.818  0.2826  0.3328  0.3272
 8590SOL     OW37228   2.291   2.526   7.762 -0.2797  0.4048  0.0273
 8590SOL    HW137229   2.199   2.513   7.737  0.0783 -0.2765 -0.9549
 8590SOL    HW237230   2.274   2.570   7.845 -1.5595 -2.4286  1.2543
 8591SOL     OW37231   0.828   2.311  10.447 -0.3660  0.4717 -1.0345
 8591SOL    HW137232   0.827   2.263  10.364  4.8524  0.5161 -1.1246
 8591SOL    HW237233   0.921   2.315  10.467 -0.2716  1.5211 -1.6316
 8592SOL     OW37234   0.662   4.152   3.071 -0.4323  0.2925  0.5293
 8592SOL    HW137235   0.643   4.169   3.163 -0.7601  1.4949  0.2438
 8592SOL    HW237236   0.682   4.059   3.062 -2.4563 -0.0862 -0.1180
 8593SOL     OW37237   3.710   1.535  10.966  0.3969 -0.3460 -0.0192
 8593SOL    HW137238   3.744   1.543  10.877 -0.4299 -0.1960 -0.3278
 8593SOL    HW237239   3.650   1.461  10.954 -1.4564  1.0853  0.4375
 8594SOL     OW37240   2.036   3.013   2.649  0.1878 -0.2894  0.3003
 8594SOL    HW137241   2.130   3.005   2.635  0.1659  0.5539 -0.3710
 8594SOL    HW237242   2.004   2.984   2.564 -2.2853  2.0647  0.3974
 8595SOL     OW37243   0.797   4.258   7.949  0.1488 -0.0898  0.1259
 8595SOL    HW137244   0.857   4.183   7.958 -0.1809 -0.3425  0.2215
 8595SOL    HW237245   0.842   4.323   8.003 -1.8320 -0.4875  2.2826
 8596SOL     OW37246   1.116   3.572   5.751 -0.3102  0.2825 -0.1855
 8596SOL    HW137247   1.079   3.573   5.663 -1.7583 -2.8132  0.4005
 8596SOL    HW237248   1.143   3.483   5.771 -2.2511 -0.1142  0.6710
 8597SOL     OW37249   0.153   3.446   0.706  0.5624  0.2353  0.4500
 8597SOL    HW137250   0.075   3.500   0.702  0.4733  0.0345 -0.4370
 8597SOL    HW237251   0.225   3.509   0.712  1.1747 -0.3783 -0.4436
 8598SOL     OW37252   1.026   1.915  11.965  0.3181 -0.4814  0.0349
 8598SOL    HW137253   0.974   1.940  11.888  1.2866 -0.9901 -0.7755
 8598SOL    HW237254   0.958   1.909  12.033 -0.7381  1.4383 -0.8486
 8599SOL     OW37255   2.280   0.509   7.682 -0.3304 -0.0061 -0.8970
 8599SOL    HW137256   2.375   0.494   7.683 -0.2814  0.4787  0.4924
 8599SOL    HW237257   2.275   0.571   7.609 -1.8125  0.0232 -0.7570
 8600SOL     OW37258   0.365   0.354   8.568  0.3230  0.0875  0.3540
 8600SOL    HW137259   0.311   0.324   8.641  0.5321 -0.1656  0.4057
 8600SOL    HW237260   0.387   0.436   8.610  1.3860 -0.2611  0.4827
 8601SOL     OW37261   4.345   0.405   3.517 -0.4500  0.6556 -0.3925
 8601SOL    HW137262   4.302   0.425   3.434 -0.0879  1.4688 -0.3862
 8601SOL    HW237263   4.269   0.388   3.573 -2.3832  0.0876 -3.2004
 8602SOL     OW37264   3.603   1.876  14.113  0.0450  0.2383 -0.4683
 8602SOL    HW137265   3.529   1.935  14.101 -0.3353 -0.4763 -1.7134
 8602SOL    HW237266   3.658   1.924  14.175 -0.0211 -0.6403  0.2705
 8603SOL     OW37267   3.758   0.549  16.257  0.1365 -0.5334  0.0431
 8603SOL    HW137268   3.699   0.570  16.330  1.9838  0.1381  1.3788
 8603SOL    HW237269   3.840   0.582  16.296  0.9689 -0.4279 -1.8224
 8604SOL     OW37270   3.391   0.765   4.060 -0.0292 -0.2104  0.1766
 8604SOL    HW137271   3.310   0.760   4.009 -1.5028  2.2143  2.2743
 8604SOL    HW237272   3.365   0.742   4.149 -0.3926  0.0765  0.1458
 8605SOL     OW37273   0.580   2.595  10.416  0.3284  1.2700 -0.1917
 8605SOL    HW137274   0.637   2.519  10.402 -1.2117  0.0996 -0.1030
 8605SOL    HW237275   0.510   2.547  10.461 -1.0431  1.4294 -2.1636
 8606SOL     OW37276   1.117   0.750   3.550 -0.2604  0.0835 -0.2054
 8606SOL    HW137277   1.134   0.803   3.472  1.4787  0.0478  0.1402
 8606SOL    HW237278   1.151   0.812   3.615 -0.7908  0.2106 -0.0527
 8607SOL     OW37279   3.763   1.951   7.515  0.3007  0.1153  0.0263
 8607SOL    HW137280   3.818   1.933   7.439  1.0468  0.2147  0.5457
 8607SOL    HW237281   3.810   2.013   7.571  0.8681 -1.2498  1.0602
 8608SOL     OW37282   3.075   1.100  13.833 -0.1764 -0.2642  0.6298
 8608SOL    HW137283   3.150   1.040  13.833  1.5435  1.8762 -0.2875
 8608SOL    HW237284   2.997   1.050  13.809  0.3825 -0.9700  0.2913
 8609SOL     OW37285   1.925   2.113   9.274 -0.5576  0.0293  0.2719
 8609SOL    HW137286   1.899   2.146   9.188  3.7553  0.6192 -0.8105
 8609SOL    HW237287   1.882   2.029   9.258 -1.6921  0.3697  1.6126
 8610SOL     OW37288   1.330   1.836   3.282 -0.7647 -0.5747 -0.3533
 8610SOL    HW137289   1.251   1.823   3.229 -0.9801  0.7525 -0.3504
 8610SOL    HW237290   1.280   1.864   3.358 -2.7614 -1.3937 -1.3479
 8611SOL     OW37291   2.950   3.904   3.650 -0.2788  0.3882 -0.6597
 8611SOL    HW137292   2.915   3.993   3.644 -1.4030  0.1616  2.7765
 8611SOL    HW237293   2.930   3.874   3.561  1.1413 -1.5568 -0.3165
 8612SOL     OW37294   0.409   2.041   9.980 -0.2643  0.0684 -0.3049
 8612SOL    HW137295   0.374   1.961  10.020 -0.9282 -0.2010 -1.4386
 8612SOL    HW237296   0.430   2.001   9.896 -0.8135  0.2622 -0.5361
 8613SOL     OW37297   3.418   1.289   5.345  0.1283 -0.0100  0.2538
 8613SOL    HW137298   3.407   1.223   5.414  0.5213 -1.3910 -0.9987
 8613SOL    HW237299   3.469   1.353   5.394 -0.1163  1.4832 -1.4644
 8614SOL     OW37300   0.579   1.497   5.464 -0.4228  0.1411 -0.7466
 8614SOL    HW137301   0.564   1.485   5.558  3.8825 -0.5255 -0.1092
 8614SOL    HW237302   0.655   1.440   5.453 -0.3097  0.2041 -0.3183
 8615SOL     OW37303   1.617   1.001   4.071 -0.1956 -0.3104 -0.1446
 8615SOL    HW137304   1.616   0.908   4.050 -0.4863 -0.0642 -1.2388
 8615SOL    HW237305   1.626   1.049   3.988 -1.1817  0.2006  0.0364
 8616SOL     OW37306   4.479   4.561   3.535 -0.0438  0.0117  0.1653
 8616SOL    HW137307   4.468   4.656   3.539 -0.7190 -0.1301  1.5023
 8616SOL    HW237308   4.573   4.557   3.518 -0.0589 -0.4389  0.1905
 8617SOL     OW37309   1.742   1.851   4.372 -0.0626 -0.3275 -0.4326
 8617SOL    HW137310   1.668   1.885   4.323 -0.2679 -0.1856 -0.0252
 8617SOL    HW237311   1.748   1.916   4.442 -1.5104  0.1037 -0.7049
 8618SOL     OW37312   4.328   2.155  17.233 -0.5355  1.0338  0.7555
 8618SOL    HW137313   4.334   2.060  17.226  0.7672  1.1555  0.2235
 8618SOL    HW237314   4.250   2.169  17.179 -0.0661 -1.7714 -0.6243
 8619SOL     OW37315   1.621   0.893  15.952  0.2483 -0.0311  0.2675
 8619SOL    HW137316   1.548   0.846  15.993  0.6583 -1.3460 -0.4832
 8619SOL    HW237317   1.596   0.949  15.879  0.9298  0.2837  0.2778
 8620SOL     OW37318   3.552   2.814  16.099  0.2835 -0.1901 -0.1468
 8620SOL    HW137319   3.628   2.858  16.061 -0.4845  0.7070 -0.6414
 8620SOL    HW237320   3.583   2.768  16.177  1.5498  0.8196 -0.0521
 8621SOL     OW37321   0.923   1.640  15.484  0.2559  0.3637 -0.5790
 8621SOL    HW137322   0.972   1.597  15.555 -0.4087  0.6201  0.0344
 8621SOL    HW237323   0.987   1.706  15.459  2.8416 -1.6699  0.5668
 8622SOL     OW37324   3.096   2.875   3.838  0.0356 -0.3351 -0.3688
 8622SOL    HW137325   3.142   2.793   3.857  1.0667  0.9450  2.5999
 8622SOL    HW237326   3.045   2.856   3.759 -1.5754  0.0529  0.5757
 8623SOL     OW37327   2.665   0.345   0.105 -0.8484 -0.4810  0.1021
 8623SOL    HW137328   2.746   0.394   0.115 -0.7243 -0.2225 -2.0290
 8623SOL    HW237329   2.607   0.404   0.152 -0.6676 -2.4213  2.7850
 8624SOL     OW37330   4.598   0.674   7.006  0.6682 -0.4027  0.1787
 8624SOL    HW137331   4.609   0.767   6.986 -0.3774 -0.4213 -0.4324
 8624SOL    HW237332   4.690   0.650   6.994  0.4492 -1.4975  0.7128
 8625SOL     OW37333   4.160   1.407   3.294 -0.3667  0.1574 -0.4724
 8625SOL    HW137334   4.121   1.331   3.251 -2.1873  0.1392  1.1657
 8625SOL    HW237335   4.242   1.365   3.319 -0.1972 -0.2984 -1.8064
 8626SOL     OW37336   2.183   0.863   4.511 -0.1276  0.2440  0.4685
 8626SOL    HW137337   2.161   0.876   4.419 -2.2760  1.2557  1.1208
 8626SOL    HW237338   2.176   0.768   4.514 -0.1624  0.2546  0.7139
 8627SOL     OW37339   2.730   2.932   2.092  0.1485  0.3715  0.0731
 8627SOL    HW137340   2.660   2.988   2.125  0.0288 -0.1737  0.7580
 8627SOL    HW237341   2.747   2.957   2.001  0.2849  0.1966  0.0495
 8628SOL     OW37342   1.477   3.829   7.010 -0.1432  0.0607 -0.4799
 8628SOL    HW137343   1.500   3.915   7.043  2.2360 -0.1059 -1.7617
 8628SOL    HW237344   1.400   3.816   7.065  0.2589  0.9968  0.3092
 8629SOL     OW37345   3.518   1.304  10.443 -0.3570  0.4954  0.0786
 8629SOL    HW137346   3.572   1.321  10.365  0.4334 -0.8012  0.3437
 8629SOL    HW237347   3.460   1.236  10.409  1.5286  0.0714 -2.3184
 8630SOL     OW37348   1.014   0.432   4.265  0.4252  0.4406  0.1591
 8630SOL    HW137349   1.023   0.352   4.318 -0.8176  0.6011  0.5984
 8630SOL    HW237350   0.957   0.477   4.327  2.4001  0.5346  1.9303
 8631SOL     OW37351   4.496   1.307   4.125 -0.1884  0.4137 -0.1905
 8631SOL    HW137352   4.408   1.340   4.108 -0.2594  0.1129 -0.4068
 8631SOL    HW237353   4.486   1.215   4.102 -0.4219  0.5458 -0.6037
 8632SOL     OW37354   0.608   3.676  11.031 -0.2720 -0.9500 -0.1164
 8632SOL    HW137355   0.632   3.694  10.940  0.1449 -1.6184 -0.1386
 8632SOL    HW237356   0.679   3.716  11.081 -1.3310 -1.3920  1.7390
 8633SOL     OW37357   4.407   4.006   3.801 -0.3585 -0.5055 -0.6412
 8633SOL    HW137358   4.500   4.028   3.813 -0.3574 -1.1782  0.5410
 8633SOL    HW237359   4.380   4.087   3.758  0.6107 -1.1941 -2.5178
 8634SOL     OW37360   3.966   4.094   8.593  1.1368 -0.1524  0.3418
 8634SOL    HW137361   4.013   4.060   8.670  0.3818 -3.2643 -0.5688
 8634SOL    HW237362   3.901   4.150   8.635  0.4054 -1.6488  1.2223
 8635SOL     OW37363   0.922   2.159   2.338  0.3179 -0.0957  0.4236
 8635SOL    HW137364   0.848   2.099   2.344  1.6222 -2.0132 -2.5880
 8635SOL    HW237365   0.982   2.119   2.400  0.6945 -0.4535 -0.1704
 8636SOL     OW37366   4.493   3.115   8.320  0.0150  0.6975 -0.4976
 8636SOL    HW137367   4.434   3.164   8.378  0.4943  1.0863 -0.3401
 8636SOL    HW237368   4.559   3.184   8.311  1.4458 -0.3020  2.2229
 8637SOL     OW37369   0.570   2.145   6.815  0.4239 -0.1463  1.0754
 8637SOL    HW137370   0.579   2.098   6.898  1.3077 -1.7425  0.0616
 8637SOL    HW237371   0.533   2.076   6.760 -1.0873 -0.3612  2.3737
 8638SOL     OW37372   2.332   2.298  13.096 -0.8323 -0.0582 -0.2353
 8638SOL    HW137373   2.258   2.304  13.156 -1.0423 -0.0304 -0.4955
 8638SOL    HW237374   2.410   2.291  13.150 -1.3376 -0.0255  0.4941
 8639SOL     OW37375   1.286   3.892   2.744  0.3793 -0.8399 -0.4249
 8639SOL    HW137376   1.352   3.924   2.682 -1.4847  0.8144 -1.5701
 8639SOL    HW237377   1.345   3.853   2.809 -1.2357 -3.3388 -0.4738
 8640SOL     OW37378   3.280   0.050   6.347 -0.2785 -0.2224 -0.1764
 8640SOL    HW137379   3.341   0.078   6.416  0.9539 -1.6278 -0.7000
 8640SOL    HW237380   3.216   0.120   6.358  0.5813  0.5280  0.0616
 8641SOL     OW37381   2.480   1.748  16.500  0.0194  0.1603  0.0723
 8641SOL    HW137382   2.465   1.785  16.587  0.4486  0.3900  0.0476
 8641SOL    HW237383   2.406   1.688  16.490  0.9962 -0.6379 -2.4004
 8642SOL     OW37384   0.522   4.519   7.931  0.7771 -0.3541  0.1768
 8642SOL    HW137385   0.450   4.565   7.887  0.3711 -1.6588 -0.5245
 8642SOL    HW237386   0.593   4.537   7.869  0.5467 -2.6541 -0.7420
 8643SOL     OW37387   2.550   3.538   5.622 -0.4221  0.6046  0.2475
 8643SOL    HW137388   2.472   3.584   5.592 -0.6704  1.2571  1.8996
 8643SOL    HW237389   2.515   3.475   5.686  0.9165 -0.8831 -0.4808
 8644SOL     OW37390   1.515   4.683   1.179 -0.0395  0.5984 -0.8738
 8644SOL    HW137391   1.513   4.608   1.239  1.4157  1.6500  0.4911
 8644SOL    HW237392   1.581   0.003   1.231  0.2833  0.3937 -1.1054
 8645SOL     OW37393   3.971   1.913   8.075  0.0329  0.3445  0.3555
 8645SOL    HW137394   3.940   2.001   8.053 -1.7808 -0.6222 -0.9031
 8645SOL    HW237395   3.913   1.858   8.023  0.8010  1.0904 -1.2741
 8646SOL     OW37396   3.627   4.621  13.378 -0.0460  0.4012  0.3147
 8646SOL    HW137397   3.650   4.657  13.292  1.4748  0.1565  0.6144
 8646SOL    HW237398   3.569   4.548  13.355  0.1263 -0.0348  1.2932
 8647SOL     OW37399   3.329   0.882   9.005 -0.1111 -0.1363 -0.0819
 8647SOL    HW137400   3.363   0.805   9.052 -1.7955 -0.9167 -0.1327
 8647SOL    HW237401   3.299   0.940   9.075 -2.3908 -2.9317  1.2958
 8648SOL     OW37402   0.154   2.685   9.848 -0.3451  0.1735 -0.0864
 8648SOL    HW137403   0.076   2.635   9.824  1.8042 -2.5296 -1.4694
 8648SOL    HW237404   0.218   2.623   9.882  1.7446  2.4467  0.1323
 8649SOL     OW37405   1.907   4.644  10.374  0.0531 -0.6630  0.1229
 8649SOL    HW137406   1.928   4.595  10.295  0.3977 -2.3216  1.2450
 8649SOL    HW237407   1.877   0.008  10.357 -0.7109 -0.7099  1.1938
 8650SOL     OW37408   1.951   4.505  11.118  0.3017 -0.3308 -0.0755
 8650SOL    HW137409   2.030   4.536  11.074  2.3179  0.4618  4.0866
 8650SOL    HW237410   1.988   4.418  11.123  0.7171 -0.0607  1.7290
 8651SOL     OW37411   3.250   1.025   5.200  0.4473  0.7045  0.1856
 8651SOL    HW137412   3.307   1.097   5.175  0.6939  0.4671  0.0520
 8651SOL    HW237413   3.167   1.052   5.160  1.0619  1.8730 -0.2961
 8652SOL     OW37414   4.285   4.516   3.094  0.0352  0.1851  0.0847
 8652SOL    HW137415   4.266   4.489   3.184 -1.7641 -0.8645 -0.6080
 8652SOL    HW237416   4.196   4.527   3.063  0.2077 -0.8224 -0.7873
 8653SOL     OW37417   4.385   4.010   4.076 -0.0592  0.2196 -0.1007
 8653SOL    HW137418   4.393   3.994   3.982 -1.0116 -0.8853  0.0096
 8653SOL    HW237419   4.453   3.957   4.118  1.1378  1.1078 -0.9232
 8654SOL     OW37420   3.303   2.755   8.919  0.0914 -0.1923 -0.0387
 8654SOL    HW137421   3.348   2.796   8.993  1.3886 -0.6982 -0.5514
 8654SOL    HW237422   3.375   2.722   8.866  0.5553 -0.0741  0.5094
 8655SOL     OW37423   3.337   1.197   9.677 -0.0581 -0.4254  0.0847
 8655SOL    HW137424   3.263   1.211   9.737  0.9328  1.5537  0.8403
 8655SOL    HW237425   3.342   1.276   9.623 -3.2244  0.4996  1.1447
 8656SOL     OW37426   1.762   3.695   6.398  0.5650  0.2301  0.4190
 8656SOL    HW137427   1.747   3.783   6.433 -1.7133  1.3004 -3.2283
 8656SOL    HW237428   1.799   3.720   6.314  0.6077 -0.9353  0.0940
 8657SOL     OW37429   2.329   0.827   7.028 -0.7999  0.0974  0.6997
 8657SOL    HW137430   2.354   0.856   6.940 -0.2132  0.0116  0.8364
 8657SOL    HW237431   2.413   0.793   7.060 -0.7747 -1.2110 -0.7829
 8658SOL     OW37432   2.306   2.170  12.668  0.3810 -0.3745 -0.1690
 8658SOL    HW137433   2.320   2.262  12.691  0.3968 -0.8135  1.5956
 8658SOL    HW237434   2.334   2.157  12.578  1.8429  0.9904  0.0831
 8659SOL     OW37435   4.090   2.220   3.108 -0.0090  0.2097 -0.0141
 8659SOL    HW137436   4.038   2.147   3.076 -1.1933  1.6381 -1.3275
 8659SOL    HW237437   4.100   2.260   3.022  1.8026  0.2010  0.1960
 8660SOL     OW37438   1.575   3.219   1.862 -0.4451  0.2203 -0.4752
 8660SOL    HW137439   1.641   3.283   1.887  0.2355 -0.4240 -0.6064
 8660SOL    HW237440   1.507   3.236   1.926 -0.7702 -0.9225 -0.5190
 8661SOL     OW37441   1.368   1.561   6.597 -0.1521  0.2950 -0.3011
 8661SOL    HW137442   1.390   1.468   6.601  1.6748  0.7900  0.8696
 8661SOL    HW237443   1.337   1.560   6.688 -2.9862  1.3679 -1.2674
 8662SOL     OW37444   1.704   3.057   1.349  0.4537 -0.5978  0.0925
 8662SOL    HW137445   1.671   3.138   1.310  0.9316 -0.7900 -0.7080
 8662SOL    HW237446   1.683   2.989   1.284 -0.9356  0.8520 -0.9757
 8663SOL     OW37447   3.107   1.587   8.143 -0.5045 -0.0709 -0.4115
 8663SOL    HW137448   3.152   1.534   8.078  0.4828  0.8872 -0.4888
 8663SOL    HW237449   3.162   1.662   8.161  1.6730 -2.0271  1.1168
 8664SOL     OW37450   4.658   2.107   6.111 -0.4099  0.1094 -0.2985
 8664SOL    HW137451   4.620   2.031   6.157  3.0323 -1.7138 -0.4407
 8664SOL    HW237452   4.623   2.099   6.023 -0.4877  2.4011 -0.4735
 8665SOL     OW37453   0.146   1.926   2.775  0.0636 -0.1771  0.5282
 8665SOL    HW137454   0.098   1.849   2.804 -0.6092  0.5073  1.2334
 8665SOL    HW237455   0.178   1.906   2.687 -2.0986 -1.6070  0.0677
 8666SOL     OW37456   3.641   0.362   5.943 -0.8505 -0.1487 -0.6452
 8666SOL    HW137457   3.621   0.385   5.852  0.8507  0.1465 -0.9464
 8666SOL    HW237458   3.587   0.283   5.950  0.6582 -0.9522  1.9264
 8667SOL     OW37459   3.277   0.997  13.619  0.5310 -0.2026  0.1210
 8667SOL    HW137460   3.236   1.083  13.608  0.3488 -0.3645 -0.5141
 8667SOL    HW237461   3.350   1.005  13.558 -0.3866  3.5640 -0.5052
 8668SOL     OW37462   0.024   3.107  17.042 -0.3481 -0.2105  0.8188
 8668SOL    HW137463   0.100   3.149  17.000 -1.8446 -1.5007 -3.1415
 8668SOL    HW237464   0.001   3.045  16.973  1.6266 -0.7310  0.6303
 8669SOL     OW37465   3.606   1.498  10.592 -0.2431 -0.2509 -0.2413
 8669SOL    HW137466   3.694   1.492  10.556 -1.3357 -1.8626 -2.6426
 8669SOL    HW237467   3.558   1.434  10.539 -0.0554 -0.6144  0.0279
 8670SOL     OW37468   0.585   0.943   0.151  0.7303  0.1787 -0.1300
 8670SOL    HW137469   0.590   0.949   0.246 -1.2430 -1.8091  0.1050
 8670SOL    HW237470   0.677   0.945   0.123  0.8439  1.6718  0.3576
 8671SOL     OW37471   1.881   2.600  12.840  0.0050 -0.0773 -0.2195
 8671SOL    HW137472   1.912   2.511  12.825  0.2205 -0.0095 -0.1802
 8671SOL    HW237473   1.957   2.649  12.809  1.7771 -0.4230  3.5079
 8672SOL     OW37474   0.158   0.903   7.206  0.5829  0.5028 -0.5798
 8672SOL    HW137475   0.101   0.826   7.196 -0.3671  1.2428 -0.7851
 8672SOL    HW237476   0.104   0.964   7.255 -0.0887 -0.1111 -0.5562
 8673SOL     OW37477   1.694   0.582  14.273 -0.3058 -0.0915  0.6943
 8673SOL    HW137478   1.649   0.659  14.309  1.1732  1.7489 -1.3871
 8673SOL    HW237479   1.704   0.615  14.183  1.5531 -0.6508  0.7064
 8674SOL     OW37480   3.732   1.735  13.409  0.1002 -0.1262  0.2267
 8674SOL    HW137481   3.827   1.747  13.405  0.4272 -2.6619  0.2106
 8674SOL    HW237482   3.718   1.659  13.353  2.2498 -1.7036  1.7979
 8675SOL     OW37483   0.104   4.670   2.101  0.2298  0.3109 -0.1506
 8675SOL    HW137484   0.124   4.577   2.102  2.0219  0.7054  0.0220
 8675SOL    HW237485   0.079   4.690   2.011  1.0975  0.2899 -0.3920
 8676SOL     OW37486   0.896   2.633   6.493 -0.2482 -0.1468 -0.5158
 8676SOL    HW137487   0.854   2.580   6.426  1.7893  0.2088 -2.0671
 8676SOL    HW237488   0.955   2.573   6.538  0.1566  0.3936 -0.3223
 8677SOL     OW37489   3.346   4.164   2.791 -0.0760 -0.7285  0.2075
 8677SOL    HW137490   3.383   4.252   2.796  1.8349 -1.4349 -1.1114
 8677SOL    HW237491   3.255   4.194   2.801 -0.6676 -1.7929 -1.8471
 8678SOL     OW37492   2.705   2.413  14.520  0.4019  0.2170 -0.8468
 8678SOL    HW137493   2.625   2.393  14.568  1.8483  2.8554  2.7194
 8678SOL    HW237494   2.766   2.361  14.573 -0.1951  1.6958  1.3130
 8679SOL     OW37495   0.920   4.113   5.315 -0.6279 -0.2548 -0.3359
 8679SOL    HW137496   0.913   4.031   5.267  0.4259  0.5527 -1.8605
 8679SOL    HW237497   0.854   4.171   5.279  1.7780  1.3623 -2.1212
 8680SOL     OW37498   1.844   0.405  15.854  0.6188  0.1867 -0.0989
 8680SOL    HW137499   1.834   0.499  15.841  2.2189  0.4878  0.8097
 8680SOL    HW237500   1.766   0.375  15.808 -0.5647  1.0586  1.3167
 8681SOL     OW37501   1.729   2.402   1.334  0.0636  0.0463 -0.7539
 8681SOL    HW137502   1.819   2.373   1.323 -0.1482 -0.4717 -1.0963
 8681SOL    HW237503   1.737   2.497   1.336 -1.0979  0.1746 -2.3231
 8682SOL     OW37504   2.372   3.337   7.831  0.0014  0.5135 -0.0172
 8682SOL    HW137505   2.459   3.314   7.797  0.3814  0.0539  1.2680
 8682SOL    HW237506   2.372   3.432   7.838  0.3066  0.5718 -0.8232
 8683SOL     OW37507   2.460   3.543   3.028  0.4312  0.0613 -0.6247
 8683SOL    HW137508   2.535   3.602   3.027 -2.6123  3.9526  1.1707
 8683SOL    HW237509   2.483   3.481   3.097 -1.1905  1.1923  0.9504
 8684SOL     OW37510   2.890   2.073   8.101 -0.1535  0.3617  0.9958
 8684SOL    HW137511   2.954   2.056   8.169  1.6969 -1.2981 -1.1688
 8684SOL    HW237512   2.832   2.130   8.152 -2.2882 -1.3393  0.4900
 8685SOL     OW37513   0.001   3.323   3.612 -0.3427 -0.1647  0.3849
 8685SOL    HW137514   4.686   3.321   3.699  0.3001  2.3643  0.7313
 8685SOL    HW237515   0.082   3.366   3.638 -0.0782 -0.8387  0.6928
 8686SOL     OW37516   0.646   0.072  12.991  0.3503 -0.1664 -0.5050
 8686SOL    HW137517   0.737   0.047  12.972  1.4515  2.5671  1.1855
 8686SOL    HW237518   0.657   0.167  13.003 -1.5927 -0.0929  0.6218
 8687SOL     OW37519   0.520   0.099  15.994 -0.1415 -0.1698 -0.1141
 8687SOL    HW137520   0.520   0.025  15.933 -1.1888  1.0697 -1.6041
 8687SOL    HW237521   0.613   0.118  16.002  0.3854 -2.4438 -0.7701
 8688SOL     OW37522   4.335   3.470   5.497 -0.3021  0.7121 -0.4780
 8688SOL    HW137523   4.327   3.559   5.531  0.0720  0.3122  0.6810
 8688SOL    HW237524   4.241   3.453   5.487 -0.0551 -2.3910  2.2526
 8689SOL     OW37525   1.475   2.258   8.975  0.7924  0.1938  0.5666
 8689SOL    HW137526   1.491   2.256   8.881  2.2892  0.3126  0.8124
 8689SOL    HW237527   1.391   2.213   8.983  0.5744  0.9977  2.7654
 8690SOL     OW37528   0.212   2.525   8.156  0.0002  0.4101 -0.3974
 8690SOL    HW137529   0.293   2.537   8.205  0.0424  1.1658 -0.6437
 8690SOL    HW237530   0.161   2.605   8.169  0.5406  0.7161 -0.1668
 8691SOL     OW37531   1.261   3.328   1.000  0.1606  0.4388 -0.3780
 8691SOL    HW137532   1.208   3.306   0.923 -0.6941 -0.5897  0.5053
 8691SOL    HW237533   1.205   3.284   1.064  0.9064  1.6799  1.1101
 8692SOL     OW37534   4.435   3.972  15.123  0.1283 -0.1137  0.2933
 8692SOL    HW137535   4.460   4.055  15.163 -0.4701  1.2193 -2.1047
 8692SOL    HW237536   4.512   3.922  15.148 -0.5344 -1.2028  0.1859
 8693SOL     OW37537   2.101   1.284  14.767  0.1661 -0.4205 -0.3455
 8693SOL    HW137538   2.072   1.283  14.858  3.4456  0.8840  0.7217
 8693SOL    HW237539   2.179   1.338  14.782  0.7267 -0.8486 -1.6369
 8694SOL     OW37540   3.119   3.985   6.912 -0.1344 -0.3436  0.8044
 8694SOL    HW137541   3.085   3.958   6.997  0.8114 -1.5866  0.7867
 8694SOL    HW237542   3.213   3.976   6.929  0.2073  0.0653 -0.8793
 8695SOL     OW37543   4.337   2.386   4.389  0.2644 -0.2722 -0.6710
 8695SOL    HW137544   4.401   2.420   4.326  1.8895 -2.2658 -0.1098
 8695SOL    HW237545   4.311   2.465   4.436  1.0444 -1.6016  1.9812
 8696SOL     OW37546   0.607   1.207  14.543 -0.2936  0.0969 -0.1124
 8696SOL    HW137547   0.595   1.201  14.448 -0.7364 -0.9492  0.0108
 8696SOL    HW237548   0.568   1.129  14.581  0.3983  0.3431  1.1012
 8697SOL     OW37549   0.655   1.312  13.438  0.2483 -0.3265 -1.0501
 8697SOL    HW137550   0.593   1.244  13.464  0.9086  0.0016  1.3932
 8697SOL    HW237551   0.738   1.264  13.442 -0.6319 -1.7827 -0.1544
 8698SOL     OW37552   0.792   2.973  17.662  0.1788 -0.1505 -0.4284
 8698SOL    HW137553   0.795   3.059  17.619  2.1243  0.0203  0.0755
 8698SOL    HW237554   0.760   2.919  17.590 -1.4032 -0.6280  0.6409
 8699SOL     OW37555   2.071   0.294   4.234  0.0590 -0.4743  0.0380
 8699SOL    HW137556   2.008   0.366   4.236 -0.0359 -0.6397  3.2522
 8699SOL    HW237557   2.078   0.274   4.141  1.0607  0.4667 -0.0803
 8700SOL     OW37558   2.944   0.657  12.124 -0.1568  0.2917  0.2123
 8700SOL    HW137559   2.890   0.721  12.171  0.6971  2.2042 -1.4283
 8700SOL    HW237560   2.955   0.709  12.045 -0.0387  0.6200  0.4464
 8701SOL     OW37561   3.612   1.837   6.775 -0.1832  0.3870  0.3689
 8701SOL    HW137562   3.636   1.753   6.815 -2.3540 -0.6433 -0.4775
 8701SOL    HW237563   3.611   1.892   6.853 -0.5301 -0.8152  1.2120
 8702SOL     OW37564   0.501   0.637  15.055  0.4773 -0.1736 -0.0265
 8702SOL    HW137565   0.531   0.639  14.965 -1.5286 -2.6235 -0.7503
 8702SOL    HW237566   0.431   0.701  15.062  0.7636  0.2480 -1.1602
 8703SOL     OW37567   3.594   3.349   6.626 -0.2874 -0.0615  0.2641
 8703SOL    HW137568   3.686   3.375   6.635 -0.8123  1.8463  0.1357
 8703SOL    HW237569   3.602   3.272   6.683  2.2773 -0.3299 -0.4583
 8704SOL     OW37570   1.920   2.453   2.891 -0.0253  0.5549  0.1867
 8704SOL    HW137571   2.000   2.451   2.944  1.8720  0.6716 -2.6427
 8704SOL    HW237572   1.938   2.374   2.839  1.2332  1.8165 -1.3009
 8705SOL     OW37573   1.605   4.449   7.742 -0.2804  0.0935  0.3284
 8705SOL    HW137574   1.588   4.543   7.748 -2.3518 -0.1622 -1.6027
 8705SOL    HW237575   1.622   4.433   7.835 -0.1095 -0.5717  0.1811
 8706SOL     OW37576   3.385   3.277  14.441  0.4899 -0.1725 -0.7570
 8706SOL    HW137577   3.384   3.357  14.494 -0.7578 -1.5382  1.2610
 8706SOL    HW237578   3.331   3.303  14.367 -1.6579  0.4324  1.0502
 8707SOL     OW37579   4.059   3.134   3.748  0.3510 -0.1452  0.3197
 8707SOL    HW137580   4.052   3.230   3.753  3.3290  0.0655  0.3899
 8707SOL    HW237581   4.128   3.117   3.811 -2.5501 -0.4213  3.4278
 8708SOL     OW37582   0.544   4.335  10.639 -0.2774 -0.2958  0.2245
 8708SOL    HW137583   0.637   4.361  10.640 -0.2794 -0.4036  2.9709
 8708SOL    HW237584   0.508   4.398  10.576  2.2911 -0.6400 -1.6008
 8709SOL     OW37585   2.786   1.089  13.300 -0.0377 -0.4945 -0.0841
 8709SOL    HW137586   2.811   1.105  13.391 -2.5379  1.3772  0.2724
 8709SOL    HW237587   2.743   1.172  13.276 -0.3222  0.1143  2.5605
 8710SOL     OW37588   0.920   3.825  15.679  0.6966  0.3767 -0.1057
 8710SOL    HW137589   0.829   3.794  15.682  0.5632  0.9737  2.1311
 8710SOL    HW237590   0.956   3.809  15.766  0.4771 -3.5071 -0.7256
 8711SOL     OW37591   3.142   4.677   4.074 -0.0452  0.4105  0.2657
 8711SOL    HW137592   3.196   4.607   4.037 -0.0029 -0.2541  1.5882
 8711SOL    HW237593   3.125   4.643   4.162 -2.4269  0.6396 -0.1191
 8712SOL     OW37594   1.835   3.748   1.695  0.3022 -0.1780 -0.1437
 8712SOL    HW137595   1.923   3.742   1.734  0.1158 -1.8976  0.0453
 8712SOL    HW237596   1.857   3.776   1.606 -0.7220  0.6085 -0.1470
 8713SOL     OW37597   1.650   2.650   7.724  0.7803  0.0012  0.3498
 8713SOL    HW137598   1.582   2.717   7.730 -0.0226 -0.9959  2.1817
 8713SOL    HW237599   1.631   2.622   7.635 -0.7291 -1.2522  1.0660
 8714SOL     OW37600   0.888   1.275   0.078  0.3869  0.5614  0.0342
 8714SOL    HW137601   0.900   1.332   0.002 -0.4291  1.0402  0.2613
 8714SOL    HW237602   0.931   1.195   0.048 -0.3844  0.3606 -0.5271
 8715SOL     OW37603   3.839   1.509  16.751  0.4464 -0.0377  0.2290
 8715SOL    HW137604   3.773   1.561  16.705 -1.6534 -1.3246  1.8165
 8715SOL    HW237605   3.925   1.524  16.713 -0.7985 -1.2412 -3.0786
 8716SOL     OW37606   0.735   0.223   5.040 -0.3934 -0.0133 -0.3579
 8716SOL    HW137607   0.773   0.303   5.005 -1.6775  0.5869 -0.4146
 8716SOL    HW237608   0.645   0.217   5.007 -0.1975 -2.2630 -0.4593
 8717SOL     OW37609   1.649   2.607   5.647  0.3242  0.5715  0.0276
 8717SOL    HW137610   1.731   2.605   5.598 -0.7318 -0.5973 -1.7162
 8717SOL    HW237611   1.677   2.633   5.734 -5.2478  2.1510  1.3729
 8718SOL     OW37612   3.416   0.097   7.313 -0.1105 -0.4826 -0.2131
 8718SOL    HW137613   3.372   0.181   7.321  1.0799  0.1111  0.0310
 8718SOL    HW237614   3.351   0.059   7.253  1.4730 -0.6882 -1.8094
 8719SOL     OW37615   1.687   3.226   5.102  0.3229 -0.1543  0.6127
 8719SOL    HW137616   1.645   3.186   5.178 -1.6189 -0.4837 -0.6187
 8719SOL    HW237617   1.779   3.228   5.128  0.5301 -0.7156 -0.0808
 8720SOL     OW37618   3.032   0.690  13.183 -0.3746 -0.2158 -1.1143
 8720SOL    HW137619   3.048   0.781  13.157 -1.4957  0.1815 -0.3912
 8720SOL    HW237620   3.073   0.683  13.269  0.4233 -0.9466 -1.5477
 8721SOL     OW37621   0.086   3.782  10.544  0.1366  0.3219  0.7081
 8721SOL    HW137622   0.138   3.730  10.483  0.4725  2.1627 -0.5622
 8721SOL    HW237623   0.035   3.837  10.484 -1.6230 -0.1357  1.7740
 8722SOL     OW37624   2.709   0.837  10.249  0.3201 -0.1537  0.4598
 8722SOL    HW137625   2.690   0.756  10.202 -0.2168  1.1882 -1.6675
 8722SOL    HW237626   2.659   0.894  10.190  2.5425 -0.9692 -2.1687
 8723SOL     OW37627   3.877   3.915   6.359 -1.0211  0.3250 -0.6776
 8723SOL    HW137628   3.872   3.819   6.357  1.4045  0.1605  1.2306
 8723SOL    HW237629   3.969   3.912   6.333 -0.0561  1.9231  2.5916
 8724SOL     OW37630   3.048   3.671   8.180  0.1804 -0.1196  0.3750
 8724SOL    HW137631   3.083   3.694   8.266  0.1939  0.0186  0.3314
 8724SOL    HW237632   3.000   3.751   8.158 -0.1627  0.0208  1.6120
 8725SOL     OW37633   3.060   0.645   5.356  0.3939 -0.2321  0.2984
 8725SOL    HW137634   3.015   0.561   5.351 -2.2937  1.1669  0.9322
 8725SOL    HW237635   2.997   0.691   5.301 -0.8240 -1.8311  0.3702
 8726SOL     OW37636   1.114   3.167   5.391 -0.3970 -0.0146  0.0924
 8726SOL    HW137637   1.099   3.073   5.387 -0.4517 -0.0191  0.4670
 8726SOL    HW237638   1.066   3.192   5.469 -0.1096  1.1129 -0.0920
 8727SOL     OW37639   3.128   1.934   2.096 -0.5369  0.1811 -0.8142
 8727SOL    HW137640   3.067   1.949   2.023 -2.7119 -0.7201  0.8330
 8727SOL    HW237641   3.088   1.959   2.179  1.0415  2.6368 -0.7926
 8728SOL     OW37642   4.085   3.616   6.513 -0.4838 -0.0486  0.2876
 8728SOL    HW137643   4.163   3.562   6.516  0.7893  1.8796  2.1690
 8728SOL    HW237644   4.096   3.632   6.419 -0.5192  0.2345  0.3295
 8729SOL     OW37645   4.607   2.128  11.106  0.8418 -0.4368  0.2967
 8729SOL    HW137646   4.664   2.052  11.119  0.0504 -1.3606 -1.6137
 8729SOL    HW237647   4.527   2.091  11.142  0.4149  2.1222  1.9978
 8730SOL     OW37648   0.492   3.454  17.006 -0.1753 -0.6179 -0.2497
 8730SOL    HW137649   0.447   3.538  17.014 -0.3550 -0.6411 -1.0089
 8730SOL    HW237650   0.421   3.399  17.042  0.9281 -0.9887  1.3715
 8731SOL     OW37651   2.859   3.734  10.275  0.0388 -0.0421 -0.1776
 8731SOL    HW137652   2.907   3.813  10.249  0.9648 -0.4715  0.2381
 8731SOL    HW237653   2.825   3.754  10.362  1.8504 -3.8797  1.3755
 8732SOL     OW37654   1.915   3.545   5.547  0.2819 -0.3553 -0.3534
 8732SOL    HW137655   1.823   3.558   5.571  0.4553 -0.4911  0.4025
 8732SOL    HW237656   1.952   3.516   5.631 -1.5038 -1.3787  0.0924
 8733SOL     OW37657   0.273   3.694   0.279 -0.2195  0.1691  0.0193
 8733SOL    HW137658   0.241   3.772   0.325  0.3798 -0.0776  0.8634
 8733SOL    HW237659   0.261   3.727   0.190 -1.2801 -0.8487 -0.2095
 8734SOL     OW37660   1.619   1.287   3.153 -1.0081 -0.2547 -0.3314
 8734SOL    HW137661   1.524   1.277   3.159 -0.8381 -1.8350 -0.1562
 8734SOL    HW237662   1.629   1.229   3.078 -1.9638 -0.3632 -0.3718
 8735SOL     OW37663   3.984   3.409   3.688 -0.1934  0.7703 -0.0352
 8735SOL    HW137664   3.927   3.437   3.759 -0.9291 -0.0587 -0.3030
 8735SOL    HW237665   4.056   3.472   3.686  0.5226 -0.0144  1.3881
 8736SOL     OW37666   3.724   0.548   6.393  0.4902  0.4145  0.5993
 8736SOL    HW137667   3.703   0.456   6.410 -2.3707  0.1796 -4.2408
 8736SOL    HW237668   3.818   0.546   6.410  0.4441  0.4350  0.8538
 8737SOL     OW37669   4.135   3.945   2.991 -0.1063  0.4760 -0.5496
 8737SOL    HW137670   4.138   4.036   2.962  1.4161  0.8250  0.6920
 8737SOL    HW237671   4.088   3.898   2.922 -3.2596  2.0075  0.5536
 8738SOL     OW37672   0.782   4.540   5.681 -0.2692  0.0612  0.7873
 8738SOL    HW137673   0.729   4.462   5.669  0.5092 -0.2291 -0.8817
 8738SOL    HW237674   0.725   4.614   5.657  0.6075 -0.1578 -1.9664
 8739SOL     OW37675   1.215   1.279   4.558 -0.2034 -0.1852 -0.6310
 8739SOL    HW137676   1.219   1.362   4.511  0.7312  0.0884 -0.0627
 8739SOL    HW237677   1.235   1.222   4.485 -2.3309 -1.9041  0.1107
 8740SOL     OW37678   0.953   4.635  16.383 -0.0006  0.4836 -0.6157
 8740SOL    HW137679   0.950   4.573  16.456 -1.6080  2.1349  0.7097
 8740SOL    HW237680   1.045   4.664  16.382  0.6116 -1.3106  1.9626
 8741SOL     OW37681   2.563   0.565   9.219 -0.3732 -0.0255 -0.5229
 8741SOL    HW137682   2.658   0.573   9.210 -0.6664  1.7301 -2.2095
 8741SOL    HW237683   2.528   0.619   9.148  1.0990 -0.7878 -1.8192
 8742SOL     OW37684   0.634   1.034   8.028 -0.0113 -0.7852 -0.3098
 8742SOL    HW137685   0.721   0.997   8.012 -0.9766 -1.6647 -3.4612
 8742SOL    HW237686   0.580   0.982   7.968 -1.2929 -0.8933  0.9360
 8743SOL     OW37687   3.732   3.601   2.148 -0.4423  0.2723 -0.0564
 8743SOL    HW137688   3.821   3.568   2.137  0.1802  1.8110  0.3012
 8743SOL    HW237689   3.762   3.678   2.198  2.0508 -0.1954 -0.8103
 8744SOL     OW37690   0.794   4.623  11.444 -0.5588 -0.1674 -0.0153
 8744SOL    HW137691   0.719   4.620  11.384 -0.9221 -0.6300  0.4688
 8744SOL    HW237692   0.778   4.711  11.478 -1.1092  1.2603 -3.9904
 8745SOL     OW37693   1.457   0.185   4.783 -0.1821 -0.5392 -0.4852
 8745SOL    HW137694   1.387   0.238   4.744 -1.5387 -2.4067 -0.6041
 8745SOL    HW237695   1.431   0.204   4.873 -0.3754  0.4461 -0.7500
 8746SOL     OW37696   0.096   3.696   7.762  0.4789  0.0416  0.3711
 8746SOL    HW137697   0.145   3.662   7.836  0.2559 -0.6665  0.1873
 8746SOL    HW237698   0.084   3.786   7.794  0.5036  0.1863 -0.0239
 8747SOL     OW37699   0.507   3.482  11.183 -0.6383  0.0085 -0.0401
 8747SOL    HW137700   0.536   3.556  11.130  2.7464 -1.4667 -0.2119
 8747SOL    HW237701   0.460   3.517  11.258 -0.1123  0.6383 -0.0044
 8748SOL     OW37702   0.736   4.148  11.794 -0.3384  0.2687 -0.2833
 8748SOL    HW137703   0.785   4.182  11.869 -2.3866 -0.7018  1.4736
 8748SOL    HW237704   0.679   4.090  11.844 -0.2540 -2.1161 -2.9751
 8749SOL     OW37705   0.572   4.538   1.260  0.4267 -0.0699  0.3977
 8749SOL    HW137706   0.571   4.622   1.306 -3.3921  1.8035 -3.1162
 8749SOL    HW237707   0.639   4.491   1.311 -0.4260 -0.2072  1.3952
 8750SOL     OW37708   2.727   2.355   6.889  0.7686 -0.5506 -0.0703
 8750SOL    HW137709   2.769   2.369   6.805  0.7260  0.8557  0.1382
 8750SOL    HW237710   2.771   2.285   6.938  0.9845  0.0089  0.5384
 8751SOL     OW37711   1.392   4.276   3.373  0.0880  0.2880 -0.0586
 8751SOL    HW137712   1.470   4.330   3.383  0.3977 -0.1998  0.1363
 8751SOL    HW237713   1.409   4.209   3.439  0.8629 -1.4858 -2.0640
 8752SOL     OW37714   3.546   4.413   2.016 -0.2139 -0.6103 -0.4191
 8752SOL    HW137715   3.517   4.379   1.932 -1.8024 -0.3713  0.0330
 8752SOL    HW237716   3.637   4.384   2.017  0.0971  0.3694  0.0319
 8753SOL     OW37717   2.254   1.119   8.005 -0.9133  0.1825 -0.1425
 8753SOL    HW137718   2.172   1.133   7.958 -1.4578  1.7872  1.3048
 8753SOL    HW237719   2.303   1.097   7.925 -0.9997  0.1754 -0.1931
 8754SOL     OW37720   0.392   2.436   9.149 -0.5348 -0.3432  0.3153
 8754SOL    HW137721   0.352   2.388   9.076  0.5006 -2.3055  1.0249
 8754SOL    HW237722   0.471   2.472   9.109  1.4203 -3.1281  1.6181
 8755SOL     OW37723   2.888   0.776   2.616  0.4623 -0.1940 -0.5714
 8755SOL    HW137724   2.805   0.797   2.574 -0.5231 -1.9667  0.4867
 8755SOL    HW237725   2.922   0.706   2.560  3.8785  1.1351 -0.1594
 8756SOL     OW37726   1.976   3.782   4.067  0.1556  0.0636  0.1113
 8756SOL    HW137727   1.950   3.839   4.139  2.5874  0.5971  0.5866
 8756SOL    HW237728   2.070   3.768   4.077  0.4600  3.8589  2.5340
 8757SOL     OW37729   1.674   2.763   0.369 -0.5947  0.3691  0.7361
 8757SOL    HW137730   1.756   2.726   0.336 -0.5983  0.4750  0.6060
 8757SOL    HW237731   1.693   2.744   0.461 -0.2518 -0.4030  0.5008
 8758SOL     OW37732   1.433   2.079  11.193 -0.1290 -0.3780  0.1011
 8758SOL    HW137733   1.407   2.057  11.283 -0.8240 -1.6856 -0.4151
 8758SOL    HW237734   1.444   1.994  11.151  0.8694 -1.0377  1.6945
 8759SOL     OW37735   2.026   3.854   8.278 -0.4500  0.0175  0.1246
 8759SOL    HW137736   2.068   3.937   8.299  1.4797 -0.7726 -0.5444
 8759SOL    HW237737   2.056   3.835   8.188 -1.1408  0.4378 -0.1887
 8760SOL     OW37738   0.355   3.484   0.479 -0.4394  0.2410 -0.6127
 8760SOL    HW137739   0.332   3.567   0.438  0.1886  0.6065 -0.2209
 8760SOL    HW237740   0.389   3.515   0.563  2.0275  0.1590 -1.5793
 8761SOL     OW37741   2.776   4.654  17.028 -0.7202  0.5176 -0.1155
 8761SOL    HW137742   2.811   4.577  16.984  2.1701  1.4495  0.5140
 8761SOL    HW237743   2.787   4.638  17.122  1.5919 -0.6628 -0.5722
 8762SOL     OW37744   0.287   4.434   3.328  0.2463 -0.3367  0.0171
 8762SOL    HW137745   0.319   4.523   3.311  0.3790 -0.9257 -2.8172
 8762SOL    HW237746   0.363   4.390   3.367 -1.1976 -1.0177  2.0593
 8763SOL     OW37747   2.772   1.618  10.780  0.4203  0.7505 -0.2630
 8763SOL    HW137748   2.812   1.547  10.831 -1.1632 -0.5045 -0.7292
 8763SOL    HW237749   2.789   1.578  10.695 -0.5252 -2.5570  1.0819
 8764SOL     OW37750   4.528   2.048   4.084 -0.5308  0.3305  0.3764
 8764SOL    HW137751   4.599   2.036   4.148  2.3334  0.2082 -2.8092
 8764SOL    HW237752   4.575   2.013   4.008 -1.0554  1.1642 -0.3282
 8765SOL     OW37753   3.500   1.749   2.900 -0.3660 -0.4289  0.3785
 8765SOL    HW137754   3.529   1.805   2.828  0.1002 -1.2530 -0.0657
 8765SOL    HW237755   3.508   1.661   2.864 -0.5441  0.2894 -1.3876
 8766SOL     OW37756   4.466   3.496  14.190  0.6079 -0.1095 -0.1323
 8766SOL    HW137757   4.456   3.409  14.152 -1.5294 -0.2558  0.7547
 8766SOL    HW237758   4.513   3.475  14.271 -1.9646 -1.5669  0.9931
 8767SOL     OW37759   3.438   0.076  12.930  0.4952  0.0691 -0.0186
 8767SOL    HW137760   3.421   4.709  12.907  0.9627 -0.0439  0.0950
 8767SOL    HW237761   3.466   0.075  13.021  0.2273  0.1356  0.0651
 8768SOL     OW37762   1.229   1.342  13.294 -0.0162  0.3506  0.1988
 8768SOL    HW137763   1.161   1.374  13.235 -0.2480  0.7364  0.6740
 8768SOL    HW237764   1.290   1.415  13.294 -0.8305  1.0182 -2.4120
 8769SOL     OW37765   1.995   0.665   7.096  0.2319 -0.1091  0.2695
 8769SOL    HW137766   2.080   0.626   7.074 -1.0680 -2.0769 -1.2005
 8769SOL    HW237767   2.025   0.751   7.125  0.4711 -0.5601  1.3341
 8770SOL     OW37768   1.192   1.794  11.100  0.5600 -0.4209  0.0782
 8770SOL    HW137769   1.180   1.700  11.113 -0.1080 -0.1735  1.2944
 8770SOL    HW237770   1.121   1.831  11.152 -1.1272 -1.1625 -1.7100
 8771SOL     OW37771   1.119   3.509  10.971  0.2515 -0.6779 -0.0845
 8771SOL    HW137772   1.052   3.576  10.955  0.4948 -0.8046 -1.6012
 8771SOL    HW237773   1.161   3.545  11.049 -1.7570  2.9001 -0.6361
 8772SOL     OW37774   2.949   3.680  16.390 -0.0848 -0.2454 -0.2610
 8772SOL    HW137775   3.018   3.735  16.426  0.5523 -1.1757 -0.0863
 8772SOL    HW237776   2.908   3.752  16.341 -0.5393 -0.3169  0.0155
 8773SOL     OW37777   1.897   2.930   3.352 -0.3750  0.0857 -0.4696
 8773SOL    HW137778   1.950   2.914   3.274 -0.5020  0.4783 -0.6329
 8773SOL    HW237779   1.886   2.837   3.373 -0.3143 -0.2641 -1.9754
 8774SOL     OW37780   2.342   2.656   2.037 -0.1528 -0.5354 -0.3673
 8774SOL    HW137781   2.354   2.654   2.132 -2.9173  1.6882  0.0105
 8774SOL    HW237782   2.265   2.713   2.039  0.2786 -0.0182  1.0226
 8775SOL     OW37783   0.165   2.532  14.451 -0.6754  0.1038  0.8429
 8775SOL    HW137784   0.183   2.467  14.383 -0.2748 -0.7125  1.7372
 8775SOL    HW237785   0.236   2.523  14.515 -0.6198  0.8594  0.8828
 8776SOL     OW37786   2.899   0.373  11.363  0.1983 -0.1056 -0.2335
 8776SOL    HW137787   2.877   0.297  11.417 -2.8468 -0.7579 -2.3964
 8776SOL    HW237788   2.901   0.450  11.421 -1.1378 -1.5051  1.6747
 8777SOL     OW37789   1.219   2.008  17.342 -0.0601 -0.4419 -0.2833
 8777SOL    HW137790   1.282   2.045  17.281 -1.9848  1.9447 -0.7944
 8777SOL    HW237791   1.176   2.086  17.375 -1.5186 -0.8558 -1.2072
 8778SOL     OW37792   2.045   4.087   1.056  0.1800 -0.5861 -0.1585
 8778SOL    HW137793   2.028   4.153   1.123 -1.6503 -0.9725 -0.2349
 8778SOL    HW237794   2.050   4.140   0.977  2.5448 -1.0078 -0.3085
 8779SOL     OW37795   2.759   2.383   5.968  0.1942 -0.0592  0.2288
 8779SOL    HW137796   2.847   2.382   6.006  0.6395  0.7097 -0.7973
 8779SOL    HW237797   2.770   2.312   5.905  0.3558 -0.4985  0.7519
 8780SOL     OW37798   2.209   3.123  10.772  0.0929 -0.7904  0.3497
 8780SOL    HW137799   2.199   3.037  10.813  1.5602  0.0952  2.5636
 8780SOL    HW237800   2.121   3.149  10.745  0.6502 -0.5285 -1.1577
 8781SOL     OW37801   0.528   0.304   1.207 -0.2519 -0.0112 -0.5956
 8781SOL    HW137802   0.605   0.263   1.247 -0.7681  1.8727  2.3483
 8781SOL    HW237803   0.520   0.256   1.124 -1.5652  0.5147 -0.7830
 8782SOL     OW37804   3.188   1.800   5.400 -0.1906 -0.2787  0.1049
 8782SOL    HW137805   3.122   1.731   5.390 -1.2716  1.0578 -1.8588
 8782SOL    HW237806   3.271   1.751   5.393  1.4531  2.5731 -0.1010
 8783SOL     OW37807   2.587   3.104   5.517  0.3108  0.3542  0.3755
 8783SOL    HW137808   2.642   3.164   5.466 -2.2013  1.8043 -0.6137
 8783SOL    HW237809   2.539   3.178   5.555  0.0274 -0.1525  0.9879
 8784SOL     OW37810   4.076   4.565  10.473 -0.0424  0.3213  0.0894
 8784SOL    HW137811   4.077   4.539  10.565  0.6756  0.9221  0.2477
 8784SOL    HW237812   4.168   4.542  10.458  0.0772  0.2681  0.8923
 8785SOL     OW37813   2.753   1.000   5.287 -0.4375 -0.8373  0.6363
 8785SOL    HW137814   2.828   1.057   5.271 -0.7519 -0.1213  1.7472
 8785SOL    HW237815   2.708   0.998   5.202 -0.2209 -0.6390  0.5194
 8786SOL     OW37816   3.638   1.494   6.491  0.9266  0.4152 -0.0837
 8786SOL    HW137817   3.680   1.460   6.570 -0.2007 -2.8485 -0.8942
 8786SOL    HW237818   3.575   1.552   6.534 -1.5452 -2.3152 -0.0498
 8787SOL     OW37819   2.373   4.247   2.294  0.3055 -0.0707  0.0130
 8787SOL    HW137820   2.439   4.294   2.346 -3.0184  3.0090  1.3904
 8787SOL    HW237821   2.410   4.158   2.303  0.1622 -0.1308  0.0038
 8788SOL     OW37822   4.514   1.928   7.685  0.1437 -0.6853  0.0027
 8788SOL    HW137823   4.551   1.861   7.743  0.7263  0.0278  0.4575
 8788SOL    HW237824   4.524   1.882   7.602 -0.8224  0.8271 -0.9567
 8789SOL     OW37825   1.393   2.503   1.137  0.0847 -0.3708 -0.1202
 8789SOL    HW137826   1.337   2.445   1.085 -0.5976 -0.9471  1.2400
 8789SOL    HW237827   1.395   2.459   1.222 -0.0438  3.4957  1.8625
 8790SOL     OW37828   3.670   0.865  12.942 -0.5974 -0.0286 -0.1455
 8790SOL    HW137829   3.738   0.798  12.943 -0.3376  0.2150 -1.7223
 8790SOL    HW237830   3.606   0.836  12.877 -0.0644 -0.4208 -0.4942
 8791SOL     OW37831   0.844   3.237   3.249 -0.3744 -0.4869  0.5811
 8791SOL    HW137832   0.924   3.185   3.256 -0.8943 -1.3561  0.0793
 8791SOL    HW237833   0.875   3.319   3.287  0.2334  0.5377 -2.0930
 8792SOL     OW37834   0.282   3.146  16.084 -0.6301 -0.4710  0.1598
 8792SOL    HW137835   0.368   3.118  16.052 -0.2559  1.1520 -0.2389
 8792SOL    HW237836   0.240   3.158  15.998  0.3671  1.1692 -0.0942
 8793SOL     OW37837   1.637   4.687   2.564  0.6076 -0.2141 -0.1558
 8793SOL    HW137838   1.579   0.007   2.502  2.1821 -0.2466 -1.6542
 8793SOL    HW237839   1.678   4.624   2.505  0.7556 -1.3688  1.2048
 8794SOL     OW37840   3.958   3.303   6.480 -0.1286  0.0066 -0.0237
 8794SOL    HW137841   3.962   3.344   6.566 -1.8235  1.0228 -0.4256
 8794SOL    HW237842   4.038   3.250   6.487  0.7488  1.2462 -0.5653
 8795SOL     OW37843   4.672   3.568   1.904 -0.0748 -0.1421 -0.0884
 8795SOL    HW137844   4.592   3.558   1.851 -1.2912  2.3817  1.2789
 8795SOL    HW237845   4.718   3.489   1.875  0.4872 -0.7462  2.4799
 8796SOL     OW37846   2.922   0.854   8.208  0.1714  0.0783  0.2594
 8796SOL    HW137847   2.991   0.908   8.247  0.3463  1.0464 -1.3987
 8796SOL    HW237848   2.905   0.916   8.137 -0.9688  1.3808  1.6439
 8797SOL     OW37849   0.891   1.189  13.494 -0.2279 -0.6439  1.0873
 8797SOL    HW137850   0.986   1.204  13.491 -0.1633 -1.7273 -2.3479
 8797SOL    HW237851   0.887   1.094  13.509  1.4186 -0.6616  1.4143
 8798SOL     OW37852   4.078   4.415   5.057  0.3474  0.0700 -0.1524
 8798SOL    HW137853   4.164   4.390   5.091 -1.6291 -0.9282  4.2182
 8798SOL    HW237854   4.048   4.325   5.042 -1.8228  0.4931  1.5719
 8799SOL     OW37855   0.501   3.837   2.860 -0.0979 -0.2340 -0.0262
 8799SOL    HW137856   0.594   3.848   2.878  0.3696  2.2995 -4.0193
 8799SOL    HW237857   0.487   3.880   2.776 -0.9622  2.1478  1.3479
 8800SOL     OW37858   2.629   3.639  10.985 -0.2797 -0.3746 -0.5369
 8800SOL    HW137859   2.595   3.685  11.062 -0.1963 -0.3773 -0.4995
 8800SOL    HW237860   2.581   3.557  10.990  0.6638 -0.9802 -1.5296
 8801SOL     OW37861   3.930   4.641   3.310 -1.0872 -0.3733  0.2745
 8801SOL    HW137862   3.974   4.568   3.267  1.7636  2.4720 -1.5935
 8801SOL    HW237863   3.991   4.654   3.383 -0.7924  0.3020 -0.0929
 8802SOL     OW37864   3.970   0.748   1.354 -0.3087  0.1956 -0.0934
 8802SOL    HW137865   4.000   0.760   1.444  0.3170  1.3365 -0.4550
 8802SOL    HW237866   3.910   0.676   1.373  0.3779 -0.0788  1.0249
 8803SOL     OW37867   0.814   0.363   3.716 -0.1756  0.9627 -0.6762
 8803SOL    HW137868   0.853   0.433   3.665 -0.0309  0.9971 -0.5187
 8803SOL    HW237869   0.831   0.390   3.806  0.7640 -0.3739 -0.4491
 8804SOL     OW37870   1.224   1.502   3.910 -0.3322  0.5187 -0.0083
 8804SOL    HW137871   1.258   1.569   3.970  1.8930 -1.1493  0.5931
 8804SOL    HW237872   1.236   1.548   3.827 -0.6780 -0.4340 -0.5830
 8805SOL     OW37873   0.132   1.882   2.490  0.2736 -0.0911 -0.1899
 8805SOL    HW137874   0.080   1.820   2.439 -0.0260 -0.0188  0.0309
 8805SOL    HW237875   0.069   1.948   2.517  0.5540  0.8428 -1.8181
 8806SOL     OW37876   1.054   2.499   1.734 -0.0122 -0.1967 -0.3794
 8806SOL    HW137877   1.074   2.584   1.696 -0.8165 -0.6311 -1.7837
 8806SOL    HW237878   0.995   2.465   1.667  0.8619  0.5660 -1.5216
 8807SOL     OW37879   0.456   0.701   8.525 -0.1727 -0.4258 -0.2521
 8807SOL    HW137880   0.528   0.733   8.472 -0.7344 -0.9559 -1.3317
 8807SOL    HW237881   0.478   0.608   8.525  0.2176 -0.3250 -2.8458
 8808SOL     OW37882   1.864   4.401  10.791 -0.0513 -0.1384  0.5280
 8808SOL    HW137883   1.878   4.482  10.840  0.7414  1.1176 -1.8115
 8808SOL    HW237884   1.947   4.398  10.744  0.5368 -1.1289  1.6107
 8809SOL     OW37885   1.067   1.264   5.021  0.0811 -0.5599  0.7593
 8809SOL    HW137886   0.997   1.203   5.045 -0.0453  0.2018  2.3394
 8809SOL    HW237887   1.053   1.288   4.929  0.1699  0.4387  1.0145
 8810SOL     OW37888   4.227   0.087  10.479  0.5146 -0.3523  0.0701
 8810SOL    HW137889   4.162   0.017  10.479 -0.6138  0.7052 -2.6208
 8810SOL    HW237890   4.282   0.072  10.403 -0.3144 -0.1072 -0.5723
 8811SOL     OW37891   1.459   3.302   1.623  0.1755 -0.3265 -0.4989
 8811SOL    HW137892   1.424   3.216   1.596  1.6800 -1.1024  0.0543
 8811SOL    HW237893   1.513   3.265   1.693  0.5235  0.5607 -0.3087
 8812SOL     OW37894   0.613   3.708   3.961  0.3360 -0.3059  0.1913
 8812SOL    HW137895   0.703   3.739   3.971  1.6088 -3.7108 -0.7735
 8812SOL    HW237896   0.584   3.748   4.042 -0.8035 -1.0854  0.1716
 8813SOL     OW37897   0.990   2.918   4.377 -0.2584  0.3418 -0.1245
 8813SOL    HW137898   0.918   2.872   4.333  1.2717 -1.3171 -0.8810
 8813SOL    HW237899   0.966   3.009   4.356 -1.3220  0.4963  1.7238
 8814SOL     OW37900   2.640   2.205   1.903  0.3286 -0.3812 -0.4966
 8814SOL    HW137901   2.546   2.217   1.918  0.6376  1.9678 -0.4851
 8814SOL    HW237902   2.641   2.179   1.811  2.5737 -0.5224 -0.4242
 8815SOL     OW37903   2.380   2.945   9.680 -0.3239 -0.1882  0.1175
 8815SOL    HW137904   2.290   2.923   9.655  0.7138 -1.9384 -2.0426
 8815SOL    HW237905   2.406   2.995   9.603  0.7585  0.2793  0.7947
 8816SOL     OW37906   0.472   1.831   0.937  0.3166 -0.0496 -0.2295
 8816SOL    HW137907   0.450   1.740   0.919  0.7539 -0.5640  1.8220
 8816SOL    HW237908   0.446   1.845   1.028 -2.0364  1.4700 -1.1421
 8817SOL     OW37909   0.595   3.168   7.622  0.0865 -0.0134  0.1366
 8817SOL    HW137910   0.547   3.229   7.678  0.8203  1.2338 -0.5987
 8817SOL    HW237911   0.546   3.086   7.627 -0.0618  0.2388  2.8900
 8818SOL     OW37912   2.552   3.493   4.295 -0.5391 -0.1049  0.1140
 8818SOL    HW137913   2.619   3.556   4.268  1.4002 -2.7042 -1.2060
 8818SOL    HW237914   2.482   3.552   4.322  1.6520  2.1859  0.7702
 8819SOL     OW37915   3.336   0.406  17.069 -0.1355  0.9991  0.0671
 8819SOL    HW137916   3.261   0.444  17.024 -0.3641  1.4754  0.8548
 8819SOL    HW237917   3.409   0.410  17.007 -1.0374 -1.0327 -1.1206
 8820SOL     OW37918   0.017   0.504   7.911  0.3878  0.5667  0.3343
 8820SOL    HW137919   0.028   0.589   7.870 -0.4463  0.9072  0.8251
 8820SOL    HW237920   0.033   0.528   8.002 -1.1012  0.3659  0.6464
 8821SOL     OW37921   2.992   2.406  11.374  0.4909  0.2502 -0.7464
 8821SOL    HW137922   3.057   2.470  11.346  0.2702  0.9138  0.2413
 8821SOL    HW237923   2.910   2.453  11.387  0.3021 -0.6322  1.3008
 8822SOL     OW37924   2.684   2.422   8.874 -0.3402  0.0962  0.1600
 8822SOL    HW137925   2.638   2.502   8.850 -1.3908 -0.4380  0.3483
 8822SOL    HW237926   2.628   2.357   8.829 -0.2886 -0.7095  1.2537
 8823SOL     OW37927   0.116   0.368  17.282 -0.3684 -0.0443 -0.1746
 8823SOL    HW137928   0.093   0.435  17.218  0.4364 -0.5524 -0.9945
 8823SOL    HW237929   0.080   0.415  17.357 -0.3229  2.5398 -1.7704
 8824SOL     OW37930   2.862   1.456  11.240 -0.3026 -0.5749 -0.2389
 8824SOL    HW137931   2.941   1.402  11.245  0.0317 -0.3675 -3.2668
 8824SOL    HW237932   2.835   1.444  11.149 -1.2597 -2.5850  0.3277
 8825SOL     OW37933   4.602   4.546   4.751  0.1001  0.2696  0.0777
 8825SOL    HW137934   4.551   4.556   4.671 -0.4801  1.6999  0.6348
 8825SOL    HW237935   4.676   4.606   4.747 -1.2699  2.0376  1.4015
 8826SOL     OW37936   4.693   2.956   0.288 -0.0943  0.9285 -0.0107
 8826SOL    HW137937   4.623   2.922   0.344 -0.2261  1.0925 -0.0778
 8826SOL    HW237938   4.640   3.023   0.246 -0.2746  2.0215  1.9525
 8827SOL     OW37939   0.772   0.986   6.125 -0.3284 -0.1395 -0.4199
 8827SOL    HW137940   0.845   1.010   6.067  0.4743 -0.7213  0.3391
 8827SOL    HW237941   0.704   1.053   6.119 -0.5675 -0.3981 -0.6024
 8828SOL     OW37942   3.852   0.818   8.716  0.5845 -0.0444  0.8030
 8828SOL    HW137943   3.827   0.732   8.749  1.6547 -0.0018  1.7374
 8828SOL    HW237944   3.935   0.832   8.762  0.8639  0.5277  0.1216
 8829SOL     OW37945   0.210   2.163   0.631 -0.1216  0.0847 -0.1708
 8829SOL    HW137946   0.141   2.206   0.681  0.4391  1.2666 -0.4190
 8829SOL    HW237947   0.253   2.114   0.700 -0.2671 -0.2655 -0.3282
 8830SOL     OW37948   4.397   1.248  15.999 -0.0037  0.0449 -0.0708
 8830SOL    HW137949   4.422   1.312  15.932  0.3147  1.3691  1.3063
 8830SOL    HW237950   4.380   1.314  16.066 -0.9511  0.1587 -0.4252
 8831SOL     OW37951   0.409   0.855   2.123  0.2196 -0.2271  0.1014
 8831SOL    HW137952   0.463   0.840   2.201  0.0287 -3.0334 -0.3005
 8831SOL    HW237953   0.467   0.915   2.075 -1.1943 -1.0478 -2.6630
 8832SOL     OW37954   2.880   3.048  16.933 -0.3237  0.2874  0.3443
 8832SOL    HW137955   2.964   3.060  16.889  0.1727 -1.9733  0.6889
 8832SOL    HW237956   2.908   2.995  17.007  0.9699  0.1333 -0.2519
 8833SOL     OW37957   2.267   0.156   3.502 -0.3417  0.4970  0.4020
 8833SOL    HW137958   2.359   0.175   3.484 -0.0440  0.2138  1.6314
 8833SOL    HW237959   2.274   0.065   3.470 -0.6374  0.9303 -0.9016
 8834SOL     OW37960   4.015   1.739   5.887  0.9897  0.1625  0.0662
 8834SOL    HW137961   4.041   1.828   5.907 -0.2206  0.6838 -0.6589
 8834SOL    HW237962   4.064   1.720   5.807 -1.7842 -1.2547 -1.3019
 8835SOL     OW37963   1.840   4.657   5.927  0.1103 -0.4927  0.7306
 8835SOL    HW137964   1.867   4.602   5.854  0.6647 -2.3163  2.3026
 8835SOL    HW237965   1.747   4.634   5.927  0.1440 -0.6641  2.0317
 8836SOL     OW37966   4.275   0.643   9.131  0.2483 -0.8862 -0.2318
 8836SOL    HW137967   4.288   0.583   9.205 -1.2267 -1.2202 -0.2416
 8836SOL    HW237968   4.355   0.634   9.080 -2.0153  0.1126 -3.9812
 8837SOL     OW37969   0.972   0.254   3.159  0.0767 -0.1410 -0.3494
 8837SOL    HW137970   1.041   0.298   3.209 -1.0942 -1.4732  2.4343
 8837SOL    HW237971   0.990   0.297   3.076  0.1992  2.1440  0.8389
 8838SOL     OW37972   2.426   3.810   2.679  0.1555 -0.4757  0.0830
 8838SOL    HW137973   2.514   3.781   2.702  0.4921 -0.6597 -1.4626
 8838SOL    HW237974   2.383   3.725   2.670 -1.1166  0.0502  1.0741
 8839SOL     OW37975   0.336   3.271   4.320  0.1194  0.5214  0.1072
 8839SOL    HW137976   0.345   3.182   4.353 -2.5232  0.2250  0.0210
 8839SOL    HW237977   0.355   3.261   4.227 -0.9974 -0.1980 -0.0433
 8840SOL     OW37978   3.779   2.766   6.994  0.0976 -0.3468 -0.2720
 8840SOL    HW137979   3.787   2.827   6.921 -0.9510 -2.1167 -1.8837
 8840SOL    HW237980   3.870   2.737   6.998 -0.1518 -1.0681  0.2055
 8841SOL     OW37981   1.477   4.023  12.658 -0.0387 -0.0165 -0.4088
 8841SOL    HW137982   1.534   4.009  12.734 -0.7393  0.0635  0.1309
 8841SOL    HW237983   1.519   4.093  12.609  0.6819 -1.0695 -1.2811
 8842SOL     OW37984   1.005   4.325   0.538  1.0366  0.4639 -0.5967
 8842SOL    HW137985   1.000   4.416   0.567 -0.7226 -0.1771  1.1292
 8842SOL    HW237986   0.931   4.285   0.584  0.0313  3.4161  0.3549
 8843SOL     OW37987   2.151   1.015   4.755 -0.1962  0.4160 -0.7505
 8843SOL    HW137988   2.146   1.111   4.751 -1.5942  0.3595 -0.0019
 8843SOL    HW237989   2.145   0.989   4.663 -1.1145  0.6157 -0.7492
 8844SOL     OW37990   1.525   1.060   4.608 -0.0313 -0.5171  0.3947
 8844SOL    HW137991   1.574   1.061   4.526 -1.9718  0.5725 -0.7536
 8844SOL    HW237992   1.456   0.997   4.591 -1.0861 -0.0317  2.9527
 8845SOL     OW37993   2.489   4.171   4.059  0.6230  0.2070 -0.0934
 8845SOL    HW137994   2.403   4.130   4.053  0.7522 -0.3240  1.8697
 8845SOL    HW237995   2.505   4.184   4.152 -0.4765  0.7092  0.0187
 8846SOL     OW37996   1.100   0.546  11.423  0.2111  0.0994  0.0143
 8846SOL    HW137997   1.065   0.460  11.400  1.4527 -0.3539 -0.1713
 8846SOL    HW237998   1.169   0.511  11.479  0.5598  0.2342 -0.3310
 8847SOL     OW37999   2.444   3.451  15.873  0.3799  0.0391 -0.3172
 8847SOL    HW138000   2.473   3.488  15.956 -2.0346  1.4675 -0.1224
 8847SOL    HW238001   2.388   3.381  15.906 -0.6928  1.5535  1.0327
 8848SOL     OW38002   1.780   3.170   7.834  0.6556 -0.5565  0.3190
 8848SOL    HW138003   1.727   3.167   7.754  0.7800 -1.7800  0.2724
 8848SOL    HW238004   1.856   3.124   7.799  0.4058  0.7609 -1.9518
 8849SOL     OW38005   3.605   4.187   4.664  0.1195  0.6313  0.3053
 8849SOL    HW138006   3.600   4.279   4.638  0.7714  0.7165  0.4696
 8849SOL    HW238007   3.512   4.167   4.671  0.2023  0.7790  1.9144
 8850SOL     OW38008   3.080   3.782   8.851 -0.0689 -0.7445 -0.2861
 8850SOL    HW138009   3.025   3.722   8.801 -1.1068 -0.9076  1.0374
 8850SOL    HW238010   3.164   3.737   8.842  0.5316  0.2341  0.2996
 8851SOL     OW38011   1.058   4.652   6.371 -0.3602  0.0105 -0.0737
 8851SOL    HW138012   1.139   4.681   6.329 -0.2602 -0.7260 -0.3874
 8851SOL    HW238013   1.075   4.566   6.408  0.9671  0.1730 -0.2992
 8852SOL     OW38014   1.295   3.907  15.058  0.3638  0.0986 -0.2251
 8852SOL    HW138015   1.318   3.959  15.135  1.1175 -1.7159  0.7614
 8852SOL    HW238016   1.204   3.893  15.083 -0.1887  3.0422 -0.5613
 8853SOL     OW38017   0.247   0.451   1.859 -0.0569 -0.3972  0.5311
 8853SOL    HW138018   0.235   0.472   1.766  1.2520  3.2804  1.2208
 8853SOL    HW238019   0.340   0.430   1.850  0.4812  2.0786  0.4925
 8854SOL     OW38020   2.139   3.249   5.367 -0.2130  0.1162 -0.3112
 8854SOL    HW138021   2.067   3.226   5.309  0.6312 -1.1829 -0.8529
 8854SOL    HW238022   2.108   3.223   5.454 -0.0976  1.3497  0.1029
 8855SOL     OW38023   3.583   2.910   5.849  0.2820  0.2211 -0.1505
 8855SOL    HW138024   3.576   3.006   5.847 -1.9837  0.0524 -0.9087
 8855SOL    HW238025   3.508   2.873   5.801  1.2845 -0.7045 -1.0102
 8856SOL     OW38026   1.494   1.735   5.917 -0.1927  0.3914 -0.1308
 8856SOL    HW138027   1.403   1.754   5.937  0.0224  3.0500 -1.7758
 8856SOL    HW238028   1.533   1.716   6.003 -2.0271 -0.3569  0.5245
 8857SOL     OW38029   1.388   3.984   6.431  0.1786  0.0335  0.5514
 8857SOL    HW138030   1.425   3.932   6.360 -1.1123 -1.3119  0.8593
 8857SOL    HW238031   1.459   3.984   6.496  0.8503 -2.5437 -0.2006
 8858SOL     OW38032   1.953   2.750   3.616  0.0289 -0.0804  0.1456
 8858SOL    HW138033   1.868   2.734   3.576  0.4624  0.1054 -0.8448
 8858SOL    HW238034   1.971   2.676   3.675  1.4646 -0.8363 -1.2376
 8859SOL     OW38035   1.896   1.417   5.074  0.2432 -0.1389 -0.3798
 8859SOL    HW138036   1.892   1.322   5.068  4.6251 -0.3759  0.7454
 8859SOL    HW238037   1.955   1.440   5.146  2.2954 -3.1222 -1.1551
 8860SOL     OW38038   4.233   0.878   5.857 -0.1709 -0.0254  0.2652
 8860SOL    HW138039   4.297   0.807   5.846  0.5780  0.7402 -0.3118
 8860SOL    HW238040   4.285   0.938   5.910 -1.8057  0.4372  1.3291
 8861SOL     OW38041   0.153   0.978   4.549 -0.2293 -0.0278  0.4104
 8861SOL    HW138042   0.100   1.033   4.492 -1.4406 -0.3478  1.2069
 8861SOL    HW238043   0.189   1.043   4.609  1.0515 -0.9931  0.6844
 8862SOL     OW38044   4.473   3.997  10.224 -0.0133  0.5348  0.3237
 8862SOL    HW138045   4.566   3.973  10.220  0.2554  1.3588  1.4986
 8862SOL    HW238046   4.438   3.939  10.292 -0.6778  0.0693 -0.4296
 8863SOL     OW38047   2.124   2.182   9.856  0.1289  0.7636 -0.0701
 8863SOL    HW138048   2.038   2.153   9.885  0.4638  0.4942  0.6657
 8863SOL    HW238049   2.182   2.137   9.917 -1.3531 -0.6613  0.2820
 8864SOL     OW38050   0.937   1.063   1.371 -0.4020 -0.0614 -0.1442
 8864SOL    HW138051   0.975   1.110   1.445 -0.4307  0.0409 -0.1947
 8864SOL    HW238052   0.935   1.132   1.304 -1.3405 -1.2126 -1.3049
 8865SOL     OW38053   2.418   3.118   1.374 -0.4457  0.5963 -0.0384
 8865SOL    HW138054   2.348   3.181   1.359 -0.2794  0.2409 -2.3252
 8865SOL    HW238055   2.414   3.064   1.295  2.3813  0.4709 -0.1085
 8866SOL     OW38056   0.205   1.359   5.497  0.1554  0.1393  0.5627
 8866SOL    HW138057   0.122   1.387   5.459  0.4199  2.1624  1.4823
 8866SOL    HW238058   0.208   1.279   5.443  1.4343  0.4329  0.1916
 8867SOL     OW38059   0.996   2.422   5.671  0.7059  0.1166  0.2191
 8867SOL    HW138060   0.963   2.492   5.615 -1.1947  0.2640  1.5360
 8867SOL    HW238061   1.046   2.477   5.732  0.2040  0.1086  0.6371
 8868SOL     OW38062   3.210   2.922  17.602  0.0293 -0.2773 -0.1050
 8868SOL    HW138063   3.147   2.957  17.539  0.3157 -0.5244 -0.5272
 8868SOL    HW238064   3.149   2.859  17.639  0.9468 -0.4135  1.1513
 8869SOL     OW38065   4.079   3.130  11.457 -0.3177  0.0150 -0.4275
 8869SOL    HW138066   4.019   3.164  11.391 -0.7166 -0.2664 -0.2107
 8869SOL    HW238067   4.030   3.156  11.535 -1.1272 -2.8569  0.0434
 8870SOL     OW38068   0.111   0.393   4.705  1.4554  0.1597  0.3575
 8870SOL    HW138069   0.200   0.424   4.690  0.9647  0.1617 -2.4097
 8870SOL    HW238070   0.065   0.421   4.626  1.5777  0.1850  0.2956
 8871SOL     OW38071   3.512   4.250   0.371  0.6376  0.7567  0.7643
 8871SOL    HW138072   3.577   4.186   0.342 -0.1844  0.5938 -0.7244
 8871SOL    HW238073   3.566   4.327   0.351  0.0417  1.0294  0.1995
 8872SOL     OW38074   0.218   3.150   2.679  0.5138  0.2921  0.3104
 8872SOL    HW138075   0.167   3.191   2.609 -0.0973 -0.4200  0.3454
 8872SOL    HW238076   0.156   3.104   2.736  2.3290 -2.4231  0.0854
 8873SOL     OW38077   2.127   1.913  13.289 -0.2329 -0.2715  0.1702
 8873SOL    HW138078   2.093   1.939  13.204  1.2267  2.1940  0.3177
 8873SOL    HW238079   2.051   1.864  13.319 -0.3104  0.1048  0.5865
 8874SOL     OW38080   3.625   1.305   9.149 -0.3587  0.6185  0.0847
 8874SOL    HW138081   3.543   1.256   9.157  0.6394 -1.0248  0.2801
 8874SOL    HW238082   3.680   1.231   9.173 -1.9336 -0.5438  0.1242
 8875SOL     OW38083   4.033   1.359   8.653 -0.2451 -0.5731 -0.3409
 8875SOL    HW138084   3.958   1.336   8.707 -1.2194 -1.3709 -2.0574
 8875SOL    HW238085   4.059   1.289   8.594 -0.4691  1.1180 -2.4501
 8876SOL     OW38086   0.481   3.580   9.559  0.2409 -0.3167 -0.4674
 8876SOL    HW138087   0.565   3.573   9.514  0.9306  0.0515  0.7857
 8876SOL    HW238088   0.512   3.618   9.641 -0.7071 -1.5086  0.4454
 8877SOL     OW38089   0.232   1.854  10.337  0.3956  0.1597 -0.3317
 8877SOL    HW138090   0.154   1.881  10.386  0.9304 -0.0176  0.6039
 8877SOL    HW238091   0.298   1.855  10.406 -1.0800  2.5225  1.0635
 8878SOL     OW38092   4.516   1.654   9.411 -0.0269  0.2173  0.5600
 8878SOL    HW138093   4.587   1.639   9.474  0.2528 -1.3906 -0.1305
 8878SOL    HW238094   4.546   1.735   9.369 -2.9883 -0.8511 -3.5774
 8879SOL     OW38095   0.246   2.107  10.234 -0.0687  0.4791 -0.0238
 8879SOL    HW138096   0.213   2.017  10.232  3.4750 -0.7712 -3.1755
 8879SOL    HW238097   0.305   2.107  10.309 -1.5808 -2.5105  1.1928
 8880SOL     OW38098   1.796   1.531   3.088  0.2409  0.2416 -0.5635
 8880SOL    HW138099   1.744   1.451   3.083  3.0708 -1.6628 -0.0815
 8880SOL    HW238100   1.881   1.504   3.051  0.2288 -1.1289  0.4023
 8881SOL     OW38101   3.579   0.657   9.493 -0.2520  0.2340 -0.0442
 8881SOL    HW138102   3.613   0.626   9.409  1.1148  1.0754  0.1965
 8881SOL    HW238103   3.654   0.653   9.552 -0.1245 -0.9152 -0.2783
 8882SOL     OW38104   1.321   3.992   6.045  0.1492 -0.6651  0.2328
 8882SOL    HW138105   1.319   3.918   5.983  1.2478 -0.5682  0.0891
 8882SOL    HW238106   1.372   3.948   6.113 -1.3718 -0.4255  1.5310
 8883SOL     OW38107   2.023   0.318   2.129  0.1802  0.3428  0.4595
 8883SOL    HW138108   1.959   0.373   2.085 -0.3750  0.1540  1.0261
 8883SOL    HW238109   2.063   0.263   2.062 -4.0255 -0.6028 -1.2531
 8884SOL     OW38110   1.729   4.675  14.930  0.6618 -0.8353  0.4482
 8884SOL    HW138111   1.654   4.714  14.886  1.2387  0.2817  0.4527
 8884SOL    HW238112   1.780   4.635  14.860  0.6806  0.0107 -0.0212
 8885SOL     OW38113   4.286   2.884   7.773  0.1209  0.4152 -0.4339
 8885SOL    HW138114   4.336   2.828   7.832  0.1517  0.2475 -0.6207
 8885SOL    HW238115   4.236   2.939   7.834 -0.7735 -1.7666  0.7869
 8886SOL     OW38116   4.208   0.232  11.664 -0.1852 -0.1500 -0.1908
 8886SOL    HW138117   4.240   0.278  11.742  0.3279 -0.6724 -0.0894
 8886SOL    HW238118   4.150   0.163  11.696  0.2830  0.4516  1.9378
 8887SOL     OW38119   1.173   3.778   4.292 -0.5296  0.2734 -0.2561
 8887SOL    HW138120   1.119   3.807   4.365  1.9516 -1.2221  2.1797
 8887SOL    HW238121   1.208   3.865   4.274  1.5909 -0.5529 -0.1511
 8888SOL     OW38122   3.367   2.181   7.170 -0.0901 -0.0294 -0.0886
 8888SOL    HW138123   3.321   2.100   7.150  1.8946 -0.7540 -1.7478
 8888SOL    HW238124   3.435   2.142   7.226  1.5495  0.7964 -1.5050
 8889SOL     OW38125   3.800   1.916   5.154  0.2768  0.4292 -0.0578
 8889SOL    HW138126   3.724   1.940   5.101 -0.7327 -2.4772  0.0915
 8889SOL    HW238127   3.781   1.954   5.240 -0.5866 -0.6150  0.2098
 8890SOL     OW38128   0.703   3.129  14.258 -0.1691 -0.4607 -0.0654
 8890SOL    HW138129   0.624   3.182  14.269 -1.3344 -2.6146  2.1079
 8890SOL    HW238130   0.666   3.055  14.210  0.1465 -0.4277 -0.3637
 8891SOL     OW38131   2.173   0.334   2.490  0.1225 -0.1857  0.2263
 8891SOL    HW138132   2.227   0.349   2.412  1.0148  3.5300  1.5827
 8891SOL    HW238133   2.161   0.427   2.507 -0.1130 -0.0421 -0.7038
 8892SOL     OW38134   3.796   0.878   0.364  0.0229  0.0172  0.1746
 8892SOL    HW138135   3.750   0.804   0.325  1.7314 -1.6323  1.3184
 8892SOL    HW238136   3.721   0.929   0.397 -0.6207 -1.6536  1.2672
 8893SOL     OW38137   2.144   3.160  17.118 -0.0594 -0.2791  0.3130
 8893SOL    HW138138   2.189   3.157  17.034  0.2468  1.1147  0.4217
 8893SOL    HW238139   2.180   3.086  17.166  0.5381 -0.4418 -0.3964
 8894SOL     OW38140   4.634   0.865   4.618  0.5166  0.0772  0.1167
 8894SOL    HW138141   4.722   0.876   4.581 -0.0907  1.0147 -1.0803
 8894SOL    HW238142   4.592   0.841   4.535 -1.4657 -1.4196  1.5538
 8895SOL     OW38143   3.743   3.117  14.896  0.1077 -0.0238  0.1769
 8895SOL    HW138144   3.823   3.158  14.863 -0.0064  0.8569  1.0062
 8895SOL    HW238145   3.746   3.125  14.992 -0.6151 -0.0696  0.2044
 8896SOL     OW38146   2.084   1.489   7.902 -0.0542 -0.0787 -0.4592
 8896SOL    HW138147   2.177   1.464   7.905  0.2378  0.9137 -1.1603
 8896SOL    HW238148   2.060   1.509   7.812 -1.5090 -0.2232 -0.1037
 8897SOL     OW38149   0.209   1.123  12.412  0.2749  0.7126  0.2689
 8897SOL    HW138150   0.296   1.163  12.411  1.3703 -1.6828 -0.6783
 8897SOL    HW238151   0.232   1.040  12.371 -1.8202 -0.3544  1.2302
 8898SOL     OW38152   1.609   1.457   5.120  0.6656  0.1021 -0.1530
 8898SOL    HW138153   1.582   1.527   5.061 -0.4253  0.9393  1.3300
 8898SOL    HW238154   1.699   1.440   5.093  0.0628 -0.8217 -1.5801
 8899SOL     OW38155   0.285   0.480   1.088 -0.2418  0.1700  0.4909
 8899SOL    HW138156   0.250   0.406   1.038 -0.5674 -0.5849  1.8105
 8899SOL    HW238157   0.365   0.497   1.037  0.5993 -0.5767  1.5516
 8900SOL     OW38158   3.265   1.907  17.241 -0.0015  0.2686 -0.4562
 8900SOL    HW138159   3.175   1.876  17.235  0.0444 -0.3203  1.8339
 8900SOL    HW238160   3.295   1.881  17.154  3.3794  0.9961  0.4948
 8901SOL     OW38161   0.891   4.358   6.389 -0.2707 -0.0119  0.1534
 8901SOL    HW138162   0.972   4.395   6.424 -1.8219  0.4847  3.2145
 8901SOL    HW238163   0.925   4.310   6.313  0.7824  0.2088  0.4844
 8902SOL     OW38164   2.537   3.575   7.906  0.0969 -0.6813 -0.2210
 8902SOL    HW138165   2.513   3.589   7.814  0.6250 -0.6160 -0.3485
 8902SOL    HW238166   2.489   3.648   7.946  1.3870  0.0177  0.0636
 8903SOL     OW38167   3.145   2.223   4.342  0.0287  0.5762  0.0077
 8903SOL    HW138168   3.157   2.129   4.355 -1.3306  0.2852 -0.7713
 8903SOL    HW238169   3.236   2.250   4.342  0.9042 -2.3694  1.1729
 8904SOL     OW38170   4.561   2.457   8.036 -0.2871 -0.1187  0.0772
 8904SOL    HW138171   4.612   2.537   8.051  1.5800 -1.4086  0.5239
 8904SOL    HW238172   4.515   2.451   8.120 -0.8541 -0.4064 -0.2580
 8905SOL     OW38173   1.762   2.961   5.714 -0.2102  0.5211  0.4946
 8905SOL    HW138174   1.768   2.999   5.802 -2.4879  1.3185  0.3112
 8905SOL    HW238175   1.828   2.892   5.715 -0.8264 -0.0692  0.7077
 8906SOL     OW38176   2.841   4.675   7.839  0.2178  0.2793  0.1465
 8906SOL    HW138177   2.850   4.599   7.781  2.2008  1.3101 -0.9281
 8906SOL    HW238178   2.848   0.018   7.771  0.6174  0.4709  0.3803
 8907SOL     OW38179   3.680   1.506  16.970  0.0895 -0.5665 -0.0525
 8907SOL    HW138180   3.596   1.523  16.928 -0.4892  1.6250  1.9990
 8907SOL    HW238181   3.739   1.501  16.895  2.2437  1.7937  1.5001
 8908SOL     OW38182   3.541   0.801  17.444  0.1494 -0.1621 -0.2802
 8908SOL    HW138183   3.607   0.799  17.513  0.0195 -2.4531 -0.2235
 8908SOL    HW238184   3.567   0.731  17.384  1.6681  2.1997 -2.3778
 8909SOL     OW38185   0.642   1.866  17.357  0.0942  0.0883  0.0697
 8909SOL    HW138186   0.572   1.815  17.396 -0.1488 -1.0531 -1.8380
 8909SOL    HW238187   0.709   1.877  17.424 -1.0346 -1.8762  1.4737
 8910SOL     OW38188   2.494   1.224   8.625  0.0371  0.4873  0.0340
 8910SOL    HW138189   2.406   1.250   8.598 -0.2319 -1.9941 -1.4201
 8910SOL    HW238190   2.534   1.309   8.647 -2.8495  2.4539 -2.3843
 8911SOL     OW38191   1.281   3.999   3.608 -0.4057  0.3486  0.0013
 8911SOL    HW138192   1.294   3.916   3.655 -1.8417 -1.0291 -2.0325
 8911SOL    HW238193   1.352   4.058   3.632  0.8457 -0.7148 -1.1125
 8912SOL     OW38194   0.592   3.894   6.790 -0.3304 -0.6563  0.3225
 8912SOL    HW138195   0.645   3.909   6.868 -0.2526  0.8606 -0.0123
 8912SOL    HW238196   0.658   3.912   6.723 -0.4378  0.4235  0.5044
 8913SOL     OW38197   2.695   3.237   1.303  0.3260  0.2866  0.9830
 8913SOL    HW138198   2.631   3.295   1.344 -0.2981 -0.1058  0.5602
 8913SOL    HW238199   2.677   3.270   1.215  0.7837 -0.6631  0.5307
 8914SOL     OW38200   1.746   1.204  12.767 -0.8181 -0.5182 -0.5191
 8914SOL    HW138201   1.726   1.280  12.822  0.6733  1.4166 -2.6125
 8914SOL    HW238202   1.825   1.246  12.732 -2.2024  1.2356 -1.5702
 8915SOL     OW38203   4.340   1.728  15.194  0.2033 -0.1029  0.1339
 8915SOL    HW138204   4.285   1.784  15.139 -0.7127 -2.2494 -1.1194
 8915SOL    HW238205   4.291   1.749  15.273 -0.0716 -1.6430  0.3728
 8916SOL     OW38206   4.571   3.229   3.393  0.0300 -0.2176  0.3145
 8916SOL    HW138207   4.487   3.273   3.396  1.6685  2.7057  2.8969
 8916SOL    HW238208   4.625   3.289   3.444 -0.7955  2.4369 -1.9397
 8917SOL     OW38209   2.523   0.071   2.737  0.6244  0.5007 -1.2248
 8917SOL    HW138210   2.466   0.115   2.674 -1.2465 -0.7246 -0.3791
 8917SOL    HW238211   2.468   4.724   2.768 -0.0585  1.3942 -0.3765
 8918SOL     OW38212   2.990   0.891   9.774 -0.2151 -0.3905 -0.4266
 8918SOL    HW138213   3.000   0.839   9.853 -0.4445  1.8714  1.0785
 8918SOL    HW238214   3.072   0.867   9.731  0.3264  2.5990 -1.0859
 8919SOL     OW38215   1.145   4.358   2.064 -0.2715 -0.1229 -0.1231
 8919SOL    HW138216   1.206   4.285   2.074  0.5318  0.5693  0.0192
 8919SOL    HW238217   1.116   4.379   2.153 -1.1210  0.6065 -0.5772
 8920SOL     OW38218   4.127   2.526  14.528  0.0416  0.2781  0.3645
 8920SOL    HW138219   4.091   2.612  14.548 -1.4926 -0.1962 -0.3700
 8920SOL    HW238220   4.190   2.518  14.600  2.8452  0.9748 -2.0151
 8921SOL     OW38221   2.920   3.883   4.382  0.5146  0.1710  0.0655
 8921SOL    HW138222   2.984   3.935   4.333 -1.1725  2.2957  0.1405
 8921SOL    HW238223   2.838   3.919   4.349 -0.0128  0.5573  1.7579
 8922SOL     OW38224   2.613   2.655   2.681 -0.1207  0.0184 -0.2744
 8922SOL    HW138225   2.644   2.569   2.655  0.3461 -0.4435  1.8395
 8922SOL    HW238226   2.539   2.639   2.740 -0.1333  0.3044 -0.2101
 8923SOL     OW38227   0.803   1.290   9.509 -0.0276 -1.0512 -0.6127
 8923SOL    HW138228   0.814   1.376   9.551 -0.6560 -1.3064  0.0733
 8923SOL    HW238229   0.794   1.324   9.420  2.5246 -1.6562 -1.1183
 8924SOL     OW38230   1.191   3.164   8.315 -0.4499  0.0105  0.3827
 8924SOL    HW138231   1.096   3.156   8.311 -0.4296 -1.0817  2.1257
 8924SOL    HW238232   1.204   3.255   8.289 -0.1022  0.4174  1.9797
 8925SOL     OW38233   3.732   3.101   6.254 -0.2298  0.3989  0.1173
 8925SOL    HW138234   3.637   3.111   6.245 -0.4747 -0.3793  1.8538
 8925SOL    HW238235   3.734   3.016   6.296  0.2450  0.6604  0.6154
 8926SOL     OW38236   3.566   4.449   4.571  0.0658  0.4186  0.2337
 8926SOL    HW138237   3.602   4.482   4.489  3.3948 -1.7113  0.8154
 8926SOL    HW238238   3.474   4.443   4.547  0.2879  1.3387 -0.8385
 8927SOL     OW38239   2.525   2.002   6.623 -0.0831 -0.3436  0.1642
 8927SOL    HW138240   2.503   1.909   6.613  0.1427  0.0287 -3.5495
 8927SOL    HW238241   2.616   1.996   6.592 -0.0260 -0.3145  0.3243
 8928SOL     OW38242   2.657   0.022  11.312 -0.2157  0.1511 -0.4434
 8928SOL    HW138243   2.616   0.100  11.276 -1.2521 -0.7936 -1.2944
 8928SOL    HW238244   2.597   0.002  11.384 -0.1691  0.7753 -0.2301
 8929SOL     OW38245   2.778   0.753  17.398 -0.7352 -0.3910 -0.3352
 8929SOL    HW138246   2.778   0.696  17.476  0.6483  0.2730  0.1570
 8929SOL    HW238247   2.728   0.696  17.339 -0.3974  1.2622 -2.2027
 8930SOL     OW38248   4.474   2.178  16.037 -0.0851 -0.2525  0.1179
 8930SOL    HW138249   4.437   2.110  16.094 -1.1706  1.0017  0.9031
 8930SOL    HW238250   4.548   2.126  16.003 -0.5121  1.3988 -3.2953
 8931SOL     OW38251   0.590   1.823   9.330 -0.1968  0.1878 -0.0986
 8931SOL    HW138252   0.557   1.906   9.296 -0.3151  0.4667  0.6980
 8931SOL    HW238253   0.581   1.770   9.251 -0.7969 -0.2620  0.2666
 8932SOL     OW38254   0.569   2.577   3.714  0.1862  0.5744 -0.2303
 8932SOL    HW138255   0.490   2.555   3.763 -0.8045  2.1650 -1.1398
 8932SOL    HW238256   0.617   2.625   3.782 -1.0680  0.6129  0.6212
 8933SOL     OW38257   3.659   1.891   3.908  0.1763 -0.2421 -0.0196
 8933SOL    HW138258   3.585   1.914   3.851 -0.0001  1.8745  1.0596
 8933SOL    HW238259   3.688   1.814   3.859  0.2735 -0.4464  0.3608
 8934SOL     OW38260   1.913   3.266   1.389 -0.2931 -0.5202  0.3794
 8934SOL    HW138261   1.863   3.206   1.444 -0.2334 -2.2241 -1.4491
 8934SOL    HW238262   1.886   3.238   1.302  1.2829  0.2136 -0.3451
 8935SOL     OW38263   0.678   0.094   1.898  0.1609 -0.0505  0.7105
 8935SOL    HW138264   0.667   0.043   1.978  3.0234 -1.7493  0.0254
 8935SOL    HW238265   0.767   0.126   1.911  0.6385 -1.5771  1.1843
 8936SOL     OW38266   3.882   3.765  10.120  0.2325 -0.9020  0.1479
 8936SOL    HW138267   3.931   3.792  10.198 -1.0430  2.8620 -0.3567
 8936SOL    HW238268   3.892   3.670  10.127  3.7553 -0.6380 -0.9496
 8937SOL     OW38269   1.581   4.686  16.579  0.4748  0.2573 -0.1023
 8937SOL    HW138270   1.665   4.657  16.614  0.8721  2.1767  0.5529
 8937SOL    HW238271   1.558   0.032  16.640  0.5935 -0.5249  0.8396
 8938SOL     OW38272   2.461   3.672  17.236 -0.6832  0.2372 -0.3379
 8938SOL    HW138273   2.506   3.657  17.319  0.6500 -0.5161 -1.1991
 8938SOL    HW238274   2.443   3.582  17.208  0.2497 -0.8109  2.4552
 8939SOL     OW38275   1.301   3.549   5.307 -0.0913  0.2220  0.2790
 8939SOL    HW138276   1.262   3.584   5.387 -1.1302  0.9341 -0.5466
 8939SOL    HW238277   1.389   3.534   5.342 -0.5191  0.8278  1.6059
 8940SOL     OW38278   2.902   1.733   8.042  0.4456 -0.5440 -0.3934
 8940SOL    HW138279   2.906   1.808   8.100  0.7984 -1.0039  0.1781
 8940SOL    HW238280   2.981   1.685   8.066  0.9550  0.5519  0.1032
 8941SOL     OW38281   4.176   1.263   6.378  0.0588 -0.1438  0.2498
 8941SOL    HW138282   4.104   1.232   6.322  0.7915 -1.6282  0.1095
 8941SOL    HW238283   4.127   1.285   6.457  0.2443 -1.5292  0.7534
 8942SOL     OW38284   0.367   4.335  16.735 -0.0949  0.2883  0.2393
 8942SOL    HW138285   0.353   4.241  16.742 -0.7304  0.2472 -1.5712
 8942SOL    HW238286   0.304   4.363  16.801 -0.9496  0.8815 -0.8174
 8943SOL     OW38287   0.010   4.551   9.411 -0.0769 -0.8932  0.3204
 8943SOL    HW138288   0.067   4.479   9.385  0.8005 -0.4506  1.0369
 8943SOL    HW238289   4.662   4.539   9.349 -1.1863 -1.3407  1.7032
 8944SOL     OW38290   4.335   2.330   6.183 -0.6389  0.3251  0.7269
 8944SOL    HW138291   4.319   2.247   6.227 -2.2756  0.1458 -0.2142
 8944SOL    HW238292   4.407   2.373   6.229  2.5271 -1.4853 -2.5335
 8945SOL     OW38293   4.248   3.402   2.166  0.4196 -0.2724 -0.1456
 8945SOL    HW138294   4.289   3.458   2.101 -0.7887 -0.9184 -1.4517
 8945SOL    HW238295   4.191   3.359   2.102  0.5006 -0.2430 -0.2369
 8946SOL     OW38296   4.698   2.565   8.686 -0.1932 -0.3164 -0.5197
 8946SOL    HW138297   4.613   2.605   8.707  0.1271 -0.8045  1.8085
 8946SOL    HW238298   0.024   2.644   8.667  1.8586 -0.9044  2.4170
 8947SOL     OW38299   1.436   1.267   5.967  0.1303 -0.3765  0.2066
 8947SOL    HW138300   1.406   1.355   5.990  1.3837  0.2938 -0.7265
 8947SOL    HW238301   1.356   1.216   5.960 -0.2471 -0.0802  2.4121
 8948SOL     OW38302   3.257   0.629  17.514  0.0062 -0.1101 -0.2380
 8948SOL    HW138303   3.301   0.575  17.448 -1.0092 -3.3368  1.7736
 8948SOL    HW238304   3.191   0.667  17.456  1.7105  0.5368 -1.7626
 8949SOL     OW38305   2.977   1.524   6.908 -0.1819  0.2040  0.4275
 8949SOL    HW138306   2.959   1.492   6.996 -0.7584  0.8528  0.5434
 8949SOL    HW238307   3.071   1.541   6.916 -0.3858  1.9637 -1.0772
 8950SOL     OW38308   1.702   4.492   3.903 -1.1534 -0.1383  0.8055
 8950SOL    HW138309   1.614   4.529   3.908 -1.2257 -0.1315 -0.5930
 8950SOL    HW238310   1.754   4.571   3.887 -1.1366  0.3031  2.9916
 8951SOL     OW38311   1.937   0.678   2.904 -0.0540 -0.7348  0.4199
 8951SOL    HW138312   1.947   0.762   2.859  0.3962 -0.9746  0.0694
 8951SOL    HW238313   2.017   0.673   2.956 -0.1492 -0.1948  0.6131
 8952SOL     OW38314   2.650   4.204   0.405  0.1596  0.2096  0.3859
 8952SOL    HW138315   2.742   4.200   0.430 -0.1430 -1.7307  1.1683
 8952SOL    HW238316   2.654   4.250   0.321 -0.4239  3.0243  1.8993
 8953SOL     OW38317   0.456   3.399   1.882 -0.4337  0.3182  0.5741
 8953SOL    HW138318   0.452   3.494   1.871  2.4190  0.3887  0.3609
 8953SOL    HW238319   0.362   3.382   1.892 -0.5969  1.0426  0.2642
 8954SOL     OW38320   3.029   3.324   2.753  0.7898 -0.1762 -0.0078
 8954SOL    HW138321   3.075   3.386   2.697 -0.4042 -2.4465 -3.5031
 8954SOL    HW238322   3.023   3.252   2.690  3.8762  0.2456 -0.8266
 8955SOL     OW38323   4.549   0.868   7.502  0.9419 -0.0939  0.3963
 8955SOL    HW138324   4.458   0.842   7.490  1.0579 -0.4478  0.2688
 8955SOL    HW238325   4.556   0.843   7.593 -0.6921  2.1770  1.1508
 8956SOL     OW38326   0.320   4.045   6.164  0.4466 -0.3366  0.6813
 8956SOL    HW138327   0.317   4.141   6.156  1.3925 -0.2827  0.9963
 8956SOL    HW238328   0.300   4.021   6.074 -1.1589  2.1056  0.3746
 8957SOL     OW38329   3.462   4.505  11.154 -0.0331 -0.0319  0.6073
 8957SOL    HW138330   3.402   4.574  11.183  2.1101  1.3510  1.7652
 8957SOL    HW238331   3.469   4.505  11.059  0.6595 -0.7824  0.6625
 8958SOL     OW38332   0.856   4.718   9.203 -0.5044 -0.0815 -0.2580
 8958SOL    HW138333   0.891   0.045   9.130 -0.3197  2.3519  1.5278
 8958SOL    HW238334   0.810   0.062   9.252 -0.8541 -0.9274  0.5925
 8959SOL     OW38335   4.523   1.819   2.364  0.4604 -0.1281  0.3488
 8959SOL    HW138336   4.507   1.803   2.457  1.2930  0.1563  0.5402
 8959SOL    HW238337   4.443   1.856   2.327  0.9028 -0.6958 -1.1837
 8960SOL     OW38338   1.577   1.096  13.199 -0.3006  1.1208 -0.3064
 8960SOL    HW138339   1.595   1.061  13.112 -0.8091 -0.0183  0.0434
 8960SOL    HW238340   1.665   1.107  13.235 -0.8865 -0.2719  1.5671
 8961SOL     OW38341   0.449   1.843   4.916  0.1658 -0.3802 -0.0933
 8961SOL    HW138342   0.544   1.852   4.926 -0.0282  1.6556 -0.1478
 8961SOL    HW238343   0.451   1.749   4.897  3.3300 -0.5579  1.0311
 8962SOL     OW38344   0.759   3.702  13.538 -0.5582 -0.1248  0.3762
 8962SOL    HW138345   0.742   3.619  13.494 -1.5251 -0.1579  0.8154
 8962SOL    HW238346   0.758   3.775  13.477  0.6223 -0.0908  0.4015
 8963SOL     OW38347   3.089   0.535   6.720  0.1189 -0.1023  0.0638
 8963SOL    HW138348   3.133   0.619   6.707  1.0046 -0.8255 -1.4904
 8963SOL    HW238349   3.156   0.482   6.677  0.0943  0.2420 -0.3915
 8964SOL     OW38350   0.099   2.188   2.875  0.4132 -0.0767  0.4222
 8964SOL    HW138351   0.114   2.110   2.823  0.3484  0.7883 -0.8783
 8964SOL    HW238352   0.016   2.223   2.844  0.5447 -0.4819 -0.3693
 8965SOL     OW38353   0.900   0.925   1.011  0.0157 -0.3541 -0.4771
 8965SOL    HW138354   0.854   1.002   1.046 -0.7810 -1.1190  0.1699
 8965SOL    HW238355   0.896   0.941   0.917  0.5614 -0.8948 -0.5858
 8966SOL     OW38356   0.011   4.706   7.607 -0.0387  0.1634 -0.0636
 8966SOL    HW138357   4.640   4.707   7.607 -0.0375 -0.6990 -1.3878
 8966SOL    HW238358   0.026   4.715   7.702  1.6742 -1.7922 -0.1556
 8967SOL     OW38359   4.620   0.963   1.285 -0.1231 -0.5456 -0.4686
 8967SOL    HW138360   4.549   1.016   1.321 -0.1023 -0.1294 -1.0523
 8967SOL    HW238361   4.599   0.960   1.192 -1.2633  1.0806 -0.2565
 8968SOL     OW38362   1.374   1.137   4.882  0.6032 -0.1762  0.3483
 8968SOL    HW138363   1.360   1.191   4.804 -0.9689  0.4204  1.0561
 8968SOL    HW238364   1.463   1.167   4.903  0.4932  0.2546  0.2106
 8969SOL     OW38365   1.824   3.861   7.136  0.0889 -0.6054  0.3796
 8969SOL    HW138366   1.895   3.815   7.181  0.7592 -1.7637 -1.8513
 8969SOL    HW238367   1.777   3.791   7.090 -0.5607  0.5173 -0.6717
 8970SOL     OW38368   1.996   0.971  14.013 -0.1528  0.1086 -0.6677
 8970SOL    HW138369   2.049   0.957  14.091 -1.0465  0.3128 -0.0133
 8970SOL    HW238370   1.906   0.960  14.045  0.0117  1.4709  0.2579
 8971SOL     OW38371   0.781   0.031   7.024 -0.1748  0.5473 -0.4232
 8971SOL    HW138372   0.798   4.674   6.979 -0.6821 -0.3515  1.0242
 8971SOL    HW238373   0.751   4.724   7.109  1.1978  1.8457  0.5645
 8972SOL     OW38374   0.815   4.513   6.898  0.5306  0.2250  0.2697
 8972SOL    HW138375   0.877   4.455   6.853  0.3530  0.1553  0.1185
 8972SOL    HW238376   0.855   4.497   6.984  1.0850  1.9889  0.3615
 8973SOL     OW38377   4.104   1.831  13.805 -0.6510  0.0475  0.6997
 8973SOL    HW138378   4.088   1.896  13.874 -0.6051  1.9286 -1.0453
 8973SOL    HW238379   4.113   1.883  13.725 -0.2683 -0.6636  0.2892
 8974SOL     OW38380   2.362   4.017  15.637 -0.7229 -0.3473  0.4476
 8974SOL    HW138381   2.349   4.021  15.542  0.2616 -0.4794  0.3062
 8974SOL    HW238382   2.401   3.931  15.650 -1.3738 -0.5993  0.7292
 8975SOL     OW38383   1.333   4.253   0.337  0.1601 -0.1567 -0.4938
 8975SOL    HW138384   1.355   4.307   0.413 -0.7229  0.0618 -0.4042
 8975SOL    HW238385   1.413   4.207   0.310  0.6189  0.2079  0.2494
 8976SOL     OW38386   2.828   2.023   4.147 -0.2904  0.0463 -0.0465
 8976SOL    HW138387   2.837   2.117   4.162  1.5872 -0.3878  1.6525
 8976SOL    HW238388   2.832   1.984   4.235 -0.0557  1.2818  0.4923
 8977SOL     OW38389   2.599   4.296  16.322 -0.1359  0.1759 -0.2957
 8977SOL    HW138390   2.530   4.243  16.364  1.5039 -0.2556  1.8684
 8977SOL    HW238391   2.677   4.260  16.363 -0.2127  0.0056 -0.2956
 8978SOL     OW38392   4.615   3.112   6.713 -0.0758  0.4029  0.2816
 8978SOL    HW138393   4.587   3.180   6.774  1.5407  1.6479 -0.3540
 8978SOL    HW238394   4.661   3.057   6.777  2.2630 -0.0905 -1.7859
 8979SOL     OW38395   3.645   1.209   4.910  0.1509  0.6639 -0.3187
 8979SOL    HW138396   3.633   1.237   4.819  1.9362 -3.4739 -1.8271
 8979SOL    HW238397   3.585   1.139   4.934  1.4316 -0.4582 -0.3804
 8980SOL     OW38398   1.937   0.040  15.868  0.0127  0.2715  0.0120
 8980SOL    HW138399   1.880   0.008  15.938 -2.3863  0.1664 -2.0315
 8980SOL    HW238400   2.021   0.003  15.896 -0.9564 -0.8167  1.4449
 8981SOL     OW38401   3.270   0.610   5.764 -0.3115 -0.6449 -0.7750
 8981SOL    HW138402   3.319   0.646   5.838  0.8911  0.6803 -2.2050
 8981SOL    HW238403   3.257   0.686   5.707 -1.3666  1.0105  1.6626
 8982SOL     OW38404   3.914   0.785   0.141  0.1504 -0.4728  0.1948
 8982SOL    HW138405   3.986   0.844   0.118  0.3642 -0.1040  1.8384
 8982SOL    HW238406   3.898   0.805   0.233  0.4282 -0.1216  0.1665
 8983SOL     OW38407   1.971   1.349  17.085  0.5985 -0.0033  0.0970
 8983SOL    HW138408   2.020   1.295  17.022  0.9426  1.1342 -0.6027
 8983SOL    HW238409   1.888   1.308  17.063 -0.7775  2.2061  1.2050
 8984SOL     OW38410   2.527   3.780  14.838 -0.1065  0.5794  0.0715
 8984SOL    HW138411   2.509   3.868  14.870 -0.7371 -0.1911  1.8353
 8984SOL    HW238412   2.441   3.747  14.864  0.2321 -0.1375  0.2976
 8985SOL     OW38413   1.642   1.882  14.835  0.3826  0.1347  0.5364
 8985SOL    HW138414   1.643   1.919  14.747 -1.8031  0.1487  0.5236
 8985SOL    HW238415   1.648   1.791  14.806  1.3369 -0.4327  2.5419
 8986SOL     OW38416   2.113   1.523   8.411  0.0103 -0.1684 -0.2453
 8986SOL    HW138417   2.082   1.494   8.325 -1.0685  0.0992  0.0580
 8986SOL    HW238418   2.177   1.589   8.384  0.4572 -1.2907 -1.8912
 8987SOL     OW38419   0.329   2.405   5.815 -0.8443 -0.3534  0.2291
 8987SOL    HW138420   0.285   2.324   5.842 -0.2231 -0.6969  0.2190
 8987SOL    HW238421   0.336   2.381   5.722  0.5866  0.5679  0.1031
 8988SOL     OW38422   2.780   3.224   5.387 -0.4088  0.1656 -0.3164
 8988SOL    HW138423   2.831   3.186   5.316  0.9999  0.7702  0.3589
 8988SOL    HW238424   2.839   3.297   5.405  0.9095 -0.5725 -1.6663
 8989SOL     OW38425   2.475   2.377  16.606  0.2221  0.0033 -0.0631
 8989SOL    HW138426   2.528   2.396  16.529  0.9348 -1.9506 -0.0475
 8989SOL    HW238427   2.530   2.407  16.679 -0.6422  1.5687 -0.0414
 8990SOL     OW38428   2.093   3.655  13.023 -0.2973 -0.1763  0.4315
 8990SOL    HW138429   2.181   3.694  13.024  0.3161 -1.5774  1.4048
 8990SOL    HW238430   2.111   3.592  13.093 -0.1095  0.8070  1.2713
 8991SOL     OW38431   2.775   4.020   8.416 -0.2231  0.1108  0.0170
 8991SOL    HW138432   2.817   3.936   8.435  0.1998  0.0094 -1.3985
 8991SOL    HW238433   2.845   4.079   8.445 -1.9737  1.4869  1.5150
 8992SOL     OW38434   1.511   2.028   1.815 -0.1116  0.0544 -0.1560
 8992SOL    HW138435   1.466   2.056   1.895 -0.4200 -0.3540 -0.1827
 8992SOL    HW238436   1.539   2.108   1.771  1.7907 -1.5382 -1.8317
 8993SOL     OW38437   1.105   2.752   1.600 -0.0186 -0.2864 -0.7199
 8993SOL    HW138438   1.181   2.797   1.637 -1.0760 -0.2485  1.3997
 8993SOL    HW238439   1.049   2.826   1.575 -1.1817  0.0650  2.9770
 8994SOL     OW38440   3.194   2.219   8.383 -0.4457  0.6314  0.6021
 8994SOL    HW138441   3.246   2.236   8.304  0.5602  0.9066  1.3189
 8994SOL    HW238442   3.188   2.308   8.418  2.5487  1.3923 -0.7884
 8995SOL     OW38443   3.387   1.075   2.861  0.4805  0.2025 -0.2646
 8995SOL    HW138444   3.422   1.158   2.894  1.5394 -0.1330 -0.5197
 8995SOL    HW238445   3.317   1.101   2.801  0.8216 -0.8982 -1.1445
 8996SOL     OW38446   0.779   0.798   8.611 -0.0437 -0.0077  0.1553
 8996SOL    HW138447   0.809   0.707   8.618  0.4623  0.3057  2.0898
 8996SOL    HW238448   0.691   0.795   8.647  0.3028 -1.7859  0.8347
 8997SOL     OW38449   2.762   2.156   7.842 -0.3067  0.3235  0.2063
 8997SOL    HW138450   2.701   2.086   7.864 -2.5448  1.6291 -1.8496
 8997SOL    HW238451   2.818   2.135   7.916  0.3992  0.0406 -0.4190
 8998SOL     OW38452   0.193   3.913  10.792 -0.0136 -0.3072 -0.2355
 8998SOL    HW138453   0.159   3.862  10.719 -1.0308  0.4030 -0.2624
 8998SOL    HW238454   0.121   3.919  10.855 -0.7310  2.0981 -1.2894
 8999SOL     OW38455   2.408   4.289   9.618 -0.5781  0.4616 -0.4190
 8999SOL    HW138456   2.369   4.210   9.581 -0.3566  1.5520 -2.9138
 8999SOL    HW238457   2.429   4.341   9.541  1.3585  0.3115  0.0114
 9000SOL     OW38458   3.934   0.627  10.125 -0.1713 -0.2143 -0.1260
 9000SOL    HW138459   4.022   0.608  10.158  0.2108  0.8903 -0.4881
 9000SOL    HW238460   3.895   0.583  10.201 -2.2858 -0.1823 -1.1955
 9001SOL     OW38461   3.247   1.606  10.324 -0.2299 -0.9735 -0.1419
 9001SOL    HW138462   3.279   1.604  10.414 -2.9730  3.7229  0.9444
 9001SOL    HW238463   3.183   1.536  10.318 -1.2176  0.0178 -1.2617
 9002SOL     OW38464   1.069   1.953   5.749 -0.6169  0.2291 -0.1002
 9002SOL    HW138465   1.029   1.985   5.830  1.2101 -2.0782  1.7442
 9002SOL    HW238466   1.011   1.993   5.684 -0.0316  0.1926 -0.6466
 9003SOL     OW38467   3.051   3.313   4.306 -0.4333 -0.1857  0.0982
 9003SOL    HW138468   2.980   3.348   4.252  1.5953  2.2738 -0.9893
 9003SOL    HW238469   3.113   3.285   4.239  0.2975 -0.0797  0.7270
 9004SOL     OW38470   2.530   1.546   9.834  0.4254  0.2684  0.1865
 9004SOL    HW138471   2.483   1.550   9.917 -0.5777  0.5058 -0.3897
 9004SOL    HW238472   2.602   1.604   9.861 -0.4532  1.0514  0.8414
 9005SOL     OW38473   3.200   2.639   5.525 -0.7951 -0.0607  0.0052
 9005SOL    HW138474   3.240   2.563   5.569 -0.9618  0.7691  1.5945
 9005SOL    HW238475   3.112   2.606   5.510 -1.6344  1.4954  1.5444
 9006SOL     OW38476   2.513   2.417  10.532 -0.5387  0.0588  0.7029
 9006SOL    HW138477   2.522   2.361  10.454 -3.0167  1.6389 -0.7308
 9006SOL    HW238478   2.493   2.501  10.490  0.5752 -0.2213 -0.4051
 9007SOL     OW38479   0.541   2.418   8.019 -0.1685 -0.2054  0.4586
 9007SOL    HW138480   0.534   2.342   7.961 -0.0620  0.4182 -0.3775
 9007SOL    HW238481   0.477   2.393   8.085 -1.3318 -1.1307 -1.0290
 9008SOL     OW38482   0.353   0.676   5.290  0.2254 -0.6282  0.3670
 9008SOL    HW138483   0.328   0.712   5.204  0.9873 -1.1458 -0.0740
 9008SOL    HW238484   0.401   0.597   5.266  0.0772 -1.2325  2.1223
 9009SOL     OW38485   3.201   2.832   2.780  0.0685  0.0073  0.0922
 9009SOL    HW138486   3.223   2.739   2.790  0.7308 -0.0485 -1.8718
 9009SOL    HW238487   3.108   2.828   2.803  0.2017  0.6928  0.7338
 9010SOL     OW38488   0.343   0.826  12.871  0.4443 -0.2179  0.2067
 9010SOL    HW138489   0.351   0.825  12.776 -0.5995 -1.1796  0.1395
 9010SOL    HW238490   0.279   0.757  12.883 -0.1707  0.3515  0.2068
 9011SOL     OW38491   1.739   0.103   4.837 -0.2965 -0.5070 -0.8759
 9011SOL    HW138492   1.795   0.180   4.834 -0.3171 -0.5378 -1.9095
 9011SOL    HW238493   1.655   0.143   4.813 -0.1556  0.0124 -0.5087
 9012SOL     OW38494   0.139   3.586   4.532  0.2050 -0.0477  0.1298
 9012SOL    HW138495   0.218   3.541   4.501  1.6943  2.8355 -0.2627
 9012SOL    HW238496   0.117   3.641   4.457  1.4151 -1.4970 -1.3075
 9013SOL     OW38497   3.523   1.121   2.358  0.4529  0.0418 -0.6366
 9013SOL    HW138498   3.435   1.118   2.320  0.6156 -1.0202 -0.9329
 9013SOL    HW238499   3.545   1.212   2.337  2.2649 -0.6580 -1.7326
 9014SOL     OW38500   1.463   2.364   8.436  0.0562  0.5513 -0.0473
 9014SOL    HW138501   1.551   2.338   8.462 -0.6179 -2.0858 -0.3618
 9014SOL    HW238502   1.475   2.437   8.375  0.4848  0.4592 -0.0737
 9015SOL     OW38503   2.397   2.978   3.149  0.4368  0.4008  0.4574
 9015SOL    HW138504   2.323   2.968   3.209 -0.7406 -0.6571 -1.1545
 9015SOL    HW238505   2.432   2.890   3.140 -3.9241 -1.2747  0.1142
 9016SOL     OW38506   0.366   0.393  10.965 -0.4723  0.1576  0.0637
 9016SOL    HW138507   0.327   0.423  11.047  0.1610 -0.1437  0.4731
 9016SOL    HW238508   0.295   0.421  10.908 -1.3214  0.8940  1.4705
 9017SOL     OW38509   2.337   0.226  13.589 -0.4030 -0.0421 -0.2556
 9017SOL    HW138510   2.339   0.290  13.518  1.4992 -0.3173 -0.4390
 9017SOL    HW238511   2.300   0.273  13.664 -0.1913 -0.2850  0.0014
 9018SOL     OW38512   4.384   3.010   5.375 -0.2424 -0.4452 -0.1616
 9018SOL    HW138513   4.342   3.069   5.438 -2.6745 -0.7891 -1.4487
 9018SOL    HW238514   4.313   3.004   5.311 -1.5348 -0.1835  1.2323
 9019SOL     OW38515   4.478   3.479   3.499 -0.6261  0.8371 -0.0951
 9019SOL    HW138516   4.453   3.561   3.542 -0.1215  0.7144  0.4234
 9019SOL    HW238517   4.506   3.431   3.577 -1.1329  1.0570  0.2262
 9020SOL     OW38518   1.209   0.377   8.694 -0.0262  0.0337 -0.3183
 9020SOL    HW138519   1.215   0.289   8.656 -1.2071 -0.1180 -0.1625
 9020SOL    HW238520   1.146   0.362   8.765 -0.7447 -0.0010 -0.9618
 9021SOL     OW38521   3.276   0.957   7.459 -0.4252 -0.3074 -0.2968
 9021SOL    HW138522   3.257   0.986   7.548  0.4041 -2.5598  0.6337
 9021SOL    HW238523   3.320   0.877   7.488  2.2984  1.0807 -0.5984
 9022SOL     OW38524   0.968   4.451   8.086 -0.4982 -0.0217  0.5766
 9022SOL    HW138525   0.949   4.440   8.179  1.4674  3.3439  1.4144
 9022SOL    HW238526   0.969   4.547   8.075 -1.8204 -0.1450 -0.5816
 9023SOL     OW38527   1.109   0.327   1.079 -0.5180 -0.5374  0.0148
 9023SOL    HW138528   1.187   0.338   1.025  0.0197 -0.3571  0.8345
 9023SOL    HW238529   1.056   0.265   1.028 -3.2378  1.4625  0.3701
 9024SOL     OW38530   0.372   3.749   5.490  0.2956 -0.1142  0.2078
 9024SOL    HW138531   0.461   3.784   5.489  0.4691 -0.5170  2.4192
 9024SOL    HW238532   0.315   3.804   5.437  0.9045 -0.8065 -1.1741
 9025SOL     OW38533   1.350   3.392  10.058  0.0741 -0.4818 -0.3348
 9025SOL    HW138534   1.342   3.487  10.047 -1.0416 -0.3114  1.9642
 9025SOL    HW238535   1.393   3.361   9.978  2.2427  1.4920  0.0678
 9026SOL     OW38536   4.159   2.278   9.213 -0.0786  0.4078 -0.2425
 9026SOL    HW138537   4.082   2.229   9.183  1.7179 -0.4625 -3.4409
 9026SOL    HW238538   4.106   2.357   9.219 -1.7992 -0.6538 -1.4644
 9027SOL     OW38539   1.271   3.849   1.383 -0.4995  0.8597  0.2929
 9027SOL    HW138540   1.227   3.922   1.339  0.5290  0.7965 -0.8542
 9027SOL    HW238541   1.359   3.877   1.405  0.5932 -0.7162 -2.0287
 9028SOL     OW38542   0.159   4.307   3.889 -0.0014  0.8564  0.1848
 9028SOL    HW138543   0.097   4.324   3.819 -0.2334  0.3957  0.2765
 9028SOL    HW238544   0.241   4.286   3.844  0.0425  0.9986  0.1991
 9029SOL     OW38545   1.701   1.969   8.761 -0.1772 -0.5958  0.3172
 9029SOL    HW138546   1.716   1.955   8.668 -0.2932 -0.4137  0.2717
 9029SOL    HW238547   1.717   1.878   8.787  0.4706 -0.4822  0.3174
 9030SOL     OW38548   4.521   2.731   0.774 -0.1426 -0.4069 -0.1778
 9030SOL    HW138549   4.550   2.816   0.809 -0.3583  0.3386 -1.8319
 9030SOL    HW238550   4.543   2.749   0.683  2.7088  2.0161  0.9936
 9031SOL     OW38551   0.721   4.410   7.722  0.5615 -0.3705 -0.0456
 9031SOL    HW138552   0.740   4.504   7.721 -0.9349 -0.0823 -0.7681
 9031SOL    HW238553   0.750   4.381   7.809  1.2531  1.6218  0.3896
 9032SOL     OW38554   1.149   2.039   3.003  0.3756  0.3269  0.0868
 9032SOL    HW138555   1.063   1.998   2.994 -0.4274  2.0406 -0.1134
 9032SOL    HW238556   1.199   1.982   2.945 -1.9276 -1.5900 -0.0401
 9033SOL     OW38557   0.980   4.673   5.776 -0.6363  0.4793  0.1388
 9033SOL    HW138558   0.951   4.597   5.826 -0.4003 -1.4820 -2.6926
 9033SOL    HW238559   0.904   4.676   5.719  1.6174 -0.0238 -2.8922
 9034SOL     OW38560   4.541   0.706   8.269  0.0391  0.7030  0.0595
 9034SOL    HW138561   4.544   0.722   8.363 -0.2696  1.7109 -0.1023
 9034SOL    HW238562   4.630   0.675   8.250  0.1910  0.8102  0.6127
 9035SOL     OW38563   0.252   2.280   4.761 -0.6471 -0.4510 -0.2903
 9035SOL    HW138564   0.282   2.189   4.758  1.0681  0.1320 -1.2268
 9035SOL    HW238565   0.251   2.307   4.669 -2.6963 -0.1698 -0.1698
 9036SOL     OW38566   3.903   3.586   7.138 -0.1071 -0.1044 -0.0475
 9036SOL    HW138567   3.825   3.538   7.108 -0.7332  0.9081 -0.0620
 9036SOL    HW238568   3.917   3.536   7.218 -2.5247 -1.0380 -0.2027
 9037SOL     OW38569   0.190   2.169   9.424  0.2489  0.2256 -0.7898
 9037SOL    HW138570   0.120   2.126   9.375 -1.9946  3.5975 -0.5550
 9037SOL    HW238571   0.180   2.141   9.515 -3.5536  0.8370 -1.0396
 9038SOL     OW38572   0.853   1.250   8.257  0.1274 -0.3035  0.0185
 9038SOL    HW138573   0.812   1.176   8.302  1.6483 -1.6708 -0.8303
 9038SOL    HW238574   0.784   1.317   8.259 -0.9062 -1.3930  0.6819
 9039SOL     OW38575   0.645   2.736   2.255  0.4227  0.4552  0.0840
 9039SOL    HW138576   0.565   2.762   2.300  0.8783  2.3705 -0.1822
 9039SOL    HW238577   0.665   2.649   2.289  0.4159  0.5444  0.3160
 9040SOL     OW38578   2.234   0.534   7.081 -0.1231 -0.1030 -0.3209
 9040SOL    HW138579   2.309   0.565   7.131 -0.9104  1.7280 -0.2804
 9040SOL    HW238580   2.211   0.449   7.119  1.8330 -0.8916 -0.8742
 9041SOL     OW38581   0.756   2.088   8.188 -0.0400  0.2838 -0.0608
 9041SOL    HW138582   0.800   2.007   8.211 -1.3188 -0.7297 -1.1777
 9041SOL    HW238583   0.784   2.151   8.255 -0.4204  0.5174 -0.1196
 9042SOL     OW38584   3.820   2.624  10.922 -0.4408 -0.1913  0.7039
 9042SOL    HW138585   3.877   2.550  10.898  0.3263  0.4953  0.4165
 9042SOL    HW238586   3.801   2.655  10.834  1.1641 -0.1377  0.3761
 9043SOL     OW38587   3.644   4.480   5.731 -0.6945 -0.5672 -0.0668
 9043SOL    HW138588   3.638   4.576   5.731 -1.1744 -0.6215 -3.5052
 9043SOL    HW238589   3.738   4.468   5.720 -0.9109 -2.4271  0.2221
 9044SOL     OW38590   4.106   4.175   3.650  0.6996  0.0653  0.2268
 9044SOL    HW138591   4.101   4.111   3.721 -0.8783  0.8816  0.8505
 9044SOL    HW238592   4.086   4.255   3.699 -2.0512 -0.6995  0.3301
 9045SOL     OW38593   1.344   2.081  12.382 -0.3375 -0.1799  0.2915
 9045SOL    HW138594   1.414   2.016  12.383 -1.3692 -1.3052  0.4421
 9045SOL    HW238595   1.365   2.142  12.453 -1.7399  1.6428 -0.8521
 9046SOL     OW38596   4.564   4.097   2.317 -0.1633  0.0983  0.1420
 9046SOL    HW138597   4.508   4.109   2.394  0.5523 -2.4846  1.0817
 9046SOL    HW238598   4.571   4.001   2.317 -1.0515  0.0319  0.4119
 9047SOL     OW38599   4.604   2.549   9.975  0.0760  0.2182  0.4219
 9047SOL    HW138600   4.636   2.561  10.064  0.8212 -1.7529  0.4223
 9047SOL    HW238601   4.522   2.599   9.976 -0.7001 -1.0942  1.1653
 9048SOL     OW38602   4.712   3.899   7.178 -0.0258  0.9030  0.0616
 9048SOL    HW138603   4.674   3.818   7.146  0.6213  0.5521  0.1682
 9048SOL    HW238604   0.058   3.914   7.115 -1.4839  2.1412 -1.2797
 9049SOL     OW38605   1.978   2.332   1.697 -0.2622 -0.1790  0.4254
 9049SOL    HW138606   1.883   2.333   1.709 -0.4692 -1.7560 -1.0529
 9049SOL    HW238607   1.992   2.397   1.629 -0.3738 -0.0436  0.5314
 9050SOL     OW38608   1.260   0.050   5.232  0.0017 -0.1014  0.0229
 9050SOL    HW138609   1.307   0.002   5.164 -1.7529 -1.4088 -0.2864
 9050SOL    HW238610   1.243   4.704   5.295 -1.8112 -0.6220 -1.0366
 9051SOL     OW38611   0.551   1.537   0.580 -0.1341  0.0583  0.4354
 9051SOL    HW138612   0.587   1.623   0.559 -0.8835  0.2136 -0.1990
 9051SOL    HW238613   0.605   1.505   0.653 -0.6837 -0.8403  0.4502
 9052SOL     OW38614   1.727   1.133   5.821  0.1627  0.7446 -0.3213
 9052SOL    HW138615   1.797   1.170   5.875  0.1309  2.0629 -1.1901
 9052SOL    HW238616   1.695   1.217   5.789  1.1046  1.6123  1.0012
 9053SOL     OW38617   4.566   4.389   0.294 -0.2887  0.0092 -0.6681
 9053SOL    HW138618   4.661   4.404   0.297 -0.5912  1.7672 -0.1123
 9053SOL    HW238619   4.555   4.410   0.386  2.2388 -0.8423 -0.1663
 9054SOL     OW38620   0.122   4.400   2.125 -0.2469 -0.2778 -0.0325
 9054SOL    HW138621   0.074   4.366   2.200 -1.5815  2.2364  0.2377
 9054SOL    HW238622   0.091   4.340   2.057  1.3374  0.6670 -1.5938
 9055SOL     OW38623   4.076   0.663   5.088  0.9492  0.0083  0.5875
 9055SOL    HW138624   4.066   0.638   5.179 -0.0125 -0.7312  0.2853
 9055SOL    HW238625   4.136   0.595   5.056  2.1054  1.4614 -0.3906
 9056SOL     OW38626   1.508   1.523  10.199  0.0319  0.6837 -0.8040
 9056SOL    HW138627   1.549   1.600  10.238 -2.0225  1.3103  0.1133
 9056SOL    HW238628   1.502   1.470  10.279  1.1803 -0.8359 -1.7091
 9057SOL     OW38629   1.916   0.497   4.297 -0.0340  0.0158  0.4716
 9057SOL    HW138630   1.935   0.590   4.286 -0.7203 -0.1725 -2.3456
 9057SOL    HW238631   1.887   0.494   4.388  0.4494  0.2725  0.6343
 9058SOL     OW38632   1.131   4.636   0.362 -0.0617 -0.4131  0.1026
 9058SOL    HW138633   1.122   4.576   0.288 -1.0459  1.4007 -1.2604
 9058SOL    HW238634   1.059   4.596   0.410 -0.3249  0.6491  0.5898
 9059SOL     OW38635   4.713   0.043  17.417  0.1018 -0.3342 -0.1876
 9059SOL    HW138636   0.028   0.021  17.502 -0.5237  1.1909  0.5055
 9059SOL    HW238637   4.661   0.117  17.449  1.1462  0.0156  0.7339
 9060SOL     OW38638   4.515   1.337   3.583  0.0508  0.1564 -0.0915
 9060SOL    HW138639   4.452   1.321   3.654  1.3848 -1.4470  0.7503
 9060SOL    HW238640   4.547   1.247   3.576 -0.6067 -0.1196  0.4387
 9061SOL     OW38641   0.615   4.021   2.432 -0.0343 -0.1618  0.0687
 9061SOL    HW138642   0.681   4.091   2.437  0.5378 -0.6300 -0.9745
 9061SOL    HW238643   0.583   4.046   2.519  0.2356  1.4805 -0.3104
 9062SOL     OW38644   1.248   3.587   7.901 -0.6039 -0.1701 -0.2843
 9062SOL    HW138645   1.230   3.500   7.934 -0.1453 -1.2430 -2.8448
 9062SOL    HW238646   1.249   3.637   7.983 -1.7780 -0.5728 -0.0288
 9063SOL     OW38647   3.353   2.892  14.676  0.2040 -0.1950 -0.2047
 9063SOL    HW138648   3.341   2.916  14.585  0.2665 -1.6394 -0.5970
 9063SOL    HW238649   3.264   2.872  14.707  1.2902  1.3036  3.9300
 9064SOL     OW38650   1.099   3.454  14.194  0.7346  0.5182  0.1996
 9064SOL    HW138651   1.039   3.393  14.235 -0.7997  1.8287 -0.1003
 9064SOL    HW238652   1.135   3.398  14.125  0.3058 -0.2977  0.6468
 9065SOL     OW38653   0.381   1.134   2.609 -0.5183 -0.0636  0.3405
 9065SOL    HW138654   0.378   1.129   2.513  0.8561 -0.2046  0.3149
 9065SOL    HW238655   0.434   1.212   2.623 -0.4011  0.2261 -1.5952
 9066SOL     OW38656   3.702   2.961   2.916  0.0896  0.8285  0.1713
 9066SOL    HW138657   3.614   2.994   2.936 -0.1049  0.9784 -0.9640
 9066SOL    HW238658   3.748   2.958   3.001  1.6120 -0.4110 -0.6986
 9067SOL     OW38659   4.192   1.437   5.215 -0.0791  0.2887 -0.3567
 9067SOL    HW138660   4.229   1.355   5.184 -2.9576 -0.9664 -0.5018
 9067SOL    HW238661   4.146   1.466   5.136 -0.5313 -0.6235 -0.4359
 9068SOL     OW38662   0.115   2.857   4.067 -0.2894  0.4691  0.3975
 9068SOL    HW138663   0.125   2.802   3.989  0.2911  0.2246  0.6455
 9068SOL    HW238664   0.095   2.788   4.132 -0.2780  1.2237  1.2018
 9069SOL     OW38665   0.617   4.013   6.014  0.0661 -0.2492 -0.6440
 9069SOL    HW138666   0.595   4.090   5.962  1.2043  0.0103 -0.7510
 9069SOL    HW238667   0.529   3.987   6.038 -0.8007  0.4614 -3.0334
 9070SOL     OW38668   0.570   2.684   8.852  0.1431  0.1822 -0.0206
 9070SOL    HW138669   0.599   2.730   8.932 -0.3701  0.9825 -0.2849
 9070SOL    HW238670   0.597   2.757   8.797  1.3954  0.0608  0.4365
 9071SOL     OW38671   2.002   4.565   9.455 -0.2247 -0.0175  0.3327
 9071SOL    HW138672   1.998   4.488   9.399 -1.7817  1.5945 -1.7871
 9071SOL    HW238673   1.984   4.632   9.389  3.3760  0.1930 -0.4041
 9072SOL     OW38674   0.784   2.946   2.154  0.1304 -0.3215 -0.1463
 9072SOL    HW138675   0.714   2.887   2.183  1.1428 -0.9341  1.0730
 9072SOL    HW238676   0.802   2.995   2.235  0.7761  0.6965 -0.9111
 9073SOL     OW38677   0.623   2.581   9.522  0.0198 -0.0060  0.6837
 9073SOL    HW138678   0.590   2.510   9.577  0.3223  0.1292  1.0359
 9073SOL    HW238679   0.641   2.539   9.437  0.4716 -0.9752  1.2590
 9074SOL     OW38680   0.189   3.515   2.785  0.4878  0.1525 -0.6079
 9074SOL    HW138681   0.237   3.503   2.867  1.6443  0.4880 -1.2393
 9074SOL    HW238682   0.231   3.594   2.752  1.4991  0.2564  0.9403
 9075SOL     OW38683   0.050   0.219   1.145 -0.0597 -0.2724 -0.0120
 9075SOL    HW138684   0.103   0.139   1.149 -2.0435 -1.6486 -1.1997
 9075SOL    HW238685   0.104   0.272   1.087 -2.4629  1.3458 -0.7375
 9076SOL     OW38686   3.043   3.088   6.277 -0.1689 -0.1149 -0.2846
 9076SOL    HW138687   3.068   3.091   6.184 -1.8281  0.6265 -0.7113
 9076SOL    HW238688   3.108   3.151   6.306 -1.7686  0.8563  1.1469
 9077SOL     OW38689   1.575   3.986   7.818  0.2849  0.2369  0.2187
 9077SOL    HW138690   1.600   3.924   7.749  2.2413  1.5318 -0.2319
 9077SOL    HW238691   1.571   4.067   7.767 -2.5297  1.3904  2.2599
 9078SOL     OW38692   2.570   2.669   8.764 -0.2287 -0.3510 -0.2625
 9078SOL    HW138693   2.604   2.753   8.794  2.6684 -2.4828  2.4358
 9078SOL    HW238694   2.542   2.695   8.676 -1.5057  0.2906  0.3298
 9079SOL     OW38695   4.635   3.490   4.650  0.3582 -0.0991  0.1782
 9079SOL    HW138696   4.711   3.538   4.619 -0.4084  0.2683 -1.1023
 9079SOL    HW238697   4.679   3.411   4.684  0.7998 -0.0509 -0.2843
 9080SOL     OW38698   1.699   1.980  14.572 -0.0540  0.0454 -0.3079
 9080SOL    HW138699   1.792   2.001  14.567 -0.0433 -0.2624 -1.3329
 9080SOL    HW238700   1.668   2.053  14.518  2.4681  1.1457 -0.2799
 9081SOL     OW38701   2.113   0.675   3.722 -0.3231  0.1813  0.1625
 9081SOL    HW138702   2.087   0.766   3.736  2.9849  1.2545 -0.8136
 9081SOL    HW238703   2.032   0.629   3.748 -1.4473  0.9160 -2.1002
 9082SOL     OW38704   3.196   1.119   0.726 -0.3484 -0.1135  0.2443
 9082SOL    HW138705   3.231   1.113   0.637 -0.2043  1.5374  0.1773
 9082SOL    HW238706   3.107   1.148   0.706 -0.3084 -0.0999  0.0813
 9083SOL     OW38707   3.030   4.242  10.136 -0.4843  0.0991  0.0871
 9083SOL    HW138708   2.964   4.173  10.143  0.4996 -0.6254  2.1646
 9083SOL    HW238709   3.092   4.220  10.205 -2.0221 -1.2057  1.0382
 9084SOL     OW38710   3.896   1.676   2.803  0.2291  0.0909  0.1601
 9084SOL    HW138711   3.970   1.736   2.806  0.2987  0.0161 -0.0451
 9084SOL    HW238712   3.873   1.682   2.710 -0.9126  0.4061  0.4552
 9085SOL     OW38713   4.260   0.761  12.663 -0.2725  0.5948  0.3783
 9085SOL    HW138714   4.189   0.737  12.603  0.7401 -2.2066  0.2990
 9085SOL    HW238715   4.326   0.692  12.655 -1.8593 -0.8361 -0.2724
 9086SOL     OW38716   3.184   3.252   4.054  0.4630  0.2560  0.5958
 9086SOL    HW138717   3.111   3.261   3.992  1.5544  0.8426 -0.5924
 9086SOL    HW238718   3.196   3.158   4.047  0.5119  0.2770  0.3962
 9087SOL     OW38719   2.642   1.687   2.650  0.1627  0.6875 -0.3521
 9087SOL    HW138720   2.707   1.620   2.630  0.1148  0.7132 -0.5945
 9087SOL    HW238721   2.567   1.637   2.684 -1.1026  1.4229 -2.0675
 9088SOL     OW38722   0.929   4.245   4.958 -0.1583 -0.2219  0.0387
 9088SOL    HW138723   0.867   4.173   4.948 -1.0756  0.4103  1.2541
 9088SOL    HW238724   0.900   4.307   4.891  0.7216 -1.2206 -1.2709
 9089SOL     OW38725   0.194   1.579  10.336  0.3499 -0.6767  0.1388
 9089SOL    HW138726   0.161   1.669  10.334 -0.9917 -1.2406 -3.2139
 9089SOL    HW238727   0.259   1.587  10.405 -0.6624 -3.2104  1.3745
 9090SOL     OW38728   4.553   2.004   1.196  0.3395 -0.0983 -0.1395
 9090SOL    HW138729   4.615   1.934   1.214 -1.3350 -1.5652 -0.0626
 9090SOL    HW238730   4.602   2.072   1.241  0.1606  0.8028 -1.2936
 9091SOL     OW38731   0.522   1.072   6.349 -0.1756 -0.1426  0.2414
 9091SOL    HW138732   0.539   1.161   6.317  0.6804 -0.4158 -0.0807
 9091SOL    HW238733   0.534   1.086   6.442 -2.7602 -0.7378  0.6576
 9092SOL     OW38734   2.641   4.416   2.309  0.0813  0.4118  0.3077
 9092SOL    HW138735   2.610   4.484   2.249  1.0789  0.8148  0.2494
 9092SOL    HW238736   2.703   4.457   2.370  2.3766 -1.3624 -0.8041
 9093SOL     OW38737   2.770   4.329   5.364 -0.2543  0.2415 -0.1400
 9093SOL    HW138738   2.843   4.322   5.426 -0.3877 -0.3376 -0.0485
 9093SOL    HW238739   2.701   4.277   5.405  1.6966 -1.6253  0.8055
 9094SOL     OW38740   1.959   2.277   1.282  0.6239  0.3223  0.3775
 9094SOL    HW138741   1.935   2.195   1.325 -1.4206  1.1520  0.8360
 9094SOL    HW238742   2.013   2.231   1.218 -0.2568  0.5216 -0.5121
 9095SOL     OW38743   0.314   3.164   5.564  0.6069  0.6971 -0.5462
 9095SOL    HW138744   0.333   3.122   5.648 -1.1097  0.6080 -0.2044
 9095SOL    HW238745   0.391   3.143   5.512 -0.1712 -0.9626 -1.0033
 9096SOL     OW38746   1.380   1.753  13.357 -0.1725  0.9155 -0.1461
 9096SOL    HW138747   1.286   1.747  13.337 -0.2430  0.3698  0.3428
 9096SOL    HW238748   1.418   1.761  13.269  0.7171 -0.0017  0.1568
 9097SOL     OW38749   1.866   0.458  14.437 -0.1753 -0.2902 -0.2124
 9097SOL    HW138750   1.850   0.364  14.425 -1.8553  0.0023 -0.2378
 9097SOL    HW238751   1.801   0.506  14.385 -1.1656  1.0883  2.3263
 9098SOL     OW38752   3.695   0.497   7.747 -0.0666  0.7650 -0.7165
 9098SOL    HW138753   3.739   0.412   7.745 -1.0429  0.2972 -2.6476
 9098SOL    HW238754   3.644   0.492   7.828  1.6278  0.5964  0.3271
 9099SOL     OW38755   1.866   2.288   8.495 -0.5094  0.1496 -0.1963
 9099SOL    HW138756   1.801   2.343   8.539  0.0517 -0.1095  0.9504
 9099SOL    HW238757   1.886   2.248   8.579  1.5083  1.6542  0.0350
 9100SOL     OW38758   1.219   4.444   4.592 -0.1237 -0.5629 -0.5478
 9100SOL    HW138759   1.296   4.388   4.606  0.1032 -0.3805 -1.0853
 9100SOL    HW238760   1.190   4.462   4.681  0.3648 -1.1889 -0.2609
 9101SOL     OW38761   0.493   3.595   1.178 -0.3435 -0.2036 -0.0702
 9101SOL    HW138762   0.419   3.605   1.118  0.6571  0.2474 -1.2274
 9101SOL    HW238763   0.482   3.658   1.249  0.7404 -0.2181  0.1075
 9102SOL     OW38764   0.338   0.535   1.352 -0.0294  0.7685 -0.4115
 9102SOL    HW138765   0.281   0.610   1.338 -1.6327 -0.3113  0.3528
 9102SOL    HW238766   0.342   0.501   1.262 -1.0067  1.8043 -0.8441
 9103SOL     OW38767   2.361   2.553   8.208  0.5464  0.0343  0.7887
 9103SOL    HW138768   2.441   2.596   8.238  0.8604  2.4142 -3.3492
 9103SOL    HW238769   2.287   2.604   8.240  0.2784  1.4307 -2.0090
 9104SOL     OW38770   4.291   3.008  11.673 -0.1220 -0.1672 -0.3361
 9104SOL    HW138771   4.277   3.082  11.732  0.7118  1.6048 -2.3846
 9104SOL    HW238772   4.357   2.957  11.721 -0.8032  0.1336  0.9283
 9105SOL     OW38773   2.646   1.809  10.976 -0.0853  0.1463  0.1494
 9105SOL    HW138774   2.568   1.754  10.985  0.1873 -0.4316 -0.9499
 9105SOL    HW238775   2.693   1.737  10.934  1.3933  0.3755  1.4097
 9106SOL     OW38776   3.480   4.485   3.302 -0.0928  0.0219  0.4559
 9106SOL    HW138777   3.468   4.554   3.236 -2.8337 -2.2440 -1.3942
 9106SOL    HW238778   3.463   4.516   3.391 -2.6105 -1.8408  0.6299
 9107SOL     OW38779   2.517   2.508   9.552  0.2627  0.2443  0.0662
 9107SOL    HW138780   2.506   2.413   9.549 -2.8745  0.6600 -1.6955
 9107SOL    HW238781   2.444   2.523   9.612 -0.5955 -0.1662 -0.8909
 9108SOL     OW38782   1.739   2.321   5.465  0.2633 -0.4394 -0.3537
 9108SOL    HW138783   1.670   2.332   5.531  1.4981  1.9856  0.5244
 9108SOL    HW238784   1.813   2.298   5.521 -0.8981 -1.3474  0.8213
 9109SOL     OW38785   0.891   0.105  10.470 -0.2182  0.1668 -0.8644
 9109SOL    HW138786   0.804   0.104  10.511 -0.8435 -3.5628 -2.2056
 9109SOL    HW238787   0.950   0.142  10.535  0.8617 -1.3255 -0.9919
 9110SOL     OW38788   4.125   0.391   9.706 -0.2910  0.0512  0.4286
 9110SOL    HW138789   4.150   0.301   9.687  1.3282  0.3718  1.0285
 9110SOL    HW238790   4.144   0.397   9.800 -0.4963  0.3564  0.4520
 9111SOL     OW38791   3.730   4.167  16.542 -0.0050 -0.1925 -0.2286
 9111SOL    HW138792   3.739   4.165  16.637  0.0186 -1.0290 -0.2501
 9111SOL    HW238793   3.731   4.262  16.538  1.2351 -0.1626  0.7246
 9112SOL     OW38794   0.461   3.042   2.017  0.4386  0.1519  0.5309
 9112SOL    HW138795   0.409   2.989   1.955  0.9188  2.0390 -1.4992
 9112SOL    HW238796   0.425   3.015   2.101  1.1586 -2.2765  0.0750
 9113SOL     OW38797   1.096   1.191   7.601 -0.0915 -0.3783  0.1288
 9113SOL    HW138798   1.028   1.236   7.551 -0.3771 -0.6329  0.2842
 9113SOL    HW238799   1.171   1.242   7.573 -0.4409 -1.2124 -2.2955
 9114SOL     OW38800   0.068   1.784   6.042 -0.2703  0.0628 -0.1109
 9114SOL    HW138801   0.118   1.866   6.039  2.2659 -1.4671  0.6888
 9114SOL    HW238802   4.718   1.807   6.097  0.7267  2.7152  0.1646
 9115SOL     OW38803   2.690   2.600  16.488 -0.2659 -0.0357 -0.2846
 9115SOL    HW138804   2.734   2.629  16.568 -1.7790  1.2851  0.0647
 9115SOL    HW238805   2.660   2.682  16.449 -0.3658 -0.4304 -1.0501
 9116SOL     OW38806   2.677   0.436   2.369  0.4540 -0.1166  0.2695
 9116SOL    HW138807   2.599   0.488   2.353  1.0868  1.0124  0.8144
 9116SOL    HW238808   2.630   0.354   2.377 -1.9636  0.8710 -4.1059
 9117SOL     OW38809   1.492   1.060   2.775  0.2094 -0.3571 -0.1793
 9117SOL    HW138810   1.487   1.155   2.763 -0.3493 -0.3834 -0.1141
 9117SOL    HW238811   1.440   1.033   2.700  0.8833  1.1140 -1.1970
 9118SOL     OW38812   1.214   4.485   1.098 -0.6544 -0.2616  0.1051
 9118SOL    HW138813   1.265   4.537   1.036 -0.6878  0.2278  0.4943
 9118SOL    HW238814   1.288   4.442   1.142  1.2488  2.4246 -0.5096
 9119SOL     OW38815   0.724   2.636   7.977 -0.0958  0.0754 -0.0690
 9119SOL    HW138816   0.689   2.547   7.986  1.8043 -0.4719  1.8520
 9119SOL    HW238817   0.656   2.685   8.022  0.5945  0.7277  0.2481
 9120SOL     OW38818   0.608   0.666  13.485  0.4315 -0.1286 -0.0571
 9120SOL    HW138819   0.550   0.721  13.432  0.1720 -0.2733  0.0791
 9120SOL    HW238820   0.550   0.597  13.517  0.0247  1.3521  2.3993
 9121SOL     OW38821   1.515   1.897   8.322  0.0256  0.4873 -0.1200
 9121SOL    HW138822   1.472   1.981   8.302  3.3816  2.6246  1.7030
 9121SOL    HW238823   1.590   1.913   8.265  0.8936 -0.3149  0.8262
 9122SOL     OW38824   3.371   0.434   9.029 -0.2100  0.6241  0.5846
 9122SOL    HW138825   3.297   0.487   9.002  1.0012  1.9121 -0.2208
 9122SOL    HW238826   3.333   0.364   9.082 -1.4576  1.2759  0.5528
 9123SOL     OW38827   2.268   0.973   1.757  0.3202  0.4013  0.2916
 9123SOL    HW138828   2.207   1.028   1.708  2.1676  1.7846 -0.4853
 9123SOL    HW238829   2.324   0.937   1.688 -0.2805  0.3419 -0.1622
 9124SOL     OW38830   0.723   4.086   0.594  0.0050  0.3246  0.1318
 9124SOL    HW138831   0.761   4.128   0.517 -1.0931  0.4053 -0.3770
 9124SOL    HW238832   0.699   4.163   0.646 -0.6184 -0.3183  0.7977
 9125SOL     OW38833   3.912   4.190   1.283  0.8160  0.3125 -0.0716
 9125SOL    HW138834   3.920   4.264   1.343 -0.0633  1.0423 -0.8607
 9125SOL    HW238835   4.001   4.157   1.273  1.0311  1.1908 -1.0651
 9126SOL     OW38836   4.590   2.265   8.294  0.2527  0.3159 -0.0057
 9126SOL    HW138837   4.684   2.267   8.308  0.2653  2.0922 -0.4272
 9126SOL    HW238838   4.567   2.318   8.370  1.0464 -0.3435  0.6896
 9127SOL     OW38839   1.245   3.063   2.931  0.1628 -0.0418  0.3723
 9127SOL    HW138840   1.235   3.151   2.967 -0.5687 -0.5942  1.5162
 9127SOL    HW238841   1.162   3.025   2.960 -0.4428  0.0467 -1.2288
 9128SOL     OW38842   1.771   2.097   3.966 -0.4674  0.1336 -0.1816
 9128SOL    HW138843   1.814   2.084   4.051 -0.3898  1.7063  0.0337
 9128SOL    HW238844   1.683   2.061   3.977 -0.0458 -0.2078  2.1398
 9129SOL     OW38845   0.303   0.112   4.625 -0.0265 -0.2595 -0.3593
 9129SOL    HW138846   0.311   0.184   4.687  0.5605  2.1563 -3.2036
 9129SOL    HW238847   0.343   0.162   4.553 -1.3561  0.1228 -0.8285
 9130SOL     OW38848   0.742   2.666   3.907 -0.1046 -0.1543  0.1907
 9130SOL    HW138849   0.820   2.719   3.924  1.1968 -2.2505  0.7486
 9130SOL    HW238850   0.786   2.589   3.870 -1.3401 -1.0437  0.5630
 9131SOL     OW38851   4.228   4.317   6.025  0.2241 -0.1988 -0.3125
 9131SOL    HW138852   4.293   4.323   5.955 -0.3411 -0.1308 -0.8362
 9131SOL    HW238853   4.250   4.398   6.071  1.5590 -0.7820  0.0712
 9132SOL     OW38854   4.299   2.564   5.747 -0.0481  0.0029 -0.2524
 9132SOL    HW138855   4.215   2.605   5.768 -0.5712 -0.5448 -1.2753
 9132SOL    HW238856   4.289   2.487   5.804 -2.4484  0.2909 -0.2762
 9133SOL     OW38857   3.367   3.490   5.954 -0.0368 -0.1321 -0.5472
 9133SOL    HW138858   3.368   3.498   5.859  2.0030 -0.7226 -0.5890
 9133SOL    HW238859   3.427   3.559   5.982 -1.3474  0.8190 -0.1095
 9134SOL     OW38860   3.058   4.265   4.359 -0.3790  0.7723  0.2426
 9134SOL    HW138861   3.038   4.192   4.300 -0.2388 -0.0997  1.2732
 9134SOL    HW238862   2.998   4.265   4.434 -0.6682  0.9387  0.0102
 9135SOL     OW38863   3.528   4.711   4.697  0.0167  0.0295 -0.4557
 9135SOL    HW138864   3.513   4.626   4.656 -0.1747  0.6688 -1.7062
 9135SOL    HW238865   3.596   4.693   4.763 -0.4742 -0.2242 -0.0233
 9136SOL     OW38866   1.958   2.347   4.279 -0.1856  0.2365  0.2847
 9136SOL    HW138867   1.907   2.331   4.358  0.6527  0.5565  0.8909
 9136SOL    HW238868   1.882   2.340   4.221  1.9563 -2.5293 -2.2029
 9137SOL     OW38869   0.001   3.809   8.513  0.3494 -0.1313 -0.4624
 9137SOL    HW138870   0.019   3.736   8.572 -0.4285  0.2894  0.2835
 9137SOL    HW238871   4.631   3.809   8.499  0.2277 -2.0312  0.3195
 9138SOL     OW38872   0.958   2.124   5.578 -0.0150  0.6890  0.4450
 9138SOL    HW138873   0.934   2.213   5.602  2.5195  1.3022  0.7136
 9138SOL    HW238874   0.882   2.104   5.524 -0.0453  2.6038 -0.2172
 9139SOL     OW38875   1.286   3.321   1.943  0.2762  0.4458  0.1560
 9139SOL    HW138876   1.288   3.395   1.883 -2.3800 -0.3098 -0.8872
 9139SOL    HW238877   1.281   3.362   2.029  0.9479  0.6454  0.0985
 9140SOL     OW38878   1.036   0.566  14.237  0.0273 -0.0587 -0.2031
 9140SOL    HW138879   1.104   0.506  14.206 -0.5484 -0.8138  0.0107
 9140SOL    HW238880   0.973   0.557  14.166 -0.2548  1.0359 -0.0855
 9141SOL     OW38881   0.102   4.231   3.101 -0.0422 -0.7053 -0.2373
 9141SOL    HW138882   0.075   4.170   3.033  0.3350  0.2060 -1.2101
 9141SOL    HW238883   0.189   4.194   3.113  1.1694  2.0218 -0.6949
 9142SOL     OW38884   3.567   0.488   0.070 -0.9178 -0.2070 -0.3582
 9142SOL    HW138885   3.472   0.489   0.055 -0.9168 -1.4224 -0.3774
 9142SOL    HW238886   3.570   0.403   0.113  0.9649 -0.2567 -0.5878
 9143SOL     OW38887   1.099   1.638   5.791  0.4882  0.9512  0.3224
 9143SOL    HW138888   1.061   1.573   5.731  2.6836 -1.4972  1.5904
 9143SOL    HW238889   1.124   1.697   5.719  0.1633 -0.2561 -0.7851
 9144SOL     OW38890   1.114   2.376  15.062  0.2580 -0.4960 -0.0605
 9144SOL    HW138891   1.208   2.391  15.068 -0.0119  0.5381  1.3955
 9144SOL    HW238892   1.106   2.292  15.107  0.5428 -0.3723  0.2170
 9145SOL     OW38893   1.228   2.649   6.317  0.0416  0.6590  0.8286
 9145SOL    HW138894   1.193   2.600   6.243  1.0043 -0.7516  1.3049
 9145SOL    HW238895   1.196   2.737   6.298 -2.5958 -0.4531  0.2153
 9146SOL     OW38896   2.552   2.927   5.314  0.1016 -0.6108 -0.6300
 9146SOL    HW138897   2.569   2.997   5.377 -1.8418  1.4697 -2.3941
 9146SOL    HW238898   2.625   2.870   5.339 -0.4351 -0.7680  0.5577
 9147SOL     OW38899   1.468   2.151   5.968  0.0886 -0.4841  0.3796
 9147SOL    HW138900   1.519   2.086   5.918  1.0289  1.0701 -0.7095
 9147SOL    HW238901   1.384   2.149   5.923 -0.7015  1.1277  1.8072
 9148SOL     OW38902   2.597   0.243  13.088 -0.0205  0.3802 -0.1485
 9148SOL    HW138903   2.515   0.281  13.059  0.4652  0.9227 -0.7965
 9148SOL    HW238904   2.637   0.212  13.007 -0.8936  3.5794 -1.7869
 9149SOL     OW38905   0.239   1.988   6.010 -0.2622 -0.6007  0.1384
 9149SOL    HW138906   0.296   2.048   6.058  0.4352 -0.4061 -0.9515
 9149SOL    HW238907   0.310   1.931   5.981 -0.3429  0.4354 -2.0401
 9150SOL     OW38908   2.524   3.901   3.172 -0.1912 -0.0605  0.0520
 9150SOL    HW138909   2.546   3.983   3.130 -0.0526 -0.7767 -1.2656
 9150SOL    HW238910   2.560   3.837   3.111  2.4739 -0.3227  1.8967
 9151SOL     OW38911   3.523   4.174   8.963  0.2067  0.1043 -0.0455
 9151SOL    HW138912   3.567   4.218   8.891  1.0173 -0.1261  0.3092
 9151SOL    HW238913   3.549   4.239   9.028  1.9693 -1.0012  0.3366
 9152SOL     OW38914   0.967   1.633  11.807  0.3149 -0.4113  0.1562
 9152SOL    HW138915   0.987   1.685  11.885 -1.1747  0.6765 -0.1734
 9152SOL    HW238916   0.930   1.558  11.854 -0.7624 -0.1359 -0.2395
 9153SOL     OW38917   0.122   1.333  12.530  0.1395  0.0819 -0.1073
 9153SOL    HW138918   0.064   1.296  12.596 -2.8989  1.2584 -2.1288
 9153SOL    HW238919   0.152   1.254  12.484  1.1932 -0.3787  1.3641
 9154SOL     OW38920   4.547   1.253  10.543  0.5185  0.0212 -0.0554
 9154SOL    HW138921   4.501   1.316  10.487 -0.0280 -1.5315 -1.3606
 9154SOL    HW238922   4.497   1.172  10.534  0.7088 -0.3586  2.3866
 9155SOL     OW38923   2.069   4.713   8.815 -0.3291  0.8035  0.1049
 9155SOL    HW138924   2.096   4.621   8.820 -1.1056  0.7139  2.5677
 9155SOL    HW238925   1.978   4.697   8.840  0.5256 -2.5377  1.0335
 9156SOL     OW38926   3.178   4.495  10.453  0.1503 -0.0981  0.2624
 9156SOL    HW138927   3.220   4.409  10.447 -0.4367 -0.6025  3.4510
 9156SOL    HW238928   3.085   4.482  10.436  0.0951  1.3044 -0.4915
 9157SOL     OW38929   2.128   0.249   2.794 -0.3791  0.4440  0.2994
 9157SOL    HW138930   2.165   0.333   2.821  0.8614  0.4461 -1.3437
 9157SOL    HW238931   2.165   0.250   2.705 -2.8368  0.9618 -0.6949
 9158SOL     OW38932   1.119   4.580   3.379 -0.3901 -0.4377  0.0625
 9158SOL    HW138933   1.160   4.599   3.294  0.2724  0.5704  0.6033
 9158SOL    HW238934   1.026   4.585   3.358 -0.2905 -0.4135 -0.3716
 9159SOL     OW38935   4.677   3.101   7.812  0.0121 -0.2258  0.1814
 9159SOL    HW138936   4.697   3.195   7.820 -1.5918  0.0658  0.6706
 9159SOL    HW238937   4.618   3.083   7.885 -1.1116  2.7905  0.0247
 9160SOL     OW38938   0.469   3.434   2.680  0.2545 -0.1048 -0.2349
 9160SOL    HW138939   0.379   3.450   2.709  0.1808 -1.6490  0.4210
 9160SOL    HW238940   0.491   3.352   2.725  0.6384  0.5342  0.7230
 9161SOL     OW38941   3.048   2.439   5.765 -0.5551 -0.0281  0.3869
 9161SOL    HW138942   3.127   2.412   5.718 -0.6292  0.2938  0.0723
 9161SOL    HW238943   3.084   2.456   5.852 -0.1999 -0.2272  0.2809
 9162SOL     OW38944   1.113   0.804   5.713 -0.0049 -0.7763  0.1902
 9162SOL    HW138945   1.202   0.838   5.721 -0.9381  1.6304  0.5625
 9162SOL    HW238946   1.135   0.712   5.729 -0.4037 -1.1323 -1.3220
 9163SOL     OW38947   0.346   2.673   6.603 -0.2321  0.5012  0.3448
 9163SOL    HW138948   0.341   2.599   6.542  0.9389  1.2567 -0.6549
 9163SOL    HW238949   0.258   2.672   6.640 -1.2322  0.8887 -2.0063
 9164SOL     OW38950   2.843   2.450   3.719 -0.1054 -0.1978 -0.1405
 9164SOL    HW138951   2.772   2.507   3.749  0.2821  0.4264 -0.4257
 9164SOL    HW238952   2.858   2.490   3.634  0.3411  1.7542  0.8763
 9165SOL     OW38953   1.340   3.210  11.048  0.5052  0.3510 -0.4679
 9165SOL    HW138954   1.316   3.155  11.123 -1.2510  1.3692 -0.2702
 9165SOL    HW238955   1.368   3.291  11.091  2.7253 -1.2575  1.1219
 9166SOL     OW38956   2.739   1.178   7.402 -0.3371 -0.4065 -0.3240
 9166SOL    HW138957   2.666   1.150   7.457 -0.4598  1.7848  0.6406
 9166SOL    HW238958   2.799   1.108   7.428  0.0662  0.7317  1.9123
 9167SOL     OW38959   3.254   2.867   5.191 -0.2348  0.0741  0.4121
 9167SOL    HW138960   3.206   2.918   5.126 -0.0841 -0.9214 -0.4777
 9167SOL    HW238961   3.262   2.929   5.263  0.3209 -0.6689  0.9985
 9168SOL     OW38962   3.579   3.705   2.887  0.1547  0.3198 -0.5531
 9168SOL    HW138963   3.531   3.652   2.950 -1.8538  2.5671 -0.2215
 9168SOL    HW238964   3.612   3.771   2.949  0.9691  0.0236 -0.6728
 9169SOL     OW38965   1.638   0.152   3.732  0.2387 -0.4577  0.3617
 9169SOL    HW138966   1.569   0.129   3.794 -0.2402  2.9026  1.0923
 9169SOL    HW238967   1.603   0.106   3.655  1.3638 -0.4356 -0.1762
 9170SOL     OW38968   2.770   0.854   6.411  0.3527  0.1053  0.1306
 9170SOL    HW138969   2.700   0.795   6.385  0.3337 -0.2353  0.9579
 9170SOL    HW238970   2.834   0.856   6.340  2.3738  2.9110  2.0393
 9171SOL     OW38971   3.555   4.033  15.188 -0.3061  0.0197  0.0803
 9171SOL    HW138972   3.567   3.939  15.202  0.6966 -0.1873 -2.1642
 9171SOL    HW238973   3.556   4.070  15.277  2.2508 -2.2905  1.0169
 9172SOL     OW38974   1.868   0.267   6.397  0.0611  0.5277 -0.0944
 9172SOL    HW138975   1.885   0.284   6.489  1.6287  1.1724 -0.4955
 9172SOL    HW238976   1.955   0.234   6.375  0.3562 -0.5313  2.6810
 9173SOL     OW38977   0.681   2.878   8.659  0.0001 -0.0654  0.2487
 9173SOL    HW138978   0.682   2.966   8.695  0.7977  0.1699 -0.3568
 9173SOL    HW238979   0.770   2.872   8.626 -0.6247 -1.3406 -1.2362
 9174SOL     OW38980   4.184   4.489   3.702 -0.3765  0.7266 -0.1049
 9174SOL    HW138981   4.121   4.453   3.765 -0.9753  0.7919 -0.6600
 9174SOL    HW238982   4.259   4.469   3.758  0.0297  1.6709 -0.3158
 9175SOL     OW38983   1.323   1.513   6.018  0.3749  0.2067 -0.0797
 9175SOL    HW138984   1.247   1.567   5.996  0.5253 -0.0465 -1.2209
 9175SOL    HW238985   1.298   1.525   6.110  0.4221 -0.9820  0.0816
 9176SOL     OW38986   0.073   0.053   2.474  0.2071 -0.5108 -0.2732
 9176SOL    HW138987   0.116   0.075   2.391  4.7214 -1.5887  1.7780
 9176SOL    HW238988   0.151   0.034   2.527  1.0870 -1.6478 -1.9606
 9177SOL     OW38989   3.055   1.275   4.932  0.1457  0.0521 -0.4738
 9177SOL    HW138990   3.149   1.254   4.931 -0.1709 -1.3462 -3.3380
 9177SOL    HW238991   3.023   1.196   4.887 -1.4963  0.2165  0.4438
 9178SOL     OW38992   1.269   1.861   6.763  0.7116 -0.4001 -0.5248
 9178SOL    HW138993   1.315   1.795   6.814  1.9958  0.7152 -0.2285
 9178SOL    HW238994   1.181   1.868   6.799  0.9186  0.7396 -0.2401
 9179SOL     OW38995   4.270   0.640  14.505 -0.4253  0.1919 -0.6341
 9179SOL    HW138996   4.299   0.730  14.491  1.1157 -0.1368  0.4860
 9179SOL    HW238997   4.206   0.618  14.437  0.4925  0.0228 -1.4358
 9180SOL     OW38998   1.385   3.241   5.327  0.8222 -0.5203 -0.0147
 9180SOL    HW138999   1.358   3.265   5.238  1.2916  3.0896  0.8052
 9180SOL    HW239000   1.301   3.220   5.369  1.6528 -0.0467  1.8476
 9181SOL     OW39001   3.076   1.780   2.886  0.1950 -0.0579 -0.1736
 9181SOL    HW139002   3.014   1.709   2.868 -0.2639  0.0653  0.9148
 9181SOL    HW239003   3.124   1.785   2.803 -0.0046 -0.1375 -0.2925
 9182SOL     OW39004   3.967   1.511   8.411 -0.1214 -0.5981  0.5099
 9182SOL    HW139005   3.878   1.532   8.441  0.1994  2.3853 -0.6421
 9182SOL    HW239006   3.984   1.449   8.483  0.1987 -0.9666  0.1118
 9183SOL     OW39007   1.908   1.917   3.804 -0.1731 -0.0101 -0.5844
 9183SOL    HW139008   1.946   1.972   3.736 -2.2846  2.1623  0.0034
 9183SOL    HW239009   1.853   1.977   3.855  3.6009  2.7406  0.1800
 9184SOL     OW39010   0.447   3.732  12.328  0.0619 -0.3776 -0.1629
 9184SOL    HW139011   0.501   3.706  12.254 -2.8693 -1.2053 -2.0140
 9184SOL    HW239012   0.373   3.772  12.281 -1.7328  1.0210  3.8653
 9185SOL     OW39013   2.769   3.666  14.694 -0.4168  0.3359 -0.2164
 9185SOL    HW139014   2.697   3.692  14.752 -0.6327 -0.7700  0.0156
 9185SOL    HW239015   2.845   3.668  14.753 -2.1499  2.2751  1.9447
 9186SOL     OW39016   3.778   3.508   9.223  0.8369  0.5188  0.1422
 9186SOL    HW139017   3.718   3.582   9.210 -0.2522 -0.4038 -0.1552
 9186SOL    HW239018   3.747   3.444   9.158  0.3350  0.6983  0.2019
 9187SOL     OW39019   3.215   2.599   5.237 -0.2371 -0.2838  0.5448
 9187SOL    HW139020   3.242   2.690   5.236 -1.5072  0.0902  0.2697
 9187SOL    HW239021   3.278   2.567   5.302 -1.1075 -1.2719  0.9138
 9188SOL     OW39022   1.529   3.433  11.967 -1.0598 -0.0401  0.2501
 9188SOL    HW139023   1.468   3.507  11.969 -0.2235  0.6722 -0.4377
 9188SOL    HW239024   1.471   3.373  11.918 -2.5413  0.9772  0.7525
 9189SOL     OW39025   1.267   3.757   7.182 -0.3889 -0.1646 -0.2213
 9189SOL    HW139026   1.310   3.696   7.243  1.0527  1.0550 -0.0215
 9189SOL    HW239027   1.228   3.701   7.115 -0.1562 -1.7158  0.9255
 9190SOL     OW39028   3.409   4.661   1.930  0.2737 -0.2298 -0.1979
 9190SOL    HW139029   3.411   4.597   1.859 -2.5350  0.5831 -0.9852
 9190SOL    HW239030   3.404   4.598   2.003 -0.4385 -1.8278 -1.6225
 9191SOL     OW39031   3.061   4.662   2.015 -0.0427  0.1140  0.3345
 9191SOL    HW139032   3.046   0.032   2.011  0.2912  0.2249  1.7576
 9191SOL    HW239033   3.042   4.634   2.104 -1.6495  1.8095  0.5207
 9192SOL     OW39034   1.014   3.148   3.812 -0.4268 -0.4748 -0.0627
 9192SOL    HW139035   1.069   3.089   3.760  0.2950 -0.7114  0.9804
 9192SOL    HW239036   1.071   3.215   3.849 -0.0842 -1.6599  1.5511
 9193SOL     OW39037   2.013   2.500   3.730 -0.3541  0.4388  0.0792
 9193SOL    HW139038   2.013   2.445   3.809 -1.0232 -2.3125 -1.8527
 9193SOL    HW239039   1.974   2.441   3.666 -0.6650  0.1422  0.5414
 9194SOL     OW39040   3.211   1.962  10.161  0.3451  0.4120  0.2767
 9194SOL    HW139041   3.250   1.879  10.189 -1.1798  0.3055  2.1274
 9194SOL    HW239042   3.129   1.950  10.210 -0.4352 -0.7407 -1.3312
 9195SOL     OW39043   4.473   2.330   5.507 -0.2946  0.0457  0.4496
 9195SOL    HW139044   4.471   2.423   5.488  1.4058 -0.5939 -2.7838
 9195SOL    HW239045   4.379   2.312   5.512 -0.7132  2.4449  1.1951
 9196SOL     OW39046   1.551   3.081   8.050 -0.4414  0.4797 -0.3363
 9196SOL    HW139047   1.522   3.169   8.074  0.5831  0.8343 -0.4313
 9196SOL    HW239048   1.641   3.093   8.022 -1.8082  0.2253 -4.8342
 9197SOL     OW39049   0.089   0.272  15.914  0.0863  0.2493 -0.4171
 9197SOL    HW139050   0.178   0.285  15.882  0.6355  0.7462  1.3246
 9197SOL    HW239051   0.092   0.185  15.953 -0.5056 -0.1500 -1.2668
 9198SOL     OW39052   3.635   0.217  11.887 -0.2473 -0.5481  0.2339
 9198SOL    HW139053   3.683   0.202  11.806 -0.5560 -0.5209  0.0465
 9198SOL    HW239054   3.708   0.240  11.944 -2.0971  2.1637  1.5358
 9199SOL     OW39055   4.024   0.478   9.471  0.0605 -0.6541 -0.1393
 9199SOL    HW139056   4.069   0.436   9.543  1.6603 -1.3873 -1.5588
 9199SOL    HW239057   3.998   0.560   9.511 -0.1462  0.7209 -3.0560
 9200SOL     OW39058   4.358   4.466   8.399  0.6691  0.1851  0.1879
 9200SOL    HW139059   4.300   4.469   8.474 -0.7490  1.6708 -0.9687
 9200SOL    HW239060   4.295   4.500   8.335 -0.1495  0.7448  1.3112
 9201SOL     OW39061   0.931   3.989   9.976  0.2384  0.3877  0.1453
 9201SOL    HW139062   0.855   4.024  10.022  1.7835 -1.0009  3.7226
 9201SOL    HW239063   0.993   3.975  10.048  3.9448  1.7544 -2.7598
 9202SOL     OW39064   4.519   4.590   4.493  0.0993 -0.2808 -0.0003
 9202SOL    HW139065   4.525   4.553   4.405 -4.0080 -1.0007  0.0003
 9202SOL    HW239066   4.477   4.673   4.471 -1.2573 -0.5566  1.5791
 9203SOL     OW39067   0.711   1.241   1.490 -0.5816 -0.1876  0.4089
 9203SOL    HW139068   0.794   1.224   1.534 -1.3468 -0.6314  1.6708
 9203SOL    HW239069   0.698   1.157   1.446  1.5994 -0.2885 -0.0616
 9204SOL     OW39070   1.849   1.095   8.871 -0.8551 -0.7035 -1.0834
 9204SOL    HW139071   1.897   1.017   8.899  0.1384  0.0842 -0.5903
 9204SOL    HW239072   1.788   1.090   8.945  1.2387  2.4144  0.8596
 9205SOL     OW39073   2.147   1.827  14.051 -0.2842 -0.4843  0.5194
 9205SOL    HW139074   2.166   1.818  13.957  0.4588 -1.6976  0.7950
 9205SOL    HW239075   2.076   1.892  14.046 -0.9726 -1.3257 -0.5191
 9206SOL     OW39076   1.736   1.709   0.465 -0.7087 -0.0390 -0.3448
 9206SOL    HW139077   1.644   1.688   0.449 -1.0343  2.1873 -1.4204
 9206SOL    HW239078   1.764   1.715   0.374  0.1747  2.6998  0.1010
 9207SOL     OW39079   4.122   2.228   2.068 -0.2280 -0.5111  0.1899
 9207SOL    HW139080   4.098   2.211   1.977  1.6082 -1.5445 -0.1196
 9207SOL    HW239081   4.211   2.193   2.060 -0.1063 -0.2256  0.2814
 9208SOL     OW39082   0.431   1.761   3.904 -0.2736 -0.4107  0.2128
 9208SOL    HW139083   0.478   1.833   3.948  3.2258 -3.1131  0.9052
 9208SOL    HW239084   0.470   1.754   3.817 -1.0363  0.9021 -0.2348
 9209SOL     OW39085   4.091   3.174   4.684  0.4405 -0.6367  0.1112
 9209SOL    HW139086   4.121   3.245   4.626  0.3852 -1.6285 -1.1381
 9209SOL    HW239087   4.029   3.130   4.625  1.7179 -1.2651 -0.7714
 9210SOL     OW39088   0.571   2.329   6.539  0.4129  0.4399 -0.5029
 9210SOL    HW139089   0.519   2.358   6.613 -0.1628 -0.8462 -0.3957
 9210SOL    HW239090   0.540   2.392   6.475 -0.0564  0.4855 -0.2291
 9211SOL     OW39091   0.409   1.866   0.119 -0.0924  0.6091 -0.1356
 9211SOL    HW139092   0.483   1.846   0.177 -0.9907  1.6147  1.3552
 9211SOL    HW239093   0.431   1.955   0.090  0.4149  0.7132  0.5646
 9212SOL     OW39094   2.376   0.981   6.787  0.2517 -0.3339  0.3334
 9212SOL    HW139095   2.442   1.045   6.813 -0.8658  0.5047  1.0530
 9212SOL    HW239096   2.403   0.946   6.702 -1.4215 -0.7178 -0.0403
 9213SOL     OW39097   2.523   4.581   8.764  0.1575  0.6199 -0.5478
 9213SOL    HW139098   2.540   4.490   8.741 -1.8563  0.4412 -1.3532
 9213SOL    HW239099   2.609   4.607   8.797  0.2002 -1.3184  0.8519
 9214SOL     OW39100   1.994   0.354  13.322  0.3229  0.0836  0.2889
 9214SOL    HW139101   1.910   0.347  13.368 -1.0109 -0.7114 -2.2357
 9214SOL    HW239102   1.991   0.265  13.287  2.2619  0.5826 -1.1294
 9215SOL     OW39103   1.134   2.968  10.293  0.1242 -0.3201  0.5251
 9215SOL    HW139104   1.208   3.006  10.245  1.0589 -2.1873  0.4672
 9215SOL    HW239105   1.053   3.015  10.274  1.6616  2.8682  1.8013
 9216SOL     OW39106   1.586   0.997  12.941 -1.0217  0.2593 -0.4966
 9216SOL    HW139107   1.635   0.920  12.971  0.2223  1.1887 -0.1533
 9216SOL    HW239108   1.652   1.046  12.892 -1.3456 -0.1036 -1.2988
 9217SOL     OW39109   2.785   0.637   6.867 -0.6889 -0.3420  0.3354
 9217SOL    HW139110   2.705   0.589   6.884  1.2801 -3.0064  2.0907
 9217SOL    HW239111   2.769   0.655   6.774 -0.3862  0.8690  0.5135
 9218SOL     OW39112   2.113   2.854  11.620  0.0147 -0.5129  0.2602
 9218SOL    HW139113   2.043   2.919  11.621 -1.6706 -2.2950  0.5613
 9218SOL    HW239114   2.057   2.780  11.644  0.0315 -0.6905 -0.2539
 9219SOL     OW39115   0.967   0.953   1.893 -0.3770  0.3848 -0.0771
 9219SOL    HW139116   1.007   0.867   1.903 -0.6994  0.1534 -0.7730
 9219SOL    HW239117   0.876   0.928   1.878 -1.1003  1.8303  1.9736
 9220SOL     OW39118   1.609   0.712  10.141  0.4351  0.3411  0.2606
 9220SOL    HW139119   1.655   0.654  10.080  0.0036  0.5453 -0.2568
 9220SOL    HW239120   1.516   0.711  10.119  0.7105  0.0241 -0.9072
 9221SOL     OW39121   0.858   2.043   4.428  0.4178 -0.1548 -0.1819
 9221SOL    HW139122   0.851   2.043   4.333 -0.7999  0.8841 -0.0831
 9221SOL    HW239123   0.953   2.035   4.437  0.4336  0.2669  0.0052
 9222SOL     OW39124   0.365   4.216   0.434 -0.3840 -0.2383 -0.0295
 9222SOL    HW139125   0.366   4.271   0.355  1.7706 -1.0032 -0.5162
 9222SOL    HW239126   0.411   4.139   0.400 -2.8796 -2.5629  1.8175
 9223SOL     OW39127   3.927   3.479   7.383  0.6921 -0.1246  0.4887
 9223SOL    HW139128   3.993   3.410   7.373 -0.3405 -0.9717 -0.5845
 9223SOL    HW239129   3.864   3.421   7.426  0.7855  0.3173  1.2193
 9224SOL     OW39130   3.464   2.992   3.744 -0.0389  0.1513  0.2326
 9224SOL    HW139131   3.556   2.991   3.717 -0.7078 -1.7359 -2.0200
 9224SOL    HW239132   3.468   2.922   3.809 -0.3853 -0.0600  0.0265
 9225SOL     OW39133   2.864   0.931   7.953 -0.1869  0.0139 -0.1342
 9225SOL    HW139134   2.796   0.865   7.941  1.3470 -1.8571  1.4290
 9225SOL    HW239135   2.819   1.011   7.977  1.1896 -0.2668  3.3374
 9226SOL     OW39136   1.188   1.271   7.052  0.2705  0.5662  0.0168
 9226SOL    HW139137   1.106   1.299   7.093  0.4062 -0.2567  0.8416
 9226SOL    HW239138   1.252   1.327   7.094  0.4923  0.1913  0.1754
 9227SOL     OW39139   3.806   0.572   6.014 -0.0903 -0.6932  0.2140
 9227SOL    HW139140   3.784   0.552   6.105  1.9209  0.1147  0.8732
 9227SOL    HW239141   3.750   0.507   5.971  2.0141 -2.3887  0.0826
 9228SOL     OW39142   3.573   1.575   7.713  0.3943  0.2193 -0.0044
 9228SOL    HW139143   3.580   1.510   7.782 -0.2100 -2.4692 -2.4715
 9228SOL    HW239144   3.499   1.541   7.662 -0.6168  1.9426  0.3018
 9229SOL     OW39145   2.459   0.018  11.497 -0.3495  0.0084 -0.1924
 9229SOL    HW139146   2.396   0.035  11.427 -1.6941  0.4909  1.1387
 9229SOL    HW239147   2.440   0.089  11.558  2.4170  0.4766  0.1389
 9230SOL     OW39148   0.023   2.010  17.162 -0.1911 -0.5824  0.5870
 9230SOL    HW139149   0.084   2.020  17.235  1.1841 -0.8182 -0.5273
 9230SOL    HW239150   4.677   2.063  17.198  0.3238 -0.3153  1.2147
 9231SOL     OW39151   0.149   4.663  10.441  0.3307 -0.4226 -0.0785
 9231SOL    HW139152   0.121   4.636  10.529  0.1647  0.5006  0.1611
 9231SOL    HW239153   0.098   0.020  10.437 -0.7835 -1.1405 -0.6366
 9232SOL     OW39154   1.826   3.832   5.484 -0.4911  0.2804 -0.2970
 9232SOL    HW139155   1.857   3.741   5.490  0.8205  0.7100 -0.6577
 9232SOL    HW239156   1.852   3.866   5.570 -0.4324  1.3075 -0.7248
 9233SOL     OW39157   3.623   1.935  11.253 -0.2025  0.1229  0.5522
 9233SOL    HW139158   3.626   1.882  11.173 -1.5325 -0.7853  1.1108
 9233SOL    HW239159   3.700   1.896  11.295  1.1341  1.3542 -0.7651
 9234SOL     OW39160   1.580   2.842  16.491  0.1429  0.2094 -0.0904
 9234SOL    HW139161   1.567   2.808  16.402  1.7036 -1.8893  0.5091
 9234SOL    HW239162   1.619   2.777  16.549  0.3795  0.3159 -0.1326
 9235SOL     OW39163   4.356   4.108   7.463 -1.0255 -0.0274  0.0343
 9235SOL    HW139164   4.408   4.027   7.459 -1.7434 -0.5343  1.1848
 9235SOL    HW239165   4.269   4.069   7.465 -0.6801 -0.8583 -0.8749
 9236SOL     OW39166   4.463   2.232   4.952  0.0294  0.5612 -0.4631
 9236SOL    HW139167   4.557   2.216   4.961  0.0253  0.6531 -0.2377
 9236SOL    HW239168   4.445   2.288   5.028 -0.9606 -1.2701  0.6394
 9237SOL     OW39169   1.765   1.951   8.219 -0.6675  0.2524  0.0355
 9237SOL    HW139170   1.821   1.986   8.149  1.0338 -0.5595  1.0141
 9237SOL    HW239171   1.788   1.859   8.215 -3.6350 -0.5044  0.5649
 9238SOL     OW39172   1.148   2.991  10.688  0.3143  0.1651  0.4635
 9238SOL    HW139173   1.210   2.923  10.712 -0.5757 -1.6148 -2.2706
 9238SOL    HW239174   1.151   3.053  10.761 -0.1064 -0.5370  1.0745
 9239SOL     OW39175   4.076   1.682  14.673  0.6888 -0.7256  0.2694
 9239SOL    HW139176   4.043   1.630  14.747 -3.2365 -1.3463 -1.9040
 9239SOL    HW239177   4.143   1.735  14.717  1.2149 -1.7121  0.6687
 9240SOL     OW39178   0.427   2.183  11.497  0.4401 -0.1157  0.2834
 9240SOL    HW139179   0.430   2.121  11.569  0.1854 -2.2205 -1.5143
 9240SOL    HW239180   0.347   2.169  11.446 -0.7546  1.0923  1.8419
 9241SOL     OW39181   1.933   2.112  14.505 -0.3542 -0.8864  0.2076
 9241SOL    HW139182   1.866   2.153  14.451 -0.3498 -0.1810  0.7454
 9241SOL    HW239183   2.002   2.083  14.444 -0.3714 -1.8280  0.6324
 9242SOL     OW39184   3.152   3.707   5.417 -0.1901  0.2487 -0.1269
 9242SOL    HW139185   3.170   3.800   5.403 -0.3019  0.2908  0.0107
 9242SOL    HW239186   3.236   3.673   5.386  0.1251  0.1880  0.7810
 9243SOL     OW39187   0.650   3.103   8.788 -0.1266 -0.5339 -0.0123
 9243SOL    HW139188   0.679   3.135   8.874  1.0523  0.2027 -0.6794
 9243SOL    HW239189   0.573   3.158   8.776 -0.4178 -0.3415  2.6739
 9244SOL     OW39190   4.282   0.913   7.322  0.0883 -0.2778  0.1774
 9244SOL    HW139191   4.318   0.835   7.280 -2.1348 -2.4350  2.2543
 9244SOL    HW239192   4.235   0.938   7.243 -0.1801  1.5038  0.9004
 9245SOL     OW39193   0.760   3.875  14.100 -0.3890  0.2257  0.9762
 9245SOL    HW139194   0.831   3.935  14.123  0.4156 -0.8241  1.2743
 9245SOL    HW239195   0.809   3.794  14.082 -3.1278 -1.3520  0.6379
 9246SOL     OW39196   1.094   3.231   1.488  0.1885 -0.5017  0.4201
 9246SOL    HW139197   1.115   3.224   1.582  2.7425 -0.8474 -0.1738
 9246SOL    HW239198   1.003   3.202   1.489 -0.0779  0.2906 -0.8172
 9247SOL     OW39199   0.868   0.393   4.731  0.3808  0.2853 -0.0773
 9247SOL    HW139200   0.883   0.434   4.816  0.3743  1.2230 -0.5300
 9247SOL    HW239201   0.912   0.457   4.675 -0.0420 -0.8687 -1.7375
 9248SOL     OW39202   4.651   2.984   3.262 -0.6827 -0.4906  0.2006
 9248SOL    HW139203   4.688   2.937   3.337 -2.3148 -1.0133  0.6695
 9248SOL    HW239204   4.628   3.071   3.295  1.0187  0.2292 -0.4994
 9249SOL     OW39205   2.301   0.436   8.762 -0.3688  0.2729  0.5796
 9249SOL    HW139206   2.277   0.371   8.697 -0.4616  1.5541 -0.6485
 9249SOL    HW239207   2.275   0.517   8.719  1.0022  0.3794 -0.0242
 9250SOL     OW39208   2.987   1.975   7.533  0.4148 -0.3953 -0.6582
 9250SOL    HW139209   2.948   1.938   7.613 -2.0593  1.1958 -1.1368
 9250SOL    HW239210   3.074   1.935   7.535  0.7721  0.3594 -1.0899
 9251SOL     OW39211   3.437   2.526   7.289  0.1202  0.8950  0.1950
 9251SOL    HW139212   3.450   2.475   7.369 -0.2876 -0.8527 -0.8454
 9251SOL    HW239213   3.411   2.609   7.329 -2.7400 -0.7343  1.7483
 9252SOL     OW39214   3.252   3.616   6.873 -0.6872 -0.4536  0.4185
 9252SOL    HW139215   3.284   3.639   6.960 -0.4382 -1.5297  0.6009
 9252SOL    HW239216   3.286   3.685   6.815  0.0871 -1.1783  0.0070
 9253SOL     OW39217   4.660   2.895   3.733 -0.2494 -0.2565  0.0009
 9253SOL    HW139218   4.631   2.957   3.799 -0.5386 -0.0401 -0.3334
 9253SOL    HW239219   4.587   2.913   3.674 -0.8230 -0.3695  0.6828
 9254SOL     OW39220   1.695   2.331   4.184 -0.2969 -0.1916 -0.4671
 9254SOL    HW139221   1.652   2.402   4.232 -1.8324 -1.4433  0.0289
 9254SOL    HW239222   1.672   2.356   4.095  0.8302  1.3176 -0.3301
 9255SOL     OW39223   1.985   0.033   4.239 -0.5754 -0.2809  0.3818
 9255SOL    HW139224   1.911   0.073   4.193  0.7770  1.8008  0.0234
 9255SOL    HW239225   2.051   0.100   4.258  0.9857 -1.3942 -1.1946
 9256SOL     OW39226   3.910   3.277  13.357 -0.3239 -0.2669 -0.5875
 9256SOL    HW139227   3.992   3.265  13.309  1.1925  0.7366  1.7655
 9256SOL    HW239228   3.947   3.293  13.444 -0.4062  0.7321 -0.7300
 9257SOL     OW39229   4.539   2.997   5.902 -0.4570 -0.5233 -1.2561
 9257SOL    HW139230   4.524   3.040   5.818 -2.0925  1.4148  0.0315
 9257SOL    HW239231   4.523   2.904   5.885  0.0821 -0.9696  0.6828
 9258SOL     OW39232   2.198   0.180   4.452 -0.0090  0.2837  0.4277
 9258SOL    HW139233   2.170   0.090   4.436 -0.3925  0.5703 -0.5011
 9258SOL    HW239234   2.154   0.222   4.378  2.0549  1.0754 -0.3312
 9259SOL     OW39235   3.861   1.390   4.510 -0.8102 -0.3995  0.0368
 9259SOL    HW139236   3.795   1.418   4.447 -0.7451  0.7938  0.4963
 9259SOL    HW239237   3.924   1.333   4.466 -1.2356 -1.2257  0.4901
 9260SOL     OW39238   0.559   4.210   3.988  0.4242  0.6781  0.3159
 9260SOL    HW139239   0.651   4.197   4.011  0.7238  1.0039 -0.7004
 9260SOL    HW239240   0.526   4.270   4.055 -0.8344  0.4531 -0.1024
 9261SOL     OW39241   4.520   0.453   2.099  0.5352  0.3974 -0.0490
 9261SOL    HW139242   4.581   0.381   2.115  0.5865  0.5193  0.3052
 9261SOL    HW239243   4.575   0.493   2.031 -0.3696 -0.6118 -1.3829
 9262SOL     OW39244   0.865   3.130   2.998 -0.2573  0.3194  1.1023
 9262SOL    HW139245   0.864   3.207   3.055 -2.1613  0.6973  0.5805
 9262SOL    HW239246   0.896   3.175   2.919 -3.3739 -1.5364 -1.1640
 9263SOL     OW39247   1.027   0.675   1.866 -0.2252  0.2833 -0.0416
 9263SOL    HW139248   1.067   0.720   1.792 -0.9709 -1.9091 -1.8116
 9263SOL    HW239249   0.984   0.603   1.819  0.4526 -0.4979  0.5423
 9264SOL     OW39250   4.168   0.384   9.263  0.3062  0.2158 -0.5642
 9264SOL    HW139251   4.096   0.413   9.318  2.3815  1.7315  1.3764
 9264SOL    HW239252   4.223   0.345   9.331 -1.1286 -0.0949  0.3989
 9265SOL     OW39253   0.479   2.324   9.452  0.5234  0.2465  0.0472
 9265SOL    HW139254   0.492   2.357   9.541 -0.3364 -4.5170  1.9143
 9265SOL    HW239255   0.558   2.352   9.407  0.9841 -1.7579 -0.3515
 9266SOL     OW39256   2.894   4.104   6.357  0.3728  0.1926 -0.3995
 9266SOL    HW139257   2.953   4.055   6.300  1.4364  0.4201  0.4918
 9266SOL    HW239258   2.845   4.030   6.394  1.2227 -0.0682  0.1993
 9267SOL     OW39259   1.317   0.601   8.474 -0.4358  0.0127 -0.5397
 9267SOL    HW139260   1.322   0.624   8.382  0.0867  0.1579 -0.4750
 9267SOL    HW239261   1.258   0.675   8.489 -1.5327 -0.9935  0.1354
 9268SOL     OW39262   2.060   0.938   5.084 -0.4781 -0.0343 -0.5171
 9268SOL    HW139263   2.127   0.906   5.144 -0.4900  0.3434 -0.3012
 9268SOL    HW239264   2.114   1.010   5.053 -0.5772  0.3836  0.2688
 9269SOL     OW39265   3.390   1.047   1.770  0.5922  0.2233  0.2057
 9269SOL    HW139266   3.389   1.050   1.674  1.0685  4.0683  0.3145
 9269SOL    HW239267   3.310   0.995   1.782  0.0913  1.2166  1.1854
 9270SOL     OW39268   0.454   3.676   1.820  0.5344 -0.0148 -0.1958
 9270SOL    HW139269   0.402   3.669   1.740 -2.2479  0.2297  1.5861
 9270SOL    HW239270   0.452   3.770   1.836  0.2149 -0.1022  0.2883
 9271SOL     OW39271   3.514   0.933   3.393  0.6469 -0.2065 -0.0467
 9271SOL    HW139272   3.505   0.849   3.348 -1.0002 -0.8603  1.5108
 9271SOL    HW239273   3.507   0.891   3.479  0.9130 -0.7132 -0.2737
 9272SOL     OW39274   2.371   1.852   9.245  0.5102  0.5319  0.1466
 9272SOL    HW139275   2.455   1.805   9.243 -0.3307 -0.8880 -1.3180
 9272SOL    HW239276   2.397   1.941   9.221 -2.0359  1.3858  0.5463
 9273SOL     OW39277   3.496   0.839   3.653 -0.0530 -0.4175 -0.0738
 9273SOL    HW139278   3.411   0.883   3.645  0.8817  1.3046 -0.5222
 9273SOL    HW239279   3.532   0.846   3.741  0.3374 -1.7489 -0.1350
 9274SOL     OW39280   0.595   4.230   1.337 -0.5897  0.4595 -0.0083
 9274SOL    HW139281   0.680   4.272   1.352  0.5571 -0.7974 -2.8475
 9274SOL    HW239282   0.598   4.158   1.400 -0.2511 -0.1401 -0.7079
 9275SOL     OW39283   1.869   0.107   0.602 -0.2462 -0.0917 -0.1527
 9275SOL    HW139284   1.782   0.143   0.618 -0.3267 -0.4657  0.2296
 9275SOL    HW239285   1.917   0.124   0.683 -0.7141  0.8430 -0.0752
 9276SOL     OW39286   3.687   2.746   3.426  0.2136  0.4841  0.1045
 9276SOL    HW139287   3.594   2.728   3.415  0.9508 -1.9449 -2.2570
 9276SOL    HW239288   3.699   2.824   3.373 -2.3496  0.1109 -0.9995
 9277SOL     OW39289   1.304   0.478   3.072  0.2311  0.0729 -0.7455
 9277SOL    HW139290   1.399   0.469   3.076  0.2184  1.0662  1.9503
 9277SOL    HW239291   1.298   0.542   3.142  0.7370 -0.7772  0.0863
 9278SOL     OW39292   0.986   3.541   3.947 -0.4433  0.0684  0.4156
 9278SOL    HW139293   1.076   3.564   3.972 -0.5125  2.0471 -1.0976
 9278SOL    HW239294   0.965   3.611   3.885  2.6217  1.0243  0.4474
 9279SOL     OW39295   0.788   3.829   0.658  0.6760  0.3898  0.9666
 9279SOL    HW139296   0.855   3.851   0.723 -0.0374  1.9359  1.1710
 9279SOL    HW239297   0.784   3.911   0.608  0.2341  0.5642  1.2909
 9280SOL     OW39298   3.969   0.706   2.011  0.1312 -0.5176  1.0442
 9280SOL    HW139299   4.010   0.717   1.926  0.1352  0.8607  1.2135
 9280SOL    HW239300   4.048   0.678   2.056  0.7751 -0.4514 -0.0490
 9281SOL     OW39301   2.803   1.990   6.553  0.0990  0.1761 -0.0184
 9281SOL    HW139302   2.822   1.897   6.537  1.6067  0.5995 -0.6667
 9281SOL    HW239303   2.867   2.036   6.500  2.1665 -1.3019  1.2019
 9282SOL     OW39304   2.069   1.268   3.083  0.0006 -0.2688  0.2015
 9282SOL    HW139305   2.151   1.258   3.133 -0.8940 -2.4479  1.2577
 9282SOL    HW239306   2.055   1.179   3.051 -0.1092 -1.1135  2.5797
 9283SOL     OW39307   0.556   3.779  13.749 -0.2428 -0.3765 -0.2553
 9283SOL    HW139308   0.505   3.858  13.730  0.6133  0.2655  0.1394
 9283SOL    HW239309   0.615   3.779  13.674  0.1666 -1.1154  0.0693
 9284SOL     OW39310   1.320   1.258   3.970 -0.2514  0.2718 -0.2321
 9284SOL    HW139311   1.375   1.294   4.039  1.8174 -0.1211 -1.6979
 9284SOL    HW239312   1.268   1.338   3.956  0.4328  0.9760  1.2694
 9285SOL     OW39313   3.760   4.396   5.026  0.0940 -0.2835 -0.3975
 9285SOL    HW139314   3.840   4.362   5.065 -0.5000 -0.2550  0.8233
 9285SOL    HW239315   3.747   4.335   4.953  0.4885  1.3799 -1.8594
 9286SOL     OW39316   2.208   2.210   4.159  0.3800  0.2585  0.0781
 9286SOL    HW139317   2.230   2.244   4.246 -0.4459  0.3803  0.2325
 9286SOL    HW239318   2.129   2.164   4.186 -1.3192  3.3804  0.4360
 9287SOL     OW39319   1.142   3.794   2.481  0.2336  0.0237  0.0131
 9287SOL    HW139320   1.226   3.800   2.527  0.5497 -0.4618 -0.5000
 9287SOL    HW239321   1.129   3.702   2.456 -2.0044  0.2540  0.3837
 9288SOL     OW39322   0.985   0.441   1.308 -0.3639 -0.4415 -0.0511
 9288SOL    HW139323   1.021   0.406   1.227  0.3413 -0.1065  0.1171
 9288SOL    HW239324   0.897   0.469   1.283  1.1607  3.4208 -1.1257
 9289SOL     OW39325   2.473   3.363   1.992 -0.2922 -0.2269 -0.1285
 9289SOL    HW139326   2.391   3.322   1.964  0.0244 -2.0498  1.5610
 9289SOL    HW239327   2.542   3.314   1.946  0.6772  1.3032 -0.2847
 9290SOL     OW39328   3.748   0.524   5.222 -0.0804  0.5128 -0.3512
 9290SOL    HW139329   3.804   0.448   5.206 -1.1822 -0.3147 -0.2633
 9290SOL    HW239330   3.675   0.501   5.165  0.2638 -0.3596 -0.4363
 9291SOL     OW39331   1.495   3.709   7.814 -0.0643  0.2724 -0.3500
 9291SOL    HW139332   1.407   3.690   7.847 -0.7630  2.7438 -0.7257
 9291SOL    HW239333   1.463   3.783   7.761 -1.7890  0.8799  1.5456
 9292SOL     OW39334   2.741   3.182   1.617  0.0706  0.2002 -0.1101
 9292SOL    HW139335   2.796   3.257   1.595  0.6608 -0.4690 -0.9061
 9292SOL    HW239336   2.779   3.152   1.699 -0.7866 -1.4701 -0.3270
 9293SOL     OW39337   1.029   0.446   8.893 -0.5467  0.3983  0.4169
 9293SOL    HW139338   1.057   0.416   8.979 -0.2378 -0.3125  0.0633
 9293SOL    HW239339   0.933   0.443   8.896 -0.5541 -0.0463 -0.2274
 9294SOL     OW39340   1.931   2.702  16.447 -0.0073  0.0412  0.2484
 9294SOL    HW139341   1.998   2.756  16.404 -0.1514  0.1735  0.1881
 9294SOL    HW239342   1.920   2.641  16.374  0.8549 -0.5249  0.5993
 9295SOL     OW39343   2.765   1.028   2.844 -0.3106  0.0813 -0.3780
 9295SOL    HW139344   2.747   0.940   2.875 -2.8497  1.0230  0.8549
 9295SOL    HW239345   2.861   1.030   2.847 -0.2691 -2.3349 -0.3998
 9296SOL     OW39346   1.027   2.750   1.145  0.2602  0.5240 -0.4844
 9296SOL    HW139347   0.955   2.779   1.199 -0.1191  0.0065 -0.7148
 9296SOL    HW239348   0.981   2.686   1.090 -1.6030  0.9966  0.5373
 9297SOL     OW39349   3.342   3.799  17.371  0.7116 -0.2796  0.9398
 9297SOL    HW139350   3.329   3.704  17.372 -0.8278 -0.0811  0.3829
 9297SOL    HW239351   3.305   3.835  17.452  0.4572 -0.1337  0.7592
 9298SOL     OW39352   2.749   3.075   7.608 -0.5119 -1.1040 -0.5390
 9298SOL    HW139353   2.835   3.096   7.646 -0.1305 -0.3561 -1.7955
 9298SOL    HW239354   2.755   3.110   7.519  0.5029 -0.4382 -0.2201
 9299SOL     OW39355   2.194   0.424  14.280  0.4231  0.3282 -0.2555
 9299SOL    HW139356   2.157   0.508  14.308 -0.9025 -0.3764  0.1260
 9299SOL    HW239357   2.127   0.414  14.212 -0.1609  0.3115  0.3222
 9300SOL     OW39358   2.557   1.562  12.881  0.5342 -0.2986  0.2563
 9300SOL    HW139359   2.559   1.651  12.845  1.0311 -0.9167 -1.1999
 9300SOL    HW239360   2.588   1.515  12.804 -0.7322 -1.0522  0.1970
 9301SOL     OW39361   0.361   0.452  14.793  0.3033 -0.6832 -0.0622
 9301SOL    HW139362   0.424   0.411  14.734 -0.1759 -1.9038  0.2713
 9301SOL    HW239363   0.401   0.443  14.879  3.4123 -0.1553 -1.4766
 9302SOL     OW39364   3.754   1.642   5.972 -0.1021 -0.0040  0.4826
 9302SOL    HW139365   3.757   1.612   6.063 -0.8270 -1.8188 -0.1049
 9302SOL    HW239366   3.842   1.679   5.970  0.6304 -1.7981 -0.7231
 9303SOL     OW39367   3.659   2.954  13.156  0.0118  0.1295  0.2138
 9303SOL    HW139368   3.713   2.910  13.090 -2.3691  1.2778 -2.5054
 9303SOL    HW239369   3.610   3.018  13.104 -0.2947  0.2891  0.6985
 9304SOL     OW39370   4.432   3.677   2.803  0.4494  0.4063  0.7637
 9304SOL    HW139371   4.471   3.665   2.717 -1.5680  1.9775 -0.3636
 9304SOL    HW239372   4.426   3.773   2.799  2.4703  0.4649 -0.5695
 9305SOL     OW39373   2.185   1.444   4.522  0.1824 -0.0485 -0.1191
 9305SOL    HW139374   2.135   1.441   4.441 -0.1228 -1.7919  0.1478
 9305SOL    HW239375   2.265   1.414   4.479  0.2870  1.8329 -1.2599
 9306SOL     OW39376   0.501   2.037   8.549  0.1504  0.2121 -0.0980
 9306SOL    HW139377   0.586   2.024   8.591 -0.3309 -2.7344 -0.0827
 9306SOL    HW239378   0.457   1.953   8.550  0.3439  0.1100 -0.1475
 9307SOL     OW39379   1.291   0.873   4.568  0.3272  0.2664 -0.3530
 9307SOL    HW139380   1.373   0.838   4.603 -1.2413 -2.0452  1.0422
 9307SOL    HW239381   1.276   0.813   4.495 -0.8869  1.6883 -1.2749
 9308SOL     OW39382   1.752   0.487   4.530  0.8019  0.0797 -0.5172
 9308SOL    HW139383   1.689   0.516   4.465  0.1794 -2.6984 -1.1110
 9308SOL    HW239384   1.721   0.398   4.544 -0.7786  0.8373  0.8214
 9309SOL     OW39385   0.388   4.114   7.426  0.0408 -0.0069  0.1827
 9309SOL    HW139386   0.422   4.170   7.496 -2.6781  0.2663  1.2864
 9309SOL    HW239387   0.348   4.042   7.475  1.0172 -0.1346  0.7958
 9310SOL     OW39388   0.392   0.132   7.626  0.5932  0.8380  1.0484
 9310SOL    HW139389   0.335   0.209   7.626 -1.5470 -0.7264 -1.5585
 9310SOL    HW239390   0.366   0.091   7.708 -3.0348  1.9696  0.4788
 9311SOL     OW39391   1.773   2.401   6.398  0.3785 -0.0290 -0.1490
 9311SOL    HW139392   1.772   2.487   6.357 -3.4698 -0.5272 -1.0903
 9311SOL    HW239393   1.719   2.360   6.331  0.5914 -0.3716 -0.1158
 9312SOL     OW39394   0.217   3.721   3.936 -0.2724  0.1316 -1.0088
 9312SOL    HW139395   0.303   3.693   3.904 -1.8468 -1.6765 -3.5931
 9312SOL    HW239396   0.217   3.817   3.930  0.5510  0.1360 -0.9660
 9313SOL     OW39397   2.511   1.101   7.150  0.2970  0.0899 -0.1060
 9313SOL    HW139398   2.518   1.077   7.057  2.6651  1.1987 -0.2147
 9313SOL    HW239399   2.591   1.151   7.168 -0.1938  0.4765  0.9961
 9314SOL     OW39400   0.164   0.894   8.633 -0.3319  0.2904 -0.0514
 9314SOL    HW139401   0.218   0.858   8.703 -2.5037 -0.4057  1.2423
 9314SOL    HW239402   0.135   0.975   8.673  0.4660  1.3341 -1.5658
 9315SOL     OW39403   0.312   4.424   8.172  0.2466 -0.3944  0.3790
 9315SOL    HW139404   0.281   4.423   8.081 -0.3170  2.2979  0.5189
 9315SOL    HW239405   0.323   4.332   8.193 -0.1459 -0.6706 -0.6050
 9316SOL     OW39406   1.308   3.080   5.939  0.1143  0.2882  0.5893
 9316SOL    HW139407   1.354   3.016   5.886  0.6839  0.5330  0.7856
 9316SOL    HW239408   1.352   3.161   5.911  1.0610 -0.1099  0.9256
 9317SOL     OW39409   1.765   3.544  15.465 -0.1162  0.4500  0.6150
 9317SOL    HW139410   1.739   3.579  15.380  0.7955  1.4211  0.7281
 9317SOL    HW239411   1.809   3.617  15.509 -0.9998  0.7110  1.0648
 9318SOL     OW39412   1.263   0.041  17.379 -0.4793 -0.3244  0.0326
 9318SOL    HW139413   1.212   4.705  17.326 -1.4115 -1.4827  2.2356
 9318SOL    HW239414   1.240   4.719  17.460  0.0887  0.2190  0.5112
 9319SOL     OW39415   0.763   4.349   0.709  0.2220  0.2359  0.0276
 9319SOL    HW139416   0.784   4.407   0.783 -0.5919  2.2938 -1.3694
 9319SOL    HW239417   0.668   4.347   0.709  0.1854  2.2805 -0.1093
 9320SOL     OW39418   1.021   1.744   3.692  0.1112  0.0444  0.0415
 9320SOL    HW139419   1.014   1.655   3.658  0.9125  0.1816 -0.4740
 9320SOL    HW239420   1.077   1.781   3.625  0.6675 -2.5741 -0.9194
 9321SOL     OW39421   2.954   3.729  14.328 -0.3437 -0.1332 -0.0959
 9321SOL    HW139422   2.911   3.785  14.392 -1.9074 -0.4940 -0.8378
 9321SOL    HW239423   2.908   3.647  14.347 -0.6760  0.0091 -0.2904
 9322SOL     OW39424   4.363   4.715   5.418  0.1209 -0.1174  0.7079
 9322SOL    HW139425   4.446   0.023   5.453  0.0111  1.0014 -0.1097
 9322SOL    HW239426   4.382   0.007   5.326  0.5460 -0.5004  0.7267
 9323SOL     OW39427   1.283   2.797   2.497 -0.3273  0.0343  0.1215
 9323SOL    HW139428   1.366   2.832   2.464 -0.0921 -0.5537  0.0966
 9323SOL    HW239429   1.307   2.718   2.545 -1.9393  0.2762  1.3297
 9324SOL     OW39430   2.649   1.218   2.506  0.1415 -0.7166  0.1396
 9324SOL    HW139431   2.638   1.146   2.443 -0.9476  1.4045 -2.1012
 9324SOL    HW239432   2.648   1.302   2.460  2.0469 -0.8504 -0.1593
 9325SOL     OW39433   0.103   3.079   5.873 -0.4729  0.4393 -0.6134
 9325SOL    HW139434   0.082   3.140   5.802  0.1696  2.2250  0.7580
 9325SOL    HW239435   0.019   3.033   5.882 -0.3928  1.0205  2.8331
 9326SOL     OW39436   3.275   3.328   0.812 -0.3629  0.0906 -0.2562
 9326SOL    HW139437   3.286   3.276   0.732  0.9891  2.5575 -1.7210
 9326SOL    HW239438   3.192   3.295   0.844 -0.4086 -0.0403 -0.5078
 9327SOL     OW39439   2.517   0.664   8.726  0.5869  0.8072 -0.1237
 9327SOL    HW139440   2.541   0.583   8.772  1.7358  1.3955  0.3212
 9327SOL    HW239441   2.477   0.716   8.796  1.4114  0.7858  0.3606
 9328SOL     OW39442   4.636   2.449   1.806 -0.2024 -0.5443 -0.1423
 9328SOL    HW139443   0.007   2.445   1.806 -0.2312 -1.2765 -0.7784
 9328SOL    HW239444   4.629   2.537   1.842 -1.2549 -0.2293 -1.1236
 9329SOL     OW39445   0.814   0.790   5.741 -0.5211  0.6178 -0.3100
 9329SOL    HW139446   0.888   0.768   5.796  0.8558  1.1856 -1.9083
 9329SOL    HW239447   0.750   0.773   5.810  0.4400  0.5084  0.5552
 9330SOL     OW39448   1.219   3.985   6.818 -0.3929  0.4223 -0.4235
 9330SOL    HW139449   1.283   3.925   6.780 -0.6826  0.1420 -0.4693
 9330SOL    HW239450   1.141   3.933   6.800  0.1421 -0.6351  0.2944
 9331SOL     OW39451   1.790   1.613   4.258 -0.4877 -0.7763  0.1034
 9331SOL    HW139452   1.883   1.631   4.247 -0.7162 -1.5578 -2.9844
 9331SOL    HW239453   1.762   1.689   4.309  0.7754 -0.7887  0.8166
 9332SOL     OW39454   0.570   1.793   5.418  0.3691 -0.7178 -0.1554
 9332SOL    HW139455   0.592   1.744   5.339  0.5430  1.2215 -1.3219
 9332SOL    HW239456   0.527   1.720   5.462 -0.5654 -0.0772  0.0025
 9333SOL     OW39457   3.770   2.877   3.671 -0.1864  0.1003  0.2198
 9333SOL    HW139458   3.762   2.874   3.576  2.0762 -0.2168  0.0477
 9333SOL    HW239459   3.850   2.825   3.682 -2.4151 -2.9987  1.7026
 9334SOL     OW39460   3.113   2.606   7.310 -0.2809 -0.0023 -0.0959
 9334SOL    HW139461   3.071   2.584   7.394  0.4749  1.8487  0.7597
 9334SOL    HW239462   3.149   2.522   7.281  0.1046  0.1493 -0.0674
 9335SOL     OW39463   4.414   3.046   0.908  0.2966  0.2685 -0.3337
 9335SOL    HW139464   4.494   3.018   0.951 -0.8815 -1.6724  0.6112
 9335SOL    HW239465   4.454   3.073   0.825 -0.3450 -1.1765 -1.1201
 9336SOL     OW39466   3.860   1.979   4.035 -0.5798  0.3984 -0.5403
 9336SOL    HW139467   3.853   1.932   4.118  1.4503 -2.5956 -2.0661
 9336SOL    HW239468   3.781   1.945   3.994  0.3678 -0.5049 -1.6283
 9337SOL     OW39469   0.931   3.248  13.100 -0.5532 -0.2111 -0.2730
 9337SOL    HW139470   0.930   3.343  13.090 -0.3641 -0.2234 -0.3862
 9337SOL    HW239471   0.902   3.219  13.013 -0.0142 -0.6127 -0.3154
 9338SOL     OW39472   4.649   4.141   6.950 -0.2947 -0.6042 -0.4199
 9338SOL    HW139473   0.016   4.118   6.967 -0.0645  2.5179  2.6783
 9338SOL    HW239474   4.669   4.196   6.874  0.9627 -0.8318 -0.2555
 9339SOL     OW39475   1.204   3.538   3.255  0.2426  0.4392 -0.4104
 9339SOL    HW139476   1.250   3.526   3.172 -0.1627 -1.8951 -0.2897
 9339SOL    HW239477   1.277   3.525   3.317  0.3713  2.4755 -0.1336
 9340SOL     OW39478   2.932   3.261   8.345 -0.4684  0.2921  0.0502
 9340SOL    HW139479   2.939   3.304   8.259  2.3527 -1.2166 -0.4512
 9340SOL    HW239480   2.884   3.322   8.401  0.4732  0.6546  0.4466
 9341SOL     OW39481   0.021   1.219   6.429  0.1804  0.1266 -0.3869
 9341SOL    HW139482   4.723   1.303   6.468  0.1847 -0.7644  1.5322
 9341SOL    HW239483   4.724   1.225   6.336 -1.9674 -0.8600  0.0447
 9342SOL     OW39484   0.170   2.405   4.075  0.1048  0.0093 -0.3178
 9342SOL    HW139485   0.170   2.447   4.161 -0.0497 -1.0306  0.1965
 9342SOL    HW239486   0.180   2.312   4.098  0.3117  0.2627  0.6119
 9343SOL     OW39487   2.164   1.474  14.256 -0.0761 -0.0119  0.0733
 9343SOL    HW139488   2.235   1.444  14.199 -1.3647 -3.5607  0.2979
 9343SOL    HW239489   2.128   1.544  14.201 -0.1607  0.0619  0.2240
 9344SOL     OW39490   0.074   1.450   7.665 -0.0150 -0.0513  0.5332
 9344SOL    HW139491   0.001   1.395   7.693 -0.6004  0.9184  0.9321
 9344SOL    HW239492   0.100   1.410   7.583 -3.6515 -2.0339  0.3878
 9345SOL     OW39493   1.930   4.688   7.779 -0.1327 -0.2852  0.4415
 9345SOL    HW139494   2.005   0.023   7.782 -0.9293  0.6659  1.5311
 9345SOL    HW239495   1.862   0.012   7.827  1.3955  2.4335 -0.1726
 9346SOL     OW39496   0.355   0.282   2.487  0.1150  0.4473  0.6595
 9346SOL    HW139497   0.331   0.199   2.445 -0.9529  0.2168  1.7342
 9346SOL    HW239498   0.451   0.278   2.479 -0.0289  0.2923 -0.9897
 9347SOL     OW39499   3.810   4.708   4.206  0.4393  0.3116 -0.9868
 9347SOL    HW139500   3.757   4.676   4.278 -0.9827  1.5712 -1.4595
 9347SOL    HW239501   3.886   0.024   4.249  0.5471 -1.7662  0.7565
 9348SOL     OW39502   1.041   0.119   1.556  0.3563  0.1331  0.8606
 9348SOL    HW139503   1.081   0.036   1.531 -1.1043 -0.3979  0.3463
 9348SOL    HW239504   1.112   0.183   1.544  2.9975 -2.6027  1.6972
 9349SOL     OW39505   0.921   1.091   3.080 -0.3217  0.2223 -0.1113
 9349SOL    HW139506   0.869   1.131   3.150  0.5763  1.1803  0.0117
 9349SOL    HW239507   0.954   1.022   3.138 -1.6904 -1.0373 -0.8280
 9350SOL     OW39508   0.689   2.848  17.445 -0.2290 -0.2553  0.2635
 9350SOL    HW139509   0.727   2.820  17.361  2.1636  1.1328  0.8710
 9350SOL    HW239510   0.598   2.862  17.419  0.2694 -0.9058 -1.8485
 9351SOL     OW39511   2.233   1.847   3.828  0.1940 -0.0508 -0.2759
 9351SOL    HW139512   2.153   1.795   3.829 -0.4715  0.9929  1.3307
 9351SOL    HW239513   2.281   1.786   3.772  0.2985 -1.9321  1.9154
 9352SOL     OW39514   2.056   1.112   5.673 -0.6688  0.1408 -0.2089
 9352SOL    HW139515   1.977   1.058   5.667 -0.3410 -0.6379  2.5533
 9352SOL    HW239516   2.113   1.067   5.611 -0.2080  0.7934 -0.2539
 9353SOL     OW39517   1.233   2.081  10.930  0.0115 -0.0232  0.2340
 9353SOL    HW139518   1.305   2.066  10.991  1.3878  0.6326 -1.2165
 9353SOL    HW239519   1.278   2.103  10.848 -0.9249  1.3295  0.0928
 9354SOL     OW39520   0.547   3.045   4.794 -0.1917 -0.0133 -0.2108
 9354SOL    HW139521   0.469   3.060   4.740 -2.1032  0.9729  2.8344
 9354SOL    HW239522   0.541   2.952   4.814 -0.3442 -0.4883 -2.4420
 9355SOL     OW39523   3.722   3.209   4.273  0.5673  0.0032  0.2710
 9355SOL    HW139524   3.665   3.191   4.197  1.5728 -1.1552 -0.2051
 9355SOL    HW239525   3.713   3.303   4.288  0.5112 -0.1334  1.0728
 9356SOL     OW39526   2.075   1.158   8.685  0.0052 -0.6307  0.2560
 9356SOL    HW139527   2.039   1.196   8.765 -2.5144 -0.9747 -0.7255
 9356SOL    HW239528   1.996   1.160   8.632  0.1000  1.6417  0.2006
 9357SOL     OW39529   3.352   0.100   8.385  0.1582 -0.1241 -0.1928
 9357SOL    HW139530   3.389   0.107   8.472 -0.9176 -1.9041  0.3988
 9357SOL    HW239531   3.348   0.006   8.367 -0.3489  0.0871 -1.2248
 9358SOL     OW39532   3.823   1.442   4.872 -0.6305 -0.4294 -0.1919
 9358SOL    HW139533   3.897   1.427   4.814  0.3169 -1.6278  1.3251
 9358SOL    HW239534   3.769   1.363   4.864 -4.4122  1.9358  1.9172
 9359SOL     OW39535   0.344   3.992  10.991  0.7639 -0.1575  0.1655
 9359SOL    HW139536   0.315   4.071  11.036 -1.9817 -0.0641 -1.7778
 9359SOL    HW239537   0.304   3.986  10.904  1.5487 -2.1142 -0.0757
 9360SOL     OW39538   3.611   2.905   7.783  0.0985  0.3910 -0.4970
 9360SOL    HW139539   3.623   2.810   7.773 -0.0228  0.5961 -2.6086
 9360SOL    HW239540   3.561   2.928   7.705 -0.6089  2.6287  0.6155
 9361SOL     OW39541   3.759   4.373  17.388  0.0077 -0.0892 -0.3490
 9361SOL    HW139542   3.735   4.463  17.367 -0.8072 -0.4900 -1.1758
 9361SOL    HW239543   3.796   4.385  17.475  1.4263 -2.4982 -0.6190
 9362SOL     OW39544   1.535   4.507   0.566  0.7784 -0.1122 -0.1869
 9362SOL    HW139545   1.478   4.580   0.544  1.7230  1.0845  1.2993
 9362SOL    HW239546   1.603   4.509   0.499  1.1343  0.5651  0.1864
 9363SOL     OW39547   1.820   0.953   5.586 -0.0561  0.9832  0.0727
 9363SOL    HW139548   1.770   0.980   5.663 -1.9507  0.9305 -1.1625
 9363SOL    HW239549   1.838   0.862   5.610 -1.3939  0.4708 -0.9047
 9364SOL     OW39550   2.374   4.134   5.614  0.2142  0.1345 -0.1900
 9364SOL    HW139551   2.422   4.172   5.541 -0.5160 -0.4151 -0.9688
 9364SOL    HW239552   2.287   4.172   5.601  0.8380  1.5415 -0.2966
 9365SOL     OW39553   1.064   0.549   4.623 -0.3951  0.6646 -0.6495
 9365SOL    HW139554   1.092   0.601   4.547 -1.4455 -0.7909 -2.0193
 9365SOL    HW239555   1.111   0.597   4.692 -0.1933 -0.6141  0.0959
 9366SOL     OW39556   2.149   4.096   8.330  0.3227 -0.0495  0.1198
 9366SOL    HW139557   2.226   4.108   8.275 -1.0663 -0.1308 -1.8090
 9366SOL    HW239558   2.106   4.182   8.322 -0.3954 -0.4943 -0.7048
 9367SOL     OW39559   0.378   1.528   8.640 -0.0542  0.2064 -0.0187
 9367SOL    HW139560   0.314   1.562   8.702 -1.5502 -0.6068 -1.1149
 9367SOL    HW239561   0.353   1.445   8.599  0.5070 -0.4118  0.8816
 9368SOL     OW39562   2.462   2.307   1.605  0.3777  0.2185 -0.1360
 9368SOL    HW139563   2.415   2.361   1.669  0.1383  0.9793 -0.9400
 9368SOL    HW239564   2.425   2.221   1.623 -1.5581  1.1592  0.4201
 9369SOL     OW39565   2.745   0.029   5.222 -0.8139 -0.5327 -0.0489
 9369SOL    HW139566   2.825   4.715   5.258  0.0238  2.5906  1.3631
 9369SOL    HW239567   2.719   4.690   5.155  2.6235 -1.4974 -0.4905
 9370SOL     OW39568   0.585   2.076   6.442  0.6712  0.3185  1.1296
 9370SOL    HW139569   0.573   2.159   6.488  0.9602 -0.6386  2.9468
 9370SOL    HW239570   0.649   2.116   6.383 -0.7755  0.0063 -0.6683
 9371SOL     OW39571   0.410   0.996  11.723  0.4168 -0.5245 -0.6144
 9371SOL    HW139572   0.500   0.992  11.691  0.6712 -0.8534  0.1117
 9371SOL    HW239573   0.365   0.988  11.639 -1.4147  3.0620  0.0400
 9372SOL     OW39574   0.544   1.621   6.240  0.0437  0.4184 -0.2097
 9372SOL    HW139575   0.510   1.644   6.154 -0.5603 -2.0956 -0.6369
 9372SOL    HW239576   0.606   1.693   6.253  0.7451 -0.4208  1.1398
 9373SOL     OW39577   2.502   4.385   2.664 -0.1126 -0.4522 -0.7071
 9373SOL    HW139578   2.472   4.302   2.703  0.2253 -0.7030 -0.9759
 9373SOL    HW239579   2.452   4.445   2.719 -0.1129 -0.8752 -0.2333
 9374SOL     OW39580   3.087   2.301   6.442 -0.3564 -0.6000 -0.6557
 9374SOL    HW139581   3.096   2.320   6.536 -0.0196 -0.7689 -0.6528
 9374SOL    HW239582   3.099   2.206   6.439 -2.9671 -0.9324 -0.7406
 9375SOL     OW39583   1.717   2.115   5.275  0.0748  0.4717  0.1818
 9375SOL    HW139584   1.723   2.181   5.344  1.8186 -2.4329  2.7731
 9375SOL    HW239585   1.622   2.104   5.282  0.4055 -1.9479  0.6756
 9376SOL     OW39586   3.654   4.282  10.921  0.5084 -0.4351  0.5867
 9376SOL    HW139587   3.720   4.284  10.990  3.0315 -0.9381 -1.8049
 9376SOL    HW239588   3.599   4.353  10.954 -0.2374  0.2004 -2.0187
 9377SOL     OW39589   4.580   4.697  10.273  0.4562 -0.3634  0.2345
 9377SOL    HW139590   4.523   0.028  10.220  0.7989 -0.4079 -0.1810
 9377SOL    HW239591   4.642   0.035  10.312 -0.0157  0.5613 -0.4926
 9378SOL     OW39592   0.773   0.231   1.438  0.5870  0.2352  0.2927
 9378SOL    HW139593   0.800   0.245   1.347  1.9594 -1.3856  0.4466
 9378SOL    HW239594   0.855   0.195   1.471  2.4375  2.6770 -1.6235
 9379SOL     OW39595   1.984   4.324   7.393  0.1956  0.6094  0.3393
 9379SOL    HW139596   2.025   4.303   7.477  1.3281  0.9458 -0.1275
 9379SOL    HW239597   1.893   4.346   7.409 -0.1350 -1.3667  1.1770
 9380SOL     OW39598   0.008   3.644   3.695 -0.1081 -0.3857  0.0925
 9380SOL    HW139599   0.035   3.552   3.692  1.1921  0.0416 -0.9389
 9380SOL    HW239600   0.092   3.682   3.673 -1.7285  2.4315 -1.2559
 9381SOL     OW39601   2.995   4.665  10.819 -0.2398  0.1265 -0.0719
 9381SOL    HW139602   2.978   4.586  10.871  0.7828 -1.8808 -2.7631
 9381SOL    HW239603   3.025   0.009  10.880  2.1370 -0.7984 -0.1695
 9382SOL     OW39604   2.815   0.573   0.434 -0.2942  0.4840  0.5381
 9382SOL    HW139605   2.736   0.616   0.468  0.8705  4.0728 -1.2651
 9382SOL    HW239606   2.854   0.550   0.518 -2.3660  0.7451  1.5588
 9383SOL     OW39607   4.638   3.336   8.342 -0.0487 -0.9213 -0.5576
 9383SOL    HW139608   4.679   3.280   8.408 -0.2074  0.6459  0.8688
 9383SOL    HW239609   4.624   3.417   8.392 -1.3212  0.0953 -2.5309
 9384SOL     OW39610   0.724   0.794  10.119  0.2990 -0.0155  0.2866
 9384SOL    HW139611   0.802   0.827  10.074  1.2414  0.4773  2.2878
 9384SOL    HW239612   0.670   0.871  10.134  1.7676  0.8513  1.0935
 9385SOL     OW39613   1.214   4.006   1.986  0.4396  0.1595 -0.2248
 9385SOL    HW139614   1.298   3.960   1.980  1.4573  2.1447 -1.2506
 9385SOL    HW239615   1.221   4.062   1.908 -0.1447 -0.4919 -0.7481
 9386SOL     OW39616   2.489   0.001  13.588 -0.3310  0.2318  0.4935
 9386SOL    HW139617   2.559   0.041  13.640 -1.6464 -0.2440  2.6336
 9386SOL    HW239618   2.436   0.080  13.573 -2.5002 -1.3492 -0.1521
 9387SOL     OW39619   1.973   3.779   3.413 -0.1025  0.0311  0.2037
 9387SOL    HW139620   1.963   3.711   3.479 -1.0152 -1.8467 -1.8731
 9387SOL    HW239621   1.919   3.758   3.336 -0.6232 -0.2187  0.6358
 9388SOL     OW39622   4.454   1.489  14.613 -0.4709  0.3290 -0.2381
 9388SOL    HW139623   4.422   1.467  14.526 -1.7771  0.7825  0.1183
 9388SOL    HW239624   4.489   1.406  14.645 -2.2415 -1.1217 -2.0340
 9389SOL     OW39625   2.479   1.771   3.079  0.6016 -0.0620 -0.1823
 9389SOL    HW139626   2.414   1.838   3.063  0.0536 -0.3184  0.9714
 9389SOL    HW239627   2.478   1.769   3.175  1.4932  1.5831 -0.1436
 9390SOL     OW39628   4.153   2.929  15.029  0.7393  0.6947 -0.2949
 9390SOL    HW139629   4.225   2.991  15.014  1.4493 -0.1843 -0.4694
 9390SOL    HW239630   4.109   2.974  15.101  0.5798  0.3028 -0.1476
 9391SOL     OW39631   4.712   3.614   9.365  0.5418  0.1005 -0.3814
 9391SOL    HW139632   0.052   3.684   9.373 -0.6775  0.8958  2.2054
 9391SOL    HW239633   4.653   3.647   9.297 -1.9670 -1.0760  1.2564
 9392SOL     OW39634   0.490   0.707   8.968 -0.0876  0.5570 -0.1644
 9392SOL    HW139635   0.560   0.772   8.963  1.1914 -0.8724 -0.8504
 9392SOL    HW239636   0.474   0.702   9.062 -0.2982  1.1655 -0.1690
 9393SOL     OW39637   1.941   3.429  13.504  0.7048 -0.6202 -0.3071
 9393SOL    HW139638   1.909   3.490  13.570  0.0633 -0.5685 -0.6632
 9393SOL    HW239639   2.031   3.459  13.491  0.5179 -0.9220 -2.2366
 9394SOL     OW39640   1.122   3.041  10.970 -0.1665 -0.3506  0.1863
 9394SOL    HW139641   1.058   2.971  10.966 -0.0019 -0.5543  1.0895
 9394SOL    HW239642   1.208   3.000  10.957 -0.1573 -0.8009  1.6593
 9395SOL     OW39643   4.449   2.325   1.133  0.6777  0.5505  0.3191
 9395SOL    HW139644   4.419   2.254   1.077 -0.2398 -0.3373  1.9315
 9395SOL    HW239645   4.488   2.390   1.074 -0.6051  1.0008 -0.0341
 9396SOL     OW39646   2.094   2.047  14.266  0.2837  0.0328  0.3568
 9396SOL    HW139647   2.067   1.956  14.274  0.1061  0.1463  1.0826
 9396SOL    HW239648   2.035   2.074  14.196  0.1957  1.5629  1.0087
 9397SOL     OW39649   4.128   2.538   9.745 -0.0535 -0.5869  0.4874
 9397SOL    HW139650   4.085   2.622   9.759 -0.8721 -1.2226  1.8298
 9397SOL    HW239651   4.070   2.494   9.684 -1.3714  1.1120  0.5161
 9398SOL     OW39652   2.835   4.277   7.943  0.0492 -0.3946  0.1756
 9398SOL    HW139653   2.785   4.262   7.862  1.9628 -0.9919 -0.8996
 9398SOL    HW239654   2.876   4.191   7.956 -1.1652 -1.2992 -1.9209
 9399SOL     OW39655   1.996   3.563   9.816  0.2942 -0.0945 -0.2144
 9399SOL    HW139656   2.006   3.500   9.888  0.5604  0.1055 -0.0769
 9399SOL    HW239657   2.009   3.646   9.861  0.7437 -0.7026  0.7711
 9400SOL     OW39658   2.832   0.933   7.462 -0.6540 -0.1373  0.4472
 9400SOL    HW139659   2.760   0.885   7.503 -1.0289  0.7698  0.8343
 9400SOL    HW239660   2.886   0.861   7.427  0.5735  0.0625  1.9168
 9401SOL     OW39661   4.356   0.360   1.121  0.1444 -0.0185 -0.1092
 9401SOL    HW139662   4.262   0.371   1.134  0.0858  1.2065 -1.5861
 9401SOL    HW239663   4.361   0.294   1.052 -0.7076 -0.2537  0.0499
 9402SOL     OW39664   0.793   2.666   1.985 -0.0541 -0.5137  0.4872
 9402SOL    HW139665   0.763   2.646   1.897  0.6177  1.7611 -0.2534
 9402SOL    HW239666   0.831   2.753   1.972  1.3144 -1.2092 -0.1990
 9403SOL     OW39667   0.235   0.078   6.757 -0.0135 -0.1466  0.1006
 9403SOL    HW139668   0.307   0.124   6.715  0.2077 -0.4745  0.1259
 9403SOL    HW239669   0.279   0.031   6.828 -0.1929  0.0160  0.3214
 9404SOL     OW39670   2.803   3.889   8.013  0.2531  0.4982  0.2877
 9404SOL    HW139671   2.866   3.946   7.969  1.6470  0.0255  1.6768
 9404SOL    HW239672   2.823   3.808   7.966 -0.0759  0.3690  0.3686
 9405SOL     OW39673   2.063   4.608   2.086  0.1427  0.0296  0.7663
 9405SOL    HW139674   2.070   4.697   2.122  1.1141  0.1878  0.1976
 9405SOL    HW239675   2.096   4.622   1.997 -1.1489  1.0660  0.4469
 9406SOL     OW39676   3.352   1.533   0.608 -0.1819 -0.1395  0.4988
 9406SOL    HW139677   3.290   1.516   0.678 -0.0018  0.9496  0.9276
 9406SOL    HW239678   3.388   1.618   0.635  0.2632 -0.2358  0.2102
 9407SOL     OW39679   4.443   1.897   8.777  0.4660 -0.5202 -0.2542
 9407SOL    HW139680   4.397   1.826   8.823 -0.3220  0.4436  0.4402
 9407SOL    HW239681   4.465   1.963   8.842 -0.1676 -1.7421  1.1992
 9408SOL     OW39682   0.848   2.817   6.201 -0.3403  0.2189 -0.3675
 9408SOL    HW139683   0.762   2.827   6.159 -1.8053 -1.1289  2.3227
 9408SOL    HW239684   0.824   2.817   6.293  0.0671  2.1044 -0.2667
 9409SOL     OW39685   0.773   2.636   1.703 -0.3239  0.1713  0.3476
 9409SOL    HW139686   0.832   2.582   1.651 -0.9149 -0.3470  0.2162
 9409SOL    HW239687   0.685   2.599   1.691 -0.0615 -0.9441  1.9309
 9410SOL     OW39688   3.490   0.392   4.855 -0.0650 -0.0679 -0.7106
 9410SOL    HW139689   3.565   0.451   4.866  1.1469 -1.6528 -0.3651
 9410SOL    HW239690   3.479   0.397   4.760  3.0285  2.4856 -0.9639
 9411SOL     OW39691   4.705   3.982   7.564 -0.2965  0.1349  0.9223
 9411SOL    HW139692   4.642   3.935   7.510 -1.2008 -0.6450  2.6360
 9411SOL    HW239693   4.652   4.051   7.604 -0.8319 -0.2015  0.7939
 9412SOL     OW39694   2.022   4.487   4.232  0.0503  0.9414  0.0400
 9412SOL    HW139695   2.116   4.499   4.248  0.1901 -0.0016 -0.0662
 9412SOL    HW239696   1.989   4.576   4.232 -0.3419  0.7765  1.9415
 9413SOL     OW39697   2.965   0.808   2.144  0.0049  0.2101  0.3756
 9413SOL    HW139698   2.956   0.838   2.053  0.9640  0.7456  0.4585
 9413SOL    HW239699   2.958   0.893   2.188  0.3276  0.1385  0.5602
 9414SOL     OW39700   0.407   1.977   6.694  0.2592  0.4710 -0.1275
 9414SOL    HW139701   0.409   1.883   6.676  0.7031  0.1400  1.6256
 9414SOL    HW239702   0.384   2.001   6.604  1.1001  2.8230  0.2819
 9415SOL     OW39703   1.028   0.717   6.962  0.1955 -0.5213 -0.0024
 9415SOL    HW139704   0.952   0.686   6.913 -0.1595  0.5712 -0.1431
 9415SOL    HW239705   1.087   0.757   6.898 -2.2417  1.1774 -1.1753
 9416SOL     OW39706   0.090   3.810   0.970 -0.2003  0.0871  0.1451
 9416SOL    HW139707   0.133   3.725   0.980  0.2734  0.1793 -1.0581
 9416SOL    HW239708   0.091   3.820   0.874  0.5536  1.0560  0.2566
 9417SOL     OW39709   2.068   1.655   1.885 -0.2620 -0.2122  0.4060
 9417SOL    HW139710   1.985   1.611   1.866  1.0998 -2.6984  0.3155
 9417SOL    HW239711   2.111   1.577   1.920  0.7017  0.0276 -0.2331
 9418SOL     OW39712   0.305   0.875   0.776 -0.6461 -0.3629 -0.2803
 9418SOL    HW139713   0.252   0.872   0.696 -0.8652  0.4275 -0.1701
 9418SOL    HW239714   0.241   0.857   0.844 -0.1801 -2.0866 -0.2928
 9419SOL     OW39715   2.904   0.951   0.678 -0.2912 -0.4450  1.0197
 9419SOL    HW139716   2.841   1.022   0.688  0.3139  0.1225  0.7713
 9419SOL    HW239717   2.851   0.872   0.691 -1.7249  0.5912  1.5459
 9420SOL     OW39718   2.877   0.517   0.188  0.3510  0.1605  0.3088
 9420SOL    HW139719   2.857   0.541   0.279 -0.7691 -1.9528  0.6089
 9420SOL    HW239720   2.972   0.531   0.185  0.6200 -1.5348  0.7759
 9421SOL     OW39721   1.611   0.870   0.704 -0.2044 -0.0776 -0.7450
 9421SOL    HW139722   1.555   0.875   0.782  0.2339  1.1326 -0.5058
 9421SOL    HW239723   1.557   0.807   0.657  1.4935 -1.3664 -0.9832
 9422SOL     OW39724   0.002   1.839   9.594 -0.0418 -0.2298  0.2755
 9422SOL    HW139725   4.652   1.859   9.650 -0.9096  1.5440 -1.5233
 9422SOL    HW239726   0.079   1.855   9.649  0.3753 -1.5114  0.0712
 9423SOL     OW39727   2.995   0.434   9.913  0.1841  0.7555  0.8295
 9423SOL    HW139728   3.079   0.405   9.949  0.3536 -0.0468 -0.2290
 9423SOL    HW239729   2.988   0.519   9.957  0.9076  0.8972  0.6775
 9424SOL     OW39730   0.427   4.416  12.338  0.0600  0.2556  0.0601
 9424SOL    HW139731   0.503   4.409  12.281 -0.2023  1.6741 -0.4744
 9424SOL    HW239732   0.435   4.331  12.380  1.2933 -0.5886 -1.8679
 9425SOL     OW39733   2.718   3.779   2.422 -0.0715 -0.4690  0.0347
 9425SOL    HW139734   2.788   3.843   2.418 -1.4094  0.9105 -1.3054
 9425SOL    HW239735   2.765   3.712   2.471  0.8449 -0.7585 -1.2441
 9426SOL     OW39736   4.464   3.877   8.423 -0.1914 -0.5690  0.1918
 9426SOL    HW139737   4.455   3.878   8.328  2.4090 -2.0939 -0.0805
 9426SOL    HW239738   4.395   3.941   8.441 -1.3464 -1.6809 -0.3226
 9427SOL     OW39739   2.557   3.080   3.628  0.1531 -0.4075  0.2192
 9427SOL    HW139740   2.535   2.993   3.660  2.2356 -1.1329 -0.3033
 9427SOL    HW239741   2.645   3.059   3.595  0.6218  1.0711  0.5270
 9428SOL     OW39742   1.833   3.090   4.507 -0.5661 -0.6108  0.2180
 9428SOL    HW139743   1.925   3.077   4.527 -0.4199 -0.3072 -0.2617
 9428SOL    HW239744   1.816   3.158   4.572 -0.6864 -0.8426  0.4288
 9429SOL     OW39745   3.377   2.035   4.586  0.1881 -0.3393 -0.6091
 9429SOL    HW139746   3.426   1.979   4.647  1.1304 -1.6394 -2.5632
 9429SOL    HW239747   3.437   2.062   4.516  1.3319  1.5163  1.0871
 9430SOL     OW39748   0.115   2.712   3.826  0.0172  0.2830 -0.4329
 9430SOL    HW139749   0.130   2.638   3.767 -0.4552 -0.2221  0.0775
 9430SOL    HW239750   0.062   2.770   3.772  2.0610  1.7129 -0.8871
 9431SOL     OW39751   2.257   4.502   1.452  0.4580  0.0889 -0.6712
 9431SOL    HW139752   2.277   4.410   1.435 -0.5697 -0.0092 -1.3688
 9431SOL    HW239753   2.261   4.506   1.548 -3.1915  0.1390 -0.5479
 9432SOL     OW39754   0.687   4.650   1.683 -0.0810 -0.6260 -0.3231
 9432SOL    HW139755   0.683   4.693   1.598  2.1822  2.3598  1.0713
 9432SOL    HW239756   0.661   4.722   1.741 -1.0858  0.3071 -1.9115
 9433SOL     OW39757   1.079   1.822  15.203 -0.1385  0.9677 -0.1680
 9433SOL    HW139758   1.118   1.735  15.192  0.7904  1.0903  2.1807
 9433SOL    HW239759   1.020   1.821  15.127 -1.7848  1.0670  1.1136
 9434SOL     OW39760   3.649   4.711   3.394 -0.2076 -0.3098  0.0966
 9434SOL    HW139761   3.734   4.680   3.366 -0.1094 -1.0132  1.1591
 9434SOL    HW239762   3.656   0.069   3.443 -0.4817  0.1031 -0.5671
 9435SOL     OW39763   3.167   1.282  16.509  0.1523 -0.3531  0.7708
 9435SOL    HW139764   3.128   1.329  16.435  0.4181  1.0833  1.5619
 9435SOL    HW239765   3.085   1.259  16.553  0.1732  1.1508  1.5805
 9436SOL     OW39766   1.803   3.553   7.636 -0.2475 -0.2343  0.2835
 9436SOL    HW139767   1.885   3.577   7.593  1.3184 -2.6140  1.9014
 9436SOL    HW239768   1.825   3.579   7.726 -0.8385  0.3782  0.2455
 9437SOL     OW39769   4.292   0.578   0.804 -0.4506  0.0918  0.1890
 9437SOL    HW139770   4.240   0.655   0.786  1.4699  0.8315 -2.2167
 9437SOL    HW239771   4.244   0.504   0.766 -0.1083 -0.2070  0.3275
 9438SOL     OW39772   4.491   3.612   8.265  0.0823  0.1202  0.0710
 9438SOL    HW139773   4.399   3.583   8.263  0.5221 -1.1780 -0.7643
 9438SOL    HW239774   4.515   3.632   8.356 -1.3528  0.7792  0.3071
 9439SOL     OW39775   1.008   3.047   7.359 -0.5636 -0.6123 -0.3652
 9439SOL    HW139776   1.069   2.986   7.316  0.0190 -1.7568  2.0843
 9439SOL    HW239777   1.053   3.081   7.436 -0.2098 -1.4115 -0.2180
 9440SOL     OW39778   3.588   0.923  16.704 -0.1964 -0.0486 -0.7812
 9440SOL    HW139779   3.514   0.976  16.675 -0.0265  1.2575  1.1428
 9440SOL    HW239780   3.651   0.988  16.736 -0.5570  1.4142 -2.9705
 9441SOL     OW39781   0.944   0.812   1.255  0.0729  0.3193 -0.0842
 9441SOL    HW139782   0.972   0.885   1.310  0.6528  0.1442 -0.1385
 9441SOL    HW239783   0.920   0.866   1.179  2.4253  1.1228 -0.2774
 9442SOL     OW39784   1.565   2.903  11.003 -0.0612  0.7461  0.1081
 9442SOL    HW139785   1.649   2.886  10.960 -0.7965 -1.6869 -0.3996
 9442SOL    HW239786   1.545   2.818  11.045  0.6008  0.9168  0.7689
 9443SOL     OW39787   1.660   3.898  14.652 -0.8319  0.2828  0.0723
 9443SOL    HW139788   1.639   3.928  14.740  1.7208  0.2417  0.7004
 9443SOL    HW239789   1.606   3.819  14.650 -0.6512  0.1449  0.6278
 9444SOL     OW39790   2.680   2.786  10.397  0.0841 -0.3432  0.2754
 9444SOL    HW139791   2.590   2.758  10.412 -0.2080  0.2490 -0.3857
 9444SOL    HW239792   2.736   2.747  10.465  0.1799 -0.7833 -0.0507
 9445SOL     OW39793   3.711   0.204   3.620  0.0691 -0.0397  0.0868
 9445SOL    HW139794   3.617   0.190   3.618  0.3758 -1.7867 -2.3205
 9445SOL    HW239795   3.706   0.271   3.688 -0.6961 -0.1226  0.1144
 9446SOL     OW39796   1.613   3.836   4.582  0.2545 -0.4474  0.6897
 9446SOL    HW139797   1.548   3.899   4.551 -0.7822 -1.9578 -0.1735
 9446SOL    HW239798   1.580   3.813   4.669 -1.6143 -0.2330  0.0369
 9447SOL     OW39799   0.994   0.277  11.963  0.5907  0.9249  0.2590
 9447SOL    HW139800   1.058   0.281  12.034  0.1098  2.0349  0.6328
 9447SOL    HW239801   1.046   0.230  11.899  1.5662 -0.3244  1.9643
 9448SOL     OW39802   2.601   2.847   6.076  0.4536  0.4737  0.0784
 9448SOL    HW139803   2.665   2.776   6.084  0.8160  1.0103  2.1560
 9448SOL    HW239804   2.515   2.807   6.061 -0.1703  1.3243  1.3804
 9449SOL     OW39805   3.092   0.780   6.232 -0.6327  0.3867 -0.1914
 9449SOL    HW139806   3.016   0.831   6.202 -1.1079  0.2779  0.8429
 9449SOL    HW239807   3.101   0.713   6.164  0.3156  1.1094 -0.7820
 9450SOL     OW39808   0.848   0.950   0.106  0.3120  0.1857  0.2422
 9450SOL    HW139809   0.831   1.004   0.029 -0.4854  0.2745  0.4763
 9450SOL    HW239810   0.936   0.974   0.132  0.1199  1.0707  0.0656
 9451SOL     OW39811   0.550   2.243  10.302 -0.4275 -0.4399 -0.3672
 9451SOL    HW139812   0.583   2.286  10.381 -0.3841 -0.3639 -0.4271
 9451SOL    HW239813   0.531   2.159  10.344 -0.2092 -0.0628  0.4855
 9452SOL     OW39814   0.004   1.404   2.102 -0.4008 -0.0237  0.5789
 9452SOL    HW139815   0.011   1.310   2.114 -1.5697 -0.1205  0.4603
 9452SOL    HW239816   4.641   1.419   2.137 -1.0022 -3.2578  0.4511
 9453SOL     OW39817   2.447   0.790   3.136 -0.5410 -0.6372  0.1020
 9453SOL    HW139818   2.527   0.738   3.140 -0.3938 -0.2640  2.1037
 9453SOL    HW239819   2.434   0.788   3.231 -1.5595 -2.3923 -0.0762
 9454SOL     OW39820   2.955   4.115   9.039  0.5158  0.3027  0.4724
 9454SOL    HW139821   2.986   4.048   8.977 -2.2805 -0.6492  0.1299
 9454SOL    HW239822   3.036   4.139   9.084 -0.4102  1.2039  1.6455
 9455SOL     OW39823   0.074   2.755   5.245 -0.3101  0.0669  0.2708
 9455SOL    HW139824   4.724   2.701   5.218 -2.3033  2.2377  1.5038
 9455SOL    HW239825   0.032   2.798   5.319  0.1097  1.5245 -0.3325
 9456SOL     OW39826   4.654   1.740   1.556  0.4126  0.0772 -0.3827
 9456SOL    HW139827   4.614   1.654   1.551 -3.2560  1.8315 -1.2705
 9456SOL    HW239828   4.678   1.736   1.648  0.0430 -0.3002 -0.3033
 9457SOL     OW39829   0.109   4.613   5.215  0.3455 -0.2484  0.4807
 9457SOL    HW139830   0.021   4.589   5.247 -0.1107 -1.7201 -1.8795
 9457SOL    HW239831   0.088   4.693   5.167 -0.3763  0.0624  1.3165
 9458SOL     OW39832   3.361   0.445   9.512 -0.6937 -0.3529 -0.0701
 9458SOL    HW139833   3.427   0.502   9.552 -1.9424  2.5987 -2.1909
 9458SOL    HW239834   3.279   0.480   9.548 -0.1393  0.4224  0.4297
 9459SOL     OW39835   1.076   4.022   6.312  0.2324  1.1184 -0.4271
 9459SOL    HW139836   1.051   3.932   6.291  2.7104  0.7208 -1.7645
 9459SOL    HW239837   1.146   3.996   6.371 -0.0062 -0.5144 -0.8639
 9460SOL     OW39838   0.372   3.969   4.643  0.5232  0.1320 -0.0387
 9460SOL    HW139839   0.303   4.011   4.694 -0.4909 -0.5213 -0.8805
 9460SOL    HW239840   0.324   3.896   4.604 -2.9589  0.7730  3.0226
 9461SOL     OW39841   2.946   2.410   1.444 -0.1344 -0.0955  0.1232
 9461SOL    HW139842   2.894   2.338   1.478 -2.0810  2.0440  1.6704
 9461SOL    HW239843   2.880   2.466   1.403  2.1875  1.5415 -1.3465
 9462SOL     OW39844   1.243   4.093   2.229  0.0209  0.2654  0.6373
 9462SOL    HW139845   1.313   4.031   2.252  0.6517  0.5951 -0.3844
 9462SOL    HW239846   1.219   4.053   2.145  1.1675  1.3195 -0.2039
 9463SOL     OW39847   1.739   2.738   3.435 -0.2401  0.1770  0.0492
 9463SOL    HW139848   1.753   2.661   3.380 -1.0251 -2.3982  3.4479
 9463SOL    HW239849   1.684   2.702   3.505  0.6935  2.0768  1.7556
 9464SOL     OW39850   1.262   3.358   5.114  0.1590 -0.0129 -0.1200
 9464SOL    HW139851   1.266   3.432   5.175 -2.3644 -0.2018  0.2531
 9464SOL    HW239852   1.211   3.388   5.040  1.1470 -1.3012 -1.3320
 9465SOL     OW39853   2.765   0.370   2.712  0.6176  0.3683  0.4674
 9465SOL    HW139854   2.767   0.372   2.616  0.2793  1.2712  0.4749
 9465SOL    HW239855   2.849   0.327   2.724  1.0588  1.6635  2.1099
 9466SOL     OW39856   4.688   4.221   5.841  0.2670  0.5291 -0.1622
 9466SOL    HW139857   0.038   4.276   5.818  0.3259  1.0347  1.2763
 9466SOL    HW239858   4.709   4.141   5.793 -1.1395  0.1545 -0.1731
 9467SOL     OW39859   3.770   4.690   2.947 -0.5815  0.1234 -0.2356
 9467SOL    HW139860   3.688   4.720   2.907 -0.9742  1.8611  1.8566
 9467SOL    HW239861   3.731   4.610   2.982 -3.3631  1.4014 -0.4066
 9468SOL     OW39862   2.311   4.275   1.767  0.1055  0.3442 -0.0016
 9468SOL    HW139863   2.291   4.369   1.762 -0.8646  0.0982 -0.6269
 9468SOL    HW239864   2.319   4.249   1.675 -0.6211  2.4908 -0.6703
 9469SOL     OW39865   4.188   1.651   3.371  0.7867 -0.0521  0.1273
 9469SOL    HW139866   4.159   1.569   3.331 -0.3955 -0.1474  1.1920
 9469SOL    HW239867   4.259   1.669   3.309 -0.4449 -3.2428 -2.2059
 9470SOL     OW39868   4.488   3.702   3.825 -0.2891 -0.2163  0.0739
 9470SOL    HW139869   4.574   3.682   3.788  0.3389 -0.6917  1.8116
 9470SOL    HW239870   4.457   3.784   3.788 -1.8345 -1.1761 -0.7723
 9471SOL     OW39871   1.918   0.705   8.695  0.5743 -0.2314 -0.5692
 9471SOL    HW139872   1.905   0.617   8.731  0.3086 -0.0725 -0.2813
 9471SOL    HW239873   1.833   0.731   8.658 -0.3998 -1.4296  0.8520
 9472SOL     OW39874   2.060   4.471  14.567  0.1981  0.0514 -0.1120
 9472SOL    HW139875   2.020   4.525  14.499 -1.6275 -0.5368  0.5070
 9472SOL    HW239876   2.043   4.384  14.534  1.8293 -0.5341  0.5635
 9473SOL     OW39877   1.812   2.496   7.966 -0.7754  0.3207  0.2023
 9473SOL    HW139878   1.779   2.577   7.929 -1.0773 -0.3815 -1.0690
 9473SOL    HW239879   1.812   2.513   8.060  1.8047 -0.3571  0.3078
 9474SOL     OW39880   4.340   3.494   5.966 -0.1033  0.1416 -0.1831
 9474SOL    HW139881   4.370   3.575   5.923  3.8103 -1.2013 -0.0177
 9474SOL    HW239882   4.255   3.481   5.925 -0.2191 -0.3835  0.2327
 9475SOL     OW39883   4.639   3.601   0.632 -0.9151  0.2916 -0.1136
 9475SOL    HW139884   4.646   3.598   0.537 -1.0698  0.0372 -0.1166
 9475SOL    HW239885   4.550   3.570   0.651 -1.6474  1.3912 -1.7098
 9476SOL     OW39886   1.123   0.354   3.396 -0.0549  0.4751 -0.1619
 9476SOL    HW139887   1.215   0.376   3.409 -0.4053  1.6466  0.3628
 9476SOL    HW239888   1.109   0.266   3.432 -0.5823  0.1774 -1.0979
 9477SOL     OW39889   3.180   1.963   9.890  0.0410 -0.3485  0.3587
 9477SOL    HW139890   3.102   2.018   9.889 -2.3029 -3.6737 -0.2355
 9477SOL    HW239891   3.204   1.968   9.982  1.2099 -2.0965  0.1534
 9478SOL     OW39892   0.812   1.125   5.065 -0.1539 -0.8745  0.2473
 9478SOL    HW139893   0.718   1.124   5.046 -0.3927  1.0869  1.2619
 9478SOL    HW239894   0.813   1.118   5.161  3.3515 -1.0192  0.1949
 9479SOL     OW39895   0.113   3.887   3.189 -0.3435  0.0485  0.2824
 9479SOL    HW139896   0.036   3.900   3.133  0.8862 -2.0481 -1.8910
 9479SOL    HW239897   0.169   3.852   3.120  0.4492  2.2888 -0.2277
 9480SOL     OW39898   0.280   2.460   3.178 -0.1125  0.4811  0.1358
 9480SOL    HW139899   0.230   2.523   3.229  0.8156  0.8669  0.5585
 9480SOL    HW239900   0.216   2.389   3.175 -2.2011  2.2911  1.9837
 9481SOL     OW39901   2.165   1.215   5.369  0.0064  0.3150 -0.3023
 9481SOL    HW139902   2.080   1.171   5.374 -0.4021  1.0635 -0.5571
 9481SOL    HW239903   2.144   1.308   5.369  1.1145  0.5723  1.0680
 9482SOL     OW39904   2.574   3.791   6.757 -0.4670  0.1385 -0.0203
 9482SOL    HW139905   2.638   3.858   6.781  0.2472 -0.7709  0.6138
 9482SOL    HW239906   2.613   3.709   6.787  0.1016  0.9659  1.5003
 9483SOL     OW39907   1.281   0.286  17.285 -0.0497  0.0264 -0.4787
 9483SOL    HW139908   1.216   0.244  17.230 -0.5704  2.8892 -2.0448
 9483SOL    HW239909   1.299   0.208  17.338  2.4333  1.6365  1.0757
 9484SOL     OW39910   1.358   3.770   1.965  0.2090  0.3385  0.5498
 9484SOL    HW139911   1.421   3.701   1.986 -0.0322 -0.0577 -0.0476
 9484SOL    HW239912   1.306   3.727   1.898 -0.2300  0.8723  0.5511
 9485SOL     OW39913   1.239   0.537   3.739  0.3097 -0.0117  0.3205
 9485SOL    HW139914   1.199   0.581   3.814  0.9272 -1.2058  1.3429
 9485SOL    HW239915   1.166   0.522   3.678 -0.2526  1.6101  0.5871
 9486SOL     OW39916   0.346   1.693   6.041 -0.0783 -0.7503  0.1601
 9486SOL    HW139917   0.345   1.634   5.965  3.3245 -1.9042  1.0286
 9486SOL    HW239918   0.252   1.702   6.054 -0.3548  0.4046 -2.6528
 9487SOL     OW39919   0.604   0.299  15.066  0.1832 -0.9448 -0.3975
 9487SOL    HW139920   0.630   0.309  14.975 -0.9054  0.7103 -0.5306
 9487SOL    HW239921   0.685   0.274  15.110  0.2261 -1.3827 -0.7232
 9488SOL     OW39922   0.954   4.456   7.369  0.3838 -0.0845  0.0425
 9488SOL    HW139923   0.933   4.463   7.276 -1.7238 -0.8457  0.4671
 9488SOL    HW239924   0.889   4.396   7.404  0.7852 -0.2784  0.4620
 9489SOL     OW39925   4.456   0.329   6.624  0.2085  0.0059 -0.2955
 9489SOL    HW139926   4.457   0.409   6.676  0.1333 -0.6666  0.7471
 9489SOL    HW239927   4.365   0.301   6.617  0.2083  0.3517 -1.7136
 9490SOL     OW39928   0.014   3.953   2.597 -0.2157  0.4527 -0.0948
 9490SOL    HW139929   4.700   3.908   2.522 -0.8994 -0.6285  0.9109
 9490SOL    HW239930   4.722   3.896   2.673  1.1958  0.7610  0.4494
 9491SOL     OW39931   1.906   2.669  11.657  0.3406 -0.5228  0.2935
 9491SOL    HW139932   1.920   2.636  11.568 -1.1153  0.6868 -0.3861
 9491SOL    HW239933   1.923   2.587  11.704  1.7215 -0.0863  0.5739
 9492SOL     OW39934   3.022   0.567   2.933 -0.4047  0.0162 -0.0390
 9492SOL    HW139935   3.056   0.519   2.858 -1.2999  2.1393 -1.8147
 9492SOL    HW239936   3.070   0.648   2.918  0.9622 -0.3557  2.2654
 9493SOL     OW39937   1.207   0.143   8.540  0.4932  0.1323 -0.0128
 9493SOL    HW139938   1.123   0.105   8.514 -0.0842  0.8790  0.7679
 9493SOL    HW239939   1.267   0.097   8.481 -2.0753 -0.5979 -2.0331
 9494SOL     OW39940   4.267   1.743   0.524 -0.1962 -0.1107 -0.2080
 9494SOL    HW139941   4.315   1.747   0.442  1.3630 -1.6692  0.6167
 9494SOL    HW239942   4.217   1.822   0.506 -1.1383 -0.7785 -0.5187
 9495SOL     OW39943   3.771   3.845  14.490 -0.5865 -0.2279 -0.7101
 9495SOL    HW139944   3.856   3.806  14.510 -1.5509 -2.2340 -0.5708
 9495SOL    HW239945   3.792   3.890  14.407 -2.5387 -0.2059 -1.2038
 9496SOL     OW39946   3.936   2.192  16.631 -0.6310  0.5041 -0.1878
 9496SOL    HW139947   3.930   2.264  16.693  1.3772 -0.2222  0.8374
 9496SOL    HW239948   3.994   2.238  16.571 -0.0236 -1.4327 -1.0672
 9497SOL     OW39949   1.000   4.703   5.434 -0.2837 -0.5951 -0.6548
 9497SOL    HW139950   1.082   4.653   5.437  0.5030  0.7651  0.4686
 9497SOL    HW239951   0.950   4.638   5.384 -0.3377 -1.3448  0.3740
 9498SOL     OW39952   3.040   2.361   6.101 -0.4409  0.2011 -0.6786
 9498SOL    HW139953   3.124   2.389   6.138  0.3130  0.0133 -2.2400
 9498SOL    HW239954   3.060   2.272   6.075 -0.4884 -0.1085  0.3562
 9499SOL     OW39955   0.347   3.428   2.205 -0.0192 -0.3012 -0.0513
 9499SOL    HW139956   0.328   3.361   2.271  2.8810 -0.3118  0.7641
 9499SOL    HW239957   0.413   3.390   2.146 -0.5344 -0.4795 -0.5081
 9500SOL     OW39958   1.846   3.183   1.721  0.4064 -0.1920 -0.5171
 9500SOL    HW139959   1.827   3.273   1.696  1.1905  0.2689  0.5940
 9500SOL    HW239960   1.903   3.188   1.797  0.0486 -2.0163 -0.1169
 9501SOL     OW39961   4.407   4.188   7.005  0.0511 -0.0563 -0.1444
 9501SOL    HW139962   4.356   4.167   6.927 -0.1763  0.2728 -0.0862
 9501SOL    HW239963   4.493   4.152   6.981  0.2820  0.3160  0.1263
 9502SOL     OW39964   2.844   3.682   9.367  0.3020  0.1976  0.8548
 9502SOL    HW139965   2.817   3.769   9.338 -0.1863 -0.5896 -1.0773
 9502SOL    HW239966   2.762   3.657   9.409 -1.5400  0.9718 -2.2434
 9503SOL     OW39967   3.882   3.096   2.208  0.2412  0.0945  0.4774
 9503SOL    HW139968   3.829   3.017   2.199 -0.5512  0.5985  0.7358
 9503SOL    HW239969   3.934   3.087   2.128 -1.6587 -0.8583 -0.6419
 9504SOL     OW39970   2.199   4.554   9.183  0.4183 -0.3267 -0.0573
 9504SOL    HW139971   2.120   4.502   9.173  0.2353  0.5758 -3.2391
 9504SOL    HW239972   2.162   4.635   9.218  2.1631  0.6924 -0.5466
 9505SOL     OW39973   4.485   2.704  14.624  0.0684  0.1929 -0.1283
 9505SOL    HW139974   4.508   2.726  14.715  0.1609 -1.1432  0.1639
 9505SOL    HW239975   4.394   2.683  14.645  0.5618  0.4143  2.3298
 9506SOL     OW39976   1.139   0.964  14.615  0.5655 -0.2018  0.2373
 9506SOL    HW139977   1.174   1.053  14.605  3.7186 -1.7101 -2.4304
 9506SOL    HW239978   1.153   0.920  14.531 -0.8144  0.0840 -0.1263
 9507SOL     OW39979   0.117   2.379   0.845  0.0050  0.0305 -0.5886
 9507SOL    HW139980   0.095   2.441   0.776  1.4168  0.2967 -0.7989
 9507SOL    HW239981   0.089   2.428   0.922 -1.2605  0.5629 -1.3863
 9508SOL     OW39982   2.072   4.723   4.681  0.1333 -0.8699  0.0780
 9508SOL    HW139983   1.987   0.016   4.641  0.0505  0.1529  0.7258
 9508SOL    HW239984   2.073   4.628   4.670  0.9983 -0.6964 -1.3256
 9509SOL     OW39985   3.498   1.901   2.671 -0.0579  0.5128 -0.6465
 9509SOL    HW139986   3.500   1.832   2.604  1.3431 -1.3210  1.2494
 9509SOL    HW239987   3.489   1.982   2.621 -1.0693  0.1569 -1.0486
 9510SOL     OW39988   4.584   1.586   5.149 -0.2285 -0.0348 -0.2068
 9510SOL    HW139989   4.511   1.581   5.088  0.3933 -1.8379 -0.7977
 9510SOL    HW239990   4.631   1.504   5.137 -0.7250 -0.2762 -0.5206
 9511SOL     OW39991   4.413   1.778  10.984 -0.8264  0.0833 -0.2177
 9511SOL    HW139992   4.437   1.827  11.062  0.2765  1.4945 -1.4414
 9511SOL    HW239993   4.344   1.832  10.945  0.3987  0.7284 -1.5090
 9512SOL     OW39994   1.778   2.184   9.058 -0.2442  0.2727  0.1053
 9512SOL    HW139995   1.778   2.273   9.024 -1.5220  0.1931 -0.0842
 9512SOL    HW239996   1.688   2.151   9.055 -0.0182 -0.1962 -1.5959
 9513SOL     OW39997   1.306   4.290   4.123  0.1734  0.2846  0.0974
 9513SOL    HW139998   1.323   4.233   4.048  0.6196 -1.5765  1.6198
 9513SOL    HW239999   1.249   4.359   4.089 -0.3655  0.4167  1.2570
 9514SOL     OW40000   4.648   4.031   4.945  0.2016  0.3769 -0.4175
 9514SOL    HW140001   4.690   4.088   5.010  1.2174 -0.6452 -0.1675
 9514SOL    HW240002   4.593   3.973   4.997  0.1306 -1.0474 -2.0919
 9515SOL     OW40003   4.091   1.691   1.439 -0.6014  0.0691 -0.3904
 9515SOL    HW140004   4.127   1.647   1.363  0.8418 -1.6828  1.2896
 9515SOL    HW240005   4.164   1.752   1.433  0.2207 -0.7499  1.0563
 9516SOL     OW40006   3.533   3.716   6.995  0.2267  0.0219  0.2105
 9516SOL    HW140007   3.594   3.775   6.950 -0.4453  1.5753  1.3002
 9516SOL    HW240008   3.545   3.728   7.089 -0.5481 -2.5763  0.6377
 9517SOL     OW40009   0.895   3.307  14.325 -0.2730  0.2843 -0.3010
 9517SOL    HW140010   0.822   3.321  14.385 -1.5447 -0.5647 -1.6404
 9517SOL    HW240011   0.841   3.246  14.274 -0.1144 -1.4012  1.5758
 9518SOL     OW40012   3.204   0.211   3.758  0.1786 -0.0535 -0.0767
 9518SOL    HW140013   3.116   0.184   3.785 -0.4204  3.5007  1.5292
 9518SOL    HW240014   3.221   0.267   3.834 -3.3435 -1.0220  1.4268
 9519SOL     OW40015   0.547   0.348  11.749 -0.4153  0.3706  0.1212
 9519SOL    HW140016   0.612   0.373  11.814 -0.3973  1.0086 -0.1387
 9519SOL    HW240017   0.513   0.262  11.775  1.9995 -0.4979  0.4136
 9520SOL     OW40018   2.430   4.217  12.977 -0.0120  0.2272 -0.1364
 9520SOL    HW140019   2.498   4.155  13.007  0.9921  1.8520  0.9329
 9520SOL    HW240020   2.386   4.167  12.908 -1.1408  0.8752  0.1124
 9521SOL     OW40021   1.654   3.329   0.612  0.4292 -0.0712  0.3299
 9521SOL    HW140022   1.694   3.268   0.551 -0.3843  0.5393 -0.8279
 9521SOL    HW240023   1.684   3.418   0.595 -1.0222  0.5850  1.1622
 9522SOL     OW40024   0.353   4.513   5.141 -0.3319  0.0757 -0.2308
 9522SOL    HW140025   0.417   4.551   5.202  0.5533 -0.4560 -0.8310
 9522SOL    HW240026   0.271   4.543   5.180 -1.7252 -2.9318 -0.8733
 9523SOL     OW40027   4.535   1.824  13.533 -0.0518 -0.5510  0.1420
 9523SOL    HW140028   4.490   1.799  13.453 -0.5309 -0.4601  0.3840
 9523SOL    HW240029   4.493   1.910  13.540  1.4773  0.3286 -1.7071
 9524SOL     OW40030   0.337   2.580   2.932  0.4291 -0.2236  0.9246
 9524SOL    HW140031   0.397   2.642   2.972  0.2088  0.8597 -0.4313
 9524SOL    HW240032   0.289   2.539   3.003  0.3600  0.4207  1.2447
 9525SOL     OW40033   0.406   2.682  16.995 -0.1167 -0.2367 -0.5050
 9525SOL    HW140034   0.490   2.693  17.040 -0.0980 -0.8325 -0.3931
 9525SOL    HW240035   0.349   2.736  17.050  1.6882  1.4850 -0.3141
 9526SOL     OW40036   1.279   2.634   7.275 -0.2683 -0.7329 -0.0211
 9526SOL    HW140037   1.336   2.694   7.322 -2.4573  1.1555  0.2332
 9526SOL    HW240038   1.217   2.698   7.239 -2.1573 -0.1989  4.2035
 9527SOL     OW40039   1.988   2.438   0.978 -0.4512  0.0110  0.2746
 9527SOL    HW140040   1.923   2.496   1.018 -0.9622 -0.6629  0.4264
 9527SOL    HW240041   1.951   2.351   0.993  1.1426 -0.8306 -0.6274
 9528SOL     OW40042   0.311   1.471   5.892  0.2097 -0.0337 -0.0339
 9528SOL    HW140043   0.342   1.380   5.886 -0.0270 -0.0935 -0.3867
 9528SOL    HW240044   0.219   1.464   5.916  0.0139 -0.8746 -1.0008
 9529SOL     OW40045   1.568   1.890  12.661  0.1110  0.3654 -0.9263
 9529SOL    HW140046   1.604   1.968  12.618 -1.5102  1.0754 -1.0189
 9529SOL    HW240047   1.535   1.849  12.581 -2.3151  0.8551 -0.1805
 9530SOL     OW40048   0.518   0.359  16.365 -0.3691 -0.7587 -0.0491
 9530SOL    HW140049   0.499   0.269  16.341 -1.8435  0.0440 -1.8682
 9530SOL    HW240050   0.537   0.395  16.278 -1.3078  0.2465  0.1599
 9531SOL     OW40051   4.170   0.482  12.883  0.2193  0.2805  0.0644
 9531SOL    HW140052   4.247   0.470  12.828 -0.7135 -0.1343 -1.1385
 9531SOL    HW240053   4.106   0.509  12.818  1.5483  0.7438 -1.0677
 9532SOL     OW40054   1.435   1.850  16.867  0.0980  0.5447  0.7392
 9532SOL    HW140055   1.349   1.862  16.908  0.3652 -2.3481  2.0835
 9532SOL    HW240056   1.457   1.943  16.855 -2.2396  1.1420  0.9476
 9533SOL     OW40057   0.694   1.623   2.054 -0.3607  0.7120  0.1625
 9533SOL    HW140058   0.713   1.711   2.022 -0.4364  0.7125  0.1180
 9533SOL    HW240059   0.757   1.565   2.011 -1.6486 -1.3121  1.0066
 9534SOL     OW40060   1.215   2.137   3.383  0.1539  0.3031 -0.2604
 9534SOL    HW140061   1.266   2.134   3.303  1.9877 -2.6455  1.0119
 9534SOL    HW240062   1.223   2.230   3.405 -0.8078 -0.1691  2.0630
 9535SOL     OW40063   3.374   0.346  15.970 -0.4307 -0.8429  0.0212
 9535SOL    HW140064   3.327   0.366  15.889  1.9371  2.6096 -0.5101
 9535SOL    HW240065   3.381   0.429  16.018 -1.0782 -0.2043 -0.9921
 9536SOL     OW40066   2.100   2.957   3.745 -0.1640 -0.9301 -0.2201
 9536SOL    HW140067   2.118   2.883   3.687 -0.0232 -0.7716 -0.3779
 9536SOL    HW240068   2.189   2.982   3.769 -0.7271 -0.5777  1.5050
 9537SOL     OW40069   2.865   3.312  13.348  0.2648  0.2134  0.6373
 9537SOL    HW140070   2.853   3.385  13.287 -0.3029 -0.6061 -0.2485
 9537SOL    HW240071   2.779   3.316  13.389 -0.2109 -0.0483 -0.3179
 9538SOL     OW40072   2.841   0.769  13.413 -0.6276  0.6023  0.3278
 9538SOL    HW140073   2.856   0.789  13.505  1.3239  0.8945 -0.0561
 9538SOL    HW240074   2.906   0.828  13.376  0.5144 -0.7198  0.2437
 9539SOL     OW40075   2.223   4.065   4.052 -0.0086 -0.0394 -0.0953
 9539SOL    HW140076   2.181   4.090   4.134 -0.0067 -0.4470  0.0326
 9539SOL    HW240077   2.153   4.066   3.987  0.9035 -0.1769 -1.0842
 9540SOL     OW40078   3.587   1.863   1.888 -0.0990 -0.1517 -0.0491
 9540SOL    HW140079   3.562   1.913   1.811  0.4397 -1.4229 -1.0537
 9540SOL    HW240080   3.504   1.815   1.895 -0.2781  0.1747  0.0652
 9541SOL     OW40081   4.711   4.592   2.803 -0.3214 -0.2827  0.0756
 9541SOL    HW140082   0.061   4.591   2.862  0.5652 -2.2045 -1.0759
 9541SOL    HW240083   4.638   4.598   2.865  1.8764  2.1911  2.4302
 9542SOL     OW40084   1.399   2.585  16.327  0.2107 -0.4812 -0.0869
 9542SOL    HW140085   1.482   2.609  16.286 -1.0889  1.5428 -1.4953
 9542SOL    HW240086   1.355   2.669  16.317 -1.6227 -1.3128  1.0927
 9543SOL     OW40087   3.732   2.198  12.208 -0.1606 -0.2951 -0.9476
 9543SOL    HW140088   3.710   2.273  12.263  1.1129 -0.0408 -0.7973
 9543SOL    HW240089   3.662   2.135  12.228  0.6148 -1.0897 -0.7372
 9544SOL     OW40090   2.072   0.275   8.870 -0.5308 -0.2060 -0.2315
 9544SOL    HW140091   2.159   0.300   8.901 -0.7846 -1.8390  1.8673
 9544SOL    HW240092   2.084   0.186   8.837  2.1354 -1.0394  2.9519
 9545SOL     OW40093   2.106   2.981   1.270  0.2296 -0.5419  0.4809
 9545SOL    HW140094   2.145   2.962   1.356 -1.1240  2.4015  1.7580
 9545SOL    HW240095   2.094   2.898   1.225 -0.0745 -0.3496  0.2028
 9546SOL     OW40096   4.342   1.761   9.035 -0.4087  0.3915  0.0072
 9546SOL    HW140097   4.344   1.668   9.057  0.6478  0.4747  0.2352
 9546SOL    HW240098   4.250   1.777   9.011 -0.7176 -1.5543 -0.1402
 9547SOL     OW40099   0.162   2.991  17.503  0.0707  0.6124  0.0791
 9547SOL    HW140100   0.143   2.914  17.450  0.6879  0.4823  0.0496
 9547SOL    HW240101   0.136   2.956  17.588  0.4495 -0.8373 -0.4092
 9548SOL     OW40102   1.748   4.482  15.121 -0.4154  0.4741 -0.5737
 9548SOL    HW140103   1.742   4.569  15.083  0.2545  0.7378 -0.0874
 9548SOL    HW240104   1.790   4.504  15.205  1.0595  0.5976 -1.3463
 9549SOL     OW40105   1.264   2.391   3.229  0.6503 -0.1841 -0.2620
 9549SOL    HW140106   1.317   2.332   3.176 -2.4219 -0.9482 -2.4845
 9549SOL    HW240107   1.307   2.472   3.202  0.6000  0.9205  2.9541
 9550SOL     OW40108   3.819   3.880   0.361 -0.1237 -0.1753  0.1864
 9550SOL    HW140109   3.833   3.907   0.452 -3.5498 -2.2459  1.2902
 9550SOL    HW240110   3.871   3.800   0.372  2.9408  1.8211  0.4519
 9551SOL     OW40111   0.531   1.481  14.407  0.2747 -0.4775  0.1649
 9551SOL    HW140112   0.463   1.426  14.446  1.0038 -2.6251 -1.5957
 9551SOL    HW240113   0.562   1.407  14.356  0.2932 -1.1089  1.0818
 9552SOL     OW40114   1.908   3.823   7.736  0.3845  0.5540 -0.8808
 9552SOL    HW140115   1.897   3.876   7.657  0.0012  0.4170 -0.9204
 9552SOL    HW240116   1.906   3.890   7.804  0.2307 -2.6374  2.2600
 9553SOL     OW40117   1.426   2.798   7.407  0.1395  0.1400 -0.6900
 9553SOL    HW140118   1.365   2.831   7.474  0.2178  0.8170 -0.9552
 9553SOL    HW240119   1.509   2.833   7.440 -0.2513 -0.8270  1.3146
 9554SOL     OW40120   1.353   2.629  10.816 -0.2682  0.4028 -0.3411
 9554SOL    HW140121   1.340   2.723  10.830  0.1048  0.2998  0.6756
 9554SOL    HW240122   1.354   2.633  10.721  1.5651 -2.0776 -0.4239
 9555SOL     OW40123   3.155   1.202   6.307  0.1223  0.0579 -0.6149
 9555SOL    HW140124   3.217   1.135   6.280 -0.7915 -1.7806  1.9138
 9555SOL    HW240125   3.076   1.158   6.338  2.0009 -3.1140 -0.3623
 9556SOL     OW40126   1.184   3.778  16.803  0.0171  0.3199  0.2404
 9556SOL    HW140127   1.116   3.740  16.747 -1.2911  0.8423  1.4771
 9556SOL    HW240128   1.260   3.721  16.811  0.6406  1.1773  0.4542
 9557SOL     OW40129   3.393   1.593   7.089 -0.3696 -0.8807 -0.5102
 9557SOL    HW140130   3.450   1.629   7.157 -0.7236  2.5506 -2.0312
 9557SOL    HW240131   3.435   1.507   7.088  1.3846 -0.0775  2.1799
 9558SOL     OW40132   1.888   1.234  14.219 -0.1633 -0.0221  0.1987
 9558SOL    HW140133   1.830   1.176  14.269  0.0675 -0.2382  0.2138
 9558SOL    HW240134   1.901   1.298  14.288 -0.0913 -0.6656  0.7878
 9559SOL     OW40135   4.674   0.016  10.796  0.1711 -0.4289 -0.0282
 9559SOL    HW140136   0.017   4.681  10.763  0.4249  1.7231 -3.3336
 9559SOL    HW240137   4.714   0.064  10.868  0.1389  0.9282 -0.9178
 9560SOL     OW40138   3.076   3.853  14.110 -0.8876  0.0387 -0.3824
 9560SOL    HW140139   3.111   3.935  14.145  0.6397  0.1838 -2.2233
 9560SOL    HW240140   3.035   3.813  14.187  0.5703  2.2281  1.5161
 9561SOL     OW40141   0.104   2.662  14.723 -0.0011 -0.2934 -0.0162
 9561SOL    HW140142   0.138   2.747  14.695  1.5085 -0.5081  1.1569
 9561SOL    HW240143   0.179   2.627  14.771  0.4754  0.1671 -0.4279
 9562SOL     OW40144   3.401   0.544   7.088 -0.4376 -0.6888 -0.0125
 9562SOL    HW140145   3.378   0.467   7.140 -2.1497 -0.2099 -0.0560
 9562SOL    HW240146   3.491   0.526   7.061 -0.5340  0.0591 -0.8302
 9563SOL     OW40147   4.103   1.580   7.167 -0.1490 -0.2657 -0.6399
 9563SOL    HW140148   4.076   1.488   7.157  0.5502 -0.4737 -0.5894
 9563SOL    HW240149   4.050   1.618   7.237  0.2526  0.9847 -1.0291
 9564SOL     OW40150   1.504   2.460   6.697  0.0214  0.2106  0.2007
 9564SOL    HW140151   1.518   2.535   6.755 -0.7051  0.6690 -0.2028
 9564SOL    HW240152   1.412   2.471   6.670 -0.0750 -0.4099  0.2903
 9565SOL     OW40153   3.595   1.729   4.177  0.2811  0.1434 -0.4747
 9565SOL    HW140154   3.615   1.764   4.090  0.9468  0.0732 -0.3545
 9565SOL    HW240155   3.648   1.796   4.221  0.2471 -0.1099 -0.0488
   4.72465   4.72465  17.70007
