Membrane in water
40155
    1TCq1    O1    1   3.694   0.388  11.195  0.1218 -0.3266  0.3032
    1TCq1    C1    2   3.615   0.472  11.132 -0.7479  0.6391  0.1080
    1TCq1    O2    3   3.655   0.571  11.072 -0.0427 -0.4442 -0.0821
    1TCq1    C2    4   3.481   0.416  11.112 -0.5108  0.4753 -0.2525
    1TCq1    C3    5   3.407   0.481  11.010  0.3611  0.4750 -0.2259
    1TCq1    C4    6   3.287   0.418  10.969  0.2309 -0.0509 -0.0712
    1TCq1    C5    7   3.246   0.303  11.026 -0.2855  0.3206  0.8472
    1TCq1    C6    8   3.330   0.234  11.106  0.1953 -0.3689 -0.1566
    1TCq1    C7    9   3.441   0.288  11.158  0.3893  0.4756 -0.4007
    1TCq1    C8   10   3.267   0.132  11.192 -0.1281 -0.0542  0.5471
    1TCq1    O4   11   3.146   0.125  11.198 -0.2845 -0.0537 -0.4775
    1TCq1    C9   12   3.193   0.496  10.885  0.1200  0.9227 -0.5193
    1TCq1    O5   13   3.103   0.435  10.824 -0.5289 -0.2111 -0.2604
    1TCq1    O6   14   3.214   0.622  10.875  0.1997 -0.2751 -0.0189
    1TCq1    H1   15   3.641   0.331  11.255 -0.5781  1.9981  1.8874
    1TCq1    H2   16   3.418   0.577  10.962  0.9045  1.2878  1.4941
    1TCq1    H3   17   3.152   0.260  10.993  1.6870 -2.0992 -1.6419
    1TCq1    H4   18   3.511   0.224  11.211 -0.2586  1.3128  1.4682
    2MPD2     C   19   3.318   4.408  11.424 -0.3320  0.0849  0.2098
    2MPD2    C1   20   3.213   4.498  11.421  0.1354  0.1173 -0.2139
    2MPD2    C2   21   3.219   4.608  11.344 -0.4177 -0.0894 -0.4242
    2MPD2    C3   22   3.339   4.637  11.276  0.0178  0.6913 -1.1335
    2MPD2    C4   23   3.440   4.551  11.290 -0.0855 -0.4331  0.0627
    2MPD2    C5   24   3.429   4.434  11.356 -0.4629 -0.2425 -0.0880
    2MPD2     H   25   3.126   4.663  11.338 -0.8028 -0.9004 -1.8546
    2MPD2    H1   26   3.536   4.588  11.256 -0.3668  1.8628  1.7819
    2MPD2    H2   27   3.314   4.315  11.479 -1.3991  0.7219  1.2007
    2MPD2    H3   28   3.508   4.359  11.358 -1.9294 -1.7538  0.3792
    2MPD2     N   29   3.366   0.039  11.227  0.1066  0.2582 -0.7192
    2MPD2    H5   30   3.455   0.062  11.184 -0.1052  3.4945  0.6532
    2MPD2    N1   31   3.092   4.476  11.495 -0.0369 -0.6665  0.6829
    2MPD2    H7   32   3.014   4.539  11.477 -0.1216 -0.5586  1.4051
    3TCq1    O1   33   2.230   0.553  10.695  0.2081  0.3356  0.4937
    3TCq1    C1   34   2.102   0.574  10.736  0.1967  0.4496 -0.6002
    3TCq1    O2   35   2.024   0.486  10.765 -0.1411 -0.2965 -0.1982
    3TCq1    C2   36   2.098   0.718  10.776  0.0559  0.4003 -0.1653
    3TCq1    C3   37   2.152   0.811  10.697  0.3329  0.2848 -0.4092
    3TCq1    C4   38   2.126   0.945  10.723 -0.0750 -0.8422 -0.3066
    3TCq1    C5   39   2.052   0.978  10.829 -0.3170  0.1804  0.2239
    3TCq1    C6   40   1.982   0.882  10.899 -0.6233  0.4161  0.6276
    3TCq1    C7   41   2.015   0.751  10.879  0.0699 -0.3783  0.1952
    3TCq1    C8   42   1.885   0.910  11.007  0.0827  0.5983  0.6507
    3TCq1    O4   43   1.832   0.811  11.050  0.2691  0.1074 -0.2254
    3TCq1    C9   44   2.190   1.044  10.641 -0.7160  0.2517 -0.3472
    3TCq1    O5   45   2.153   1.165  10.646  0.0918  0.5694  0.1032
    3TCq1    O6   46   2.246   0.996  10.540 -1.1357 -0.4119  0.5424
    3TCq1    H1   47   2.286   0.632  10.708 -0.7035  1.1563 -0.5043
    3TCq1    H2   48   2.216   0.783  10.614  0.6212  0.0758 -0.1185
    3TCq1    H3   49   2.021   1.082  10.840  0.8452  0.3783  1.5768
    3TCq1    H4   50   1.972   0.673  10.940  0.1638 -1.2683 -0.8849
    4MPD2     C   51   1.587   1.194  11.311  0.0762 -0.2338  0.0704
    4MPD2    C1   52   1.678   1.280  11.248  0.1367  0.1961  0.2556
    4MPD2    C2   53   1.772   1.224  11.155 -0.2992  0.3278  0.2969
    4MPD2    C3   54   1.770   1.092  11.123  0.5944 -0.1972  0.0522
    4MPD2    C4   55   1.679   1.010  11.193  0.0600  1.1279  1.0637
    4MPD2    C5   56   1.590   1.060  11.284  0.1574  0.3191 -0.0108
    4MPD2     H   57   1.844   1.291  11.110  0.5654  0.8411  2.4087
    4MPD2    H1   58   1.674   0.906  11.161  0.0828  1.2868  0.5373
    4MPD2    H2   59   1.516   1.230  11.385  2.2115  1.4247  1.3184
    4MPD2    H3   60   1.519   0.999  11.338  1.5994 -1.3283  0.0317
    4MPD2     N   61   1.873   1.043  11.038  0.0342 -0.4103  0.3625
    4MPD2    H5   62   1.943   1.105  11.001  0.4485 -1.5905 -0.8298
    4MPD2    N1   63   1.682   1.421  11.257 -0.3803 -0.6179  0.5459
    4MPD2    H7   64   1.745   1.478  11.202 -2.7213 -0.2019 -1.7004
    5TCq1    O1   65   2.760   2.210  12.376 -0.6657  0.8849  0.5605
    5TCq1    C1   66   2.759   2.336  12.328 -0.4559 -0.4042  1.1821
    5TCq1    O2   67   2.663   2.413  12.323  0.3697  0.2421  0.1990
    5TCq1    C2   68   2.865   2.340  12.225 -0.1630 -0.0933  0.1423
    5TCq1    C3   69   2.988   2.280  12.249 -0.0724  0.2907  0.2847
    5TCq1    C4   70   3.067   2.247  12.143  0.7165  0.6301 -0.7765
    5TCq1    C5   71   3.018   2.260  12.016 -0.2017  0.3720 -0.0205
    5TCq1    C6   72   2.891   2.315  11.989 -0.5050  0.6649 -0.9179
    5TCq1    C7   73   2.821   2.357  12.102 -0.8880 -0.6963  0.3318
    5TCq1    C8   74   2.843   2.310  11.851  1.0037 -0.0514 -0.1155
    5TCq1    O4   75   2.903   2.251  11.764  0.0883 -0.3076 -0.2222
    5TCq1    C9   76   3.206   2.215  12.161  0.3606  0.4808 -0.1334
    5TCq1    O5   77   3.271   2.186  12.055  0.2600 -0.0800  0.0712
    5TCq1    O6   78   3.235   2.194  12.278 -0.2614  0.0211 -0.2541
    5TCq1    H1   79   2.836   2.158  12.341 -0.7313  0.6302  0.8001
    5TCq1    H2   80   3.018   2.270  12.353 -0.1647 -0.9051  0.1938
    5TCq1    H3   81   3.084   2.231  11.935  0.1341  0.0717  0.3629
    5TCq1    H4   82   2.723   2.404  12.096 -1.1558 -1.5191 -1.7484
    6MPD2     C   83   2.505   2.433  11.747 -0.2955 -0.2926 -0.6581
    6MPD2    C1   84   2.627   2.377  11.732 -0.2572  1.0237 -0.6116
    6MPD2    C2   85   2.668   2.339  11.601  0.8174  0.8230 -0.4127
    6MPD2    C3   86   2.594   2.373  11.490  0.1269 -0.1439 -0.6003
    6MPD2    C4   87   2.471   2.425  11.508 -0.5371  0.1274  0.0090
    6MPD2    C5   88   2.434   2.460  11.636 -0.0204 -0.3430 -0.4126
    6MPD2     H   89   2.766   2.294  11.591 -0.1745 -2.0897  3.0572
    6MPD2    H1   90   2.400   2.440  11.428 -0.7925 -0.5217  0.1101
    6MPD2    H2   91   2.464   2.468  11.841  1.2930 -0.9807  0.2886
    6MPD2    H3   92   2.340   2.514  11.637 -0.5319 -1.2433  0.1784
    6MPD2     N   93   2.626   2.336  11.358  0.2044  0.0123 -0.0496
    6MPD2    H5   94   2.545   2.331  11.298 -0.3145 -0.0214  0.6654
    6MPD2    N1   95   2.713   2.361  11.845 -0.5227  0.0299 -0.1642
    6MPD2    H7   96   2.684   2.417  11.925 -3.5761 -1.5848 -0.1509
    7TCq1    O1   97   4.412   2.530  13.119  0.2663  0.4625  0.3074
    7TCq1    C1   98   4.407   2.455  13.004  0.2578 -0.4246 -0.1749
    7TCq1    O2   99   4.407   2.501  12.891  1.2147  0.4257  0.0027
    7TCq1    C2  100   4.346   2.330  13.037 -0.1441 -0.5530  0.6995
    7TCq1    C3  101   4.249   2.277  12.961  0.0960 -0.4653 -0.6268
    7TCq1    C4  102   4.249   2.144  12.936 -0.3005  0.2094 -1.0916
    7TCq1    C5  103   4.351   2.057  12.982 -0.3907  0.9155  0.2944
    7TCq1    C6  104   4.433   2.109  13.077  0.6147 -0.7871  0.3476
    7TCq1    C7  105   4.439   2.246  13.096  0.1591 -0.1181  0.8577
    7TCq1    C8  106   4.514   2.014  13.149  0.1152  0.9492 -0.1305
    7TCq1    O4  107   4.517   1.896  13.118 -0.0070  0.1595 -0.1287
    7TCq1    C9  108   4.152   2.086  12.844  0.5787 -0.4675 -0.8482
    7TCq1    O5  109   4.044   2.151  12.820 -0.5206  0.2277 -0.7433
    7TCq1    O6  110   4.188   1.981  12.783  0.1338  0.0910 -0.1317
    7TCq1    H1  111   4.391   2.490  13.206 -0.3274 -0.0627 -0.0780
    7TCq1    H2  112   4.178   2.339  12.908 -0.5886  0.6627  1.6066
    7TCq1    H3  113   4.356   1.954  12.949  0.0445  1.0711 -0.1297
    7TCq1    H4  114   4.526   2.288  13.146  1.2898  1.5060 -2.4542
    8MPD2     C  115   0.163   1.885  13.474  0.2727  0.4414 -0.4382
    8MPD2    C1  116   0.119   1.822  13.358  0.5970  0.7117 -0.2038
    8MPD2    C2  117   0.024   1.889  13.280  0.0774  0.3484 -0.4071
    8MPD2    C3  118   4.706   2.016  13.316  0.6303  0.5591 -0.0164
    8MPD2    C4  119   0.021   2.073  13.433 -0.6923 -0.5248 -0.3523
    8MPD2    C5  120   0.111   2.007  13.511  0.0061  0.5006  0.1764
    8MPD2     H  121   4.712   1.830  13.197 -0.0975 -1.7701  1.1770
    8MPD2    H1  122   4.712   2.175  13.449  1.3406  0.2057 -0.7586
    8MPD2    H2  123   0.225   1.834  13.547 -0.4199  0.0594 -0.1109
    8MPD2    H3  124   0.160   2.055  13.595  3.3282 -0.6964 -1.0781
    8MPD2     N  125   4.594   2.080  13.249  0.7332  0.2987 -0.3359
    8MPD2    H5  126   4.580   2.177  13.273  2.3358  0.4698 -0.0506
    8MPD2    N1  127   0.171   1.691  13.337  0.2993 -0.2874 -0.3678
    8MPD2    H7  128   0.247   1.667  13.400  0.4909 -0.1514 -0.5473
    9TCq1    O1  129   2.990   0.678  10.742  0.6844 -0.4604 -0.3556
    9TCq1    C1  130   2.875   0.715  10.804  0.0761  0.0963  0.2660
    9TCq1    O2  131   2.762   0.717  10.761 -0.3808 -0.0030  0.7811
    9TCq1    C2  132   2.920   0.824  10.889 -0.3033 -0.4748 -0.0860
    9TCq1    C3  133   3.041   0.883  10.867 -0.5695  0.8820 -0.0799
    9TCq1    C4  134   3.054   1.010  10.915 -0.1860 -0.4685  0.4006
    9TCq1    C5  135   2.954   1.073  10.971 -0.0424  0.5227 -0.6457
    9TCq1    C6  136   2.840   0.999  11.006 -0.4789  0.2798 -0.7436
    9TCq1    C7  137   2.819   0.870  10.959  0.2903 -0.3533 -0.6416
    9TCq1    C8  138   2.744   1.090  11.069 -0.0893  0.4123  0.4265
    9TCq1    O4  139   2.741   1.209  11.043 -0.1835  0.1303 -0.0551
    9TCq1    C9  140   3.172   1.085  10.885  0.3103 -0.4335 -0.1374
    9TCq1    O5  141   3.151   1.211  10.888 -0.4971  0.5506 -0.2242
    9TCq1    O6  142   3.278   1.016  10.897  0.3511 -0.1769 -0.1019
    9TCq1    H1  143   3.066   0.668  10.804 -0.2190 -2.4734  0.4216
    9TCq1    H2  144   3.116   0.836  10.805 -2.0763 -1.0893 -0.3974
    9TCq1    H3  145   2.963   1.172  11.014  0.6507  0.9031 -1.6631
    9TCq1    H4  146   2.723   0.820  10.963  0.7583 -1.2260 -0.5002
   10MPD2     C  147   2.571   1.214  11.281 -0.0755 -0.2296 -0.5766
   10MPD2    C1  148   2.592   1.081  11.270 -0.4641  0.7632 -0.0627
   10MPD2    C2  149   2.564   1.010  11.384  0.0290  0.1410  0.2545
   10MPD2    C3  150   2.519   1.062  11.501 -0.0690  0.2799  0.5660
   10MPD2    C4  151   2.507   1.201  11.513  0.0951  0.1028 -0.5192
   10MPD2    C5  152   2.536   1.275  11.398  0.1938  0.4164 -0.6744
   10MPD2     H  153   2.591   0.906  11.372  2.1422  0.7518 -0.4111
   10MPD2    H1  154   2.457   1.250  11.595 -1.1465  0.6177 -1.5799
   10MPD2    H2  155   2.596   1.286  11.204 -1.6934 -0.0050 -0.8951
   10MPD2    H3  156   2.531   1.384  11.404  1.3540  0.3772  1.1401
   10MPD2     N  157   2.485   0.985  11.616 -0.4455 -0.2428  0.2429
   10MPD2    H5  158   2.483   1.038  11.703  2.2794 -1.0082  0.7499
   10MPD2    N1  159   2.671   1.024  11.169 -0.2483 -0.1803  0.0984
   10MPD2    H7  160   2.694   0.926  11.175  0.7174 -0.0777 -2.1254
   11TCq1    O1  161   3.907   0.643  14.085 -0.5768 -0.4697  0.8881
   11TCq1    C1  162   3.815   0.548  14.092  0.4734  0.4859  0.6710
   11TCq1    O2  163   3.768   0.499  13.994  0.5492  0.6954 -0.4582
   11TCq1    C2  164   3.734   0.578  14.204 -0.4481  0.4494 -0.0460
   11TCq1    C3  165   3.787   0.589  14.329  0.1954 -0.3165 -0.6522
   11TCq1    C4  166   3.699   0.594  14.436 -0.7654 -0.0058  0.1378
   11TCq1    C5  167   3.567   0.597  14.417 -0.0025  0.6654  0.4857
   11TCq1    C6  168   3.519   0.576  14.289  0.5379  0.3086 -0.0877
   11TCq1    C7  169   3.604   0.573  14.178  0.0760  0.2782 -0.4468
   11TCq1    C8  170   3.381   0.556  14.267  0.4358  0.5444 -0.5563
   11TCq1    O4  171   3.304   0.615  14.334 -0.3787  0.1749  0.0756
   11TCq1    C9  172   3.762   0.611  14.565 -0.1022 -0.1144  0.2843
   11TCq1    O5  173   3.674   0.609  14.661  0.1450  0.4183  0.2768
   11TCq1    O6  174   3.873   0.662  14.573 -0.1060 -0.1166  0.2118
   11TCq1    H1  175   3.912   0.703  14.163 -1.7075  2.1836 -1.0680
   11TCq1    H2  176   3.891   0.575  14.356 -0.0351 -1.1083 -0.1613
   11TCq1    H3  177   3.507   0.612  14.506  1.9349 -0.6902  1.9953
   11TCq1    H4  178   3.570   0.576  14.075 -0.3568  0.0699 -0.3098
   12MPD2     C  179   3.131   0.412  14.200 -0.5697  0.7262 -0.8497
   12MPD2    C1  180   3.249   0.405  14.129 -0.8359 -1.6424  0.1398
   12MPD2    C2  181   3.251   0.327  14.011 -0.4785  0.3165 -0.3441
   12MPD2    C3  182   3.139   0.264  13.959  0.2225 -0.1976  0.4213
   12MPD2    C4  183   3.030   0.261  14.044 -0.1716  0.2620  0.2237
   12MPD2    C5  184   3.029   0.333  14.161 -0.2644  0.2003 -0.2439
   12MPD2     H  185   3.344   0.301  13.960  0.9121  1.1085  1.8007
   12MPD2    H1  186   2.935   0.214  14.024 -1.7053  3.6998 -0.5276
   12MPD2    H2  187   3.128   0.462  14.296  3.4140  0.0455 -0.3685
   12MPD2    H3  188   2.943   0.334  14.226  1.4659 -0.6297  2.0508
   12MPD2     N  189   3.134   0.183  13.841  0.1683  0.0888 -0.3602
   12MPD2    H5  190   3.048   0.134  13.816  1.0002 -1.6068  0.0887
   12MPD2    N1  191   3.371   0.455  14.172 -0.1311 -0.2484 -0.1938
   12MPD2    H7  192   3.461   0.430  14.131  0.9283 -0.8070  2.4372
   13TCq1    O1  193   2.835   1.360  11.555 -0.2199 -0.3507  0.0191
   13TCq1    C1  194   2.887   1.370  11.429 -0.3704 -0.1047  0.5145
   13TCq1    O2  195   2.888   1.473  11.360  0.6657 -0.1503 -0.1524
   13TCq1    C2  196   2.961   1.248  11.386  0.2306 -0.5506  0.4188
   13TCq1    C3  197   3.085   1.264  11.322  0.5154  0.3394  0.0913
   13TCq1    C4  198   3.156   1.157  11.291  0.4682  0.1928 -0.0569
   13TCq1    C5  199   3.112   1.028  11.311  0.2066  0.5104  0.6925
   13TCq1    C6  200   2.990   1.022  11.371 -0.4193 -0.2815  0.5256
   13TCq1    C7  201   2.917   1.127  11.415  0.4720  0.8393 -0.2513
   13TCq1    C8  202   2.920   0.889  11.379 -0.0919  0.5750 -0.0963
   13TCq1    O4  203   2.853   0.869  11.480 -0.0278 -0.8548 -0.1865
   13TCq1    C9  204   3.286   1.173  11.228  0.3617  0.2894  0.3425
   13TCq1    O5  205   3.330   1.285  11.186  0.9212  0.1600  0.0967
   13TCq1    O6  206   3.362   1.073  11.219 -0.2003 -0.2531 -0.4523
   13TCq1    H1  207   2.864   1.278  11.602  1.3897 -0.9392 -1.9908
   13TCq1    H2  208   3.119   1.359  11.283  0.1845 -0.0317 -1.1054
   13TCq1    H3  209   3.174   0.943  11.288 -0.0173  0.7161 -0.6335
   13TCq1    H4  210   2.815   1.119  11.452  0.2297  1.1029 -0.8711
   14MPD2     C  211   2.962   0.567  11.218  0.4829 -0.5148  0.0730
   14MPD2    C1  212   2.900   0.667  11.284 -0.0106  0.6635  0.2178
   14MPD2    C2  213   2.776   0.641  11.344  0.3048  0.1246 -0.4823
   14MPD2    C3  214   2.711   0.519  11.339 -0.4168 -0.4447 -0.2441
   14MPD2    C4  215   2.776   0.419  11.275  0.0570  0.4866 -0.8344
   14MPD2    C5  216   2.902   0.438  11.222  1.1346  0.2777 -0.1630
   14MPD2     H  217   2.725   0.716  11.402 -2.6185 -0.7363 -1.9448
   14MPD2    H1  218   2.737   0.318  11.285 -1.1066  1.1053  0.8588
   14MPD2    H2  219   3.065   0.575  11.187  0.6562 -0.0473  0.7748
   14MPD2    H3  220   2.953   0.347  11.194  0.7530 -0.8233  2.7228
   14MPD2     N  221   2.578   0.517  11.393 -0.6793 -0.1599  0.2969
   14MPD2    H5  222   2.551   0.602  11.441 -0.6247  1.1362 -1.9427
   14MPD2    N1  223   2.963   0.797  11.289  0.7000  0.2739  0.0453
   14MPD2    H7  224   3.048   0.816  11.237  1.1308  3.1730  1.8267
   15TCq1    O1  225   3.986   4.327   2.102  0.1776  0.2301  0.2509
   15TCq1    C1  226   4.030   4.230   2.017 -0.0300  0.0491  0.1607
   15TCq1    O2  227   4.125   4.152   2.033  0.3099  0.2543  0.4810
   15TCq1    C2  228   3.997   4.274   1.878 -0.1476 -0.3225 -0.7532
   15TCq1    C3  229   3.940   4.395   1.847  0.0434  0.2308  0.2391
   15TCq1    C4  230   3.950   4.454   1.728 -0.0156 -0.1572 -0.4590
   15TCq1    C5  231   4.011   4.387   1.625 -0.0794  0.2722 -0.2371
   15TCq1    C6  232   4.050   4.256   1.655 -0.1204  0.1400  0.5924
   15TCq1    C7  233   4.051   4.202   1.779  0.2961  0.1417 -0.1438
   15TCq1    C8  234   4.136   4.189   1.564 -0.2011  0.8063 -0.3461
   15TCq1    O4  235   4.216   4.110   1.613 -0.0131  0.6843 -0.3031
   15TCq1    C9  236   3.879   4.575   1.702 -0.1580  0.2072 -0.9052
   15TCq1    O5  237   3.864   4.619   1.588 -0.1276  0.2987  0.2001
   15TCq1    O6  238   3.803   4.617   1.800 -0.2519  0.1445 -0.6843
   15TCq1    H1  239   3.894   4.349   2.075  0.4744 -0.7516 -1.5534
   15TCq1    H2  240   3.879   4.449   1.919 -0.0056  0.4730  0.0150
   15TCq1    H3  241   4.018   4.436   1.528  0.3792 -0.7151 -0.7092
   15TCq1    H4  242   4.078   4.098   1.796 -0.5286 -0.1520 -0.6480
   16MPD2     C  243   4.152   4.229   1.202  0.9225  0.0571  0.0415
   16MPD2    C1  244   4.169   4.169   1.323 -0.1622  0.3374 -1.7870
   16MPD2    C2  245   4.251   4.059   1.332 -0.7615  0.0983  0.1102
   16MPD2    C3  246   4.310   4.002   1.222 -0.8652  0.0260  0.3735
   16MPD2    C4  247   4.273   4.051   1.094 -0.0174  0.2227 -0.2384
   16MPD2    C5  248   4.202   4.170   1.089 -0.3043  0.8157  0.5342
   16MPD2     H  249   4.279   4.003   1.420  0.9780  0.2096 -0.3639
   16MPD2    H1  250   4.288   4.004   0.997 -3.9657 -1.1504 -0.1930
   16MPD2    H2  251   4.095   4.321   1.197  1.4866  0.5809  3.2469
   16MPD2    H3  252   4.182   4.217   0.993  2.0421  0.1417 -0.3010
   16MPD2     N  253   4.413   3.914   1.240 -0.0669 -0.1603 -0.2162
   16MPD2    H5  254   4.443   3.892   1.335 -3.5605  0.3181  0.9789
   16MPD2    N1  255   4.107   4.222   1.436 -0.5395 -0.2345  0.3744
   16MPD2    H7  256   4.046   4.302   1.422  0.1259  0.5752  2.1142
   17TCq1    O1  257   1.821   4.367  11.428 -0.0305 -0.5652  0.2215
   17TCq1    C1  258   1.815   4.365  11.294  0.1477  0.5487  0.1997
   17TCq1    O2  259   1.725   4.320  11.224  0.2595  0.2580 -0.0340
   17TCq1    C2  260   1.948   4.389  11.247 -0.5940 -0.0161 -0.1505
   17TCq1    C3  261   1.966   4.408  11.112  0.3343  0.5525  0.4870
   17TCq1    C4  262   2.089   4.432  11.063  0.5435 -0.2646  0.8489
   17TCq1    C5  263   2.199   4.454  11.137 -0.4207 -0.7559  0.4876
   17TCq1    C6  264   2.175   4.439  11.273  0.4279  0.1152  0.0988
   17TCq1    C7  265   2.054   4.402  11.331 -0.1693  0.2429  0.1017
   17TCq1    C8  266   2.294   4.423  11.358 -0.5564 -0.3990  0.3246
   17TCq1    O4  267   2.283   4.415  11.483 -0.3712  0.0760 -0.1799
   17TCq1    C9  268   2.104   4.451  10.915  0.1933  0.0157  0.4073
   17TCq1    O5  269   2.222   4.431  10.867  0.0029 -0.2892 -0.1038
   17TCq1    O6  270   2.005   4.457  10.844  0.3754 -0.2605 -0.0929
   17TCq1    H1  271   1.901   4.413  11.461 -1.0371  0.0995  1.7307
   17TCq1    H2  272   1.886   4.411  11.039  1.3377  3.6088 -0.4841
   17TCq1    H3  273   2.294   4.481  11.093 -1.3697 -0.3869 -1.3056
   17TCq1    H4  274   2.054   4.371  11.435 -0.2177 -1.1020 -0.2953
   18MPD2     C  275   2.543   4.282  11.462  0.3076  0.4727  0.3917
   18MPD2    C1  276   2.527   4.348  11.337 -0.0411  0.1924 -0.4927
   18MPD2    C2  277   2.626   4.339  11.238  0.2722  0.0463  0.0083
   18MPD2    C3  278   2.733   4.254  11.259  0.0311 -0.3003 -0.2198
   18MPD2    C4  279   2.748   4.195  11.379 -0.3613  0.1795 -0.4457
   18MPD2    C5  280   2.654   4.211  11.476 -0.2691 -0.3802 -0.4421
   18MPD2     H  281   2.607   4.387  11.142  1.0512  0.6031  0.1286
   18MPD2    H1  282   2.839   4.138  11.395 -1.8402 -2.4958 -1.6479
   18MPD2    H2  283   2.480   4.299  11.549 -0.1014 -1.0867  0.3930
   18MPD2    H3  284   2.671   4.158  11.569 -0.8815  1.5298  0.7716
   18MPD2     N  285   2.835   4.230  11.172  0.3401 -0.0384 -0.1575
   18MPD2    H5  286   2.908   4.168  11.206  1.1101  1.1995  0.4308
   18MPD2    N1  287   2.409   4.400  11.287  0.0865  0.0925  0.8924
   18MPD2    H7  288   2.402   4.429  11.190  0.6612 -1.4249  0.4071
   19TMC2    C1  289   4.097   0.439  13.516  0.1950 -0.3762 -0.5220
   19TMC2    C2  290   4.006   0.518  13.454  0.8740  0.1440 -0.3132
   19TMC2    C3  291   3.877   0.477  13.453  0.7180 -0.5110  0.3554
   19TMC2    C4  292   4.058   0.319  13.571 -0.2268 -0.5981  0.4893
   19TMC2    C5  293   3.922   0.293  13.583 -0.1655  0.4377  0.2092
   19TMC2    C6  294   3.827   0.371  13.520 -0.1437 -0.3931  0.8642
   19TMC2     C  295   4.233   0.485  13.524  0.7553  0.1365 -0.2476
   19TMC2     O  296   4.258   0.577  13.454  0.0094 -0.3384 -0.2887
   19TMC2     H  297   4.038   0.604  13.395  0.2477  0.2071 -0.5584
   19TMC2    H1  298   4.123   0.245  13.617  1.0307  0.5576  0.5447
   19TMC2    H2  299   3.725   0.333  13.518 -0.3226  0.0753  1.0139
   19TMC2    C7  300   3.884   0.185  13.677  0.9166  0.1195 -0.4603
   19TMC2    C8  301   3.799   0.566  13.378 -0.6948 -0.2714  1.2006
   19TMC2    O1  302   3.976   0.131  13.727 -0.2083 -0.0601 -0.0863
   19TMC2    O2  303   3.686   0.586  13.413 -0.0803  0.3703  0.0373
   19TMC2    O5  304   3.841   0.569  13.251 -0.3763 -0.5837  0.3287
   19TMC2    H5  305   3.935   0.543  13.242 -0.4478 -0.4787 -0.7245
   20MPD2     C  306   4.513   0.570  13.610 -0.1980  0.6479  0.1358
   20MPD2    C1  307   4.440   0.465  13.658  0.0242  0.4378 -0.8684
   20MPD2    C2  308   4.487   0.403  13.770 -0.1822 -0.5808 -0.8486
   20MPD2    C3  309   4.604   0.438  13.833 -0.1232 -0.0562 -0.7154
   20MPD2    C4  310   4.684   0.537  13.781  0.2935 -0.1632  0.2896
   20MPD2    C5  311   4.635   0.601  13.668  0.0592  0.1058  0.7396
   20MPD2     H  312   4.432   0.317  13.807  0.2861 -0.1480  0.8410
   20MPD2    H1  313   0.053   0.573  13.822 -0.0587  1.9994 -0.7801
   20MPD2    H2  314   4.487   0.638  13.530 -0.7567  1.0426  0.6463
   20MPD2    H3  315   4.690   0.683  13.623 -1.3272  0.3009 -0.5822
   20MPD2     N  316   4.656   0.366  13.943 -0.7637  0.4716 -0.3281
   20MPD2    H5  317   0.001   0.412  14.001 -2.2940  1.8486  0.4007
   20MPD2    N1  318   4.312   0.423  13.612 -0.2080 -0.5589 -0.8524
   20MPD2    H7  319   4.272   0.337  13.648  0.8253 -1.0962 -1.0002
   21MPD2     C  320   2.274   1.059  14.250 -0.1628 -0.2157 -0.1973
   21MPD2    C1  321   2.307   0.950  14.170 -0.7145 -0.3132 -0.4941
   21MPD2    C2  322   2.211   0.850  14.143 -0.4916 -0.0463 -0.0225
   21MPD2    C3  323   2.081   0.864  14.195  0.3702 -0.4117  0.3705
   21MPD2    C4  324   2.054   0.974  14.265  0.3952  0.0624 -0.4018
   21MPD2    C5  325   2.146   1.077  14.292 -0.6070 -0.3931  0.0900
   21MPD2     H  326   2.246   0.768  14.081  1.5277  2.9428 -2.8491
   21MPD2    H1  327   1.950   0.976  14.297  0.5232  1.0430 -0.0295
   21MPD2    H2  328   2.347   1.130  14.287 -0.1891 -0.6779  0.7598
   21MPD2    H3  329   2.135   1.171  14.346  1.3972  0.0075 -0.2105
   21MPD2     N  330   1.981   0.767  14.173 -0.0955  0.7203  0.4544
   21MPD2    H5  331   1.894   0.789  14.220 -0.3509  1.3240 -0.3086
   21MPD2    N1  332   2.437   0.926  14.122 -0.0217 -0.5495  0.4002
   21MPD2    H7  333   2.442   0.835  14.076  0.0478 -0.9131  1.1267
   22TCq2    C1  334   1.992   0.642  14.115 -0.1085  0.2540 -0.3044
   22TCq2    O2  335   2.091   0.593  14.062 -0.0548 -0.2870  0.4009
   22TCq2    C2  336   1.888   0.550  14.152  0.1188 -0.3838  0.0919
   22TCq2    C3  337   1.934   0.418  14.141  0.2513 -0.3330  0.6557
   22TCq2    C4  338   1.856   0.317  14.197  0.4789 -0.1250 -1.0976
   22TCq2    C5  339   1.754   0.349  14.278  0.8807 -0.0351 -0.5424
   22TCq2    C6  340   1.713   0.477  14.283  0.1928 -0.4395 -0.2357
   22TCq2    C7  341   1.780   0.585  14.226 -0.4350 -0.1995  0.6067
   22TCq2    C8  342   1.602   0.502  14.366 -0.3278 -0.4234  0.3593
   22TCq2    O4  343   1.592   0.423  14.458 -0.4373  0.1142 -0.0700
   22TCq2    C9  344   1.906   0.180  14.184  0.2621 -0.0581  0.1810
   22TCq2    O5  345   1.984   0.157  14.092  0.5483  0.0351  0.9104
   22TCq2    O6  346   1.882   0.094  14.274 -0.4167  0.4674 -0.0212
   22TCq2    H2  347   2.026   0.388  14.093  1.1678  0.1151  2.1279
   22TCq2    H3  348   1.697   0.267  14.320  2.4219 -1.5546 -1.4022
   22TCq2    H4  349   1.742   0.686  14.229  0.3496  0.0761  1.3626
   23MPD2     C  350   2.892   1.634  15.249  0.4075 -0.0385  1.0440
   23MPD2    C1  351   2.860   1.541  15.149  0.4047 -0.4589 -0.3893
   23MPD2    C2  352   2.744   1.552  15.065  0.4753  0.5039 -0.3264
   23MPD2    C3  353   2.657   1.659  15.104  0.0313 -0.3868 -0.2188
   23MPD2    C4  354   2.682   1.752  15.210  0.3256 -0.5410  0.3779
   23MPD2    C5  355   2.803   1.735  15.275  0.1412  1.0911 -0.3856
   23MPD2     H  356   2.712   1.472  14.999  0.5619  0.6657 -0.5642
   23MPD2    H1  357   2.612   1.833  15.226  0.4334 -0.2507 -0.6307
   23MPD2    H2  358   2.978   1.612  15.311  1.0469  1.2724  0.6264
   23MPD2    H3  359   2.829   1.798  15.359  0.0750 -1.1190  1.3021
   23MPD2     N  360   2.538   1.678  15.034  0.1673  0.4199  0.7343
   23MPD2    H5  361   2.478   1.752  15.071  1.3847  2.1187 -0.6937
   23MPD2    N1  362   2.957   1.438  15.138 -0.6092 -0.0051 -0.1313
   23MPD2    H7  363   3.028   1.430  15.209 -2.2756 -1.3163  1.3840
   24TCq2    C1  364   2.489   1.607  14.925  0.5438  0.8912 -0.2668
   24TCq2    O2  365   2.537   1.511  14.866 -0.5448  1.1025  0.1312
   24TCq2    C2  366   2.367   1.658  14.874  0.2272 -0.1998 -0.3359
   24TCq2    C3  367   2.338   1.789  14.898 -0.0332 -0.6290  0.1867
   24TCq2    C4  368   2.209   1.828  14.865  0.1378 -0.5102 -0.3850
   24TCq2    C5  369   2.123   1.746  14.798 -0.1546 -0.2664  0.5214
   24TCq2    C6  370   2.166   1.625  14.767  0.0132  0.0082 -0.5863
   24TCq2    C7  371   2.289   1.576  14.796  0.4118 -0.0558  0.6796
   24TCq2    C8  372   2.087   1.543  14.678 -0.3130 -0.1005  0.4739
   24TCq2    O4  373   2.137   1.431  14.651 -0.1738 -0.3172 -0.5815
   24TCq2    C9  374   2.167   1.963  14.903 -0.5753  0.3339 -0.4922
   24TCq2    O5  375   2.063   2.005  14.855 -0.0896  0.4733  0.0274
   24TCq2    O6  376   2.236   2.020  14.987  0.3905  0.3997 -0.0836
   24TCq2    H2  377   2.390   1.865  14.956 -2.1363  1.6628 -0.8851
   24TCq2    H3  378   2.021   1.777  14.778 -0.5107 -1.7673  0.0482
   24TCq2    H4  379   2.325   1.483  14.754 -1.4056 -0.7642  0.6743
   25TMC2    C1  380   2.326   2.790  12.164  0.2506  0.6869 -0.5134
   25TMC2    C2  381   2.441   2.775  12.234  0.1149  0.0645  0.0070
   25TMC2    C3  382   2.485   2.874  12.317  0.6903 -0.2063 -0.0801
   25TMC2    C4  383   2.266   2.912  12.174  0.1527 -0.3872  0.8572
   25TMC2    C5  384   2.321   3.020  12.240  0.6825 -0.0287 -0.8065
   25TMC2    C6  385   2.431   3.003  12.317  0.2489  0.7758  0.1387
   25TMC2     C  386   2.287   2.698  12.062 -0.2194  0.7486  0.1698
   25TMC2     O  387   2.368   2.620  12.018 -0.4999  0.0998  0.0420
   25TMC2     H  388   2.503   2.686  12.223  2.4802  1.7066  0.1060
   25TMC2    H1  389   2.187   2.945  12.108  1.2258  1.5124  0.4994
   25TMC2    H2  390   2.469   3.090  12.369  1.1366  0.3197  0.2444
   25TMC2    C7  391   2.260   3.150  12.220  0.0786  0.2257 -0.5576
   25TMC2    C8  392   2.623   2.865  12.351 -0.0544 -0.4808  0.1879
   25TMC2    O1  393   2.134   3.150  12.219 -0.1865 -0.2535  0.2818
   25TMC2    O2  394   2.675   2.777  12.418 -0.1715  0.5125 -0.0078
   25TMC2    O5  395   2.686   2.949  12.270 -0.2836  0.1350  0.3442
   25TMC2    H5  396   2.642   2.986  12.190 -1.4728 -0.1814  0.8576
   26MPD2     C  397   1.949   2.492  11.733 -0.7834  0.2315  0.4272
   26MPD2    C1  398   1.891   2.599  11.806  0.0092  0.3313  0.0135
   26MPD2    C2  399   1.963   2.675  11.896 -0.1248  0.1064  0.5984
   26MPD2    C3  400   2.089   2.635  11.929  0.4891  0.5644  0.0620
   26MPD2    C4  401   2.141   2.522  11.867 -0.4836 -0.8899 -0.9953
   26MPD2    C5  402   2.073   2.454  11.770 -0.2829  0.1312 -0.3154
   26MPD2     H  403   1.925   2.767  11.939  2.3814  0.5107  1.9716
   26MPD2    H1  404   2.240   2.487  11.891 -0.5251 -0.3621 -0.0806
   26MPD2    H2  405   1.907   2.426  11.658 -1.3240 -0.7172  1.5558
   26MPD2    H3  406   2.117   2.360  11.739  0.5474  0.1312  0.8758
   26MPD2     N  407   2.157   2.714  12.019 -0.0472  0.3062 -0.1895
   26MPD2    H5  408   2.107   2.785  12.072 -1.6531  0.0118 -1.3397
   26MPD2    N1  409   1.761   2.634  11.774 -0.4164  0.1683 -0.2068
   26MPD2    H7  410   1.718   2.595  11.691  0.8776  0.1992 -0.8984
   27TMC2    C1  411   0.821   0.906  11.885  0.0762 -0.7528  0.3628
   27TMC2    C2  412   0.736   0.867  11.782 -0.2576 -0.4402 -0.5580
   27TMC2    C3  413   0.642   0.959  11.748  0.2120  0.6119  0.2060
   27TMC2    C4  414   0.818   1.035  11.932 -0.0733  1.4226  0.1565
   27TMC2    C5  415   0.720   1.121  11.894 -0.2955  0.0348  0.8968
   27TMC2    C6  416   0.630   1.084  11.798  0.0606 -0.3913  0.1657
   27TMC2     C  417   0.832   0.811  11.991  0.0406 -0.5010  0.1515
   27TMC2     O  418   0.848   0.696  11.950  0.4118  0.7878 -0.0284
   27TMC2     H  419   0.755   0.767  11.745 -0.8089 -0.2153 -1.4578
   27TMC2    H1  420   0.872   1.060  12.023 -1.3312  1.6112  0.8491
   27TMC2    H2  421   0.536   1.133  11.779 -0.2527 -1.6745 -1.5880
   27TMC2    C7  422   0.663   1.177  12.008  0.7150  0.9975  0.0592
   27TMC2    C8  423   0.587   0.949  11.608 -0.0324  0.4359  0.0724
   27TMC2    O1  424   0.604   1.107  12.089  0.3332 -0.2845  0.1323
   27TMC2    O2  425   0.565   1.050  11.542 -0.7689 -0.4393 -0.0469
   27TMC2    O5  426   0.598   0.827  11.562  0.3328  0.4096  0.0963
   27TMC2    H5  427   0.587   0.763  11.636  0.3628 -0.2240 -0.4517
   28MPD2     C  428   0.666   0.654  12.448 -0.0125 -0.1425 -0.3881
   28MPD2    C1  429   0.638   0.791  12.439  0.1453 -0.3129 -0.2042
   28MPD2    C2  430   0.666   0.856  12.325 -0.3570 -0.0298  0.2368
   28MPD2    C3  431   0.728   0.786  12.216 -0.1201 -0.8179 -0.3544
   28MPD2    C4  432   0.754   0.655  12.227 -0.7686  0.2937  0.3570
   28MPD2    C5  433   0.713   0.586  12.336 -0.1311 -0.1230  0.4526
   28MPD2     H  434   0.638   0.960  12.308  1.1011 -0.0214 -2.1311
   28MPD2    H1  435   0.801   0.600  12.146 -1.9153 -1.8605  1.1344
   28MPD2    H2  436   0.646   0.592  12.535  0.4105 -0.1853 -0.3225
   28MPD2    H3  437   0.718   0.478  12.325  1.0684  0.0941 -1.0371
   28MPD2     N  438   0.765   0.864  12.095  0.4683 -0.3032 -0.7954
   28MPD2    H5  439   0.739   0.962  12.087  0.3066 -0.2356  0.5733
   28MPD2    N1  440   0.569   0.858  12.545  0.1766 -0.3436 -0.7966
   28MPD2    H7  441   0.541   0.787  12.612 -1.4256 -0.5065 -1.6484
   29MPD2     C  442   0.126   3.289  13.916 -0.0722  0.2654  0.3428
   29MPD2    C1  443   0.253   3.239  13.921 -0.7533  0.5236 -0.2008
   29MPD2    C2  444   0.359   3.307  13.987  0.2742  0.2668  0.4169
   29MPD2    C3  445   0.335   3.431  14.035  0.0276  0.5916 -0.6361
   29MPD2    C4  446   0.206   3.484  14.027  0.6623 -0.0741  0.7214
   29MPD2    C5  447   0.103   3.413  13.961 -0.0904 -0.5163 -0.8169
   29MPD2     H  448   0.459   3.266  13.993 -0.7731 -2.2515  0.9118
   29MPD2    H1  449   0.186   3.580  14.071  0.9217  1.1461 -1.8144
   29MPD2    H2  450   0.050   3.227  13.869  0.1573  0.8512 -0.7948
   29MPD2    H3  451   0.007   3.464  13.954  0.7745  1.3028  0.5927
   29MPD2     N  452   0.432   3.508  14.108  0.1106  0.0890 -0.5722
   29MPD2    H5  453   0.401   3.594  14.152 -3.4961 -1.3475 -0.3192
   29MPD2    N1  454   0.291   3.110  13.872 -0.1627  0.4997  0.5407
   29MPD2    H7  455   0.387   3.082  13.892 -0.6011  0.7227  3.0274
   30TCq2    C1  456   0.557   3.470  14.137  0.3503 -0.4683 -0.9237
   30TCq2    O2  457   0.609   3.360  14.125  0.1976  0.1163 -0.4403
   30TCq2    C2  458   0.652   3.565  14.196 -0.0542 -0.1845  0.0245
   30TCq2    C3  459   0.756   3.521  14.271 -0.4752 -0.0807  0.2530
   30TCq2    C4  460   0.833   3.608  14.343 -0.0535 -0.2455  0.3730
   30TCq2    C5  461   0.809   3.743  14.343  0.5619 -0.1766  0.9818
   30TCq2    C6  462   0.704   3.790  14.262  0.4025  0.2739 -0.6413
   30TCq2    C7  463   0.627   3.699  14.192  0.4782 -0.7690  0.4576
   30TCq2    C8  464   0.647   3.923  14.289  0.3427 -0.1709  0.0504
   30TCq2    O4  465   0.528   3.931  14.265  0.4704  0.2106 -0.2444
   30TCq2    C9  466   0.935   3.544  14.425 -0.0951  0.2829  0.7211
   30TCq2    O5  467   1.014   3.621  14.489  0.0879  0.1934  0.4470
   30TCq2    O6  468   0.912   3.423  14.448 -0.2150 -0.0061 -0.2454
   30TCq2    H2  469   0.786   3.417  14.269  0.1974  0.1433 -1.0963
   30TCq2    H3  470   0.867   3.802  14.412  1.4094  1.4905 -1.1691
   30TCq2    H4  471   0.542   3.740  14.138  0.7295  0.3920  0.9401
   31MPD2     C  472   3.121   2.765  14.871 -0.1511  0.1053 -0.4123
   31MPD2    C1  473   3.002   2.762  14.807  0.1655 -0.5664  0.0600
   31MPD2    C2  474   2.886   2.724  14.876  0.3718  0.8650  0.2893
   31MPD2    C3  475   2.894   2.685  15.009 -0.1242 -0.0675 -0.0912
   31MPD2    C4  476   3.020   2.692  15.069 -0.3328 -0.2958  0.0733
   31MPD2    C5  477   3.134   2.731  15.005  0.0946 -0.1535  0.3194
   31MPD2     H  478   2.789   2.719  14.829  0.9718 -0.0476 -0.8449
   31MPD2    H1  479   3.034   2.648  15.167 -0.5062 -0.3986  0.0527
   31MPD2    H2  480   3.211   2.794  14.817 -0.1293 -0.2628 -0.5738
   31MPD2    H3  481   3.235   2.720  15.044 -0.1285 -1.4127  0.5127
   31MPD2     N  482   2.784   2.650  15.091  0.5835  0.3775 -0.2040
   31MPD2    H5  483   2.802   2.611  15.183  1.9585  0.2236 -0.5376
   31MPD2    N1  484   2.995   2.795  14.672  0.8593 -0.0601 -0.4317
   31MPD2    H7  485   3.078   2.844  14.641  1.6288 -0.2835  1.2529
   32TCq2    C1  486   2.654   2.638  15.051 -0.0387  0.0888 -0.2866
   32TCq2    O2  487   2.597   2.670  14.944 -0.3635 -0.1896  0.5798
   32TCq2    C2  488   2.578   2.562  15.151  0.0715  0.8299 -0.5984
   32TCq2    C3  489   2.452   2.604  15.166 -0.6918 -0.0614 -0.3785
   32TCq2    C4  490   2.400   2.592  15.291 -0.0639 -0.3860  0.1558
   32TCq2    C5  491   2.461   2.516  15.389 -0.2139 -0.3457  0.7009
   32TCq2    C6  492   2.582   2.462  15.363 -0.6935 -0.1328 -0.6090
   32TCq2    C7  493   2.647   2.497  15.248  0.2596  0.1749 -0.1755
   32TCq2    C8  494   2.650   2.377  15.455 -0.2835 -0.0336 -0.1232
   32TCq2    O4  495   2.772   2.357  15.439 -0.2793 -0.2637  0.2477
   32TCq2    C9  496   2.268   2.643  15.309 -0.1019 -0.7926  0.5903
   32TCq2    O5  497   2.204   2.592  15.403  0.2138  0.5371  0.8902
   32TCq2    O6  498   2.217   2.725  15.230 -0.2689 -0.6124 -0.6922
   32TCq2    H2  499   2.419   2.682  15.098 -1.8446  0.9234  1.2919
   32TCq2    H3  500   2.426   2.513  15.492 -1.6763 -0.5409  0.1905
   32TCq2    H4  501   2.740   2.448  15.222 -0.5390 -0.4127 -1.8817
   33MPD2     C  502   3.248   0.046  10.760  0.2020 -0.3368  0.5376
   33MPD2    C1  503   3.260   4.643  10.708 -0.0514  0.6945  0.8032
   33MPD2    C2  504   3.362   4.617  10.616 -0.5991 -0.2803 -0.6473
   33MPD2    C3  505   3.447   4.719  10.572 -0.0291 -0.0281 -0.1802
   33MPD2    C4  506   3.430   0.124  10.622  0.1122  0.3372 -0.0725
   33MPD2    C5  507   3.342   0.144  10.725 -0.0342  0.5033 -0.2687
   33MPD2     H  508   3.387   4.514  10.593  0.4038  0.2889 -2.0939
   33MPD2    H1  509   3.499   0.202  10.590  1.7635 -0.3138  1.8686
   33MPD2    H2  510   3.169   0.057  10.833 -0.5542 -0.8066 -0.2068
   33MPD2    H3  511   3.339   0.238  10.780 -0.7612 -0.5211  1.4421
   33MPD2     N  512   3.548   4.697  10.475 -0.4184  0.2626  0.5634
   33MPD2    H5  513   3.600   0.055  10.448 -1.3377  0.0777 -1.7560
   33MPD2    N1  514   3.171   4.543  10.757 -0.4424 -0.3053  0.3758
   33MPD2    H7  515   3.116   4.566  10.839  0.3960  0.4214  0.7301
   34TCq2    C1  516   3.581   4.578  10.417 -0.0528 -1.0309  0.2732
   34TCq2    O2  517   3.521   4.474  10.426 -0.3392  0.3522 -0.9392
   34TCq2    C2  518   3.680   4.585  10.315  0.0363  0.4594 -0.1213
   34TCq2    C3  519   3.729   4.471  10.265  0.4363 -0.5556 -0.2520
   34TCq2    C4  520   3.824   4.484  10.161 -1.0312 -0.6616  0.2292
   34TCq2    C5  521   3.863   4.606  10.118  0.3644 -0.5478  0.6280
   34TCq2    C6  522   3.812   4.718  10.177 -0.2061  0.1698 -0.2742
   34TCq2    C7  523   3.720   4.709  10.272 -0.4529 -0.4963 -0.6971
   34TCq2    C8  524   3.821   0.115  10.110  0.2817  0.0553  0.6946
   34TCq2    O4  525   3.802   0.218  10.176  0.1285 -0.4392 -0.0688
   34TCq2    C9  526   3.880   4.368  10.116 -0.6815 -0.6876  0.3346
   34TCq2    O5  527   3.868   4.264  10.187  0.1309  0.3206 -0.0287
   34TCq2    O6  528   3.926   4.372  10.001  0.0271  1.0164  0.0382
   34TCq2    H2  529   3.702   4.373  10.300 -1.4884 -0.3673 -1.1622
   34TCq2    H3  530   3.942   4.613  10.044 -1.6088 -0.6816 -1.5094
   34TCq2    H4  531   3.654   0.070  10.281  0.9232  0.7880 -2.7043
   35MPD2     C  532   0.257   1.672  11.833  0.1117 -0.4356  0.2757
   35MPD2    C1  533   0.243   1.547  11.893 -0.9151 -0.0358  0.2025
   35MPD2    C2  534   0.156   1.459  11.831  0.3661  0.6380  0.1414
   35MPD2    C3  535   0.081   1.490  11.722 -0.3031  0.2333  0.4505
   35MPD2    C4  536   0.106   1.612  11.657  0.0936 -0.3053 -0.4186
   35MPD2    C5  537   0.193   1.701  11.714 -0.1062 -0.3027 -0.6756
   35MPD2     H  538   0.147   1.359  11.871 -0.1694 -0.5356 -2.9489
   35MPD2    H1  539   0.071   1.631  11.557  0.2039 -1.0708 -0.6031
   35MPD2    H2  540   0.333   1.741  11.868  0.8072 -0.5452 -1.0354
   35MPD2    H3  541   0.213   1.790  11.656 -0.1159  0.4653  0.5050
   35MPD2     N  542   4.707   1.402  11.684 -0.0458  1.0203 -0.2348
   35MPD2    H5  543   4.677   1.329  11.748 -0.3912  1.7028  0.3876
   35MPD2    N1  544   0.309   1.523  12.014  0.4279 -0.2437 -0.1912
   35MPD2    H7  545   0.329   1.605  12.071 -3.9876  1.3729 -0.9734
   36TCq2    C1  546   4.626   1.411  11.577  0.4452  0.1014 -0.2279
   36TCq2    O2  547   4.603   1.506  11.500  0.5243 -0.2693  0.3535
   36TCq2    C2  548   4.522   1.307  11.573 -0.7925  0.2948 -0.6141
   36TCq2    C3  549   4.407   1.353  11.517  0.2400  0.4279 -0.1564
   36TCq2    C4  550   4.323   1.257  11.469  0.3919  0.5755  0.0604
   36TCq2    C5  551   4.341   1.124  11.495  0.4713 -0.0258 -0.1581
   36TCq2    C6  552   4.451   1.082  11.564 -0.0991  0.1653  0.2997
   36TCq2    C7  553   4.552   1.173  11.589 -0.9295 -0.0840  0.1734
   36TCq2    C8  554   4.471   0.936  11.576  0.0533 -0.2680 -0.4170
   36TCq2    O4  555   4.385   0.865  11.521 -0.1593  0.3148  0.3259
   36TCq2    C9  556   4.200   1.304  11.404  0.7876  0.3102 -0.1920
   36TCq2    O5  557   4.130   1.221  11.343 -0.8841 -0.0121  0.2894
   36TCq2    O6  558   4.186   1.426  11.406 -0.0925 -0.4466 -0.1072
   36TCq2    H2  559   4.392   1.459  11.502  1.8321  0.1640 -3.7774
   36TCq2    H3  560   4.277   1.053  11.444  0.2370  0.5290 -0.6318
   36TCq2    H4  561   4.653   1.135  11.604 -1.1485 -0.6816  0.1182
   37TMC2    C1  562   1.847   1.641  11.981  0.3354 -0.0476  0.0329
   37TMC2    C2  563   1.806   1.661  11.853  0.3222  0.4591  0.0227
   37TMC2    C3  564   1.892   1.614  11.753 -1.0096  0.1946  0.0794
   37TMC2    C4  565   1.977   1.615  12.013 -0.3113  0.0918  0.3069
   37TMC2    C5  566   2.062   1.587  11.913 -0.0950  0.5336  0.4489
   37TMC2    C6  567   2.021   1.573  11.781  0.1960  0.1243  0.5097
   37TMC2     C  568   1.749   1.639  12.091 -0.0163  0.5483 -0.0674
   37TMC2     O  569   1.642   1.699  12.086  0.3138 -0.3654 -0.6538
   37TMC2     H  570   1.700   1.669  11.837  0.1719 -0.7705  0.3573
   37TMC2    H1  571   2.017   1.580  12.107 -1.8119 -1.7202  0.2782
   37TMC2    H2  572   2.085   1.525  11.708 -2.2680 -1.4980 -0.5781
   37TMC2    C7  573   2.196   1.532  11.940  0.4228 -0.3459  0.5163
   37TMC2    C8  574   1.836   1.631  11.611  0.5398  0.4685  0.4932
   37TMC2    O1  575   2.215   1.503  12.057  0.0872  0.7297 -0.5303
   37TMC2    O2  576   1.756   1.725  11.595 -0.2994 -0.1813  0.5865
   37TMC2    O5  577   1.866   1.527  11.531  0.1893  0.5420 -0.0009
   37TMC2    H5  578   1.923   1.452  11.559 -0.0015  0.9541  1.4931
   38MPD2     C  579   1.612   1.513  12.573 -0.6860  0.5972  0.1103
   38MPD2    C1  580   1.748   1.501  12.564  0.3232 -0.2894  0.0020
   38MPD2    C2  581   1.812   1.525  12.440  0.4148  0.1944  0.1103
   38MPD2    C3  582   1.737   1.570  12.333  0.0555  0.1049  0.5192
   38MPD2    C4  583   1.599   1.587  12.351 -0.6158 -0.2355  0.5941
   38MPD2    C5  584   1.540   1.568  12.472  0.4876 -0.2926 -0.3837
   38MPD2     H  585   1.918   1.506  12.428  0.4251  0.2998  0.0264
   38MPD2    H1  586   1.530   1.608  12.271  0.7559 -1.7743 -1.0105
   38MPD2    H2  587   1.571   1.505  12.673 -0.7095 -0.0510  0.0481
   38MPD2    H3  588   1.434   1.586  12.483  0.3074 -2.2575  1.2038
   38MPD2     N  589   1.804   1.585  12.205 -0.1547  0.5033 -0.0060
   38MPD2    H5  590   1.902   1.559  12.204 -0.1694  0.3882  1.0464
   38MPD2    N1  591   1.828   1.470  12.671  0.2296  0.3257  0.3666
   38MPD2    H7  592   1.928   1.477  12.658 -0.0415  1.7342 -0.9445
   39MPD2     C  593   0.440   3.451   1.423  0.0384 -0.1111 -0.3407
   39MPD2    C1  594   0.348   3.510   1.500 -0.7875 -0.3816  0.0121
   39MPD2    C2  595   0.214   3.500   1.462 -0.0443 -0.1525 -0.1149
   39MPD2    C3  596   0.182   3.421   1.348  0.3031  0.0060 -0.2008
   39MPD2    C4  597   0.285   3.353   1.278  0.9855 -0.1304  0.1553
   39MPD2    C5  598   0.415   3.371   1.312 -1.2130  0.3604 -0.1923
   39MPD2     H  599   0.132   3.548   1.513 -0.2383 -2.2193  1.4811
   39MPD2    H1  600   0.268   3.297   1.187 -0.8606 -1.0313  1.0437
   39MPD2    H2  601   0.547   3.450   1.442  0.0259 -1.1150 -0.3457
   39MPD2    H3  602   0.501   3.324   1.265 -1.2935 -0.7024  0.7117
   39MPD2     N  603   0.054   3.395   1.287 -0.3005  0.0107 -0.2548
   39MPD2    H5  604   0.053   3.335   1.206  0.1687 -1.8649  1.1289
   39MPD2    N1  605   0.390   3.580   1.615  0.0917  0.3488 -0.0573
   39MPD2    H7  606   0.488   3.584   1.642  0.6394 -0.3171 -1.9488
   40TCq2    C1  607   0.313   3.659   1.699  0.1525 -0.1074  0.4321
   40TCq2    O2  608   0.191   3.667   1.698  0.3475  0.4343 -0.4971
   40TCq2    C2  609   0.399   3.729   1.796 -0.3038  0.2141 -0.4596
   40TCq2    C3  610   0.341   3.763   1.909 -0.0003 -0.4373 -0.0941
   40TCq2    C4  611   0.415   3.821   2.003  0.0546  0.3544  0.0639
   40TCq2    C5  612   0.543   3.858   1.979 -0.6466 -0.2832  0.6686
   40TCq2    C6  613   0.590   3.834   1.849  0.0361 -0.4980 -0.5195
   40TCq2    C7  614   0.524   3.758   1.756  0.7762 -0.3553  0.0856
   40TCq2    C8  615   0.721   3.879   1.805  0.3963  0.7341 -0.2035
   40TCq2    O4  616   0.783   3.796   1.741  0.0996 -0.4607 -0.0251
   40TCq2    C9  617   0.363   3.829   2.134 -0.3868 -0.3482 -0.1635
   40TCq2    O5  618   0.241   3.818   2.156 -0.4681  0.1783  1.0270
   40TCq2    O6  619   0.443   3.815   2.224  0.7157  0.7711  0.4858
   40TCq2    H2  620   0.237   3.740   1.927  0.0596 -0.5726  0.0845
   40TCq2    H3  621   0.595   3.908   2.061  0.4154 -3.5883  2.0180
   40TCq2    H4  622   0.562   3.754   1.654  0.5941 -0.2408  0.0139
   41TMC2    C1  623   4.292   1.425  13.785 -0.1061  0.4193  0.7141
   41TMC2    C2  624   4.336   1.331  13.694  0.0271  1.0857 -0.1617
   41TMC2    C3  625   4.349   1.370  13.562  0.0744 -0.0134  0.3078
   41TMC2    C4  626   4.266   1.555  13.748 -0.1362 -0.1239 -0.3593
   41TMC2    C5  627   4.280   1.586  13.617  0.2028 -0.1433 -1.0816
   41TMC2    C6  628   4.326   1.501  13.525 -0.2022  0.2661 -0.0106
   41TMC2     C  629   4.308   1.378  13.925  0.6468  0.8486 -0.4477
   41TMC2     O  630   4.347   1.265  13.948 -0.4578  0.0885  0.5767
   41TMC2     H  631   4.345   1.230  13.730 -1.2120  1.1134  0.2491
   41TMC2    H1  632   4.219   1.619  13.821 -0.3381  0.7375 -1.2325
   41TMC2    H2  633   4.360   1.530  13.426 -0.2456 -0.2103 -0.1669
   41TMC2    C7  634   4.256   1.723  13.583  0.8507 -0.4661 -0.2301
   41TMC2    C8  635   4.399   1.269  13.466 -0.0257 -0.1115 -0.4132
   41TMC2    O1  636   4.256   1.800  13.683 -0.0608 -0.0295 -0.0923
   41TMC2    O2  637   4.444   1.162  13.502 -0.1285 -0.4707  0.3750
   41TMC2    O5  638   4.360   1.301  13.343  0.0552  0.5529 -0.3204
   41TMC2    H5  639   4.314   1.387  13.335  0.1325  0.6691  0.5656
   42MPD2     C  640   4.329   1.342  14.226  0.1352 -0.4389  0.1672
   42MPD2    C1  641   4.307   1.469  14.165  0.2008  0.3251  0.6583
   42MPD2    C2  642   4.284   1.573  14.247  0.1870  0.2870 -0.3879
   42MPD2    C3  643   4.290   1.570  14.386  0.1417 -1.0347  0.5894
   42MPD2    C4  644   4.320   1.444  14.438  0.6218  0.9882  0.1343
   42MPD2    C5  645   4.326   1.333  14.360  0.0383 -0.0704  1.0918
   42MPD2     H  646   4.248   1.662  14.195  2.8953  2.2027  1.0643
   42MPD2    H1  647   4.326   1.431  14.546 -0.3526  0.2866  0.1034
   42MPD2    H2  648   4.344   1.251  14.169  2.4615 -0.6647  1.1482
   42MPD2    H3  649   4.348   1.239  14.409  2.8801  0.3091  0.5214
   42MPD2     N  650   4.269   1.679  14.479  0.0356 -0.6296 -0.1054
   42MPD2    H5  651   4.282   1.656  14.577 -3.7724  0.1077  0.5696
   42MPD2    N1  652   4.286   1.480  14.021  0.4559  0.4089  0.3666
   42MPD2    H7  653   4.245   1.564  13.982 -5.1871 -1.3516  2.5565
   43MPD2     C  654   0.688   0.269   0.500 -0.3728 -0.1760  0.2592
   43MPD2    C1  655   0.748   0.274   0.626 -0.2165  0.0307 -0.1948
   43MPD2    C2  656   0.670   0.316   0.738 -0.4107  0.8565 -0.5067
   43MPD2    C3  657   0.531   0.343   0.726 -0.0224  0.3676  0.1269
   43MPD2    C4  658   0.477   0.342   0.601  0.3522  0.3107  0.3763
   43MPD2    C5  659   0.554   0.304   0.493  0.0855 -0.0631  0.0462
   43MPD2     H  660   0.704   0.328   0.841  0.2605 -0.3686 -0.5902
   43MPD2    H1  661   0.375   0.372   0.582  0.7228  2.4461  1.6337
   43MPD2    H2  662   0.731   0.229   0.408  0.4149 -0.4569  0.7573
   43MPD2    H3  663   0.504   0.296   0.397 -2.0655 -1.1453  1.2541
   43MPD2     N  664   0.441   0.356   0.833 -0.1639  0.1764 -0.2777
   43MPD2    H5  665   0.348   0.388   0.808  0.2742  0.3959 -1.6104
   43MPD2    N1  666   0.883   0.257   0.650  0.3924 -0.6242  0.4878
   43MPD2    H7  667   0.916   0.263   0.745  1.1619  0.5054  0.1453
   44TCq2    C1  668   0.359   0.643   1.319  0.0304 -0.0432 -0.1443
   44TCq2    O2  669   0.301   0.748   1.334 -0.2183 -0.0803 -0.1996
   44TCq2    C2  670   0.343   0.576   1.191 -0.6300  0.1376 -0.0411
   44TCq2    C3  671   0.235   0.623   1.115 -0.5357 -0.4086 -0.3913
   44TCq2    C4  672   0.191   0.549   1.013 -0.4290 -0.6882 -0.0434
   44TCq2    C5  673   0.254   0.436   0.976  0.4308  0.4210 -0.3556
   44TCq2    C6  674   0.363   0.392   1.052 -0.0852  0.1711 -0.3914
   44TCq2    C7  675   0.401   0.455   1.163 -0.0577 -0.1804  0.2632
   44TCq2    C8  676   0.468   0.329   0.963 -0.6446  0.6981 -0.1678
   44TCq2    O4  677   0.568   0.285   1.018 -0.1816  0.3307  0.4761
   44TCq2    C9  678   0.068   0.589   0.957  0.0226  0.1362  0.6991
   44TCq2    O5  679   4.723   0.683   1.013 -0.4787 -0.2214  0.3133
   44TCq2    O6  680   0.026   0.549   0.843 -0.6488 -0.2980 -0.0749
   44TCq2    H2  681   0.184   0.709   1.156  0.9427 -0.1301  0.8495
   44TCq2    H3  682   0.212   0.372   0.899 -1.5804  3.0875 -1.4761
   44TCq2    H4  683   0.485   0.414   1.219  0.4818  1.5173  0.6829
   45TMC2    C1  684   1.466   2.342   9.602 -0.5743  0.1618 -0.1457
   45TMC2    C2  685   1.436   2.336   9.469 -0.0208  0.3145 -0.2623
   45TMC2    C3  686   1.378   2.446   9.409  0.0017 -0.5168 -0.8889
   45TMC2    C4  687   1.453   2.458   9.674  0.9040  0.0242 -0.2478
   45TMC2    C5  688   1.389   2.568   9.611 -0.3961  0.1543 -0.6039
   45TMC2    C6  689   1.345   2.564   9.480  0.3832  1.0019  0.3242
   45TMC2     C  690   1.536   2.233   9.671  0.6668 -0.4132 -0.3116
   45TMC2     O  691   1.594   2.269   9.777 -0.0254 -0.1419  0.3479
   45TMC2     H  692   1.428   2.243   9.414 -1.8890 -1.2971  2.7259
   45TMC2    H1  693   1.474   2.462   9.781  2.3074  1.9199 -0.5858
   45TMC2    H2  694   1.293   2.645   9.431 -0.7969  0.5421  0.8236
   45TMC2    C7  695   1.375   2.693   9.675 -0.5281  0.2109  0.2507
   45TMC2    C8  696   1.350   2.436   9.264  0.6879  0.9518  0.3091
   45TMC2    O1  697   1.355   2.791   9.600  0.2960  0.1709 -0.2752
   45TMC2    O2  698   1.312   2.328   9.219  0.4066 -0.2148  0.1787
   45TMC2    O5  699   1.317   2.560   9.211  0.3839 -0.0297  0.4235
   45TMC2    H5  700   1.330   2.642   9.264 -2.5609  0.5926  0.1870
   46MPD2     C  701   1.660   1.972   9.761 -0.0683 -0.9294  0.0166
   46MPD2    C1  702   1.570   1.989   9.658  0.0005  0.1729 -0.2867
   46MPD2    C2  703   1.513   1.867   9.605  0.3147 -0.4596 -0.1970
   46MPD2    C3  704   1.575   1.746   9.635  0.1546 -0.4693  0.0817
   46MPD2    C4  705   1.677   1.741   9.727 -0.0372  0.3325 -0.3522
   46MPD2    C5  706   1.713   1.853   9.795 -0.1616 -0.0121  0.3608
   46MPD2     H  707   1.438   1.871   9.528 -2.2006  0.5781  2.3131
   46MPD2    H1  708   1.736   1.651   9.742 -1.3329  0.3148  4.8384
   46MPD2    H2  709   1.705   2.056   9.812 -0.2209  0.1169 -1.5809
   46MPD2    H3  710   1.797   1.858   9.863 -3.0170  1.8648  3.7366
   46MPD2     N  711   1.554   1.640   9.542  0.4525 -0.4435 -0.4447
   46MPD2    H5  712   1.486   1.656   9.468  0.5330 -2.3986 -0.9406
   46MPD2    N1  713   1.515   2.109   9.614  0.1617 -0.6324  0.4751
   46MPD2    H7  714   1.437   2.095   9.551  1.4241  0.1285 -1.2388
   47TMC2    C1  715   3.225   1.790   9.565  0.0872 -0.2011  0.0349
   47TMC2    C2  716   3.257   1.742   9.685 -0.2178 -0.1481  0.2854
   47TMC2    C3  717   3.148   1.676   9.750  0.2922  0.0099  0.2052
   47TMC2    C4  718   3.105   1.772   9.516  0.4477 -0.0585 -0.1788
   47TMC2    C5  719   3.007   1.695   9.577 -0.1574 -0.4737  0.9269
   47TMC2    C6  720   3.027   1.645   9.702 -0.1398 -0.5996  0.2199
   47TMC2     C  721   3.315   1.890   9.508 -0.1946  0.0354  0.0889
   47TMC2     O  722   3.244   1.982   9.462  0.3477  0.0671 -0.7621
   47TMC2     H  723   3.352   1.765   9.732 -0.0755  2.0211 -1.0610
   47TMC2    H1  724   3.083   1.813   9.418 -1.1539 -3.6031 -1.3111
   47TMC2    H2  725   2.957   1.575   9.747 -1.5293 -0.3041 -1.4936
   47TMC2    C7  726   2.875   1.687   9.519  0.3590  0.1962  0.7488
   47TMC2    C8  727   3.173   1.612   9.880  0.2302 -0.5418 -0.6458
   47TMC2    O1  728   2.780   1.687   9.602  0.5943 -0.5275 -0.2019
   47TMC2    O2  729   3.082   1.577   9.956 -0.2250 -0.2540  0.2359
   47TMC2    O5  730   3.301   1.566   9.874 -0.3738  0.0405 -0.4812
   47TMC2    H5  731   3.346   1.586   9.789  1.8658 -0.3971  0.6121
   48MPD2     C  732   3.522   2.086   9.458 -0.0652  0.6291  0.2341
   48MPD2    C1  733   3.547   1.957   9.492 -0.6567 -0.1192  0.7395
   48MPD2    C2  734   3.678   1.919   9.497 -0.6734 -0.0848  0.3083
   48MPD2    C3  735   3.784   2.005   9.460  0.3270 -0.4206  0.2548
   48MPD2    C4  736   3.752   2.135   9.426 -0.0388  0.3227 -0.2632
   48MPD2    C5  737   3.619   2.177   9.424  0.1277 -0.4718  0.2940
   48MPD2     H  738   3.713   1.818   9.514 -0.3235  0.2420  1.5595
   48MPD2    H1  739   3.833   2.201   9.396 -0.6278  0.8564 -0.6667
   48MPD2    H2  740   3.424   2.132   9.459 -0.2258  0.3051 -0.3082
   48MPD2    H3  741   3.585   2.274   9.390 -0.7872 -0.5233  1.0592
   48MPD2     N  742   3.916   1.964   9.483 -0.0639  0.4309 -0.1330
   48MPD2    H5  743   3.927   1.869   9.515  3.0039  0.9439  0.3419
   48MPD2    N1  744   3.454   1.865   9.526  0.6175 -0.0065 -0.4305
   48MPD2    H7  745   3.483   1.771   9.552 -1.5938 -0.3813  0.6912
   49MPD2     C  746   1.486   3.323  10.704  0.7556 -0.5463  0.4846
   49MPD2    C1  747   1.479   3.415  10.602  0.5818 -0.4738  0.4342
   49MPD2    C2  748   1.553   3.535  10.617  0.0915  0.4887  0.2260
   49MPD2    C3  749   1.616   3.567  10.735  0.0479 -0.1604 -0.1326
   49MPD2    C4  750   1.606   3.481  10.837 -0.2714  0.1945  0.0641
   49MPD2    C5  751   1.543   3.361  10.819  0.4098 -0.9281 -0.7432
   49MPD2     H  752   1.538   3.609  10.540 -0.4738 -2.2558 -2.3206
   49MPD2    H1  753   1.636   3.516  10.935  2.0557 -1.7679  0.0454
   49MPD2    H2  754   1.455   3.220  10.688 -0.2053 -0.5560  2.4565
   49MPD2    H3  755   1.548   3.282  10.893  0.3776 -1.3576 -1.2005
   49MPD2     N  756   1.684   3.687  10.761 -0.3178 -0.2807  0.1156
   49MPD2    H5  757   1.733   3.691  10.850 -0.2021  0.2177  0.0298
   49MPD2    N1  758   1.399   3.403  10.490 -0.4189 -0.1282  0.7211
   49MPD2    H7  759   1.390   3.481  10.425 -0.3554  0.4659  1.4232
   50TCq2    C1  760   1.314   3.303  10.460  0.1864  0.3936 -0.0121
   50TCq2    O2  761   1.280   3.206  10.528 -0.6467  0.0277 -0.0424
   50TCq2    C2  762   1.265   3.306  10.326  0.2403  0.0153 -0.2748
   50TCq2    C3  763   1.302   3.403  10.243 -0.0982 -0.0799 -0.2546
   50TCq2    C4  764   1.258   3.403  10.113  0.1017 -0.7680 -0.2676
   50TCq2    C5  765   1.203   3.290  10.062 -0.8420 -0.4333 -0.6387
   50TCq2    C6  766   1.171   3.190  10.150 -0.5901  0.3010  0.0882
   50TCq2    C7  767   1.192   3.202  10.285  0.0153  0.3493  0.5474
   50TCq2    C8  768   1.082   3.080  10.107 -0.7581 -0.2865  0.2925
   50TCq2    O4  769   1.002   3.035  10.189  0.2113 -0.4168  0.5209
   50TCq2    C9  770   1.267   3.519  10.033 -0.9431  0.5911  0.1378
   50TCq2    O5  771   1.191   3.513   9.934  0.4088 -0.1347 -0.0943
   50TCq2    O6  772   1.327   3.623  10.075  0.3457  0.0818 -0.1578
   50TCq2    H2  773   1.340   3.498  10.279 -1.5822  0.3599  0.1384
   50TCq2    H3  774   1.173   3.274   9.959 -1.2558  0.4866 -0.6616
   50TCq2    H4  775   1.162   3.123  10.353  2.4838 -1.7445 -0.8190
   51MPD2     C  776   3.865   2.505   1.339  0.1328  0.1365 -0.9629
   51MPD2    C1  777   3.772   2.601   1.351  0.8040 -0.0431 -0.4652
   51MPD2    C2  778   3.762   2.674   1.466 -0.9869  0.1405 -0.4017
   51MPD2    C3  779   3.852   2.655   1.575 -0.4728  0.0173  0.8988
   51MPD2    C4  780   3.960   2.571   1.546  0.4526  0.4656  0.9845
   51MPD2    C5  781   3.967   2.497   1.427 -0.3672  0.4460 -1.0926
   51MPD2     H  782   3.688   2.752   1.472  0.3199  1.1721  1.8396
   51MPD2    H1  783   4.039   2.555   1.619  0.7214  0.4423  0.6870
   51MPD2    H2  784   3.882   2.456   1.244  1.7136 -0.3350 -0.4328
   51MPD2    H3  785   4.048   2.427   1.410  0.2142  1.0389 -0.7740
   51MPD2     N  786   3.851   2.729   1.697 -0.1051 -0.1171 -0.2398
   51MPD2    H5  787   3.925   2.713   1.764 -0.0385 -2.3593 -0.8632
   51MPD2    N1  788   3.682   2.636   1.247 -0.0727 -0.2300  0.8358
   51MPD2    H7  789   3.611   2.707   1.263  0.7741  0.8340 -0.0438
   52TCq2    C1  790   3.754   2.820   1.726  0.7612 -0.3735  0.0498
   52TCq2    O2  791   3.663   2.869   1.660  0.2932  0.1285 -0.3404
   52TCq2    C2  792   3.799   2.892   1.851 -0.6179 -0.9092 -0.4446
   52TCq2    C3  793   3.879   2.835   1.944 -0.4756  0.2285  0.2248
   52TCq2    C4  794   3.897   2.880   2.066  0.4938 -0.1537 -0.5114
   52TCq2    C5  795   3.824   2.990   2.096 -0.1797  0.4458 -0.7816
   52TCq2    C6  796   3.744   3.050   2.006 -0.5073 -0.4089  0.9541
   52TCq2    C7  797   3.729   3.003   1.880 -0.4914  0.5316  0.4425
   52TCq2    C8  798   3.657   3.157   2.044 -0.2720 -0.6329  0.3932
   52TCq2    O4  799   3.563   3.181   1.966 -0.2881 -0.0369 -0.3178
   52TCq2    C9  800   3.994   2.832   2.155 -0.2489 -0.5074  0.1454
   52TCq2    O5  801   4.059   2.727   2.118  0.1139  0.6588 -0.2489
   52TCq2    O6  802   4.032   2.919   2.237  0.3443 -0.3855 -0.1428
   52TCq2    H2  803   3.930   2.744   1.912 -0.3571  1.4505 -3.1059
   52TCq2    H3  804   3.845   3.028   2.195 -0.9528  0.7506 -0.7384
   52TCq2    H4  805   3.669   3.052   1.804  0.5968 -0.6530 -1.1822
   53TMC2    C1  806   2.836   1.646  12.249 -0.3604  0.3535  0.2295
   53TMC2    C2  807   2.942   1.602  12.325 -0.2330 -0.3995 -0.1224
   53TMC2    C3  808   2.942   1.621  12.460 -0.2402  0.0969 -0.9534
   53TMC2    C4  809   2.734   1.711  12.308 -0.5930 -0.5473  0.2411
   53TMC2    C5  810   2.733   1.723  12.450  0.3211 -1.2916  0.4240
   53TMC2    C6  811   2.839   1.681  12.522 -0.1230  0.6493 -0.6518
   53TMC2     C  812   2.818   1.592  12.122  0.1795 -0.2952  0.0043
   53TMC2     O  813   2.915   1.558  12.058 -0.1405 -0.2518 -0.2449
   53TMC2     H  814   3.025   1.552  12.277 -1.1865 -1.9198 -0.1814
   53TMC2    H1  815   2.667   1.764  12.242 -0.2158 -1.4906 -0.9022
   53TMC2    H2  816   2.835   1.690  12.630  0.2372  2.1171 -0.7619
   53TMC2    C7  817   2.604   1.733  12.498 -0.2122  0.1020 -0.5770
   53TMC2    C8  818   3.038   1.549  12.531 -0.0574  0.7998 -0.3043
   53TMC2    O1  819   2.513   1.745  12.419  0.1112  0.3877 -0.1568
   53TMC2    O2  820   3.010   1.494  12.634 -0.5596 -0.3566 -0.4323
   53TMC2    O5  821   3.159   1.601  12.494  0.5483  0.4469 -0.6397
   53TMC2    H5  822   3.144   1.671  12.427 -1.5688  1.0868  0.5189
   54MPD2     C  823   2.703   1.546  11.860  0.3881 -0.1564 -0.1275
   54MPD2    C1  824   2.633   1.551  11.977 -0.1114  0.3158 -0.4114
   54MPD2    C2  825   2.496   1.544  11.975  0.7209 -0.1097  0.1777
   54MPD2    C3  826   2.431   1.548  11.857 -0.5721  0.3295  0.2916
   54MPD2    C4  827   2.502   1.548  11.740  0.3282 -0.3903  0.3206
   54MPD2    C5  828   2.640   1.537  11.738 -0.8210 -0.5038 -0.2792
   54MPD2     H  829   2.440   1.563  12.067 -1.1604 -0.2361 -0.9478
   54MPD2    H1  830   2.453   1.555  11.643  0.6427  0.5078  0.2235
   54MPD2    H2  831   2.810   1.555  11.850  0.1810 -0.6412 -2.8853
   54MPD2    H3  832   2.698   1.550  11.647 -1.3438  2.8088 -0.1215
   54MPD2     N  833   2.288   1.553  11.840 -0.1648 -0.5146 -0.2107
   54MPD2    H5  834   2.253   1.566  11.746 -0.1758 -0.1955 -0.1628
   54MPD2    N1  835   2.688   1.573  12.105 -0.4803  0.0139 -0.0225
   54MPD2    H7  836   2.624   1.588  12.183 -0.4313 -0.1344  0.0452
   55MPD2     C  837   3.614   4.181   0.254 -0.4807  0.2433 -0.2253
   55MPD2    C1  838   3.522   4.090   0.295 -0.4133 -0.4929  0.5753
   55MPD2    C2  839   3.412   4.133   0.371  0.3468 -0.2199  0.2801
   55MPD2    C3  840   3.401   4.260   0.410 -0.0387  0.9021 -0.1323
   55MPD2    C4  841   3.494   4.353   0.368  0.3656  0.4099 -1.1271
   55MPD2    C5  842   3.608   4.311   0.301 -0.4746  0.0327  0.1916
   55MPD2     H  843   3.344   4.054   0.401 -2.0336  1.0516 -1.8460
   55MPD2    H1  844   3.491   4.459   0.392 -1.0604 -0.2237  1.5737
   55MPD2    H2  845   3.699   4.144   0.198 -1.1251 -1.2261 -0.2314
   55MPD2    H3  846   3.688   4.381   0.282 -0.7293  0.9554  2.4481
   55MPD2     N  847   3.294   4.294   0.499 -0.5597  0.3951 -0.3686
   55MPD2    H5  848   3.242   4.213   0.530  0.9132 -0.4791 -0.1751
   55MPD2    N1  849   3.549   3.958   0.265 -0.2761  0.4235 -0.3451
   55MPD2    H7  850   3.638   3.943   0.218 -1.2031  1.9421 -2.5616
   56TCq2    C1  851   3.460   3.857   0.291  0.4040 -0.2755  0.3015
   56TCq2    O2  852   3.341   3.856   0.325 -0.5364 -0.6457 -0.0244
   56TCq2    C2  853   3.512   3.722   0.268 -0.2753 -0.1203  0.4270
   56TCq2    C3  854   3.594   3.690   0.168  0.2361 -0.3568 -0.1352
   56TCq2    C4  855   3.631   3.557   0.150 -0.2649 -0.8298  0.5833
   56TCq2    C5  856   3.596   3.464   0.236 -0.2062  0.0227 -0.3357
   56TCq2    C6  857   3.511   3.499   0.338  0.2170  0.6865 -0.7431
   56TCq2    C7  858   3.471   3.620   0.350  0.0746 -0.6872 -0.2554
   56TCq2    C8  859   3.464   3.388   0.420 -0.1994  1.2872  0.0463
   56TCq2    O4  860   3.544   3.297   0.436 -0.4146  0.1195  0.3222
   56TCq2    C9  861   3.702   3.519   0.027  0.2199  0.5473 -0.1729
   56TCq2    O5  862   3.757   3.608  17.663  0.4086  0.6492  0.0017
   56TCq2    O6  863   3.704   3.394   0.004 -0.3943 -0.0703  0.1077
   56TCq2    H2  864   3.629   3.762   0.094 -1.7266  0.4005 -0.3132
   56TCq2    H3  865   3.643   3.366   0.232 -1.0029 -0.3918  0.4385
   56TCq2    H4  866   3.423   3.641   0.445  0.1041 -0.1384 -0.3671
   57TMC2    C1  867   2.752   0.606  13.380 -0.3901 -1.3804 -0.1416
   57TMC2    C2  868   2.811   0.538  13.481 -0.1585  0.1026  0.1024
   57TMC2    C3  869   2.948   0.528  13.467 -0.4896 -0.3129  0.1872
   57TMC2    C4  870   2.811   0.647  13.265 -0.4572 -0.0691  0.8904
   57TMC2    C5  871   2.948   0.658  13.275 -0.5595 -0.4765  0.3521
   57TMC2    C6  872   3.020   0.586  13.368  0.8737  0.0999  0.0978
   57TMC2     C  873   2.611   0.579  13.355 -0.2665  0.1768 -0.2400
   57TMC2     O  874   2.543   0.665  13.300 -0.6565  0.1617  0.1694
   57TMC2     H  875   2.757   0.492  13.563  0.5830  0.9523  1.0657
   57TMC2    H1  876   2.751   0.690  13.186 -0.1642 -0.4499  0.4603
   57TMC2    H2  877   3.127   0.582  13.354  0.9097 -3.3214  1.3077
   57TMC2    C7  878   2.997   0.643  13.139  0.0279  0.0053 -0.3128
   57TMC2    C8  879   3.038   0.482  13.575 -0.5550 -0.3317  1.1286
   57TMC2    O1  880   2.947   0.714  13.057  0.2633 -0.7088  0.0980
   57TMC2    O2  881   3.157   0.515  13.584 -0.5089  0.4895 -0.1834
   57TMC2    O5  882   2.963   0.422  13.669 -0.5319  0.6796 -0.0747
   57TMC2    H5  883   2.886   0.371  13.635  0.5833 -1.1461  0.1613
   58MPD2     C  884   2.241   0.350  13.614  0.2895  0.6233 -0.0274
   58MPD2    C1  885   2.248   0.481  13.573  0.5113  0.0634  0.3114
   58MPD2    C2  886   2.349   0.517  13.488 -0.0773  0.0372  0.1213
   58MPD2    C3  887   2.450   0.427  13.459  0.1183  0.4582  0.3005
   58MPD2    C4  888   2.431   0.298  13.494  0.2645 -0.4863  0.0686
   58MPD2    C5  889   2.331   0.259  13.580  0.2130 -0.4732  0.3424
   58MPD2     H  890   2.366   0.622  13.465  0.5850 -0.2542 -0.6991
   58MPD2    H1  891   2.505   0.223  13.469 -0.3882 -0.7104 -1.2014
   58MPD2    H2  892   2.163   0.312  13.680  1.6154 -1.5541  0.2658
   58MPD2    H3  893   2.335   0.160  13.625  0.4201 -0.4902  0.2890
   58MPD2     N  894   2.575   0.458  13.401 -0.0868  0.4954 -0.5566
   58MPD2    H5  895   2.647   0.387  13.407 -0.5716 -0.1186 -1.9119
   58MPD2    N1  896   2.154   0.576  13.602  0.0810 -0.4537  0.2732
   58MPD2    H7  897   2.157   0.665  13.553  0.5166 -0.7836 -0.2994
   59MPD2     C  898   0.022   0.545  13.135 -0.3976  0.2312 -0.0358
   59MPD2    C1  899   0.124   0.496  13.054 -0.4752 -0.5181  0.2383
   59MPD2    C2  900   0.253   0.506  13.092 -0.4329 -0.3174 -0.5366
   59MPD2    C3  901   0.288   0.538  13.224  0.5475 -0.2162  0.0623
   59MPD2    C4  902   0.188   0.556  13.317  0.5225  0.2186  0.2733
   59MPD2    C5  903   0.055   0.565  13.270  0.0163  0.4050  0.1959
   59MPD2     H  904   0.323   0.489  13.011  0.8035  0.1990  0.4258
   59MPD2    H1  905   0.204   0.561  13.424  1.5592  3.5496 -0.0281
   59MPD2    H2  906   4.647   0.551  13.092  0.6381 -0.0349 -2.4624
   59MPD2    H3  907   4.702   0.592  13.341 -0.8606  1.1122 -1.0247
   59MPD2     N  908   0.420   0.563  13.263 -0.3642  0.4910 -0.4002
   59MPD2    H5  909   0.439   0.592  13.359 -2.5061 -2.6979  1.0035
   59MPD2    N1  910   0.104   0.458  12.922  0.2727 -0.5907 -0.3234
   59MPD2    H7  911   0.178   0.447  12.853  1.1933  0.2613  0.5193
   60TCq2    C1  912   4.710   0.409  12.873  0.1686  0.0492 -0.6254
   60TCq2    O2  913   4.608   0.381  12.935  0.9671 -0.3403  0.1779
   60TCq2    C2  914   0.002   0.358  12.733 -0.5339  0.2041  0.5792
   60TCq2    C3  915   4.640   0.264  12.676 -0.9024 -0.0731 -0.0212
   60TCq2    C4  916   4.664   0.216  12.551 -0.0134  0.4093  0.4032
   60TCq2    C5  917   0.035   0.276  12.471  0.1828 -0.5995  0.0754
   60TCq2    C6  918   0.109   0.384  12.522 -0.6560  0.2479  0.7910
   60TCq2    C7  919   0.106   0.413  12.660 -0.5653 -0.1389  0.4603
   60TCq2    C8  920   0.204   0.454  12.433 -0.1258 -0.3030  0.2067
   60TCq2    O4  921   0.259   0.375  12.354 -0.0567  0.6471 -0.6186
   60TCq2    C9  922   4.586   0.115  12.493 -0.3148  0.5388 -0.2783
   60TCq2    O5  923   4.597   0.095  12.369  0.6504  0.2219  0.0013
   60TCq2    O6  924   4.483   0.071  12.547 -0.6806 -0.6961 -0.4520
   60TCq2    H2  925   4.559   0.224  12.735 -0.1866 -1.1341  0.2311
   60TCq2    H3  926   0.059   0.238  12.372  0.2560 -2.7088  0.8848
   60TCq2    H4  927   0.175   0.486  12.700  2.0295 -2.8924  1.0211
   61MPD2     C  928   4.666   3.019  15.745  0.2931 -0.2172  0.2879
   61MPD2    C1  929   4.628   2.905  15.684 -0.3025  0.1610 -0.0911
   61MPD2    C2  930   4.653   2.889  15.546 -0.0305 -0.4903  0.4262
   61MPD2    C3  931   4.716   2.986  15.475 -0.8077 -1.0014  0.6145
   61MPD2    C4  932   0.023   3.107  15.540 -0.5834  0.9738 -0.5434
   61MPD2    C5  933   0.008   3.115  15.674  0.3505  0.0094 -0.4239
   61MPD2     H  934   4.636   2.792  15.503 -0.2542 -0.1772 -0.1923
   61MPD2    H1  935   0.069   3.178  15.472  2.8052  0.1961  0.9332
   61MPD2    H2  936   4.656   3.037  15.852 -0.9161 -2.9979  0.6415
   61MPD2    H3  937   0.042   3.199  15.734  0.1716 -1.2657  1.4671
   61MPD2     N  938   0.034   2.977  15.338 -0.3085 -0.1099 -0.2494
   61MPD2    H5  939   0.076   3.059  15.295  2.7419 -0.5311  1.8989
   61MPD2    N1  940   4.554   2.809  15.749  0.2293  0.1140 -0.3696
   61MPD2    H7  941   4.540   2.732  15.684  0.2193 -0.4215  0.2660
   62TCq2    C1  942   4.519   2.790  15.881  0.0643 -0.4434 -0.0418
   62TCq2    O2  943   4.537   2.874  15.971  0.2756  0.0036  0.2291
   62TCq2    C2  944   4.432   2.674  15.889 -0.2773  0.1166  0.3309
   62TCq2    C3  945   4.435   2.587  15.997 -0.1401 -0.6551 -0.4003
   62TCq2    C4  946   4.355   2.477  15.999  0.7111  0.1415 -0.1526
   62TCq2    C5  947   4.266   2.454  15.895  0.4134 -0.2902 -1.0185
   62TCq2    C6  948   4.254   2.549  15.797 -0.2727 -0.3464  0.2951
   62TCq2    C7  949   4.328   2.661  15.795  0.0457  0.1991 -0.6386
   62TCq2    C8  950   4.167   2.535  15.676 -0.3198  0.6619 -0.8370
   62TCq2    O4  951   4.186   2.609  15.578  0.2117 -0.0815 -0.0645
   62TCq2    C9  952   4.370   2.387  16.110  0.1840 -0.4733  0.8768
   62TCq2    O5  953   4.270   2.308  16.145 -0.1745 -0.5700  0.0553
   62TCq2    O6  954   4.472   2.406  16.182  0.4093 -0.7231  0.5617
   62TCq2    H2  955   4.513   2.594  16.071 -0.5563 -2.7186  0.2262
   62TCq2    H3  956   4.216   2.358  15.896 -0.5191  0.2053 -0.2584
   62TCq2    H4  957   4.323   2.729  15.710 -0.0427  0.0581 -0.7458
   63TMC2    C1  958   4.337   1.927  10.970 -0.0242  0.1398 -0.4644
   63TMC2    C2  959   4.395   2.015  11.063 -0.8274  0.1655  0.5016
   63TMC2    C3  960   4.461   2.125  11.012 -0.0769 -0.0282  0.2840
   63TMC2    C4  961   4.351   1.961  10.835 -0.2778 -0.6740 -0.1861
   63TMC2    C5  962   4.410   2.076  10.800  0.4374  0.2318 -0.0769
   63TMC2    C6  963   4.467   2.162  10.884 -0.4155 -0.0837  0.0715
   63TMC2     C  964   4.222   1.836  11.011  0.3649 -0.3591 -0.2501
   63TMC2     O  965   4.210   1.801  11.126  0.2867  0.5703 -0.5213
   63TMC2     H  966   4.371   2.011  11.169 -0.8196 -2.9462  0.3902
   63TMC2    H1  967   4.330   1.880  10.765 -0.0155 -0.6372 -0.3069
   63TMC2    H2  968   4.534   2.241  10.852  0.1729 -0.6180 -0.0446
   63TMC2    C7  969   4.353   2.123  10.677  0.0212 -0.2030 -0.1607
   63TMC2    C8  970   4.539   2.208  11.100 -0.4264  0.0386  0.4092
   63TMC2    O1  971   4.299   2.035  10.612  0.7617 -0.2951  0.6175
   63TMC2    O2  972   4.566   2.328  11.085 -0.0641 -0.0034  0.5778
   63TMC2    O5  973   4.571   2.130  11.206  0.1622  0.2927 -0.0283
   63TMC2    H5  974   4.588   2.036  11.182 -0.7044 -0.1200  0.9385
   64MPD2     C  975   3.750   1.631  10.925 -0.3835  0.5297  0.0576
   64MPD2    C1  976   3.814   1.651  10.800 -0.0541 -0.5682 -0.7127
   64MPD2    C2  977   3.941   1.704  10.801 -0.8960  0.2393 -0.3447
   64MPD2    C3  978   4.007   1.735  10.914  0.2187  0.1610 -0.7321
   64MPD2    C4  979   3.941   1.721  11.034 -0.4848  0.2523 -0.0926
   64MPD2    C5  980   3.817   1.674  11.039 -1.3754 -0.1266  0.3944
   64MPD2     H  981   4.000   1.709  10.710 -0.4849 -0.3844 -0.1153
   64MPD2    H1  982   3.985   1.761  11.124  0.1347 -1.3464  0.3201
   64MPD2    H2  983   3.664   1.565  10.935  0.3057 -0.3407  0.1461
   64MPD2    H3  984   3.774   1.654  11.137 -3.2044  1.3138 -0.1081
   64MPD2     N  985   4.137   1.800  10.904 -0.3001 -0.1970 -0.2961
   64MPD2    H5  986   4.163   1.821  10.808 -1.0963  0.1842 -0.4253
   64MPD2    N1  987   3.773   1.599  10.673 -0.1368 -0.2726  0.3038
   64MPD2    H7  988   3.820   1.635  10.590 -0.9791 -0.7902 -0.4063
   65MPD2     C  989   0.087   1.698  15.966 -0.8269  1.0204  0.1928
   65MPD2    C1  990   0.034   1.679  15.838 -0.4847 -0.4083  0.4880
   65MPD2    C2  991   0.001   1.549  15.801  0.2998  0.4315 -0.0563
   65MPD2    C3  992   0.019   1.447  15.888  0.1167 -0.0864  0.4843
   65MPD2    C4  993   0.061   1.467  16.013 -0.1018  0.2543 -0.6451
   65MPD2    C5  994   0.100   1.590  16.048 -0.3994  0.3953  0.4499
   65MPD2     H  995   4.679   1.529  15.705  0.6795  0.6753 -0.2907
   65MPD2    H1  996   0.059   1.383  16.081 -1.0502  1.0093  0.2682
   65MPD2    H2  997   0.125   1.794  16.000  0.7421  0.7027 -0.6565
   65MPD2    H3  998   0.138   1.605  16.148 -4.6408 -1.7325  2.4166
   65MPD2     N  999   0.002   1.313  15.851 -0.6189  0.1288  0.3179
   65MPD2    H5 1000   0.037   1.244  15.918  3.3141  2.2712  0.4806
   65MPD2    N1 1001   0.018   1.782  15.745  0.4722 -0.0528 -0.5065
   65MPD2    H7 1002   4.706   1.753  15.655 -0.0441  1.4162 -0.7672
   66TCq2    C1 1003   0.035   1.916  15.764  0.1342 -0.2292 -0.3651
   66TCq2    O2 1004   0.053   1.982  15.864  0.0996 -0.4593 -0.1228
   66TCq2    C2 1005   0.014   1.990  15.642 -0.3002  0.6100  0.4379
   66TCq2    C3 1006   4.679   1.936  15.528  0.0755  0.0742  0.0887
   66TCq2    C4 1007   4.655   2.019  15.418  1.2523  0.6271  0.1578
   66TCq2    C5 1008   4.694   2.148  15.428  0.2215 -0.4291 -0.4307
   66TCq2    C6 1009   0.024   2.204  15.546 -0.5846 -0.2449 -0.8796
   66TCq2    C7 1010   0.047   2.125  15.653  0.2604  0.0694  0.3974
   66TCq2    C8 1011   0.083   2.334  15.538  0.5429  0.4723  0.2898
   66TCq2    O4 1012   0.083   2.383  15.428  0.0322  0.6261  0.4455
   66TCq2    C9 1013   4.592   1.962  15.300 -0.9002 -0.0432  0.8631
   66TCq2    O5 1014   4.558   2.036  15.202 -0.4394 -0.4674 -0.1827
   66TCq2    O6 1015   4.614   1.838  15.293 -0.0067 -0.0546 -0.3259
   66TCq2    H2 1016   4.644   1.834  15.514 -1.9566  0.9594 -1.4554
   66TCq2    H3 1017   4.675   2.207  15.339  0.0237  0.8762  0.4765
   66TCq2    H4 1018   0.080   2.170  15.746  0.7064  0.2651  0.1405
   67MPD2     C 1019   0.271   0.976  14.057  0.1635 -0.2777  0.7369
   67MPD2    C1 1020   0.203   1.052  14.145  0.3826 -0.3995  0.0792
   67MPD2    C2 1021   0.068   1.033  14.150 -0.0700 -0.2294  0.8380
   67MPD2    C3 1022   4.719   0.965  14.054  0.4079  0.8109  0.1710
   67MPD2    C4 1023   0.068   0.892  13.965  0.7156  0.6201  0.3496
   67MPD2    C5 1024   0.203   0.905  13.959  0.1723  0.4014 -0.0074
   67MPD2     H 1025   0.014   1.097  14.218  1.1840 -1.2590  2.8001
   67MPD2    H1 1026   0.022   0.831  13.888  1.6734  2.1146 -1.4041
   67MPD2    H2 1027   0.378   0.961  14.050 -0.1874 -2.2672 -0.6978
   67MPD2    H3 1028   0.251   0.854  13.876 -3.1148 -0.4648 -1.3967
   67MPD2     N 1029   4.584   0.963  14.049  0.0825  0.5120  0.3601
   67MPD2    H5 1030   4.546   0.916  13.967  2.5366 -2.3425  0.8289
   67MPD2    N1 1031   0.265   1.138  14.243 -0.1749  0.4883  0.7499
   67MPD2    H7 1032   0.201   1.193  14.299  0.7249  0.4691  1.7948
   68TCq2    C1 1033   0.398   1.160  14.258 -0.6286  0.9841 -0.1821
   68TCq2    O2 1034   0.495   1.117  14.201 -0.0418  0.3342 -0.2856
   68TCq2    C2 1035   0.431   1.229  14.379 -0.2640 -0.5301 -0.1288
   68TCq2    C3 1036   0.363   1.335  14.430  0.1127 -0.0254 -0.3893
   68TCq2    C4 1037   0.393   1.383  14.555 -0.4065 -0.2888  0.1154
   68TCq2    C5 1038   0.490   1.321  14.633  0.2725 -0.3544 -0.2794
   68TCq2    C6 1039   0.549   1.205  14.581 -0.3140  0.0675 -0.6893
   68TCq2    C7 1040   0.526   1.165  14.453 -0.2604  0.3337 -1.1659
   68TCq2    C8 1041   0.604   1.106  14.671 -0.0926 -0.7100 -0.2341
   68TCq2    O4 1042   0.663   1.006  14.630 -0.2976  0.1122 -0.1980
   68TCq2    C9 1043   0.311   1.491  14.619 -0.2965  0.4483 -0.8181
   68TCq2    O5 1044   0.320   1.502  14.743  0.0351 -0.4086  0.6804
   68TCq2    O6 1045   0.245   1.574  14.549 -0.3085 -0.1314  0.1555
   68TCq2    H2 1046   0.299   1.387  14.360 -1.0193 -0.7518  0.1054
   68TCq2    H3 1047   0.506   1.366  14.730  1.0324  0.6594 -0.8715
   68TCq2    H4 1048   0.561   1.071  14.413  0.9582  0.4425 -0.3713
   69TMC2    C1 1049   2.430   2.080  12.318 -0.5923 -0.5662 -0.0075
   69TMC2    C2 1050   2.332   2.151  12.252 -0.0544 -0.1934  0.2051
   69TMC2    C3 1051   2.365   2.191  12.127  0.9323  0.3592 -0.3457
   69TMC2    C4 1052   2.546   2.042  12.256 -0.3314 -0.9944 -0.0947
   69TMC2    C5 1053   2.563   2.078  12.126  0.2975  0.2677 -0.2005
   69TMC2    C6 1054   2.481   2.164  12.059 -0.4699  0.0751 -0.5725
   69TMC2     C 1055   2.407   2.078  12.463 -0.1076  0.4308  0.9218
   69TMC2     O 1056   2.292   2.076  12.506 -0.6403 -0.1666  0.6487
   69TMC2     H 1057   2.235   2.179  12.290  1.4311  0.7869  3.2919
   69TMC2    H1 1058   2.628   1.998  12.310  0.1924 -0.3274 -0.3481
   69TMC2    H2 1059   2.508   2.219  11.970 -0.2445  1.6895  0.4914
   69TMC2    C7 1060   2.653   2.007  12.036  0.5596 -0.3360  0.4185
   69TMC2    C8 1061   2.261   2.248  12.047 -0.1632  0.4019 -0.3200
   69TMC2    O1 1062   2.758   1.966  12.085 -0.4403 -0.0724 -0.0391
   69TMC2    O2 1063   2.276   2.242  11.927 -0.4963  0.1532 -0.0940
   69TMC2    O5 1064   2.243   2.367  12.114  0.3162  0.2244 -0.1565
   69TMC2    H5 1065   2.298   2.381  12.194 -1.4148  1.1709  0.8647
   70MPD2     C 1066   2.682   2.080  12.711  0.5125  1.3574 -0.0397
   70MPD2    C1 1067   2.550   2.091  12.664  0.0836  0.9860 -0.1549
   70MPD2    C2 1068   2.451   2.076  12.759 -0.1671  0.0914  0.8673
   70MPD2    C3 1069   2.482   2.050  12.894  0.0904  0.2540 -0.3052
   70MPD2    C4 1070   2.610   2.042  12.929 -0.2824 -0.2395  0.2785
   70MPD2    C5 1071   2.720   2.057  12.840  0.2477 -0.0719  0.1386
   70MPD2     H 1072   2.345   2.075  12.735 -0.4800  1.0754  2.1816
   70MPD2    H1 1073   2.643   2.031  13.032  0.8228 -2.9077 -0.3669
   70MPD2    H2 1074   2.764   2.090  12.641  2.0172 -1.1998  1.3318
   70MPD2    H3 1075   2.823   2.036  12.868  1.0956  0.7687 -2.4378
   70MPD2     N 1076   2.386   2.044  12.995 -0.3585 -0.8003  0.3389
   70MPD2    H5 1077   2.410   2.011  13.088 -2.1182  0.6325  1.2893
   70MPD2    N1 1078   2.527   2.095  12.523  0.2386 -0.0689 -0.7175
   70MPD2    H7 1079   2.600   2.100  12.452  0.2473 -2.8113 -0.8963
   71TMC2    C1 1080   0.288   2.443   1.133 -1.0024 -0.6412 -0.8529
   71TMC2    C2 1081   0.412   2.386   1.146 -0.2228  0.5715  0.3283
   71TMC2    C3 1082   0.454   2.355   1.275  0.7607  0.0361 -0.7190
   71TMC2    C4 1083   0.206   2.454   1.237 -0.5251 -0.1555 -0.3087
   71TMC2    C5 1084   0.248   2.411   1.360 -0.6716  0.3500  0.0455
   71TMC2    C6 1085   0.373   2.359   1.384 -0.2555 -0.1053 -0.0614
   71TMC2     C 1086   0.244   2.509   1.005 -0.0203 -0.2976 -0.1544
   71TMC2     O 1087   0.173   2.608   1.016 -0.0957  0.4593 -0.6500
   71TMC2     H 1088   0.480   2.380   1.062  0.4968 -1.1393  1.0403
   71TMC2    H1 1089   0.111   2.503   1.221  0.9319  2.8129  0.0086
   71TMC2    H2 1090   0.402   2.325   1.483  0.5309  0.7130 -0.0087
   71TMC2    C7 1091   0.178   2.457   1.480  0.4372  0.1725 -0.4203
   71TMC2    C8 1092   0.571   2.266   1.268  0.5733 -0.1466  0.2449
   71TMC2    O1 1093   0.235   2.457   1.588 -0.8855 -0.0977 -0.2256
   71TMC2    O2 1094   0.581   2.171   1.341  0.2433 -0.0723  0.5379
   71TMC2    O5 1095   0.668   2.333   1.207  0.3783 -0.2325 -0.1490
   71TMC2    H5 1096   0.646   2.424   1.177  2.0801 -0.1680 -1.2231
   72MPD2     C 1097   0.245   2.490   0.481  0.9025  1.1702  0.1968
   72MPD2    C1 1098   0.235   2.603   0.571 -0.0650 -0.1382  0.5579
   72MPD2    C2 1099   0.231   2.580   0.707 -0.6293  0.3066 -0.6207
   72MPD2    C3 1100   0.249   2.453   0.758 -0.1177  0.4147 -0.6209
   72MPD2    C4 1101   0.263   2.344   0.676 -0.1985  0.3955  0.1912
   72MPD2    C5 1102   0.260   2.365   0.541  0.3996 -0.5901 -0.4796
   72MPD2     H 1103   0.224   2.670   0.767 -0.7918  0.1626 -0.4247
   72MPD2    H1 1104   0.274   2.245   0.718  1.3279  0.1892 -0.7284
   72MPD2    H2 1105   0.251   2.488   0.373 -1.7896  0.8072  0.0619
   72MPD2    H3 1106   0.255   2.273   0.484  0.4293 -0.7184 -0.2773
   72MPD2     N 1107   0.271   2.431   0.895 -0.0381 -0.3271  0.2845
   72MPD2    H5 1108   0.303   2.336   0.914  0.9649 -0.6256 -2.7651
   72MPD2    N1 1109   0.235   2.741   0.532  0.0069 -0.0271  0.1085
   72MPD2    H7 1110   0.211   2.804   0.608  2.3606  0.2574  0.6296
   73TMC2    C1 1111   4.191   4.473  13.805 -0.4597  0.8717 -0.1807
   73TMC2    C2 1112   4.119   4.562  13.877 -0.4706 -0.1522  0.4551
   73TMC2    C3 1113   4.157   4.591  14.005  0.0099  0.5316 -0.5190
   73TMC2    C4 1114   4.294   4.407  13.867 -0.1323 -0.5450  0.2048
   73TMC2    C5 1115   4.325   4.428  13.999 -0.0917 -0.0469  0.4710
   73TMC2    C6 1116   4.255   4.521  14.072  0.1401 -1.3985 -0.6870
   73TMC2     C 1117   4.232   4.511  13.670 -0.0972 -0.3927  0.7760
   73TMC2     O 1118   4.354   4.526  13.646  0.0831  0.3589 -0.5093
   73TMC2     H 1119   4.027   4.596  13.830 -0.9176 -0.6682  0.9472
   73TMC2    H1 1120   4.359   4.344  13.808  0.1514  0.2513 -0.3410
   73TMC2    H2 1121   4.259   4.520  14.180 -2.3716  1.4803 -0.5700
   73TMC2    C7 1122   4.466   4.454  14.016 -0.0500  0.1347  0.4382
   73TMC2    C8 1123   4.045   4.626  14.099  0.2483  0.4808  0.1241
   73TMC2    O1 1124   4.513   4.452  14.128  0.1531  0.1019 -0.0426
   73TMC2    O2 1125   4.009   4.543  14.183 -0.6879  1.0491 -0.4355
   73TMC2    O5 1126   3.964   4.707  14.026 -0.3747 -0.4194 -0.3142
   73TMC2    H5 1127   4.018   0.036  13.964 -0.7517 -0.3152 -0.5524
   74MPD2     C 1128   4.143   0.159  13.317  0.0343  0.1080  0.5218
   74MPD2    C1 1129   4.260   0.113  13.378 -0.6100  0.1357 -0.1836
   74MPD2    C2 1130   4.252   0.001  13.458  0.9634  1.5431  0.9363
   74MPD2    C3 1131   4.134   4.670  13.493  0.5021  0.0705  0.2474
   74MPD2    C4 1132   4.017   4.721  13.442  0.1459 -0.3040 -0.3652
   74MPD2    C5 1133   4.024   0.093  13.341  0.1975  0.7425 -0.1977
   74MPD2     H 1134   4.348   4.684  13.484  1.6318  1.6573 -1.3375
   74MPD2    H1 1135   3.924   4.665  13.449 -0.8754  1.4156 -0.1160
   74MPD2    H2 1136   4.150   0.248  13.256  0.8197 -0.2007  0.1552
   74MPD2    H3 1137   3.940   0.131  13.283  2.2290  2.0695 -2.2463
   74MPD2     N 1138   4.127   4.568  13.600  0.0879  0.7358 -0.1238
   74MPD2    H5 1139   4.035   4.540  13.634  1.0000 -2.4348 -0.2382
   74MPD2    N1 1140   4.386   0.175  13.347 -0.0565 -0.4660  0.2594
   74MPD2    H7 1141   4.381   0.231  13.262  1.5741 -0.5884  0.0984
   75TCq2    C1 1142   4.495   1.003  14.144  0.4626  0.0087  0.5818
   75TCq2    O2 1143   4.514   1.017  14.264  0.7282  0.2842  0.2074
   75TCq2    C2 1144   4.353   0.969  14.112  0.7717 -1.1745 -0.1069
   75TCq2    C3 1145   4.263   0.952  14.213  0.3961  0.4374  0.9797
   75TCq2    C4 1146   4.134   0.936  14.177  0.2287  0.2600  0.2995
   75TCq2    C5 1147   4.095   0.916  14.048  0.4753  0.0484  0.6541
   75TCq2    C6 1148   4.187   0.952  13.955 -0.1301  0.3085  0.0720
   75TCq2    C7 1149   4.313   0.990  13.983  0.6177 -0.5494  0.1576
   75TCq2    C8 1150   4.157   0.978  13.814 -0.2900  0.2887  0.0583
   75TCq2    O4 1151   4.220   0.909  13.736 -0.0001  0.9140  0.1276
   75TCq2    C9 1152   4.042   0.901  14.276  0.3414 -0.5815  0.0999
   75TCq2    O5 1153   4.084   0.897  14.393  0.7559 -0.3252 -0.8920
   75TCq2    O6 1154   3.933   0.858  14.235  0.5751  0.8639 -0.3073
   75TCq2    H2 1155   4.293   0.944  14.317  2.5903  0.9885  0.4039
   75TCq2    H3 1156   3.991   0.895  14.025  0.3905 -0.3764  1.4192
   75TCq2    H4 1157   4.375   1.016  13.898 -0.9901 -1.1286 -1.1857
   76MPD2     C 1158   3.310   1.061  11.632  0.0563  0.4311 -0.7217
   76MPD2    C1 1159   3.397   1.164  11.650  0.1240 -0.3269 -0.4965
   76MPD2    C2 1160   3.521   1.151  11.710 -0.2911  0.2619 -0.3834
   76MPD2    C3 1161   3.558   1.028  11.755  0.2203  0.4957  0.1406
   76MPD2    C4 1162   3.473   0.925  11.738  0.3958  0.0167  0.0054
   76MPD2    C5 1163   3.348   0.943  11.687 -0.0621 -0.8166  0.5241
   76MPD2     H 1164   3.573   1.242  11.737  0.8494 -0.9590  1.5284
   76MPD2    H1 1165   3.507   0.833  11.784  4.1141  0.2138 -2.3445
   76MPD2    H2 1166   3.213   1.062  11.583  1.4233  2.6154 -3.3374
   76MPD2    H3 1167   3.283   0.855  11.692  2.2289 -2.6737 -2.5914
   76MPD2     N 1168   3.679   1.012  11.821 -0.2891  0.0715 -0.2135
   76MPD2    H5 1169   3.698   0.916  11.849 -1.0272 -0.5126 -1.7342
   76MPD2    N1 1170   3.357   1.295  11.612  0.8132  0.2881 -0.4370
   76MPD2    H7 1171   3.421   1.374  11.618  1.0126  0.0487  0.7251
   77TCq2    C1 1172   3.769   1.111  11.866 -0.3267 -0.0165  0.5024
   77TCq2    O2 1173   3.758   1.232  11.856 -0.9077 -0.0090 -0.2000
   77TCq2    C2 1174   3.884   1.054  11.941  0.6151 -0.3249  0.0244
   77TCq2    C3 1175   3.887   0.917  11.961  1.2896  0.1048  1.3151
   77TCq2    C4 1176   3.998   0.862  12.032  0.0327 -0.2665  0.8117
   77TCq2    C5 1177   4.091   0.947  12.083  0.1668  0.2226  0.1311
   77TCq2    C6 1178   4.069   1.081  12.071  0.1497  0.1370  0.1302
   77TCq2    C7 1179   3.974   1.141  11.994  0.2546 -0.4773 -0.2717
   77TCq2    C8 1180   4.161   1.155  12.145 -0.2241  0.2121 -0.5408
   77TCq2    O4 1181   4.273   1.112  12.151 -0.1124 -0.1442 -0.0965
   77TCq2    C9 1182   4.010   0.725  12.056  0.3719  0.1686 -0.1391
   77TCq2    O5 1183   3.930   0.658  11.991  0.0202  0.4209 -0.0421
   77TCq2    O6 1184   4.068   0.693  12.160  0.2898  0.6686  0.1388
   77TCq2    H2 1185   3.811   0.841  11.943 -0.1063  2.3742 -2.3597
   77TCq2    H3 1186   4.175   0.898  12.130  2.9766  4.2433 -0.7426
   77TCq2    H4 1187   3.977   1.247  11.971 -0.3876 -0.8091 -1.8449
   78MPD1     C 1188   1.060   1.004   2.252 -0.3604 -0.0771 -0.2035
   78MPD1    C1 1189   1.154   0.906   2.237  0.6110 -0.5068  0.2434
   78MPD1    C2 1190   1.286   0.944   2.236  0.4949  0.3590 -0.2600
   78MPD1    C3 1191   1.328   1.073   2.225 -0.1721  0.2167 -0.1617
   78MPD1    C4 1192   1.235   1.169   2.229  0.3444 -0.8906  0.2768
   78MPD1    C5 1193   1.109   1.128   2.257  0.0139 -0.0739  1.0702
   78MPD1     H 1194   1.364   0.869   2.245  0.1632 -0.0585 -0.9238
   78MPD1    H1 1195   1.248   1.277   2.234 -2.1098 -0.5946  0.1022
   78MPD1    H2 1196   0.956   0.976   2.264 -0.3554  0.2261  0.4888
   78MPD1    H3 1197   1.035   1.203   2.279  0.0552  0.5219 -0.7912
   78MPD1     N 1198   1.465   1.114   2.227  0.2717  0.0967 -0.2272
   78MPD1    H5 1199   1.479   1.214   2.239 -0.3299  0.0795  0.5814
   78MPD1    N1 1200   1.115   0.773   2.256 -0.6792  0.3311  0.9656
   78MPD1    H6 1201   1.184   0.710   2.216 -0.0593 -0.6017  3.5388
   78MPD1    H7 1202   1.028   0.764   2.204 -0.9320  1.5962  1.1708
   79TCq2    C1 1203   1.572   1.027   2.239  0.0034 -0.8745 -0.4298
   79TCq2    O2 1204   1.577   0.908   2.227 -0.1544  0.4198 -0.3071
   79TCq2    C2 1205   1.694   1.099   2.256 -0.7978  0.1272 -0.2779
   79TCq2    C3 1206   1.799   1.033   2.316 -0.4872 -0.6657 -0.5042
   79TCq2    C4 1207   1.912   1.103   2.345  0.7580 -0.3316  0.1222
   79TCq2    C5 1208   1.928   1.231   2.301 -0.5966  0.7982 -0.8197
   79TCq2    C6 1209   1.825   1.288   2.242  0.6452 -0.3944 -0.4838
   79TCq2    C7 1210   1.706   1.231   2.220 -0.3954 -0.1235 -0.5194
   79TCq2    C8 1211   1.831   1.428   2.207  0.4811  0.6846 -0.2905
   79TCq2    O4 1212   1.735   1.500   2.210  0.3665 -0.1368  0.9536
   79TCq2    C9 1213   2.014   1.048   2.429  0.7328 -0.2599  0.1929
   79TCq2    O5 1214   2.094   1.130   2.478 -0.4809 -0.1758  0.3022
   79TCq2    O6 1215   2.012   0.920   2.438 -0.0701 -0.0854 -0.2678
   79TCq2    H2 1216   1.783   0.935   2.361  4.6600 -0.6568  1.3645
   79TCq2    H3 1217   2.012   1.288   2.340  1.3144 -0.0822 -3.6388
   79TCq2    H4 1218   1.629   1.288   2.170  0.1046 -0.4189 -1.6290
   80MPD2     C 1219   2.738   1.339  12.606 -0.1994 -0.0328  0.6886
   80MPD2    C1 1220   2.626   1.345  12.525 -0.2163  0.1398  0.5775
   80MPD2    C2 1221   2.508   1.365  12.590 -0.2979  0.1785  1.0079
   80MPD2    C3 1222   2.497   1.370  12.727  0.2073  0.1797 -0.5041
   80MPD2    C4 1223   2.615   1.373  12.799 -0.2298 -0.0059 -0.3834
   80MPD2    C5 1224   2.738   1.353  12.737  0.3335  0.4595  0.2505
   80MPD2     H 1225   2.419   1.362  12.528  0.4195 -0.3349  0.0091
   80MPD2    H1 1226   2.607   1.391  12.906  1.8970  0.5953 -0.3314
   80MPD2    H2 1227   2.835   1.330  12.559  0.1796 -1.1520  1.6875
   80MPD2    H3 1228   2.835   1.377  12.779 -0.0320  2.4708 -0.0257
   80MPD2     N 1229   2.381   1.377  12.813  0.0700 -0.5984  0.2443
   80MPD2    H5 1230   2.398   1.375  12.913  0.6213  0.1340  0.1679
   80MPD2    N1 1231   2.626   1.342  12.381 -0.2786  0.8905 -0.7109
   80MPD2    H7 1232   2.538   1.364  12.335 -2.3526  0.7726  3.2390
   81TCq2    C1 1233   2.730   1.295  12.301  0.6456 -0.2982 -0.3403
   81TCq2    O2 1234   2.848   1.284  12.335 -0.6161 -0.3562 -0.0143
   81TCq2    C2 1235   2.693   1.255  12.167  0.4167  0.4844 -0.6133
   81TCq2    C3 1236   2.790   1.260  12.075  0.3495 -0.5367  0.1156
   81TCq2    C4 1237   2.759   1.236  11.946 -0.5481  0.0370  0.3700
   81TCq2    C5 1238   2.637   1.190  11.902 -0.1859  0.3135  0.5459
   81TCq2    C6 1239   2.545   1.169  11.995 -0.0467 -0.0799  0.4297
   81TCq2    C7 1240   2.566   1.202  12.129 -0.2085 -0.7069  0.0731
   81TCq2    C8 1241   2.423   1.102  11.961  0.1455  0.7364 -0.6849
   81TCq2    O4 1242   2.370   1.114  11.852 -0.2496 -0.3953 -0.1927
   81TCq2    C9 1243   2.866   1.256  11.852  0.5750 -0.4201  1.0080
   81TCq2    O5 1244   2.970   1.320  11.899 -0.1364 -0.0343 -0.1831
   81TCq2    O6 1245   2.867   1.192  11.739 -0.3727 -0.3800  0.7292
   81TCq2    H2 1246   2.889   1.296  12.103 -0.2026  0.9234  0.2015
   81TCq2    H3 1247   2.613   1.178  11.797  2.2393  2.7451 -0.2584
   81TCq2    H4 1248   2.489   1.190  12.204 -0.0956 -0.7961  0.1745
   82MPD2     C 1249   0.080   0.588  10.498  0.0950 -0.1038  0.0782
   82MPD2    C1 1250   0.193   0.613  10.436  0.1176 -0.2454 -1.2049
   82MPD2    C2 1251   0.307   0.571  10.500  0.2458  0.9831 -0.3414
   82MPD2    C3 1252   0.309   0.502  10.626  0.0172 -0.2074  0.4995
   82MPD2    C4 1253   0.188   0.469  10.677  0.1819 -0.1487  0.0440
   82MPD2    C5 1254   0.077   0.513  10.612 -0.2039  0.8083  0.2602
   82MPD2     H 1255   0.402   0.588  10.450  0.1735  1.2834 -0.3764
   82MPD2    H1 1256   0.183   0.431  10.779 -0.5503 -0.0855  0.0334
   82MPD2    H2 1257   4.707   0.626  10.470  0.2971  0.1021 -0.3471
   82MPD2    H3 1258   4.707   0.497  10.664 -0.1616 -0.0679  0.0680
   82MPD2     N 1259   0.425   0.458  10.690 -0.5732  0.0301  0.0486
   82MPD2    H5 1260   0.409   0.400  10.772  0.9896 -0.3050  0.1118
   82MPD2    N1 1261   0.190   0.696  10.321 -0.1063 -0.0397  0.1601
   82MPD2    H7 1262   0.096   0.723  10.296  0.0590 -0.6496 -1.1373
   83TCq2    C1 1263   0.549   0.494  10.659 -0.2448  0.1275 -0.0997
   83TCq2    O2 1264   0.587   0.589  10.591  0.6238 -0.2332  0.2884
   83TCq2    C2 1265   0.651   0.430  10.730  0.1392  0.0018  0.3015
   83TCq2    C3 1266   0.772   0.497  10.746 -0.0411  0.4845  0.3249
   83TCq2    C4 1267   0.868   0.435  10.825  0.0573 -0.1705 -0.2996
   83TCq2    C5 1268   0.844   0.314  10.875 -0.3971 -0.2489  0.2730
   83TCq2    C6 1269   0.732   0.240  10.833  0.3393  0.0375 -0.5341
   83TCq2    C7 1270   0.638   0.299  10.758 -0.6317  0.3127 -0.1184
   83TCq2    C8 1271   0.712   0.104  10.892 -0.4330 -0.0068  0.3358
   83TCq2    O4 1272   0.771   0.086  10.999 -0.5311  0.1821 -0.5267
   83TCq2    C9 1273   0.990   0.504  10.839 -0.7219 -0.6595  0.5244
   83TCq2    O5 1274   1.093   0.452  10.894 -0.0099  0.0403 -0.6143
   83TCq2    O6 1275   0.996   0.622  10.788  0.3647 -0.4476  1.1754
   83TCq2    H2 1276   0.790   0.596  10.707 -0.3644  0.8489  1.1062
   83TCq2    H3 1277   0.922   0.275  10.940 -2.1767  0.4481  2.7781
   83TCq2    H4 1278   0.548   0.243  10.734 -0.2838 -1.1314  1.9640
   84TCq2    C1 1279   1.706   3.787  10.664  0.2783  0.5549 -0.6460
   84TCq2    O2 1280   1.662   3.787  10.552  0.1605 -0.1819 -0.7951
   84TCq2    C2 1281   1.776   3.897  10.719  0.1953 -0.5254 -0.0446
   84TCq2    C3 1282   1.847   3.966  10.628  0.1475  0.2371 -0.0495
   84TCq2    C4 1283   1.938   4.060  10.668  0.2320  0.8514  0.2008
   84TCq2    C5 1284   1.971   4.079  10.798 -0.3446  0.2752  0.9524
   84TCq2    C6 1285   1.889   4.016  10.891 -0.2472 -0.4099  0.0151
   84TCq2    C7 1286   1.795   3.921  10.851 -0.9471 -0.0569  0.5292
   84TCq2    C8 1287   1.915   4.022  11.041  0.5782  0.0372  0.3413
   84TCq2    O4 1288   1.847   3.947  11.114 -0.0233  0.8561  0.2667
   84TCq2    C9 1289   2.020   4.121  10.565  0.3489  0.2765 -0.9119
   84TCq2    O5 1290   1.995   4.115  10.443  0.2682  0.0977 -0.5212
   84TCq2    O6 1291   2.102   4.209  10.603 -0.1205  0.0086 -0.8351
   84TCq2    H2 1292   1.837   3.953  10.521 -3.6794  1.0853  0.1882
   84TCq2    H3 1293   2.042   4.155  10.828 -0.9936  1.9409 -1.7678
   84TCq2    H4 1294   1.729   3.870  10.920  1.6032 -1.0397  2.2424
   85MPD2     C 1295   1.762   2.534  16.388  0.1886 -0.3092  0.3375
   85MPD2    C1 1296   1.800   2.455  16.282 -0.5272 -0.3509 -0.2295
   85MPD2    C2 1297   1.895   2.510  16.195 -0.2509 -0.1354  0.0256
   85MPD2    C3 1298   1.946   2.637  16.203  0.0585  0.4628  0.3505
   85MPD2    C4 1299   1.912   2.707  16.313 -1.0455  0.3427  0.0381
   85MPD2    C5 1300   1.805   2.660  16.392  0.3773 -0.1711  0.0622
   85MPD2     H 1301   1.926   2.443  16.115  2.3221 -1.6156  2.2849
   85MPD2    H1 1302   1.942   2.811  16.320 -0.8852  0.5897 -4.2536
   85MPD2    H2 1303   1.696   2.501  16.469 -0.1215  0.7916  0.5284
   85MPD2    H3 1304   1.763   2.727  16.466 -0.3168  0.6226 -1.0677
   85MPD2     N 1305   2.051   2.669  16.117 -0.1587 -0.0398 -0.1300
   85MPD2    H5 1306   2.065   2.615  16.033 -1.2453  0.0062 -0.3396
   85MPD2    N1 1307   1.769   2.317  16.276 -0.1591  0.5391  0.7220
   85MPD2    H7 1308   1.806   2.256  16.203  2.2477  1.0179  1.5258
   86TCq2    C1 1309   2.137   2.778  16.141 -0.5375  0.5778  0.4140
   86TCq2    O2 1310   2.156   2.836  16.245  0.2502  0.0861  0.4234
   86TCq2    C2 1311   2.227   2.821  16.030 -1.0323  0.2055  0.9738
   86TCq2    C3 1312   2.160   2.831  15.900 -0.2199  0.2480  0.1665
   86TCq2    C4 1313   2.215   2.902  15.801 -0.2359 -0.1777  0.4434
   86TCq2    C5 1314   2.339   2.960  15.822  0.1311  0.6316  0.5360
   86TCq2    C6 1315   2.400   2.948  15.945 -0.4542 -0.1642  0.2036
   86TCq2    C7 1316   2.338   2.896  16.055 -0.1506  0.3487 -0.2568
   86TCq2    C8 1317   2.546   2.962  15.950  0.0712 -0.0823  0.1961
   86TCq2    O4 1318   2.596   2.897  16.043  0.0307  0.2822  0.8072
   86TCq2    C9 1319   2.169   2.888  15.669  0.2405 -0.3962  0.1502
   86TCq2    O5 1320   2.254   2.886  15.578 -0.9761  0.3866  0.5888
   86TCq2    O6 1321   2.056   2.824  15.659  0.1042 -0.3517  0.3417
   86TCq2    H2 1322   2.079   2.763  15.873  0.1341 -0.6791  1.4087
   86TCq2    H3 1323   2.386   2.999  15.732  0.6963 -0.4287  0.3640
   86TCq2    H4 1324   2.390   2.896  16.150 -1.1482 -0.3651  0.2931
   87MPD2     C 1325   4.648   1.806   1.072  0.3275  0.3826  0.3451
   87MPD2    C1 1326   4.579   1.701   1.009  0.2828 -0.6202  0.6358
   87MPD2    C2 1327   4.436   1.712   0.995 -0.0228 -0.3270 -0.1363
   87MPD2    C3 1328   4.375   1.824   1.049  0.5333 -0.1073  0.2014
   87MPD2    C4 1329   4.456   1.912   1.126  0.1793 -0.3303 -0.8234
   87MPD2    C5 1330   4.593   1.913   1.137  0.4297  0.0428  0.1707
   87MPD2     H 1331   4.389   1.652   0.918 -0.6450 -3.0202  2.3102
   87MPD2    H1 1332   4.408   1.993   1.180  1.1334  1.8089 -3.2078
   87MPD2    H2 1333   0.032   1.809   1.066  0.4058 -0.7578  1.1344
   87MPD2    H3 1334   4.650   1.991   1.184  3.3807  0.2325 -3.7022
   87MPD2     N 1335   4.232   1.851   1.050 -0.0773  0.2611 -0.3475
   87MPD2    H5 1336   4.205   1.943   1.082 -0.5483  0.2161 -0.6171
   87MPD2    N1 1337   4.654   1.595   0.961  0.2294  0.0216  0.0681
   87MPD2    H7 1338   0.026   1.609   0.936  0.8589 -0.1864  2.3897
   88TCq2    C1 1339   4.598   1.477   0.931 -0.1306  0.0840  0.4218
   88TCq2    O2 1340   4.495   1.435   0.988  0.0271  0.2815  0.2119
   88TCq2    C2 1341   4.687   1.384   0.863  0.1627  0.2003  0.1660
   88TCq2    C3 1342   4.662   1.248   0.874  0.0450  0.4025 -0.3919
   88TCq2    C4 1343   0.008   1.159   0.804  0.1585  0.4037  0.6268
   88TCq2    C5 1344   0.101   1.201   0.713  0.0950  0.1488 -0.0071
   88TCq2    C6 1345   0.131   1.332   0.714 -0.5515  0.6275 -0.0792
   88TCq2    C7 1346   0.068   1.428   0.783 -0.3766 -0.1298  0.1966
   88TCq2    C8 1347   0.181   1.376   0.586  0.5738 -0.0598 -0.1926
   88TCq2    O4 1348   0.198   1.498   0.564 -0.0459 -0.2408  0.2803
   88TCq2    C9 1349   4.709   1.016   0.814 -0.0875  0.0911 -0.5680
   88TCq2    O5 1350   4.613   0.985   0.886 -0.7791 -0.4720  0.6241
   88TCq2    O6 1351   0.046   0.938   0.742  0.0143  0.3395  0.2027
   88TCq2    H2 1352   4.578   1.223   0.937  0.5742  2.7586  1.2701
   88TCq2    H3 1353   0.164   1.126   0.669 -0.4701 -0.6827  0.6041
   88TCq2    H4 1354   0.091   1.534   0.774 -1.1985  0.0306 -0.0464
   89MPD2     C 1355   0.970   4.035   1.739 -0.6309 -0.6037 -0.0126
   89MPD2    C1 1356   0.873   4.080   1.820  0.4556 -0.1659  0.2777
   89MPD2    C2 1357   0.877   4.210   1.869  0.4627  0.3839 -0.4267
   89MPD2    C3 1358   0.982   4.292   1.827  0.0470 -0.9530 -0.4933
   89MPD2    C4 1359   1.089   4.241   1.744  0.6307 -0.0080  0.2095
   89MPD2    C5 1360   1.082   4.111   1.703  0.7327  0.5283 -0.7093
   89MPD2     H 1361   0.791   4.254   1.918  1.2091  1.0632  0.2829
   89MPD2    H1 1362   1.179   4.294   1.714  1.7372 -1.8210  0.3590
   89MPD2    H2 1363   0.973   3.931   1.710  2.2372 -0.8518  1.1940
   89MPD2    H3 1364   1.163   4.061   1.651 -0.0712 -0.5781 -0.9111
   89MPD2     N 1365   0.969   4.423   1.868  0.1722 -0.0190 -0.0361
   89MPD2    H5 1366   0.886   4.458   1.915  0.3725 -0.0918  0.3709
   89MPD2    N1 1367   0.755   3.999   1.854 -0.5125 -0.7189  0.1022
   89MPD2    H7 1368   0.686   4.053   1.906  1.3639  2.5950 -0.8369
   90TCq2    C1 1369   1.068   4.516   1.858  0.6974  0.2380  0.1822
   90TCq2    O2 1370   1.189   4.502   1.834  0.0090  0.1461  0.1939
   90TCq2    C2 1371   1.030   4.653   1.899 -0.4166 -0.4000  0.0377
   90TCq2    C3 1372   0.903   4.684   1.916 -0.9619 -0.4186 -0.7271
   90TCq2    C4 1373   0.881   0.084   1.962 -0.1147  0.7823  0.3421
   90TCq2    C5 1374   0.975   0.180   1.974 -0.1698 -0.2192 -0.5325
   90TCq2    C6 1375   1.102   0.147   1.949 -1.0128 -0.7319 -0.2487
   90TCq2    C7 1376   1.129   0.023   1.895 -0.2039 -0.5880 -0.6146
   90TCq2    C8 1377   1.211   0.240   1.960  0.0197 -0.0652  0.0711
   90TCq2    O4 1378   1.213   0.317   2.053 -0.0670  0.3019 -0.0050
   90TCq2    C9 1379   0.746   0.126   1.997 -0.0024 -0.5845 -0.5303
   90TCq2    O5 1380   0.724   0.239   2.047 -0.6963  0.2682 -0.4953
   90TCq2    O6 1381   0.646   0.053   1.972 -0.4300 -0.3727  0.1185
   90TCq2    H2 1382   0.815   4.620   1.916 -1.3481  0.1237  1.4240
   90TCq2    H3 1383   0.942   0.275   2.015  2.7346  0.0589  1.1672
   90TCq2    H4 1384   1.228   4.709   1.873 -0.6886 -1.3582 -1.4648
   91TMC2    C1 1385   2.653   3.713  16.816 -0.2365  0.0545 -1.2244
   91TMC2    C2 1386   2.723   3.812  16.748 -0.6533 -0.6759 -0.3411
   91TMC2    C3 1387   2.647   3.895  16.675  0.1994 -0.2360 -0.0091
   91TMC2    C4 1388   2.519   3.684  16.793 -0.5221  0.0646  0.3407
   91TMC2    C5 1389   2.453   3.758  16.699 -0.2220 -0.1188 -0.0318
   91TMC2    C6 1390   2.517   3.865  16.637  0.0642  0.5871 -0.6909
   91TMC2     C 1391   2.714   3.628  16.917 -0.5355 -0.2424  0.5721
   91TMC2     O 1392   2.656   3.531  16.959 -0.3874 -0.1065  0.1634
   91TMC2     H 1393   2.815   3.852  16.789 -1.4966 -0.1812  1.0669
   91TMC2    H1 1394   2.471   3.593  16.828 -0.8478  0.8993  2.1010
   91TMC2    H2 1395   2.452   3.931  16.580 -0.8696  0.2313 -0.0247
   91TMC2    C7 1396   2.340   3.685  16.632 -0.7732 -0.0007  0.2560
   91TMC2    C8 1397   2.717   3.974  16.586 -0.7638  0.3527  1.0817
   91TMC2    O1 1398   2.279   3.610  16.706 -0.3390  0.0739  0.0459
   91TMC2    O2 1399   2.830   3.958  16.541  0.1073  0.8726 -0.4557
   91TMC2    O5 1400   2.625   4.053  16.525 -0.0601 -0.1441  0.2785
   91TMC2    H5 1401   2.555   4.081  16.588 -0.1617 -1.3295  0.7070
   92MPD2     C 1402   2.936   3.448  17.015 -0.0487 -0.3722  0.3297
   92MPD2    C1 1403   2.945   3.583  16.984 -0.1625 -0.2958 -1.0508
   92MPD2    C2 1404   3.077   3.626  16.978  1.1212 -0.6385  0.0436
   92MPD2    C3 1405   3.186   3.554  17.025  0.4207 -0.2803 -0.1787
   92MPD2    C4 1406   3.165   3.424  17.063 -0.1473  0.7350 -0.6524
   92MPD2    C5 1407   3.042   3.369  17.061 -0.3465 -0.5089 -0.3059
   92MPD2     H 1408   3.101   3.722  16.933  2.1147  0.3349  2.6480
   92MPD2    H1 1409   3.245   3.357  17.091 -0.1893  0.8030 -0.3747
   92MPD2    H2 1410   2.843   3.395  16.999 -0.1055  0.1505 -1.0367
   92MPD2    H3 1411   3.034   3.263  17.084 -0.0906 -0.6099 -0.6830
   92MPD2     N 1412   3.312   3.610  17.019 -0.5306 -0.1556 -0.3323
   92MPD2    H5 1413   3.322   3.703  16.978 -1.5497  0.3168  0.5209
   92MPD2    N1 1414   2.843   3.668  16.934 -1.2416  0.3639 -0.4944
   92MPD2    H7 1415   2.870   3.762  16.906 -1.7259  0.9785  1.1120
   93MPD2     C 1416   4.241   3.333  13.797 -0.4461 -0.0793 -0.3971
   93MPD2    C1 1417   4.192   3.453  13.775 -0.2231  0.1318  0.6879
   93MPD2    C2 1418   4.062   3.462  13.731 -1.1545 -0.3310  0.4940
   93MPD2    C3 1419   3.986   3.350  13.693  0.0572 -0.5283 -0.1964
   93MPD2    C4 1420   4.044   3.222  13.705  1.0395  0.0076  0.6484
   93MPD2    C5 1421   4.172   3.220  13.753  0.2580  0.7408 -0.0346
   93MPD2     H 1422   4.025   3.562  13.718 -0.0424 -0.3734 -2.8950
   93MPD2    H1 1423   3.992   3.128  13.689 -1.8018  1.6572  0.0812
   93MPD2    H2 1424   4.336   3.313  13.847 -0.1611  1.2673 -0.3975
   93MPD2    H3 1425   4.211   3.120  13.768  1.1611  1.2387  1.0228
   93MPD2     N 1426   3.858   3.376  13.639 -0.2245 -0.2821  0.2413
   93MPD2    H5 1427   3.835   3.472  13.616  5.1435  0.5658 -1.5153
   93MPD2    N1 1428   4.263   3.569  13.808 -0.0104  0.4854  0.2339
   93MPD2    H7 1429   4.212   3.656  13.816  0.7288  0.7603  1.9035
   94TCq2    C1 1430   4.390   3.574  13.852 -0.8216  0.2284 -0.1751
   94TCq2    O2 1431   4.475   3.485  13.861  0.0295 -0.0700 -0.6397
   94TCq2    C2 1432   4.437   3.712  13.877  0.1265  0.5400  0.2012
   94TCq2    C3 1433   4.338   3.808  13.887 -0.1968  0.4324 -0.1525
   94TCq2    C4 1434   4.377   3.935  13.903 -0.6109 -0.7495  1.2664
   94TCq2    C5 1435   4.505   3.971  13.912  0.1986 -0.0851 -0.3060
   94TCq2    C6 1436   4.602   3.878  13.907  0.1824 -0.1454 -0.1102
   94TCq2    C7 1437   4.569   3.747  13.882  0.0321  0.3982  0.3219
   94TCq2    C8 1438   0.014   3.910  13.933 -0.1100 -0.6721  0.4104
   94TCq2    O4 1439   0.094   3.836  13.881 -0.5339  0.2929 -0.4239
   94TCq2    C9 1440   4.273   4.028  13.939 -1.1087 -0.1028  0.3545
   94TCq2    O5 1441   4.172   4.031  13.861  0.5930 -0.3758  0.2553
   94TCq2    O6 1442   4.305   4.118  14.023 -0.3865 -0.4230  0.2945
   94TCq2    H2 1443   4.232   3.789  13.905 -0.0292 -1.4172 -1.1590
   94TCq2    H3 1444   4.522   4.078  13.917  0.0024 -0.1505  2.1275
   94TCq2    H4 1445   4.647   3.672  13.883 -1.7345 -1.4473 -0.3853
   95TMC2    C1 1446   4.194   0.671  16.410  0.2667 -0.6230  0.1824
   95TMC2    C2 1447   4.204   0.550  16.467 -0.1128  0.1781 -0.9535
   95TMC2    C3 1448   4.212   0.547  16.603 -0.0786  0.0098  0.0555
   95TMC2    C4 1449   4.193   0.785  16.480 -0.2554  0.2874 -0.0827
   95TMC2    C5 1450   4.200   0.778  16.619  0.8798 -0.1486 -0.3123
   95TMC2    C6 1451   4.214   0.659  16.677 -0.7960 -0.0075 -0.2347
   95TMC2     C 1452   4.245   0.688  16.274 -0.3043 -0.0877  0.6422
   95TMC2     O 1453   4.277   0.801  16.243 -0.0647 -0.6316 -0.2241
   95TMC2     H 1454   4.214   0.452  16.423  2.6203 -0.1187  0.3112
   95TMC2    H1 1455   4.202   0.883  16.435 -0.8220  0.1259 -0.5501
   95TMC2    H2 1456   4.247   0.655  16.781 -1.0966 -0.3849 -0.1550
   95TMC2    C7 1457   4.208   0.903  16.688  0.4193 -0.4818 -0.2941
   95TMC2    C8 1458   4.234   0.417  16.670 -0.1263 -0.3460  0.3507
   95TMC2    O1 1459   4.251   1.002  16.630 -0.2695  0.2099 -0.3576
   95TMC2    O2 1460   4.275   0.413  16.782  0.4606 -0.0982 -0.3511
   95TMC2    O5 1461   4.126   0.341  16.628  0.1278  0.3006 -0.2150
   95TMC2    H5 1462   4.074   0.376  16.553  1.5058 -0.6479 -1.6050
   96MPD2     C 1463   4.330   0.557  15.801 -0.7859  0.1431 -0.6526
   96MPD2    C1 1464   4.383   0.658  15.877 -0.0486  0.5512  0.1434
   96MPD2    C2 1465   4.355   0.655  16.009 -0.3120 -0.0440 -0.1419
   96MPD2    C3 1466   4.282   0.553  16.069  0.7269 -0.0568  0.0160
   96MPD2    C4 1467   4.231   0.449  15.990 -0.0048  0.1001  0.8876
   96MPD2    C5 1468   4.256   0.454  15.857 -0.7246  0.0301  0.0167
   96MPD2     H 1469   4.374   0.752  16.054 -2.0827 -0.3825  1.3519
   96MPD2    H1 1470   4.185   0.362  16.034 -1.3291  0.3428 -0.0051
   96MPD2    H2 1471   4.347   0.541  15.695  2.0247 -2.4884  0.1958
   96MPD2    H3 1472   4.221   0.369  15.799 -0.0997  0.1518 -0.5325
   96MPD2     N 1473   4.238   0.574  16.201 -0.3519 -0.1503 -0.2221
   96MPD2    H5 1474   4.194   0.495  16.247  0.3736 -1.4210 -1.7354
   96MPD2    N1 1475   4.473   0.747  15.815 -0.3688  0.2931  0.2487
   96MPD2    H7 1476   4.500   0.723  15.720 -0.0652 -0.0164  0.4131
   97MPD2     C 1477   0.777   3.048   0.431 -1.6643  0.7072 -0.6567
   97MPD2    C1 1478   0.870   3.124   0.498 -0.9122 -0.1799 -0.1922
   97MPD2    C2 1479   0.981   3.163   0.425 -0.4381  0.1849 -0.9812
   97MPD2    C3 1480   0.988   3.141   0.287 -0.2343  0.0725  0.1169
   97MPD2    C4 1481   0.896   3.065   0.224 -0.1058 -0.1026 -0.4036
   97MPD2    C5 1482   0.794   3.020   0.298  0.3066 -0.0803  1.0228
   97MPD2     H 1483   1.061   3.217   0.475  1.0421 -0.7707 -2.2872
   97MPD2    H1 1484   0.903   3.038   0.120 -0.7683 -4.0673  0.5820
   97MPD2    H2 1485   0.689   3.007   0.481 -1.3284  0.3662 -0.3434
   97MPD2    H3 1486   0.717   2.956   0.257 -1.1437 -0.1497  3.8776
   97MPD2     N 1487   1.094   3.183   0.199 -0.4600 -0.2678  1.0554
   97MPD2    H5 1488   1.083   3.181   0.098 -0.4878  1.1621  1.0396
   97MPD2    N1 1489   0.868   3.154   0.638 -0.5216 -0.5966 -0.3565
   97MPD2    H7 1490   0.953   3.198   0.673 -0.2686 -2.1675  0.9798
   98TCq2    C1 1491   1.215   3.225   0.250 -1.0958  0.1802 -0.8888
   98TCq2    O2 1492   1.264   3.196   0.361  0.4276 -0.2027  0.2604
   98TCq2    C2 1493   1.298   3.299   0.154 -0.0046  0.3103  0.0642
   98TCq2    C3 1494   1.242   3.347   0.041  0.4800  0.3759  0.1418
   98TCq2    C4 1495   1.317   3.413  17.656 -1.1046  0.8603  0.5966
   98TCq2    C5 1496   1.454   3.437  17.674  0.1695  0.0123 -0.4568
   98TCq2    C6 1497   1.506   3.378   0.087 -0.2075  0.3080 -0.4957
   98TCq2    C7 1498   1.434   3.304   0.167  0.3850  0.6237 -0.3551
   98TCq2    C8 1499   1.645   3.374   0.101  0.1130 -0.0478  0.2072
   98TCq2    O4 1500   1.694   3.386   0.216  0.3388  0.5605 -0.5739
   98TCq2    C9 1501   1.255   3.459  17.538 -0.1548  0.3529 -0.0556
   98TCq2    O5 1502   1.158   3.388  17.498 -0.0281  0.3081  0.3476
   98TCq2    O6 1503   1.330   3.535  17.470 -0.1588 -0.0486 -0.2266
   98TCq2    H2 1504   1.134   3.344   0.029  0.5966 -0.5614 -0.7226
   98TCq2    H3 1505   1.513   3.496  17.605  1.9833 -3.3344 -1.7874
   98TCq2    H4 1506   1.495   3.264   0.247  0.0631 -1.1579 -1.0027
   99MPD2     C 1507   0.529   0.620   1.786 -0.0437  0.0792 -0.1484
   99MPD2    C1 1508   0.408   0.665   1.741 -0.0431 -0.2021  0.0582
   99MPD2    C2 1509   0.387   0.672   1.610 -0.3823  0.1616 -0.5326
   99MPD2    C3 1510   0.478   0.607   1.532  0.2112 -0.0186  0.2813
   99MPD2    C4 1511   0.593   0.547   1.574  0.6720  0.4983  0.2875
   99MPD2    C5 1512   0.617   0.562   1.705 -0.2972  0.2578 -0.2307
   99MPD2     H 1513   0.296   0.720   1.578  0.5160  3.2993  1.6037
   99MPD2    H1 1514   0.669   0.505   1.510  2.9505 -0.9670  3.9143
   99MPD2    H2 1515   0.558   0.634   1.889  3.6388  0.8960 -1.2933
   99MPD2    H3 1516   0.717   0.544   1.742 -0.5940  0.6425  0.7598
   99MPD2     N 1517   0.454   0.581   1.397  0.8507  0.3084  0.4058
   99MPD2    H5 1518   0.502   0.506   1.347 -0.1034 -0.0745  0.0508
   99MPD2    N1 1519   0.308   0.721   1.825  0.6108 -0.5902  0.7911
   99MPD2    H7 1520   0.221   0.745   1.777  1.3806 -0.3073 -0.4567
  100TCq2    C1 1521   0.318   0.736   1.962  0.5322  0.4600  0.1240
  100TCq2    O2 1522   0.417   0.726   2.032 -0.2284 -0.2720 -0.2549
  100TCq2    C2 1523   0.198   0.788   2.031 -0.3173  0.4899  0.0635
  100TCq2    C3 1524   0.218   0.825   2.161 -0.4076 -0.0440  0.4763
  100TCq2    C4 1525   0.109   0.869   2.231  0.4412  1.2242 -0.1468
  100TCq2    C5 1526   4.707   0.865   2.179 -0.5095 -1.3754 -0.0964
  100TCq2    C6 1527   4.690   0.827   2.048 -0.0539  0.1811 -0.0024
  100TCq2    C7 1528   0.071   0.779   1.977 -0.7374  0.0851  0.2900
  100TCq2    C8 1529   4.558   0.853   1.988  0.9799  0.0369 -0.4907
  100TCq2    O4 1530   4.498   0.950   2.035 -0.0158 -0.2545 -0.6144
  100TCq2    C9 1531   0.139   0.905   2.365  0.2121  0.5933  0.1211
  100TCq2    O5 1532   0.256   0.934   2.399 -0.1826  0.5167 -0.2627
  100TCq2    O6 1533   0.041   0.959   2.423 -0.1601 -0.2881 -0.1957
  100TCq2    H2 1534   0.320   0.828   2.198 -0.3114  1.4971  0.0756
  100TCq2    H3 1535   4.624   0.896   2.243 -0.0513 -0.3024 -0.0224
  100TCq2    H4 1536   0.061   0.760   1.870 -1.1968 -0.0480  0.3607
  101MPD2     C 1537   1.172   1.133  12.898 -0.2093 -0.1153 -0.1411
  101MPD2    C1 1538   1.081   1.178  13.000 -0.1657 -0.1653 -0.3108
  101MPD2    C2 1539   1.026   1.097  13.093 -0.1033  0.2900  0.2854
  101MPD2    C3 1540   1.059   0.960  13.089  0.6360 -0.1074  0.5746
  101MPD2    C4 1541   1.143   0.918  12.987  0.3518  0.0053 -0.6301
  101MPD2    C5 1542   1.200   0.995  12.897  0.0187  0.3471 -0.3242
  101MPD2     H 1543   0.957   1.139  13.166  0.8193 -0.1285  1.4115
  101MPD2    H1 1544   1.175   0.815  12.975 -0.5683 -0.3241 -0.1711
  101MPD2    H2 1545   1.222   1.200  12.830 -0.4566  1.6201  1.3853
  101MPD2    H3 1546   1.281   0.952  12.839 -0.1574  0.6509 -0.7979
  101MPD2     N 1547   0.995   0.878  13.182  0.4245  0.9358  0.0381
  101MPD2    H5 1548   0.927   0.916  13.247  0.9564  2.2356 -0.1744
  101MPD2    N1 1549   1.043   1.317  12.997  0.2396 -0.8563 -0.5006
  101MPD2    H7 1550   1.080   1.376  12.923 -1.0177  1.5271  0.7418
  102TCq2    C1 1551   1.112   1.706  12.768 -0.5615 -0.2086 -0.1562
  102TCq2    O2 1552   1.231   1.678  12.792 -0.1691 -0.3577 -0.1603
  102TCq2    C2 1553   1.008   1.675  12.862 -0.3483 -0.4493 -0.0265
  102TCq2    C3 1554   0.878   1.711  12.833 -0.2614  0.7965 -1.6023
  102TCq2    C4 1555   0.781   1.660  12.917  0.4322 -0.1007  0.1587
  102TCq2    C5 1556   0.815   1.566  13.007 -0.0209 -0.9528  0.4605
  102TCq2    C6 1557   0.944   1.523  13.014 -0.5704 -0.2078 -0.4275
  102TCq2    C7 1558   1.042   1.574  12.943 -0.3625  0.3097 -0.6190
  102TCq2    C8 1559   0.950   1.387  13.073 -0.3501 -0.2646 -1.0892
  102TCq2    O4 1560   0.869   1.348  13.159 -0.6198  0.6631 -0.3402
  102TCq2    C9 1561   0.644   1.696  12.907 -0.4365 -0.0356  0.6796
  102TCq2    O5 1562   0.567   1.627  12.977 -0.4933 -0.4868 -0.3727
  102TCq2    O6 1563   0.620   1.792  12.832 -0.2758  0.1408  0.2619
  102TCq2    H2 1564   0.869   1.796  12.766 -1.2896  1.2752 -0.8531
  102TCq2    H3 1565   0.745   1.522  13.077 -1.1620  1.6812  0.9658
  102TCq2    H4 1566   1.144   1.540  12.954 -0.9338 -1.8383 -1.9194
  103TMC2    C1 1567   3.864   1.711  12.666 -0.3272  0.2732  0.2483
  103TMC2    C2 1568   3.783   1.814  12.635 -0.2554 -0.0880  0.5295
  103TMC2    C3 1569   3.773   1.913  12.732 -0.2414  0.0673  0.0496
  103TMC2    C4 1570   3.947   1.714  12.777 -0.4542  0.0691  0.3874
  103TMC2    C5 1571   3.930   1.816  12.868 -0.1003 -0.5055 -0.7769
  103TMC2    C6 1572   3.838   1.919  12.851  0.3132  0.0751 -0.0121
  103TMC2     C 1573   3.913   1.629  12.554  0.8205 -0.5550 -0.3211
  103TMC2     O 1574   3.833   1.592  12.471 -0.1183  0.5646  0.2998
  103TMC2     H 1575   3.721   1.822  12.546  1.2227  2.0073 -0.3307
  103TMC2    H1 1576   4.011   1.633  12.809  1.3253  1.2677 -0.1504
  103TMC2    H2 1577   3.825   2.001  12.920  1.2395  0.4609 -0.2927
  103TMC2    C7 1578   3.989   1.794  13.000 -0.5190  0.0141  1.1964
  103TMC2    C8 1579   3.723   2.040  12.673 -0.3035  0.0412 -0.2770
  103TMC2    O1 1580   4.017   1.676  13.031 -0.3594 -0.1506 -0.2466
  103TMC2    O2 1581   3.619   2.054  12.613  0.6686 -0.1488 -0.0216
  103TMC2    O5 1582   3.792   2.139  12.736  0.2829 -0.5381 -0.0783
  103TMC2    H5 1583   3.887   2.118  12.752  0.3360  0.4323  0.9365
  104MPD2     C 1584   4.251   1.512  12.487  0.4668 -0.1370 -0.3165
  104MPD2    C1 1585   4.116   1.516  12.466  0.0756 -0.1604 -0.0879
  104MPD2    C2 1586   4.063   1.438  12.358 -0.3811  0.4669 -0.1532
  104MPD2    C3 1587   4.149   1.352  12.294 -0.1416  0.5453 -0.7927
  104MPD2    C4 1588   4.282   1.352  12.324 -0.2077 -0.0317  0.1587
  104MPD2    C5 1589   4.330   1.437  12.416 -0.0807  0.8329 -0.5245
  104MPD2     H 1590   3.960   1.444  12.324 -0.5097  0.4822  0.2364
  104MPD2    H1 1591   4.356   1.292  12.271  0.3569  1.6818 -1.0156
  104MPD2    H2 1592   4.293   1.560  12.575 -0.9813  0.0494  0.2746
  104MPD2    H3 1593   4.435   1.431  12.444 -0.4494 -3.5508 -0.1633
  104MPD2     N 1594   4.095   1.258  12.202 -0.0364 -0.4816 -0.0442
  104MPD2    H5 1595   3.996   1.258  12.182 -0.3428  0.8004  1.4109
  104MPD2    N1 1596   4.045   1.605  12.551  1.0351  0.1506 -0.6879
  104MPD2    H7 1597   4.100   1.642  12.629 -0.8121  1.0922  0.1565
  105MPD2     C 1598   1.061   1.600  17.048 -0.2888 -0.5172 -0.2824
  105MPD2    C1 1599   0.927   1.582  17.052 -0.3407  0.2004 -0.6078
  105MPD2    C2 1600   0.858   1.602  17.170 -1.3288  0.0447  0.4557
  105MPD2    C3 1601   0.928   1.640  17.281 -0.4814  0.3348 -0.5459
  105MPD2    C4 1602   1.067   1.637  17.279  0.4535  0.5157 -0.1496
  105MPD2    C5 1603   1.130   1.621  17.161  0.2667 -0.1755 -0.7334
  105MPD2     H 1604   0.750   1.595  17.169 -1.3721  0.6696  0.8050
  105MPD2    H1 1605   1.129   1.629  17.367 -0.0356  1.0427  0.2363
  105MPD2    H2 1606   1.121   1.569  16.964 -1.4917 -0.6519 -1.0901
  105MPD2    H3 1607   1.236   1.600  17.152  0.5616 -0.5664  3.5106
  105MPD2     N 1608   0.854   1.655  17.401 -0.2937 -0.1370  0.3883
  105MPD2    H5 1609   0.754   1.660  17.385 -0.2639  1.0572  0.5164
  105MPD2    N1 1610   0.854   1.526  16.946  0.1444 -0.4348  0.7844
  105MPD2    H7 1611   0.755   1.520  16.969 -0.1446  0.5218 -0.1693
  106TCq2    C1 1612   0.905   1.692  17.519  0.2973 -0.7792 -0.2444
  106TCq2    O2 1613   1.017   1.737  17.543 -0.5114 -0.2874 -0.2285
  106TCq2    C2 1614   0.813   1.694  17.632  0.1400 -0.1680 -0.4050
  106TCq2    C3 1615   0.847   1.767   0.045  0.1023 -0.2951  0.8551
  106TCq2    C4 1616   0.758   1.752   0.153 -0.4728  0.2591  0.0423
  106TCq2    C5 1617   0.643   1.676   0.151  0.0828 -0.3864  0.3726
  106TCq2    C6 1618   0.619   1.611   0.029 -0.0561  1.1302  0.1263
  106TCq2    C7 1619   0.700   1.620  17.616 -0.1759 -0.1917 -0.3605
  106TCq2    C8 1620   0.525   1.496   0.032  0.0214 -0.4776 -0.5946
  106TCq2    O4 1621   0.513   1.428  17.626 -0.5835  0.3086  0.2055
  106TCq2    C9 1622   0.779   1.838   0.266  0.2501 -0.2703  0.9364
  106TCq2    O5 1623   0.859   1.933   0.251  0.6111 -0.2426 -1.1617
  106TCq2    O6 1624   0.713   1.803   0.370 -0.3958 -0.5288  1.0805
  106TCq2    H2 1625   0.931   1.835   0.052  1.4597 -2.0370  1.2179
  106TCq2    H3 1626   0.570   1.672   0.232  2.7183 -0.7521  2.7168
  106TCq2    H4 1627   0.675   1.560  17.529  0.9627  1.4212 -1.7944
  107TMC2    C1 1628   1.801   4.201  11.881 -0.5168 -0.1596 -0.7626
  107TMC2    C2 1629   1.818   4.133  12.002 -0.0541 -0.0831 -0.4701
  107TMC2    C3 1630   1.909   4.036  12.006  0.1716 -0.1366 -0.1848
  107TMC2    C4 1631   1.873   4.165  11.768  0.5008  0.0192  0.6693
  107TMC2    C5 1632   1.975   4.073  11.785  0.6006  0.6265  0.0737
  107TMC2    C6 1633   1.999   4.007  11.906  0.1753 -0.0556 -0.2602
  107TMC2     C 1634   1.691   4.291  11.878  0.0717  0.5740 -0.7109
  107TMC2     O 1635   1.654   4.338  11.985  0.2638 -0.7115  0.2885
  107TMC2     H 1636   1.756   4.155  12.088  0.6817 -0.7501  0.2271
  107TMC2    H1 1637   1.859   4.227  11.680 -0.0942 -0.3378  0.5143
  107TMC2    H2 1638   2.083   3.941  11.924  0.0632 -0.2242 -0.3595
  107TMC2    C7 1639   2.061   4.041  11.675  0.1118  0.4876 -0.3284
  107TMC2    C8 1640   1.923   3.971  12.131 -0.5344  0.3675  0.8579
  107TMC2    O1 1641   2.169   3.975  11.688  0.4287 -0.4320  0.1595
  107TMC2    O2 1642   1.892   4.018  12.243  0.0445 -0.7310  0.4076
  107TMC2    O5 1643   1.996   3.859  12.115  0.1534 -0.3733 -0.8802
  107TMC2    H5 1644   2.002   3.823  12.024  0.9035 -0.6786 -0.7092
  108MPD2     C 1645   1.482   4.413  11.591 -0.3922 -0.1742 -0.2847
  108MPD2    C1 1646   1.534   4.407  11.723  0.3523  0.0370 -0.9575
  108MPD2    C2 1647   1.482   4.501  11.812 -0.5829 -0.4079 -0.2357
  108MPD2    C3 1648   1.382   4.593  11.777 -0.3420  0.4870 -0.3209
  108MPD2    C4 1649   1.328   4.586  11.646 -0.4553 -0.1412  0.8586
  108MPD2    C5 1650   1.387   4.496  11.557  0.1568 -0.6641  0.1575
  108MPD2     H 1651   1.499   4.484  11.918  0.1158 -1.7730 -0.5668
  108MPD2    H1 1652   1.242   4.641  11.609 -0.2830 -1.2254 -1.1801
  108MPD2    H2 1653   1.513   4.336  11.521 -0.7860 -0.5105 -0.0900
  108MPD2    H3 1654   1.334   4.472  11.465 -0.0042 -0.9462  0.3213
  108MPD2     N 1655   1.313   4.670  11.867 -0.6388 -0.3241 -0.0445
  108MPD2    H5 1656   1.219   4.696  11.838  0.2692  0.9471 -1.8750
  108MPD2    N1 1657   1.640   4.311  11.754 -1.4201  0.2680  0.5818
  108MPD2    H7 1658   1.666   4.243  11.683 -0.9958  0.1605  0.8429
  109MPD2     C 1659   1.121   2.079   2.018 -0.6415 -0.6098  0.3296
  109MPD2    C1 1660   1.188   2.194   2.013 -0.0209  0.6891 -0.4734
  109MPD2    C2 1661   1.119   2.308   1.983  0.0717  0.0130 -0.2508
  109MPD2    C3 1662   0.981   2.307   1.977 -0.0971 -0.3045 -0.4174
  109MPD2    C4 1663   0.907   2.191   1.992  0.6874 -0.3078  0.0467
  109MPD2    C5 1664   0.980   2.080   2.021 -0.0182 -0.0890 -0.1177
  109MPD2     H 1665   1.160   2.409   1.980  0.6242 -0.2659 -2.4388
  109MPD2    H1 1666   0.798   2.185   1.992  0.7633 -1.6534  0.3618
  109MPD2    H2 1667   1.166   1.982   2.036  0.2822 -0.5827 -1.8407
  109MPD2    H3 1668   0.930   1.985   2.035  2.9478 -1.3411  2.1196
  109MPD2     N 1669   0.922   2.428   1.970 -0.0089 -0.0155 -0.3433
  109MPD2    H5 1670   0.984   2.508   1.982 -0.0298 -0.0304 -0.1339
  109MPD2    N1 1671   1.325   2.189   2.025 -0.1382 -0.6383 -0.5842
  109MPD2    H7 1672   1.354   2.094   2.042  2.6742 -0.1324 -2.5451
  110TCq2    C1 1673   0.793   2.453   1.938  0.2665 -0.3938 -0.0412
  110TCq2    O2 1674   0.705   2.374   1.910 -0.7557 -0.1336 -0.0301
  110TCq2    C2 1675   0.781   2.594   1.927 -0.7256 -0.3055 -0.0371
  110TCq2    C3 1676   0.860   2.669   2.009  0.2084  0.5565  0.2784
  110TCq2    C4 1677   0.872   2.807   1.983 -0.1083 -0.7249  0.5072
  110TCq2    C5 1678   0.816   2.853   1.866 -0.1620  0.1798 -0.1818
  110TCq2    C6 1679   0.743   2.771   1.789  0.1060 -0.0883  0.3936
  110TCq2    C7 1680   0.715   2.639   1.820 -0.4989 -0.4244  0.1728
  110TCq2    C8 1681   0.706   2.824   1.659  0.4991 -0.7937 -0.1101
  110TCq2    O4 1682   0.776   2.911   1.608 -0.3933  0.3947 -0.5380
  110TCq2    C9 1683   0.921   2.893   2.081 -0.5763 -0.0092  0.6392
  110TCq2    O5 1684   0.923   3.020   2.068 -0.4337 -0.3522 -0.4452
  110TCq2    O6 1685   0.965   2.839   2.188 -0.0275 -0.8829 -0.2989
  110TCq2    H2 1686   0.894   2.636   2.106  0.5093 -0.5360 -0.1865
  110TCq2    H3 1687   0.814   2.959   1.842  3.5371 -0.3263 -2.6547
  110TCq2    H4 1688   0.665   2.569   1.755  0.9950 -1.9423  0.6466
  111TMC2    C1 1689   1.687   2.150  11.411 -0.0966 -0.7669  0.3433
  111TMC2    C2 1690   1.785   2.217  11.338  0.2893 -0.8344  0.9526
  111TMC2    C3 1691   1.915   2.200  11.383  0.7951 -0.1530 -0.1354
  111TMC2    C4 1692   1.724   2.075  11.526 -0.8086  0.3898  0.1838
  111TMC2    C5 1693   1.856   2.056  11.556 -0.1821  0.8317  0.1154
  111TMC2    C6 1694   1.952   2.114  11.481  0.0923 -0.8483  0.0101
  111TMC2     C 1695   1.551   2.198  11.397  0.5099 -0.3545  0.2881
  111TMC2     O 1696   1.515   2.237  11.286 -0.0611 -0.7827 -0.2786
  111TMC2     H 1697   1.754   2.290  11.264 -2.4832 -1.5443  1.4339
  111TMC2    H1 1698   1.644   2.033  11.586 -1.4136  0.3189 -0.6631
  111TMC2    H2 1699   2.052   2.105  11.521 -0.7947  0.6378  2.5812
  111TMC2    C7 1700   1.885   2.002  11.691 -0.2342  0.0668  0.0366
  111TMC2    C8 1701   2.007   2.253  11.290 -0.6777 -0.1655 -0.3016
  111TMC2    O1 1702   1.798   1.990  11.776  0.7848 -0.7255 -0.1484
  111TMC2    O2 1703   2.116   2.303  11.315  0.3200 -0.0993  0.5344
  111TMC2    O5 1704   1.979   2.173  11.185 -0.1232  0.2192 -0.3991
  111TMC2    H5 1705   1.890   2.131  11.189 -0.1182  0.1161 -1.3172
  112MPD2     C 1706   1.080   2.351  11.562 -0.8124  0.0855 -0.0704
  112MPD2    C1 1707   1.128   2.321  11.431 -0.0020 -1.0395  0.6727
  112MPD2    C2 1708   1.258   2.267  11.420 -0.1438  0.4938  0.6376
  112MPD2    C3 1709   1.343   2.241  11.525 -0.2093  0.3823 -0.2357
  112MPD2    C4 1710   1.289   2.276  11.653 -0.3714 -0.0065 -0.4985
  112MPD2    C5 1711   1.165   2.332  11.664  0.7762  0.1955  0.2096
  112MPD2     H 1712   1.295   2.238  11.322 -1.8725 -1.4544  0.5699
  112MPD2    H1 1713   1.350   2.258  11.741 -2.0746 -0.8012  0.5233
  112MPD2    H2 1714   0.984   2.398  11.578 -0.9999  0.6405 -2.8435
  112MPD2    H3 1715   1.134   2.350  11.767 -0.5203 -0.4075 -0.0807
  112MPD2     N 1716   1.475   2.188  11.512  0.5902 -0.2836  0.4329
  112MPD2    H5 1717   1.511   2.154  11.600 -1.1145 -1.3134  0.7395
  112MPD2    N1 1718   1.037   2.328  11.321 -0.4153 -0.0254 -0.4779
  112MPD2    H7 1719   1.074   2.314  11.227 -0.7951  0.0283 -0.6389
  113MPD2     C 1720   4.678   0.324   1.298  0.2377  0.8248 -0.0315
  113MPD2    C1 1721   4.617   0.421   1.235 -0.2959  0.3105  0.7263
  113MPD2    C2 1722   4.541   0.394   1.123  0.2786  0.3119  0.8761
  113MPD2    C3 1723   4.527   0.258   1.079 -0.0244 -0.2859  0.0510
  113MPD2    C4 1724   4.590   0.156   1.147  0.7650 -0.2698 -0.5444
  113MPD2    C5 1725   4.673   0.192   1.249  0.3373  0.0420  0.2848
  113MPD2     H 1726   4.508   0.483   1.070  1.9099  1.3717  1.6379
  113MPD2    H1 1727   4.579   0.052   1.119  0.0722 -0.5952  0.8842
  113MPD2    H2 1728   0.003   0.347   1.392 -1.7472  0.3557  1.1373
  113MPD2    H3 1729   0.005   0.114   1.299  0.5548 -0.1367 -0.2307
  113MPD2     N 1730   4.436   0.229   0.975 -0.1508  0.7076  0.6686
  113MPD2    H5 1731   4.407   0.134   0.956  1.3088  0.7884 -1.9288
  113MPD2    N1 1732   4.628   0.563   1.271 -0.4567  0.0514 -0.1406
  113MPD2    H7 1733   4.568   0.622   1.213  0.2797 -0.1304 -1.0931
  114TCq2    C1 1734   4.359   0.321   0.908 -0.0629 -0.4666 -0.2066
  114TCq2    O2 1735   4.352   0.445   0.912 -0.0438  0.1939 -0.7055
  114TCq2    C2 1736   4.249   0.253   0.846 -0.3387  0.8019  0.8136
  114TCq2    C3 1737   4.149   0.333   0.789 -0.3601  0.1480  0.1875
  114TCq2    C4 1738   4.027   0.271   0.761  0.0136 -0.2121  0.3184
  114TCq2    C5 1739   4.008   0.133   0.769  0.2892 -0.3075  0.1215
  114TCq2    C6 1740   4.108   0.062   0.819  0.1734 -0.6870  0.5090
  114TCq2    C7 1741   4.232   0.116   0.855  0.7278  0.2766 -0.0713
  114TCq2    C8 1742   4.111   4.647   0.777  0.2256  0.1839 -0.8469
  114TCq2    O4 1743   4.220   4.604   0.737  0.1001 -0.8188  0.3874
  114TCq2    C9 1744   3.924   0.356   0.725  0.4575 -0.3919  0.1034
  114TCq2    O5 1745   3.960   0.468   0.674 -0.2920  0.2717 -0.1137
  114TCq2    O6 1746   3.811   0.305   0.697  0.0633  0.2250 -0.2488
  114TCq2    H2 1747   4.160   0.441   0.791 -0.5482  0.1644  0.3284
  114TCq2    H3 1748   3.913   0.087   0.743  0.0613  1.3146 -1.8903
  114TCq2    H4 1749   4.313   0.046   0.873  0.0712 -0.1003  1.4237
  115TMC2    C1 1750   0.215   3.445  17.356 -0.7206  0.0220  0.4963
  115TMC2    C2 1751   0.110   3.527  17.357 -0.3954 -1.0630  0.8022
  115TMC2    C3 1752   0.139   3.657  17.329 -0.1651 -0.0204 -0.3786
  115TMC2    C4 1753   0.343   3.492  17.352  0.3410  0.5489 -0.4385
  115TMC2    C5 1754   0.364   3.622  17.333 -0.5173 -0.0041 -0.2615
  115TMC2    C6 1755   0.266   3.708  17.318 -0.0982 -0.2373  0.1468
  115TMC2     C 1756   0.198   3.303  17.335 -0.1952 -0.1570  0.4221
  115TMC2     O 1757   0.292   3.242  17.283 -0.3273 -0.1008  0.0983
  115TMC2     H 1758   0.010   3.485  17.359 -1.9086  2.5004 -1.6864
  115TMC2    H1 1759   0.425   3.422  17.362  0.1224  0.1050 -1.7803
  115TMC2    H2 1760   0.277   3.816  17.320  0.1980 -0.2982  1.4643
  115TMC2    C7 1761   0.474   3.672  17.404 -0.9490 -1.1749 -0.0935
  115TMC2    C8 1762   0.033   3.754  17.338 -0.2516 -0.2564 -0.3194
  115TMC2    O1 1763   0.535   3.605  17.488  0.4053  0.4529  0.2140
  115TMC2    O2 1764   0.016   3.857  17.278  0.0789 -0.5305 -0.1272
  115TMC2    O5 1765   4.694   3.717  17.450  0.1154 -0.0912 -0.0540
  115TMC2    H5 1766   4.724   3.631  17.486 -0.9620  0.5647  2.3865
  116MPD2     C 1767   4.623   2.890  17.344 -0.1606 -0.1910 -0.1953
  116MPD2    C1 1768   4.720   2.927  17.250 -0.8774  0.1334 -0.5840
  116MPD2    C2 1769   0.062   3.052  17.268 -0.4383 -0.7517  0.5392
  116MPD2    C3 1770   0.023   3.136  17.370 -0.0029 -0.1734 -0.1144
  116MPD2    C4 1771   4.649   3.096  17.458  0.2546  0.0338  0.0466
  116MPD2    C5 1772   4.591   2.970  17.451  0.5355 -0.9515  0.0251
  116MPD2     H 1773   0.146   3.073  17.202 -1.0818  2.0826  0.6155
  116MPD2    H1 1774   4.616   3.165  17.535 -1.0525 -0.2534 -0.2602
  116MPD2    H2 1775   4.579   2.792  17.330 -2.0881  0.3972  1.7698
  116MPD2    H3 1776   4.513   2.934  17.518 -0.8459 -0.3914 -1.2767
  116MPD2     N 1777   0.076   3.264  17.391 -0.1000 -0.5659  0.9230
  116MPD2    H5 1778   0.036   3.324  17.461  0.0530 -0.9285  1.3220
  116MPD2    N1 1779   0.032   2.835  17.155  0.4478 -0.1767 -0.6669
  116MPD2    H7 1780   4.698   2.753  17.151 -0.8823  0.7432 -0.2009
  117TMC2    C1 1781   3.745   4.066  13.583  1.0535  1.1452 -0.4698
  117TMC2    C2 1782   3.876   4.037  13.550  0.6384 -0.0346  0.7790
  117TMC2    C3 1783   3.980   4.104  13.604 -0.7374  0.3354  0.3065
  117TMC2    C4 1784   3.720   4.165  13.679  0.4082 -0.0179 -0.0878
  117TMC2    C5 1785   3.831   4.236  13.733 -0.1273  0.0286 -0.3491
  117TMC2    C6 1786   3.956   4.201  13.694  0.4976  0.7341 -0.6936
  117TMC2     C 1787   3.651   4.043  13.475  0.0478 -0.4283 -0.4991
  117TMC2     O 1788   3.648   3.942  13.408 -0.3734  0.2491  0.3972
  117TMC2     H 1789   3.903   3.949  13.491  1.6809  0.2721  0.8024
  117TMC2    H1 1790   3.620   4.193  13.708  0.4485 -0.4318  0.4435
  117TMC2    H2 1791   4.037   4.253  13.744  0.2421  0.9826 -0.5432
  117TMC2    C7 1792   3.809   4.383  13.738  0.1347 -0.2129  0.1645
  117TMC2    C8 1793   4.107   4.103  13.538  0.0483  0.5209 -0.2844
  117TMC2    O1 1794   3.902   4.449  13.696 -0.5346  0.6654 -0.1216
  117TMC2    O2 1795   4.123   4.093  13.417 -0.3303 -0.2315 -0.1069
  117TMC2    O5 1796   4.205   4.097  13.631 -0.0353  0.4351 -0.6063
  117TMC2    H5 1797   4.182   4.087  13.726  0.3461 -0.7376 -0.6427
  118MPD2     C 1798   3.531   4.579  13.852  0.3922  0.6662  0.0963
  118MPD2    C1 1799   3.656   4.564  13.812  0.0353 -0.4940  0.5025
  118MPD2    C2 1800   3.731   4.671  13.766 -0.9903 -0.2453  0.4090
  118MPD2    C3 1801   3.680   0.070  13.773  0.1630 -0.5784  0.2728
  118MPD2    C4 1802   3.556   0.089  13.826  0.1985  0.1953 -0.1568
  118MPD2    C5 1803   3.482   4.704  13.868 -0.9203 -0.3877 -0.2036
  118MPD2     H 1804   3.829   4.657  13.722 -1.3158  0.7507 -0.6175
  118MPD2    H1 1805   3.513   0.188  13.834  0.1801  0.2618 -1.0556
  118MPD2    H2 1806   3.474   4.494  13.887  0.0548  0.1355 -1.7475
  118MPD2    H3 1807   3.385   4.713  13.916 -0.2777  1.5647  0.7550
  118MPD2     N 1808   3.745   0.180  13.709 -0.1280 -0.3328  0.6699
  118MPD2    H5 1809   3.686   0.262  13.699 -1.1264 -0.8703  2.1786
  118MPD2    N1 1810   3.694   4.425  13.795  0.3105  0.0319  0.3681
  118MPD2    H7 1811   3.627   4.357  13.830 -1.0480  1.8379  1.2782
  119MPD2     C 1812   2.201   0.931  13.274  0.2634  0.2666 -0.2649
  119MPD2    C1 1813   2.095   0.882  13.351  1.0721 -0.2773 -0.6213
  119MPD2    C2 1814   2.048   0.755  13.340  0.5332 -0.0201  0.4533
  119MPD2    C3 1815   2.140   0.664  13.284  0.6552 -0.6203  0.0996
  119MPD2    C4 1816   2.249   0.707  13.218 -0.6431 -0.4746  0.1707
  119MPD2    C5 1817   2.275   0.842  13.205  0.1040  0.3014  0.4488
  119MPD2     H 1818   1.951   0.719  13.372 -0.6553  0.0679 -3.1299
  119MPD2    H1 1819   2.325   0.642  13.177 -0.2176  1.8130 -2.6190
  119MPD2    H2 1820   2.228   1.036  13.280 -0.5330  0.4409  0.3142
  119MPD2    H3 1821   2.365   0.877  13.155 -1.1066  1.1208 -1.1641
  119MPD2     N 1822   2.115   0.528  13.267 -0.3754  0.3184 -0.5413
  119MPD2    H5 1823   2.180   0.481  13.206  1.3623  0.0444  1.5106
  119MPD2    N1 1824   2.033   0.984  13.421  0.2915  0.3910 -0.8499
  119MPD2    H7 1825   2.067   1.075  13.393  0.4992 -0.0714 -2.1058
  120TCq2    C1 1826   2.008   0.458  13.324  0.8134  0.5460  0.2501
  120TCq2    O2 1827   1.922   0.500  13.398 -0.4278 -0.6776  0.0599
  120TCq2    C2 1828   1.986   0.333  13.254 -0.2090 -0.4273 -0.7923
  120TCq2    C3 1829   2.090   0.279  13.194 -0.1757  0.3599  0.6362
  120TCq2    C4 1830   2.060   0.195  13.093 -0.6628 -0.6576 -0.1412
  120TCq2    C5 1831   1.931   0.170  13.042  0.7683 -0.4105 -0.2313
  120TCq2    C6 1832   1.827   0.222  13.115 -0.8018  0.3847  0.0595
  120TCq2    C7 1833   1.852   0.296  13.227 -0.1834  0.2286  0.0729
  120TCq2    C8 1834   1.689   0.195  13.067 -0.4401 -0.7060  0.0073
  120TCq2    O4 1835   1.674   0.153  12.956 -0.4470 -0.7491 -0.1742
  120TCq2    C9 1836   2.174   0.139  13.016  0.5585 -0.3874 -0.7263
  120TCq2    O5 1837   2.288   0.155  13.065 -0.1210  0.1437 -0.3916
  120TCq2    O6 1838   2.150   0.055  12.920 -0.3056  0.3932 -0.1976
  120TCq2    H2 1839   2.191   0.299  13.227 -0.1736  3.0247 -0.9499
  120TCq2    H3 1840   1.916   0.110  12.952 -4.7656  0.9234 -0.1699
  120TCq2    H4 1841   1.777   0.348  13.285 -1.0444  1.0060 -1.7474
  121TMC2    C1 1842   2.962   2.393  14.351  0.1249 -0.0099 -0.8436
  121TMC2    C2 1843   2.978   2.280  14.431 -0.5839 -0.2029 -0.1987
  121TMC2    C3 1844   2.871   2.200  14.458  0.2395  0.7355 -0.6441
  121TMC2    C4 1845   2.835   2.416  14.291 -0.2423 -0.2315  0.2383
  121TMC2    C5 1846   2.735   2.326  14.323 -0.4789  0.4121 -0.2100
  121TMC2    C6 1847   2.745   2.222  14.415  0.1703  0.4260  0.0739
  121TMC2     C 1848   3.075   2.485  14.350 -0.3410 -0.1490  0.0084
  121TMC2     O 1849   3.150   2.481  14.447  0.1136  0.3524  0.0436
  121TMC2     H 1850   3.077   2.262  14.474 -0.9551 -0.8232  0.3979
  121TMC2    H1 1851   2.812   2.503  14.231 -0.4862 -1.0773 -0.8885
  121TMC2    H2 1852   2.678   2.137  14.424  2.7467 -1.5459  0.6749
  121TMC2    C7 1853   2.604   2.354  14.268 -0.2861 -0.8532  0.3195
  121TMC2    C8 1854   2.885   2.107  14.565  0.4899  0.2646 -0.0270
  121TMC2    O1 1855   2.595   2.459  14.208  0.1063  0.1653 -0.5156
  121TMC2    O2 1856   2.995   2.056  14.597 -0.2477  0.1053  0.0388
  121TMC2    O5 1857   2.763   2.093  14.632 -0.0425  0.5094 -0.0724
  121TMC2    H5 1858   2.706   2.173  14.629  0.7379  1.0106 -1.4028
  122MPD2     C 1859   3.251   2.696  14.290  0.0271 -0.5063 -0.0090
  122MPD2    C1 1860   3.180   2.636  14.186  0.3472  0.5194 -0.0504
  122MPD2    C2 1861   3.222   2.645  14.051  0.2955 -0.1186 -0.2580
  122MPD2    C3 1862   3.339   2.723  14.032  0.4265 -0.0726  0.5620
  122MPD2    C4 1863   3.401   2.777  14.135  0.1935  0.2538 -0.3366
  122MPD2    C5 1864   3.364   2.764  14.266  0.7480 -0.3457 -0.4153
  122MPD2     H 1865   3.171   2.594  13.970 -1.8781  0.2407  0.8951
  122MPD2    H1 1866   3.483   2.843  14.105  0.2830 -0.1057 -0.8860
  122MPD2    H2 1867   3.221   2.700  14.394 -0.5909  1.4477 -0.2753
  122MPD2    H3 1868   3.410   2.824  14.344  0.6468 -1.2496  0.3406
  122MPD2     N 1869   3.405   2.735  13.908  0.3030 -0.0503 -0.2271
  122MPD2    H5 1870   3.503   2.760  13.908  0.7458 -1.7867 -0.1173
  122MPD2    N1 1871   3.081   2.544  14.228 -0.1889 -0.2233  0.2844
  122MPD2    H7 1872   3.017   2.508  14.157 -2.2784  1.3762  1.3660
  123MPD2     C 1873   1.614   4.666  11.321 -0.2623  0.0665  0.6677
  123MPD2    C1 1874   1.643   4.652  11.185 -0.4207  0.6955 -0.3440
  123MPD2    C2 1875   1.766   4.700  11.142  0.3965  0.0158 -0.4568
  123MPD2    C3 1876   1.855   0.034  11.223  0.1811 -0.3097 -0.2120
  123MPD2    C4 1877   1.826   0.053  11.359  0.2895 -0.0761 -0.1585
  123MPD2    C5 1878   1.698   0.013  11.403  0.3308  0.3062  0.3442
  123MPD2     H 1879   1.788   4.685  11.037 -0.2500  1.2601 -0.7672
  123MPD2    H1 1880   1.895   0.112  11.418 -0.7524  1.5365 -0.5485
  123MPD2    H2 1881   1.524   4.622  11.363  1.4264 -1.9849  2.1280
  123MPD2    H3 1882   1.659   0.037  11.501 -1.2624 -0.7528 -0.0280
  123MPD2     N 1883   1.977   0.077  11.150  0.7164 -0.3754 -0.1196
  123MPD2    H5 1884   1.989   0.055  11.052 -1.0890 -0.7511 -0.2473
  123MPD2    N1 1885   1.547   4.594  11.097 -0.8075  0.1238  0.0327
  123MPD2    H7 1886   1.464   4.546  11.130 -0.6287  1.1309  1.9697
  124TCq2    C1 1887   2.076   0.150  11.209  0.1423  0.4208 -0.9225
  124TCq2    O2 1888   2.071   0.203  11.320 -0.2333  0.0405  0.4317
  124TCq2    C2 1889   2.180   0.198  11.124 -0.0057 -0.0665  0.2866
  124TCq2    C3 1890   2.214   0.329  11.132 -0.3549  0.4616 -0.4717
  124TCq2    C4 1891   2.290   0.385  11.027 -0.6280 -0.1489 -0.2953
  124TCq2    C5 1892   2.313   0.308  10.916 -0.0068  0.3757  0.2803
  124TCq2    C6 1893   2.262   0.179  10.904  0.0521 -0.0410  0.3775
  124TCq2    C7 1894   2.207   0.120  11.012 -0.7860  1.0658 -0.5222
  124TCq2    C8 1895   2.247   0.113  10.770  0.4512  0.6174  0.3196
  124TCq2    O4 1896   2.246   4.717  10.771 -0.1830  0.8383  0.5775
  124TCq2    C9 1897   2.314   0.527  11.028  0.2514 -0.7594 -0.1425
  124TCq2    O5 1898   2.405   0.559  10.946  0.0340 -0.5475  0.1283
  124TCq2    O6 1899   2.243   0.601  11.102  0.5421 -0.2940  0.0362
  124TCq2    H2 1900   2.188   0.395  11.214  0.6001  3.1437 -2.3033
  124TCq2    H3 1901   2.369   0.353  10.834  2.4091 -3.7408 -0.3449
  124TCq2    H4 1902   2.179   0.015  11.010 -0.7824  1.0767 -1.1937
  125TMC2    C1 1903   1.918   1.790   9.370 -0.7847  0.3695 -0.2155
  125TMC2    C2 1904   1.940   1.877   9.472  0.3805 -0.1413  0.0152
  125TMC2    C3 1905   2.066   1.907   9.503  0.2165 -0.6177  0.1757
  125TMC2    C4 1906   2.025   1.744   9.297 -0.8043  0.7417 -0.5168
  125TMC2    C5 1907   2.155   1.764   9.341 -0.3016 -0.4585  0.4840
  125TMC2    C6 1908   2.178   1.848   9.447  0.3673  0.0250 -0.3546
  125TMC2     C 1909   1.794   1.800   9.294 -0.1029 -0.7065 -0.5196
  125TMC2     O 1910   1.703   1.870   9.336  0.2658 -0.3338  0.2256
  125TMC2     H 1911   1.855   1.914   9.527  0.6286  0.0205  0.2855
  125TMC2    H1 1912   2.023   1.664   9.224  0.6861  1.0112 -0.8344
  125TMC2    H2 1913   2.273   1.866   9.497 -1.0110 -0.7757  2.5684
  125TMC2    C7 1914   2.273   1.717   9.261 -0.2665 -0.5321 -0.7973
  125TMC2    C8 1915   2.074   1.988   9.624  0.7975  0.7971  0.6498
  125TMC2    O1 1916   2.252   1.681   9.144 -0.5561 -0.3484 -0.0681
  125TMC2    O2 1917   1.988   1.968   9.710 -0.4354 -0.1190 -0.7306
  125TMC2    O5 1918   2.197   2.033   9.650 -0.0380 -0.2863  0.0425
  125TMC2    H5 1919   2.250   2.058   9.571 -1.9435 -1.8900 -1.7206
  126MPD1     C 1920   1.527   1.773   8.858  0.2589 -0.1967 -0.0078
  126MPD1    C1 1921   1.613   1.667   8.854 -0.2078  0.4248  0.3435
  126MPD1    C2 1922   1.708   1.655   8.956  0.6257  0.2154  0.7380
  126MPD1    C3 1923   1.701   1.738   9.071 -0.3349  0.3561 -0.4499
  126MPD1    C4 1924   1.616   1.841   9.064 -0.5497  0.0221  0.3073
  126MPD1    C5 1925   1.533   1.865   8.962 -0.5447  0.5125 -0.0803
  126MPD1     H 1926   1.776   1.571   8.957  0.4585  0.0778  0.5743
  126MPD1    H1 1927   1.615   1.922   9.137  1.4846  2.2132 -2.1193
  126MPD1    H2 1928   1.460   1.800   8.777  1.6613 -0.1540 -1.1548
  126MPD1    H3 1929   1.464   1.949   8.963 -0.4509  0.5817  0.5732
  126MPD1     N 1930   1.797   1.730   9.179 -0.6459 -0.1796  0.2819
  126MPD1    H5 1931   1.860   1.651   9.167 -0.3715  0.4630 -2.4774
  126MPD1    N1 1932   1.623   1.591   8.738 -0.1436 -0.7259  0.3505
  126MPD1    H6 1933   1.534   1.594   8.689 -0.6384  1.0945  1.3464
  126MPD1    H7 1934   1.655   1.496   8.754 -0.9661 -0.9464  0.7048
  127MPD2     C 1935   4.290   1.109   9.459  0.7462  0.0486 -0.5671
  127MPD2    C1 1936   4.306   1.152   9.588 -1.2624  0.0225 -0.7033
  127MPD2    C2 1937   4.327   1.288   9.613  0.0286  0.0465  0.4047
  127MPD2    C3 1938   4.299   1.379   9.509 -0.2642  0.0943  0.3949
  127MPD2    C4 1939   4.265   1.328   9.386  0.4147 -0.4317 -0.2638
  127MPD2    C5 1940   4.280   1.199   9.352 -0.5282 -0.2819  0.4331
  127MPD2     H 1941   4.337   1.322   9.715  0.0098 -1.3387  0.8681
  127MPD2    H1 1942   4.242   1.396   9.305  1.8764 -0.2407 -0.5119
  127MPD2    H2 1943   4.278   1.004   9.435 -0.0054  0.5326 -2.2638
  127MPD2    H3 1944   4.280   1.163   9.250  0.2653 -0.4002  0.4710
  127MPD2     N 1945   4.300   1.514   9.536 -0.3653  0.7588 -0.4470
  127MPD2    H5 1946   4.332   1.542   9.628  0.1384  1.1405 -0.7374
  127MPD2    N1 1947   4.317   1.052   9.686 -0.2285  0.7483  0.2681
  127MPD2    H7 1948   4.294   0.962   9.647  0.6740 -0.1568  1.8164
  128TCq2    C1 1949   4.317   1.066   9.822  0.5916 -0.4371 -0.1040
  128TCq2    O2 1950   4.333   1.162   9.896 -0.1253  0.1741 -0.0644
  128TCq2    C2 1951   4.260   0.937   9.870  0.3025  0.1609  0.9760
  128TCq2    C3 1952   4.310   0.905   9.991 -0.1732 -0.2630  0.3466
  128TCq2    C4 1953   4.277   0.788  10.047 -0.1282 -0.0255 -0.7476
  128TCq2    C5 1954   4.201   0.695   9.987 -0.1083 -0.1743 -0.3520
  128TCq2    C6 1955   4.161   0.724   9.861  0.1653  0.0336 -0.5284
  128TCq2    C7 1956   4.193   0.840   9.798  0.4995 -0.1588  0.5904
  128TCq2    C8 1957   4.063   0.640   9.785  0.9621 -0.3209 -0.5499
  128TCq2    O4 1958   4.074   0.651   9.662  0.3527  0.0648 -0.1421
  128TCq2    C9 1959   4.318   0.763  10.183 -0.3527  0.0809  0.4415
  128TCq2    O5 1960   4.416   0.826  10.218 -0.5095 -0.4424 -0.3984
  128TCq2    O6 1961   4.278   0.656  10.234  0.2498  1.0147  0.8561
  128TCq2    H2 1962   4.357   0.980  10.053  1.2375 -0.3830 -0.5872
  128TCq2    H3 1963   4.172   0.602  10.035 -0.3750  0.8403  1.4653
  128TCq2    H4 1964   4.144   0.873   9.707 -0.3236  0.3058  1.2091
  129MPD2     C 1965   2.814   2.501   1.296  0.3297  0.5784  0.8156
  129MPD2    C1 1966   2.914   2.412   1.288 -0.1419  0.6074 -0.1765
  129MPD2    C2 1967   3.036   2.450   1.239 -0.1755 -0.3235 -0.4285
  129MPD2    C3 1968   3.056   2.574   1.195  0.2532  0.5289  0.1779
  129MPD2    C4 1969   2.956   2.671   1.205  0.6876  0.2279 -0.6563
  129MPD2    C5 1970   2.836   2.631   1.258  0.1587 -0.3647  0.5965
  129MPD2     H 1971   3.126   2.389   1.242  0.2378  0.3670  0.9252
  129MPD2    H1 1972   2.972   2.775   1.180  0.8079 -0.0433 -1.7030
  129MPD2    H2 1973   2.713   2.474   1.323  0.4758 -2.2369 -1.5024
  129MPD2    H3 1974   2.748   2.694   1.246  0.7587  0.1535 -1.1596
  129MPD2     N 1975   3.187   2.601   1.144  0.6030 -0.3875  1.0909
  129MPD2    H5 1976   3.255   2.525   1.149  1.5698  0.3358 -1.1616
  129MPD2    N1 1977   2.896   2.284   1.333 -0.3734 -0.3392 -0.2486
  129MPD2    H7 1978   2.971   2.217   1.326 -1.8107 -1.7519 -2.0458
  130TCq2    C1 1979   2.784   2.217   1.368  0.5519 -0.0540 -1.0112
  130TCq2    O2 1980   2.674   2.257   1.401 -0.1017 -0.5449 -0.1703
  130TCq2    C2 1981   2.807   2.067   1.400  0.1972  0.1223  0.9089
  130TCq2    C3 1982   2.919   2.006   1.346  0.6712  0.2900 -0.4703
  130TCq2    C4 1983   2.968   1.902   1.412 -0.6361 -0.2029 -0.5912
  130TCq2    C5 1984   2.904   1.853   1.518 -0.5719  0.3042 -0.2428
  130TCq2    C6 1985   2.786   1.904   1.555  0.4148 -0.2099  0.0125
  130TCq2    C7 1986   2.727   2.012   1.495 -0.4720 -0.5976 -0.6134
  130TCq2    C8 1987   2.689   1.842   1.647 -0.2307 -0.5148 -0.3246
  130TCq2    O4 1988   2.574   1.882   1.642 -0.0228  0.4822 -0.1492
  130TCq2    C9 1989   3.104   1.842   1.384 -0.4140 -0.3163  0.7054
  130TCq2    O5 1990   3.175   1.885   1.293 -0.5161 -0.1323  0.3815
  130TCq2    O6 1991   3.148   1.747   1.456 -0.9860  0.2676 -0.0500
  130TCq2    H2 1992   2.974   2.035   1.258  0.5071 -1.4473 -1.1395
  130TCq2    H3 1993   2.941   1.765   1.570 -0.6094 -1.4724 -3.2498
  130TCq2    H4 1994   2.632   2.052   1.527 -1.7650 -1.6580 -3.0969
  131MPD2     C 1995   1.369   0.070  10.103  0.2862 -0.1338 -0.3113
  131MPD2    C1 1996   1.419   0.153  10.198  0.6009 -0.0912  0.2312
  131MPD2    C2 1997   1.419   0.105  10.329 -0.5053  0.3159 -0.1392
  131MPD2    C3 1998   1.362   4.709  10.364 -0.2812 -0.4038  0.3122
  131MPD2    C4 1999   1.312   4.625  10.267  0.6998 -0.1126 -0.6498
  131MPD2    C5 2000   1.311   4.676  10.139  0.4221  0.1081  0.5655
  131MPD2     H 2001   1.478   0.164  10.398 -1.2435  1.4163 -0.4682
  131MPD2    H1 2002   1.255   4.534  10.285 -0.2519  0.4480 -0.7951
  131MPD2    H2 2003   1.384   0.091   9.998 -1.6046 -0.3908 -0.6377
  131MPD2    H3 2004   1.276   4.610  10.060  0.5818 -0.7311  1.1992
  131MPD2     N 2005   1.359   4.667  10.499  0.1578  0.2705 -0.3787
  131MPD2    H5 2006   1.412   0.001  10.563  1.4319  0.2899 -1.4474
  131MPD2    N1 2007   1.467   0.272  10.149  0.3555  1.2021 -0.0408
  131MPD2    H7 2008   1.429   0.302  10.060  0.5794 -0.7191 -0.7909
  132TCq2    C1 2009   1.510   0.833  10.282 -0.1068 -0.2421 -0.3127
  132TCq2    O2 2010   1.468   0.803  10.394 -0.5344  0.6046  0.1096
  132TCq2    C2 2011   1.533   0.728  10.187  0.1350  1.2981  0.5324
  132TCq2    C3 2012   1.493   0.742  10.057  0.1903  0.1871 -0.1532
  132TCq2    C4 2013   1.481   0.633   9.980 -0.5228 -0.6305  0.4200
  132TCq2    C5 2014   1.497   0.511  10.037 -0.2502 -0.8331 -0.2515
  132TCq2    C6 2015   1.522   0.502  10.170  0.1814  0.2922 -0.3249
  132TCq2    C7 2016   1.531   0.604  10.247 -0.7249  0.7928 -0.1277
  132TCq2    C8 2017   1.535   0.367  10.226 -0.3709  0.6531  0.2214
  132TCq2    O4 2018   1.594   0.351  10.326 -0.1110 -0.3773 -0.1729
  132TCq2    C9 2019   1.438   0.632   9.848  0.2749 -0.2698 -0.0393
  132TCq2    O5 2020   1.409   0.746   9.800  0.3424  0.0237 -0.0801
  132TCq2    O6 2021   1.437   0.522   9.783 -0.1422  0.2175 -0.0323
  132TCq2    H2 2022   1.462   0.836  10.011 -1.3510 -0.1314  0.2158
  132TCq2    H3 2023   1.482   0.429   9.966 -0.9805  0.2151 -1.3126
  132TCq2    H4 2024   1.540   0.592  10.354  1.0188 -2.2586 -0.6119
  133MPD2     C 2025   1.037   1.844   8.912 -0.9402  0.9207  0.2675
  133MPD2    C1 2026   1.091   1.885   9.036 -0.4152  0.0593 -0.3299
  133MPD2    C2 2027   1.178   1.799   9.102  0.3540  0.1077  0.0787
  133MPD2    C3 2028   1.220   1.684   9.045 -0.3768  0.2858 -0.2777
  133MPD2    C4 2029   1.172   1.643   8.923 -0.6222 -0.2571  0.4453
  133MPD2    C5 2030   1.075   1.716   8.864 -0.2662  0.2679 -0.0758
  133MPD2     H 2031   1.219   1.829   9.198  1.4488 -1.5312  0.1225
  133MPD2    H1 2032   1.199   1.551   8.872 -0.5012  0.6690 -1.1624
  133MPD2    H2 2033   0.969   1.908   8.856  0.5684 -1.1457 -3.9489
  133MPD2    H3 2034   1.049   1.688   8.763  0.5217  0.2522 -0.2746
  133MPD2     N 2035   1.313   1.600   9.102 -0.2170 -1.0828 -0.3990
  133MPD2    H5 2036   1.340   1.515   9.052 -0.7216 -0.6357 -1.4394
  133MPD2    N1 2037   1.061   2.012   9.083  0.3308 -0.6077 -0.0052
  133MPD2    H7 2038   1.001   2.065   9.020 -1.3167  0.1526  2.1999
  134TCq2    C1 2039   1.073   2.053   9.221  0.3238  0.2136 -0.8346
  134TCq2    O2 2040   1.102   1.993   9.322  0.2754 -0.1931 -0.2668
  134TCq2    C2 2041   1.015   2.186   9.234  0.3584 -0.4368  0.1724
  134TCq2    C3 2042   0.986   2.272   9.129 -0.3250  0.1268 -0.3458
  134TCq2    C4 2043   0.963   2.399   9.147  0.6371  0.0052 -0.2565
  134TCq2    C5 2044   0.948   2.443   9.272  0.0625 -0.1416  0.3996
  134TCq2    C6 2045   0.972   2.356   9.380  0.4915 -0.1489 -0.3587
  134TCq2    C7 2046   1.012   2.230   9.365 -0.0873  0.6008 -0.1717
  134TCq2    C8 2047   0.988   2.424   9.510  0.1065 -0.4957 -0.3391
  134TCq2    O4 2048   0.952   2.540   9.525  0.0955 -0.3350 -0.0455
  134TCq2    C9 2049   0.955   2.490   9.037 -0.1095  0.0303  0.0482
  134TCq2    O5 2050   0.984   2.447   8.919 -0.0501  0.0967  0.0281
  134TCq2    O6 2051   0.908   2.603   9.060  0.1653 -0.1289  0.0725
  134TCq2    H2 2052   1.010   2.236   9.030 -1.1354  1.1923 -0.9249
  134TCq2    H3 2053   0.918   2.546   9.282 -1.0240 -0.3925 -0.3009
  134TCq2    H4 2054   1.028   2.168   9.452 -1.6960  0.7934  0.2762
  135MPD2     C 2055   2.967   2.048   8.865 -0.0506  0.6802  0.1162
  135MPD2    C1 2056   2.976   2.002   8.993  0.2448 -0.1075 -0.4563
  135MPD2    C2 2057   3.098   1.952   9.041 -0.3689 -0.0296  0.5582
  135MPD2    C3 2058   3.203   1.935   8.950 -0.1238  0.0680 -0.5077
  135MPD2    C4 2059   3.188   1.987   8.825  1.1075 -0.3850  0.6546
  135MPD2    C5 2060   3.073   2.040   8.779  0.0606  0.3181 -0.6520
  135MPD2     H 2061   3.111   1.921   9.144  2.8334 -0.3020  0.0598
  135MPD2    H1 2062   3.267   1.970   8.753 -0.5259  1.3092 -1.5602
  135MPD2    H2 2063   2.868   2.078   8.832  0.1139  1.4822  0.3513
  135MPD2    H3 2064   3.060   2.080   8.679 -0.2471  1.7685 -0.0313
  135MPD2     N 2065   3.314   1.861   8.987  0.1538  0.5048 -0.7244
  135MPD2    H5 2066   3.389   1.881   8.922 -0.2570  1.3712 -0.9255
  135MPD2    N1 2067   2.874   1.996   9.088 -0.2923 -0.0594 -0.2431
  135MPD2    H7 2068   2.899   1.966   9.182 -1.5590  1.9245  0.7146
  136TCq2    C1 2069   2.740   2.013   9.079 -0.0154  0.1920 -0.2345
  136TCq2    O2 2070   2.677   2.040   8.976 -0.6320  0.4313  0.4998
  136TCq2    C2 2071   2.676   2.010   9.213 -1.0271 -0.1747  0.3520
  136TCq2    C3 2072   2.542   2.051   9.212  0.6596  0.4315 -0.6602
  136TCq2    C4 2073   2.498   2.090   9.334  0.9166 -0.4423  0.5452
  136TCq2    C5 2074   2.582   2.094   9.448  0.4100 -0.4275 -0.0407
  136TCq2    C6 2075   2.709   2.061   9.440  0.1697 -0.2737  0.9053
  136TCq2    C7 2076   2.759   2.011   9.324 -0.2899 -0.4031 -0.0863
  136TCq2    C8 2077   2.812   2.088   9.542  0.2724 -0.2481 -0.0231
  136TCq2    O4 2078   2.926   2.105   9.499 -0.2220 -0.3671 -0.6477
  136TCq2    C9 2079   2.359   2.113   9.346  0.1122  0.3408  0.2802
  136TCq2    O5 2080   2.314   2.150   9.456 -0.7733  0.4732  0.8299
  136TCq2    O6 2081   2.289   2.111   9.243  0.0066 -0.3227 -0.5913
  136TCq2    H2 2082   2.484   2.058   9.120 -0.7993  1.7261  0.3682
  136TCq2    H3 2083   2.540   2.128   9.542  0.7579 -0.4938  0.1417
  136TCq2    H4 2084   2.856   1.962   9.330 -0.7963 -1.1955  1.5835
  137MPD2     C 2085   3.188   1.362   9.443 -0.3751 -0.4859 -0.6948
  137MPD2    C1 2086   3.060   1.347   9.489  0.2223  0.6167  0.4446
  137MPD2    C2 2087   3.035   1.305   9.616  0.2468  0.4133  0.8527
  137MPD2    C3 2088   3.140   1.292   9.702 -0.1248  0.1008 -0.0727
  137MPD2    C4 2089   3.265   1.314   9.658 -0.1066  0.4062  0.2579
  137MPD2    C5 2090   3.288   1.352   9.530 -0.1413 -0.3174  0.2430
  137MPD2     H 2091   2.932   1.297   9.648  0.2705 -1.0740  0.5487
  137MPD2    H1 2092   3.352   1.302   9.722  0.7942  0.0222 -1.0274
  137MPD2    H2 2093   3.210   1.383   9.339 -1.9208  0.1992 -0.8783
  137MPD2    H3 2094   3.390   1.378   9.505  0.2171 -0.4382  1.5724
  137MPD2     N 2095   3.109   1.243   9.829 -0.5356  0.5147  0.2290
  137MPD2    H5 2096   3.022   1.274   9.871 -0.0554  1.6800  0.3512
  137MPD2    N1 2097   2.953   1.365   9.394  0.2467 -0.4573  0.2155
  137MPD2    H7 2098   2.987   1.382   9.300  1.3322  0.7491  0.8373
  138TCq2    C1 2099   2.812   1.355   9.418 -0.2577 -0.2145  0.0832
  138TCq2    O2 2100   2.747   1.352   9.521 -0.4449  0.3294  0.3554
  138TCq2    C2 2101   2.741   1.344   9.289  0.5645  0.6721 -0.1302
  138TCq2    C3 2102   2.811   1.331   9.169  0.3823  0.2103 -0.1434
  138TCq2    C4 2103   2.740   1.309   9.055 -0.1547  0.0612  0.2881
  138TCq2    C5 2104   2.603   1.309   9.061  0.3534  0.4515  0.3598
  138TCq2    C6 2105   2.539   1.329   9.181  0.3177  0.2051 -0.2946
  138TCq2    C7 2106   2.606   1.344   9.302  0.1179  0.5312 -0.5367
  138TCq2    C8 2107   2.391   1.345   9.177  0.5216 -0.6737 -0.0137
  138TCq2    O4 2108   2.340   1.346   9.068 -0.0399  0.2333  0.1727
  138TCq2    C9 2109   2.801   1.298   8.928  0.4064  0.5884 -0.8947
  138TCq2    O5 2110   2.920   1.342   8.925 -0.6460 -0.1463 -0.4291
  138TCq2    O6 2111   2.718   1.287   8.827 -0.3527  0.2065  0.0730
  138TCq2    H2 2112   2.918   1.346   9.162  0.0607  1.0752 -3.2455
  138TCq2    H3 2113   2.544   1.304   8.970  2.1112 -2.2908 -0.6221
  138TCq2    H4 2114   2.557   1.346   9.398  1.2248 -0.9289  0.0619
  139TMC2    C1 2115   3.542   0.407  13.062 -0.1781 -0.2139  0.3783
  139TMC2    C2 2116   3.556   0.422  12.928  0.1029  0.8271  0.0757
  139TMC2    C3 2117   3.530   0.545  12.874 -0.6821  0.1480  0.6431
  139TMC2    C4 2118   3.505   0.507  13.145 -0.6475 -0.2017 -0.0967
  139TMC2    C5 2119   3.486   0.630  13.086  0.0615 -0.1469  0.5713
  139TMC2    C6 2120   3.491   0.652  12.946  0.0057 -0.7472  0.0301
  139TMC2     C 2121   3.583   0.275  13.109  0.7034  0.2388  0.2694
  139TMC2     O 2122   3.631   0.205  13.022 -0.4462 -0.7558 -0.3504
  139TMC2     H 2123   3.590   0.342  12.862  0.5705  1.0098  0.1004
  139TMC2    H1 2124   3.500   0.486  13.252 -0.4140  0.7715  0.1021
  139TMC2    H2 2125   3.484   0.751  12.902 -1.6992 -1.0113 -0.2995
  139TMC2    C7 2126   3.397   0.719  13.168  0.5768  0.3508  0.2041
  139TMC2    C8 2127   3.557   0.555  12.740  0.7413  0.4466  0.4221
  139TMC2    O1 2128   3.345   0.816  13.116  0.1210 -0.4288 -0.2109
  139TMC2    O2 2129   3.616   0.471  12.674 -0.5871  0.3800  0.0795
  139TMC2    O5 2130   3.454   0.633  12.696 -0.1352  0.2152 -0.7836
  139TMC2    H5 2131   3.394   0.674  12.763 -0.8447 -0.9946 -0.6831
  140MPD2     C 2132   3.503   0.102  13.420  0.3773  0.2547  0.3122
  140MPD2    C1 2133   3.582   0.128  13.313  0.3148 -0.1389 -0.3146
  140MPD2    C2 2134   3.682   0.036  13.271  0.5649 -0.2693 -0.3992
  140MPD2    C3 2135   3.698   4.638  13.334  0.0322 -0.5767 -0.0446
  140MPD2    C4 2136   3.618   4.616  13.441  0.3018  0.2801 -0.1482
  140MPD2    C5 2137   3.525   4.709  13.479 -0.0128 -0.0105  0.0180
  140MPD2     H 2138   3.748   0.055  13.188  1.9762 -3.3807 -0.0035
  140MPD2    H1 2139   3.633   4.527  13.501  0.6580  1.0162  0.8455
  140MPD2    H2 2140   3.426   0.167  13.460 -1.0180 -0.1852 -1.6761
  140MPD2    H3 2141   3.452   4.677  13.552  0.0479 -1.2886 -0.4786
  140MPD2     N 2142   3.787   4.544  13.276 -0.4429 -0.1269  0.2566
  140MPD2    H5 2143   3.837   4.580  13.195  2.3454 -1.1951  1.5100
  140MPD2    N1 2144   3.568   0.256  13.246  0.5507  0.3263  0.3536
  140MPD2    H7 2145   3.504   0.323  13.288 -0.5008 -0.7475  0.4786
  141TCq2    C1 2146   4.248   1.811  14.442 -0.4794  0.0576  0.4806
  141TCq2    O2 2147   4.229   1.854  14.330 -0.5254  0.0831  0.3652
  141TCq2    C2 2148   4.254   1.903  14.560  0.1028 -0.2864 -0.0535
  141TCq2    C3 2149   4.286   1.862  14.683  0.4292 -0.3030  0.2683
  141TCq2    C4 2150   4.313   1.947  14.780 -0.2799 -0.5050 -0.8408
  141TCq2    C5 2151   4.336   2.075  14.752  0.3950  0.3705 -0.1801
  141TCq2    C6 2152   4.315   2.123  14.620  0.0353  0.6458 -0.3829
  141TCq2    C7 2153   4.280   2.033  14.521  0.3104 -0.3850 -0.9517
  141TCq2    C8 2154   4.388   2.244  14.572  0.2257 -0.1589  0.1745
  141TCq2    O4 2155   4.380   2.251  14.451 -0.5414  0.1530 -0.4570
  141TCq2    C9 2156   4.348   1.893  14.909  0.2826 -0.5613 -0.2817
  141TCq2    O5 2157   4.369   1.766  14.923 -0.0151 -0.3394  0.0242
  141TCq2    O6 2158   4.404   1.981  14.984 -0.0541  0.2734  0.1898
  141TCq2    H2 2159   4.281   1.757  14.711 -2.2985 -0.9113 -2.4391
  141TCq2    H3 2160   4.379   2.140  14.828  0.9066 -2.4878  1.9834
  141TCq2    H4 2161   4.268   2.062  14.417 -0.5778 -0.0466 -0.7544
  142MPD2     C 2162   1.476   4.018  10.952  0.4962  0.4689  0.2107
  142MPD2    C1 2163   1.438   3.992  10.825  1.0724 -0.3595 -0.2010
  142MPD2    C2 2164   1.472   4.075  10.721 -0.5655 -0.1783  0.6762
  142MPD2    C3 2165   1.561   4.181  10.748  0.1464 -0.2784  0.4089
  142MPD2    C4 2166   1.594   4.212  10.881  0.5418  1.3061 -0.5616
  142MPD2    C5 2167   1.548   4.133  10.986  0.3458  0.2380 -0.0305
  142MPD2     H 2168   1.446   4.048  10.619 -0.5706  0.3140  0.5436
  142MPD2    H1 2169   1.661   4.294  10.903 -0.2638  1.3993  1.5816
  142MPD2    H2 2170   1.443   3.949  11.029 -1.6688 -1.7243 -2.6710
  142MPD2    H3 2171   1.579   4.153  11.088  1.9117 -4.0623  0.3314
  142MPD2     N 2172   1.612   4.265  10.645  0.3873 -0.0461 -0.3529
  142MPD2    H5 2173   1.663   4.345  10.682 -0.6048  1.1907 -1.6757
  142MPD2    N1 2174   1.348   3.882  10.814 -0.2467  1.1427  0.4198
  142MPD2    H7 2175   1.331   3.830  10.900  1.7002  0.6678  0.5142
  143TCq2    C1 2176   1.575   4.261  10.514 -0.0624  0.7109  0.2133
  143TCq2    O2 2177   1.486   4.199  10.463 -0.4164 -0.3543 -0.2959
  143TCq2    C2 2178   1.641   4.353  10.424 -0.8184  0.6775 -0.2623
  143TCq2    C3 2179   1.581   4.381  10.302 -0.0801 -0.1578  0.4756
  143TCq2    C4 2180   1.649   4.457  10.215 -0.3892  0.2791 -0.9121
  143TCq2    C5 2181   1.757   4.531  10.253  0.5497 -0.6255 -0.7023
  143TCq2    C6 2182   1.812   4.504  10.375 -0.3404 -0.1018 -0.3944
  143TCq2    C7 2183   1.763   4.405  10.459 -0.4213  0.3559 -0.4367
  143TCq2    C8 2184   1.939   4.558  10.416  0.2387 -0.3308 -0.3828
  143TCq2    O4 2185   1.994   4.502  10.510 -0.2027 -0.5405  0.2458
  143TCq2    C9 2186   1.584   4.468  10.088  0.3082 -0.2709 -0.5739
  143TCq2    O5 2187   1.524   4.363  10.047  0.1760 -0.0078  0.1410
  143TCq2    O6 2188   1.641   4.546  10.009  0.0976 -0.4714  0.4993
  143TCq2    H2 2189   1.490   4.326  10.279 -0.7883  1.3605 -0.3072
  143TCq2    H3 2190   1.804   4.599  10.183 -2.0710 -2.6052 -4.4088
  143TCq2    H4 2191   1.804   4.380  10.556 -0.2209  2.3307 -0.0064
  144MPD2     C 2192   4.258   4.481   0.336  0.6520  0.0840  0.5597
  144MPD2    C1 2193   4.251   4.343   0.334  0.1881 -0.7856 -0.1322
  144MPD2    C2 2194   4.301   4.281   0.442 -0.1826 -0.4567  0.0413
  144MPD2    C3 2195   4.366   4.340   0.548 -0.5782 -0.2338  1.1058
  144MPD2    C4 2196   4.381   4.473   0.541 -0.4670 -0.6632 -0.3236
  144MPD2    C5 2197   4.329   4.539   0.436 -0.3284  0.3266  0.0845
  144MPD2     H 2198   4.300   4.173   0.437 -0.0870 -0.4795  0.5134
  144MPD2    H1 2199   4.438   4.529   0.614 -0.2514  0.0429 -1.0330
  144MPD2    H2 2200   4.224   4.550   0.260  1.5003  0.0786  0.1680
  144MPD2    H3 2201   4.345   4.646   0.443  0.0553  0.2847 -0.1275
  144MPD2     N 2202   4.433   4.267   0.654 -0.2895 -0.8345 -0.0691
  144MPD2    H5 2203   4.468   4.323   0.732  0.9678 -1.2902 -0.3108
  144MPD2    N1 2204   4.179   4.275   0.233 -0.0347  0.1469 -0.2436
  144MPD2    H7 2205   4.169   4.176   0.250 -0.6395  0.2419 -0.0399
  145TCq2    C1 2206   4.456   4.131   0.659  0.0446 -0.0682  0.7848
  145TCq2    O2 2207   4.449   4.046   0.566 -0.5179  0.3183  0.2849
  145TCq2    C2 2208   4.540   4.102   0.776  1.2436  0.2270  0.2497
  145TCq2    C3 2209   4.658   4.045   0.753  0.3366  0.3195 -0.0728
  145TCq2    C4 2210   0.024   4.028   0.855 -0.0644  0.0477  0.5419
  145TCq2    C5 2211   0.017   4.086   0.976 -0.6104  0.5260 -0.6379
  145TCq2    C6 2212   4.627   4.163   0.996  0.7265 -0.1910  0.0632
  145TCq2    C7 2213   4.526   4.162   0.898 -0.7494  0.1722  0.9502
  145TCq2    C8 2214   4.591   4.218   1.130 -0.2256  0.2337 -0.0426
  145TCq2    O4 2215   4.672   4.182   1.216  0.5899 -0.1019  0.0568
  145TCq2    C9 2216   0.152   3.967   0.828  0.2544 -0.3513 -0.1697
  145TCq2    O5 2217   0.158   3.916   0.717  0.0441 -0.2785  0.8781
  145TCq2    O6 2218   0.247   3.983   0.909  0.4002 -0.1754  0.5914
  145TCq2    H2 2219   4.688   4.015   0.653  0.9797  0.1277  0.1810
  145TCq2    H3 2220   0.101   4.083   1.045 -0.7511  0.0885 -0.4819
  145TCq2    H4 2221   4.431   4.214   0.910 -0.6672  0.5027  0.1992
  146TMC2    C1 2222   0.568   2.613  12.534 -0.0173  0.0242 -0.7258
  146TMC2    C2 2223   0.446   2.605  12.465  0.1109 -0.1811 -0.0170
  146TMC2    C3 2224   0.431   2.516  12.360  0.3491  0.1120  0.0217
  146TMC2    C4 2225   0.675   2.539  12.495  0.1642  0.5115 -0.2391
  146TMC2    C5 2226   0.663   2.468  12.382 -0.7972 -0.0994  0.5071
  146TMC2    C6 2227   0.540   2.454  12.310  0.3448  0.4482  1.2444
  146TMC2     C 2228   0.586   2.720  12.629 -0.6976  0.4619  0.1004
  146TMC2     O 2229   0.514   2.819  12.610  0.7551  0.2248  0.2548
  146TMC2     H 2230   0.360   2.668  12.488 -0.4894 -1.1184  0.3155
  146TMC2    H1 2231   0.774   2.556  12.537 -0.3503  0.1887  1.0763
  146TMC2    H2 2232   0.542   2.412  12.210 -0.3148 -1.7672  2.1694
  146TMC2    C7 2233   0.777   2.392  12.327 -0.6114  0.6165  0.0712
  146TMC2    C8 2234   0.312   2.527  12.278 -0.7776  0.4025  0.0931
  146TMC2    O1 2235   0.766   2.338  12.218 -0.4890 -0.1303 -0.3821
  146TMC2    O2 2236   0.233   2.619  12.287  0.1579 -0.3583  0.1583
  146TMC2    O5 2237   0.269   2.410  12.223  0.1391 -0.4221 -0.3200
  146TMC2    H5 2238   0.334   2.337  12.234  0.2137 -0.4539 -0.9443
  147MPD2     C 2239   1.209   2.124  12.420 -0.0239 -0.0569  0.3682
  147MPD2    C1 2240   1.146   2.152  12.540  0.7255  0.2670 -0.3139
  147MPD2    C2 2241   1.031   2.227  12.548 -0.1794 -0.0657 -0.0574
  147MPD2    C3 2242   0.971   2.269  12.431  0.2693 -0.8484 -0.2606
  147MPD2    C4 2243   1.024   2.227  12.308 -0.4697  0.6491  0.1901
  147MPD2    C5 2244   1.147   2.164  12.303 -0.0598 -0.3373 -0.1859
  147MPD2     H 2245   0.987   2.264  12.640  0.5424 -0.7075  0.5431
  147MPD2    H1 2246   0.976   2.257  12.216 -2.3541  3.2603  2.0093
  147MPD2    H2 2247   1.305   2.074  12.407  1.4442  2.5200  1.3669
  147MPD2    H3 2248   1.188   2.131  12.208  0.2431 -2.5902  0.7218
  147MPD2     N 2249   0.849   2.343  12.435 -0.0504  0.4844  0.3174
  147MPD2    H5 2250   0.829   2.382  12.527  1.2149 -1.3940  1.3766
  147MPD2    N1 2251   1.205   2.104  12.656  0.0747  0.3172  0.2866
  147MPD2    H7 2252   1.294   2.055  12.656 -0.6523 -1.0100  1.2760
  148MPD2     C 2253   1.032   1.303  10.727 -0.3767 -0.2208 -0.2501
  148MPD2    C1 2254   1.110   1.196  10.704  0.1954  0.7010  0.0632
  148MPD2    C2 2255   1.063   1.088  10.637 -0.0368 -0.4099  0.4643
  148MPD2    C3 2256   0.939   1.094  10.576 -0.1295 -0.3772 -0.5910
  148MPD2    C4 2257   0.861   1.205  10.593 -0.8894 -0.5471  0.1163
  148MPD2    C5 2258   0.901   1.301  10.685 -0.9438 -0.0881  0.2553
  148MPD2     H 2259   1.130   1.003  10.641  0.3381 -0.1840 -1.0332
  148MPD2    H1 2260   0.775   1.213  10.528 -0.5159 -1.2356 -0.4592
  148MPD2    H2 2261   1.058   1.399  10.771 -1.5068 -0.3506  0.7091
  148MPD2    H3 2262   0.846   1.393  10.697  0.1458  0.8043 -1.5331
  148MPD2     N 2263   0.881   0.992  10.492  0.3959 -0.8664  0.6729
  148MPD2    H5 2264   0.795   1.014  10.442  0.6820 -1.3750 -0.0436
  148MPD2    N1 2265   1.245   1.192  10.756  0.7743  0.3399 -0.2121
  148MPD2    H7 2266   1.290   1.105  10.729  0.8805  0.5025 -0.5584
  149TCq2    C1 2267   1.324   1.292  10.808  0.1821 -0.7010 -0.6850
  149TCq2    O2 2268   1.295   1.409  10.827  0.0838 -0.0675 -0.0096
  149TCq2    C2 2269   1.460   1.246  10.822 -0.5260 -0.9890 -0.7767
  149TCq2    C3 2270   1.551   1.340  10.789 -0.1373 -0.3202  0.5473
  149TCq2    C4 2271   1.682   1.311  10.767  0.4890 -0.1390 -0.7245
  149TCq2    C5 2272   1.712   1.177  10.746 -0.5524  0.1388 -0.2255
  149TCq2    C6 2273   1.619   1.081  10.778  0.1106  0.7854 -0.5743
  149TCq2    C7 2274   1.488   1.110  10.813  0.0118 -0.0393 -0.2271
  149TCq2    C8 2275   1.635   0.947  10.736  0.1160 -0.0381 -0.0125
  149TCq2    O4 2276   1.551   0.869  10.780  0.1592 -0.0927  0.8645
  149TCq2    C9 2277   1.770   1.419  10.716 -0.2011  0.1302  0.0409
  149TCq2    O5 2278   1.728   1.538  10.733 -0.3822  0.2726 -0.2525
  149TCq2    O6 2279   1.886   1.385  10.677 -0.0320  0.3403 -0.2180
  149TCq2    H2 2280   1.528   1.446  10.789 -0.2508 -0.3290 -1.6116
  149TCq2    H3 2281   1.811   1.148  10.714 -0.7251  0.6651 -1.2451
  149TCq2    H4 2282   1.408   1.039  10.832  0.8310 -0.5959  1.1817
  150MPD2     C 2283   3.071   0.496  11.892 -0.5896  0.6995  0.0121
  150MPD2    C1 2284   3.012   0.618  11.915  1.0221 -0.0358  0.3019
  150MPD2    C2 2285   3.084   0.716  11.984 -0.3166 -0.0220 -0.9382
  150MPD2    C3 2286   3.217   0.698  12.013 -0.5734 -0.1625  0.1117
  150MPD2    C4 2287   3.284   0.579  11.980 -0.2190 -0.2807 -0.5762
  150MPD2    C5 2288   3.203   0.485  11.924 -0.5482  0.3608  0.2306
  150MPD2     H 2289   3.036   0.810  12.010  2.2554  1.3096 -1.0104
  150MPD2    H1 2290   3.390   0.561  11.993 -0.0210 -0.6700 -2.7134
  150MPD2    H2 2291   3.023   0.425  11.826  0.9703 -1.5847  1.3555
  150MPD2    H3 2292   3.262   0.396  11.905 -0.0493  0.8730 -0.6257
  150MPD2     N 2293   3.288   0.803  12.061  0.3817  0.1501 -0.4519
  150MPD2    H5 2294   3.245   0.895  12.058 -0.6771 -0.2974  1.0323
  150MPD2    N1 2295   2.870   0.631  11.904 -0.9870 -0.1796  0.0215
  150MPD2    H7 2296   2.824   0.546  11.872  0.9419 -0.6790 -1.4027
  151TCq2    C1 2297   3.421   0.807  12.091 -0.6757  0.4485 -0.5300
  151TCq2    O2 2298   3.501   0.716  12.117 -0.5607  0.7195 -0.0847
  151TCq2    C2 2299   3.480   0.942  12.080 -0.1662 -0.5628 -0.6006
  151TCq2    C3 2300   3.399   1.044  12.034  0.1454  0.3525 -0.1911
  151TCq2    C4 2301   3.446   1.169  12.054  0.0485 -0.0847  0.8511
  151TCq2    C5 2302   3.566   1.193  12.120  0.5076  0.2307 -0.8829
  151TCq2    C6 2303   3.643   1.087  12.165 -0.0981 -0.2018  0.5371
  151TCq2    C7 2304   3.599   0.965  12.140  0.0004 -0.2325  0.2069
  151TCq2    C8 2305   3.760   1.116  12.244 -0.7283 -0.3756  0.8499
  151TCq2    O4 2306   3.818   1.221  12.237 -0.3704  0.0873 -0.3184
  151TCq2    C9 2307   3.370   1.291  12.009  0.0961 -0.4037 -0.4816
  151TCq2    O5 2308   3.434   1.399  12.009 -0.7028  0.1151 -0.2235
  151TCq2    O6 2309   3.258   1.267  11.951 -0.4656 -0.2803 -0.0821
  151TCq2    H2 2310   3.312   1.032  11.971  1.1328 -1.3606 -1.2267
  151TCq2    H3 2311   3.600   1.295  12.134 -1.1564  0.6572 -0.0127
  151TCq2    H4 2312   3.663   0.880  12.156  0.5276 -0.1159 -1.2867
  152MPD2     C 2313   2.894   0.217  12.685  0.0539 -0.2374  0.2647
  152MPD2    C1 2314   2.875   0.334  12.619  0.2010  0.7810  0.0418
  152MPD2    C2 2315   2.744   0.376  12.602  0.4479  0.2634 -0.0297
  152MPD2    C3 2316   2.645   0.299  12.659  0.1837 -0.3027  0.4090
  152MPD2    C4 2317   2.669   0.186  12.728  0.3119  0.6620  0.7991
  152MPD2    C5 2318   2.797   0.148  12.750 -0.2332  0.0059 -0.0079
  152MPD2     H 2319   2.721   0.467  12.548 -1.2311  0.3910  0.9036
  152MPD2    H1 2320   2.586   0.126  12.763  0.5684 -0.1097  0.0910
  152MPD2    H2 2321   2.998   0.186  12.691  0.8944  2.4172 -0.6297
  152MPD2    H3 2322   2.824   0.054  12.797  4.3720 -0.1366 -2.9095
  152MPD2     N 2323   2.513   0.355  12.654  0.2220  0.6511 -0.0603
  152MPD2    H5 2324   2.508   0.445  12.607 -1.1693  0.3190 -0.5557
  152MPD2    N1 2325   2.990   0.401  12.564 -0.0821  0.5328 -0.7432
  152MPD2    H7 2326   3.084   0.370  12.586 -0.9997  0.2377  2.6307
  153TCq2    C1 2327   2.985   0.513  12.484  0.0447 -0.5261  0.3052
  153TCq2    O2 2328   2.893   0.582  12.447 -0.0082 -0.0942 -0.3640
  153TCq2    C2 2329   3.120   0.541  12.441  0.3405 -0.2849 -0.2375
  153TCq2    C3 2330   3.212   0.445  12.418  0.1787 -0.1399 -0.1594
  153TCq2    C4 2331   3.341   0.476  12.410  0.3717 -0.1418 -0.2299
  153TCq2    C5 2332   3.375   0.612  12.391  1.0949 -0.7008 -0.4423
  153TCq2    C6 2333   3.280   0.711  12.400 -0.1781  0.4218 -0.3380
  153TCq2    C7 2334   3.146   0.678  12.426  0.2985 -0.6439 -0.0643
  153TCq2    C8 2335   3.317   0.852  12.416 -0.2741  0.0438 -0.6513
  153TCq2    O4 2336   3.237   0.937  12.375 -0.2828 -0.4487  0.7331
  153TCq2    C9 2337   3.443   0.369  12.407  0.0105  0.2530 -0.0539
  153TCq2    O5 2338   3.557   0.408  12.373  0.0889  0.2043 -0.3330
  153TCq2    O6 2339   3.411   0.253  12.441 -0.4239 -0.3514 -0.0685
  153TCq2    H2 2340   3.207   0.339  12.437  0.3621 -0.3683 -1.3934
  153TCq2    H3 2341   3.481   0.637  12.381  0.6157  1.4096 -0.3533
  153TCq2    H4 2342   3.068   0.746  12.459 -0.7947 -1.1493 -1.6208
  154MPD2     C 2343   4.383   0.229   0.405 -0.5921  0.4700  0.9125
  154MPD2    C1 2344   4.423   0.353   0.360  0.4625  0.5586 -0.2362
  154MPD2    C2 2345   4.340   0.462   0.375  0.0985 -0.4688 -0.2891
  154MPD2    C3 2346   4.217   0.434   0.435  0.5088  0.0536  0.5600
  154MPD2    C4 2347   4.172   0.308   0.460  0.7635 -0.6645 -0.1629
  154MPD2    C5 2348   4.259   0.207   0.454 -0.1023  0.2706 -0.2589
  154MPD2     H 2349   4.380   0.561   0.357 -0.5471 -0.6378 -2.6744
  154MPD2    H1 2350   4.075   0.289   0.505  0.2533  0.3930 -0.8328
  154MPD2    H2 2351   4.445   0.149   0.369  0.7128  1.8935  0.0133
  154MPD2    H3 2352   4.222   0.112   0.491  0.7315  0.1794  0.3485
  154MPD2     N 2353   4.131   0.540   0.477 -0.0975  0.5979  0.4513
  154MPD2    H5 2354   4.049   0.522   0.534 -1.0717  0.3357 -1.0451
  154MPD2    N1 2355   4.557   0.355   0.309  0.0714  0.3368  0.2689
  154MPD2    H7 2356   4.589   0.260   0.291 -0.6467  0.5817 -2.3087
  155TCq2    C1 2357   4.633   0.460   0.293 -0.2917 -0.1712 -0.8313
  155TCq2    O2 2358   4.617   0.583   0.308 -0.0915 -0.4360 -0.1122
  155TCq2    C2 2359   0.042   0.426   0.248  0.5812 -0.7386 -0.7122
  155TCq2    C3 2360   0.088   0.304   0.272  0.2985  0.6156 -0.0163
  155TCq2    C4 2361   0.218   0.280   0.225  1.2038  0.5290  0.2934
  155TCq2    C5 2362   0.301   0.371   0.168  0.0180 -0.2788 -0.1521
  155TCq2    C6 2363   0.245   0.491   0.149  0.7447  0.5641 -0.2702
  155TCq2    C7 2364   0.116   0.521   0.187  0.5832  0.7786  0.6305
  155TCq2    C8 2365   0.342   0.600   0.148 -0.1222 -0.3765  0.3446
  155TCq2    O4 2366   0.444   0.583   0.216 -0.6790  0.5763 -0.0791
  155TCq2    C9 2367   0.271   0.147   0.242  0.0026 -0.0149  0.2992
  155TCq2    O5 2368   0.388   0.131   0.199 -0.2138 -0.1866  0.1390
  155TCq2    O6 2369   0.222   0.079   0.336 -0.6449 -0.5280  0.0969
  155TCq2    H2 2370   0.036   0.230   0.332  2.3761 -1.0781 -0.3274
  155TCq2    H3 2371   0.396   0.342   0.125 -0.1393  0.9537 -1.3468
  155TCq2    H4 2372   0.081   0.623   0.177  1.1476  0.9986  0.8957
  156MPD2     C 2373   3.282   2.601  12.279  0.1321  0.2845  0.1916
  156MPD2    C1 2374   3.158   2.626  12.235 -0.0707 -0.2842  0.0368
  156MPD2    C2 2375   3.065   2.661  12.329  0.3368 -0.2234  0.2015
  156MPD2    C3 2376   3.093   2.694  12.457  0.1717  0.6547 -0.7336
  156MPD2    C4 2377   3.218   2.680  12.503 -0.5235  0.2906 -0.2315
  156MPD2    C5 2378   3.313   2.636  12.413  0.5669  0.1051 -0.3679
  156MPD2     H 2379   2.960   2.663  12.301  0.2661  0.9854  0.5537
  156MPD2    H1 2380   3.248   2.686  12.607  1.8734 -2.2500 -0.7687
  156MPD2    H2 2381   3.369   2.580  12.218  0.4472  2.0226  0.0457
  156MPD2    H3 2382   3.417   2.629  12.442  0.8733  1.7511 -1.0871
  156MPD2     N 2383   2.987   2.718  12.537 -0.2718  0.3179 -0.3779
  156MPD2    H5 2384   2.893   2.722  12.500 -0.3636 -1.6341 -0.3675
  156MPD2    N1 2385   3.131   2.612  12.092  0.1616  0.1903  0.2099
  156MPD2    H7 2386   3.205   2.567  12.039 -3.2986 -1.7341 -2.9102
  157TCq2    C1 2387   3.030   2.666  12.022  0.5939  0.2021  0.7885
  157TCq2    O2 2388   2.933   2.724  12.068 -0.0367 -0.0173  0.2594
  157TCq2    C2 2389   3.038   2.640  11.880  0.0951 -0.7478  0.4887
  157TCq2    C3 2390   3.114   2.539  11.824  0.0499 -0.4161 -0.0294
  157TCq2    C4 2391   3.085   2.492  11.701  0.4318  0.4210  0.6200
  157TCq2    C5 2392   2.978   2.531  11.630  0.1633  0.1504 -0.3202
  157TCq2    C6 2393   2.906   2.630  11.683  0.0264  0.2103  0.4140
  157TCq2    C7 2394   2.926   2.678  11.812  0.4242 -0.5316 -0.1887
  157TCq2    C8 2395   2.801   2.698  11.608  0.0851  1.0253  0.6129
  157TCq2    O4 2396   2.818   2.719  11.488  0.5870 -0.2621  0.1938
  157TCq2    C9 2397   3.170   2.390  11.643  0.7004 -0.0257 -0.5916
  157TCq2    O5 2398   3.151   2.352  11.525  0.5880  0.0661 -0.2976
  157TCq2    O6 2399   3.260   2.340  11.720  0.0286 -0.0735  0.0706
  157TCq2    H2 2400   3.202   2.503  11.875  0.1608  1.9568  1.4403
  157TCq2    H3 2401   2.963   2.492  11.530 -0.8184 -1.3930  0.4305
  157TCq2    H4 2402   2.868   2.761  11.851  0.3320 -1.1141  0.9261
  158TMC2    C1 2403   3.841   1.727  13.888  0.2594 -0.2377 -0.5158
  158TMC2    C2 2404   3.931   1.808  13.830 -0.6739  0.7622  0.0497
  158TMC2    C3 2405   3.893   1.904  13.746  0.2809 -0.0142  0.2663
  158TMC2    C4 2406   3.709   1.730  13.853 -0.3224 -0.0488  0.3278
  158TMC2    C5 2407   3.677   1.824  13.762 -0.0810  0.1106  0.4102
  158TMC2    C6 2408   3.766   1.912  13.703 -0.5133  0.0056 -0.1903
  158TMC2     C 2409   3.896   1.623  13.971  0.5439 -1.0172 -0.5341
  158TMC2     O 2410   4.011   1.585  13.944  0.4766 -0.2546 -0.6001
  158TMC2     H 2411   4.028   1.826  13.876 -0.3889  0.5915 -0.4781
  158TMC2    H1 2412   3.634   1.672  13.906  0.6199 -1.0843  0.5400
  158TMC2    H2 2413   3.713   1.987  13.644 -0.1102 -0.3176 -0.9650
  158TMC2    C7 2414   3.538   1.854  13.754 -0.3675 -0.1503 -0.5970
  158TMC2    C8 2415   3.986   2.017  13.738  0.5503  0.0862  0.7355
  158TMC2    O1 2416   3.509   1.972  13.752  0.3092  0.1472  0.1196
  158TMC2    O2 2417   4.042   2.059  13.840 -0.2415 -0.3897 -0.4054
  158TMC2    O5 2418   3.944   2.088  13.633 -0.0088  0.5383 -0.1551
  158TMC2    H5 2419   3.890   2.048  13.562 -1.8496  1.4461  0.7407
  159MPD2     C 2420   3.873   1.237  14.298 -0.5660  0.0526  0.1432
  159MPD2    C1 2421   3.744   1.288  14.287  0.2586  0.1952 -0.2128
  159MPD2    C2 2422   3.727   1.398  14.202 -0.0278  0.3771  0.2700
  159MPD2    C3 2423   3.830   1.458  14.137 -0.5885  0.7966 -0.6531
  159MPD2    C4 2424   3.958   1.414  14.167 -0.2107 -0.7032  0.3960
  159MPD2    C5 2425   3.978   1.300  14.240 -0.0559 -0.1023 -0.3043
  159MPD2     H 2426   3.628   1.440  14.184  0.2949  1.4067  0.8650
  159MPD2    H1 2427   4.049   1.440  14.113 -0.6315 -0.9847 -0.4367
  159MPD2    H2 2428   3.889   1.141  14.346  1.1647  0.1608 -0.2173
  159MPD2    H3 2429   4.076   1.262  14.262 -0.9063  0.0609  3.6806
  159MPD2     N 2430   3.800   1.563  14.048 -0.5052 -0.8427 -0.1134
  159MPD2    H5 2431   3.703   1.594  14.045 -0.0147  0.6050 -0.7663
  159MPD2    N1 2432   3.636   1.219  14.357 -0.1434  0.2959  0.6138
  159MPD2    H7 2433   3.659   1.135  14.409 -0.8817 -0.8995 -1.0276
  160TMC2    C1 2434   3.465   4.374   0.803  0.5951 -0.2869  0.7670
  160TMC2    C2 2435   3.526   4.251   0.779 -0.1621  0.1198 -0.8115
  160TMC2    C3 2436   3.610   4.247   0.674  0.1665  0.1223 -0.4459
  160TMC2    C4 2437   3.530   4.490   0.758 -0.3747  0.2527 -0.0014
  160TMC2    C5 2438   3.632   4.473   0.675  0.2674 -0.0172  0.5166
  160TMC2    C6 2439   3.678   4.358   0.630  0.0033  0.5392  0.2103
  160TMC2     C 2440   3.368   4.386   0.909  0.3686  0.2590  0.1279
  160TMC2     O 2441   3.348   4.283   0.977  0.1826  0.1191  0.3406
  160TMC2     H 2442   3.487   4.162   0.827  1.8910 -1.1708 -1.5570
  160TMC2    H1 2443   3.485   4.581   0.795  1.0936  1.2109 -0.5766
  160TMC2    H2 2444   3.736   4.343   0.540 -0.8203  0.4374 -0.3025
  160TMC2    C7 2445   3.685   4.599   0.623 -0.0758  0.1588 -0.3225
  160TMC2    C8 2446   3.655   4.114   0.624 -0.2027  0.0026 -0.5923
  160TMC2    O1 2447   3.632   4.698   0.667  0.1478  0.3054 -0.1726
  160TMC2    O2 2448   3.757   4.114   0.564 -0.1420  0.1397  0.0790
  160TMC2    O5 2449   3.566   4.009   0.644 -0.5807  0.1228  0.5451
  160TMC2    H5 2450   3.477   4.039   0.671 -0.8237  2.4431 -2.7529
  161MPD2     C 2451   3.173   4.470   1.104  0.3865 -0.4220 -0.0074
  161MPD2    C1 2452   3.185   4.531   0.982 -0.2609  0.2654  0.4724
  161MPD2    C2 2453   3.096   4.634   0.944  0.2569  0.3055  0.2482
  161MPD2    C3 2454   2.995   4.673   1.030  0.3239  0.7751  0.8146
  161MPD2    C4 2455   2.989   4.611   1.158 -0.6861 -0.1256 -0.6670
  161MPD2    C5 2456   3.071   4.504   1.187  0.5060 -0.8761  0.1562
  161MPD2     H 2457   3.119   4.690   0.854 -0.5495 -0.0228 -0.1698
  161MPD2    H1 2458   2.927   4.634   1.243  0.2963 -0.3250  0.1046
  161MPD2    H2 2459   3.243   4.396   1.141 -1.0695 -2.7151 -1.8384
  161MPD2    H3 2460   3.059   4.449   1.280  2.2021  0.7196  1.3193
  161MPD2     N 2461   2.899   0.048   1.010  0.0842 -0.2310 -0.1842
  161MPD2    H5 2462   2.833   0.066   1.085 -0.6166 -0.0105 -0.8587
  161MPD2    N1 2463   3.290   4.498   0.900  0.1441  0.0153 -0.5266
  161MPD2    H7 2464   3.318   4.561   0.826 -0.2031  1.1027  0.2788
  162TMC2    C1 2465   1.895   2.396   1.288 -0.4493 -0.7699  0.6538
  162TMC2    C2 2466   1.922   2.532   1.293 -0.4659 -0.0461  0.7065
  162TMC2    C3 2467   1.840   2.606   1.375 -0.2751  0.0268 -0.4929
  162TMC2    C4 2468   1.798   2.337   1.365  0.5819 -0.0995 -0.3054
  162TMC2    C5 2469   1.730   2.419   1.450 -0.0187  0.0523 -0.4222
  162TMC2    C6 2470   1.743   2.552   1.453 -0.5158  0.4188 -0.3273
  162TMC2     C 2471   1.950   2.318   1.178  1.3691 -0.0143  0.0308
  162TMC2     O 2472   1.917   2.196   1.179  0.0096 -0.1218  0.3861
  162TMC2     H 2473   1.997   2.582   1.233  0.0686  0.6076  1.9361
  162TMC2    H1 2474   1.761   2.237   1.344  1.6794 -0.5910  0.0949
  162TMC2    H2 2475   1.675   2.617   1.507 -1.0049  0.4065 -0.9371
  162TMC2    C7 2476   1.645   2.351   1.546 -0.1422 -0.2821 -0.5249
  162TMC2    C8 2477   1.881   2.745   1.390 -0.0006 -0.1833  0.4069
  162TMC2    O1 2478   1.539   2.401   1.587  0.1967  0.0881 -0.1485
  162TMC2    O2 2479   1.973   2.793   1.323 -0.5897  0.0482 -0.4039
  162TMC2    O5 2480   1.854   2.797   1.510  0.2161  0.6091  0.1099
  162TMC2    H5 2481   1.801   2.743   1.572  2.7909  0.4005  2.1415
  163MPD2     C 2482   2.262   2.225   0.780  0.3097 -0.7834 -0.1743
  163MPD2    C1 2483   2.146   2.165   0.818 -0.6225 -0.3332  0.3770
  163MPD2    C2 2484   2.079   2.207   0.933  0.2665  0.1657 -0.0986
  163MPD2    C3 2485   2.125   2.318   1.007  0.6147  0.7059  0.1915
  163MPD2    C4 2486   2.233   2.384   0.958  0.0754  0.2284  0.2120
  163MPD2    C5 2487   2.301   2.339   0.845  0.0552  0.6540  0.2118
  163MPD2     H 2488   1.988   2.155   0.959  1.7266 -0.7711  3.0525
  163MPD2    H1 2489   2.266   2.474   1.006 -0.1587  1.6916 -2.3559
  163MPD2    H2 2490   2.312   2.187   0.691 -0.0277 -2.6834  0.4544
  163MPD2    H3 2491   2.381   2.404   0.813  0.5026 -0.0505 -0.0894
  163MPD2     N 2492   2.049   2.380   1.111  0.1584  0.0630  0.5326
  163MPD2    H5 2493   2.070   2.476   1.138  0.0872  0.7039 -1.6865
  163MPD2    N1 2494   2.103   2.059   0.741  0.0980  0.1524  0.3608
  163MPD2    H7 2495   2.152   2.044   0.653  0.9984  1.8019  0.5697
  164TCq2    C1 2496   1.573   1.495  11.318  0.3415  0.0713 -0.0304
  164TCq2    O2 2497   1.461   1.452  11.354  0.1254 -0.2970 -0.2592
  164TCq2    C2 2498   1.572   1.636  11.291 -0.0248  0.0675  0.6514
  164TCq2    C3 2499   1.681   1.708  11.265 -0.2860 -0.2895 -0.3930
  164TCq2    C4 2500   1.669   1.833  11.212 -0.1459 -0.7417  0.1243
  164TCq2    C5 2501   1.551   1.899  11.197  0.5528  1.1564  1.1122
  164TCq2    C6 2502   1.443   1.819  11.218 -0.3708 -0.4434  0.9731
  164TCq2    C7 2503   1.453   1.701  11.281 -0.3250  0.5262  0.2609
  164TCq2    C8 2504   1.315   1.879  11.245  0.5518  0.0689 -0.2332
  164TCq2    O4 2505   1.277   1.961  11.163 -0.0559  0.0037 -0.5353
  164TCq2    C9 2506   1.792   1.894  11.168 -0.3338 -0.1213  0.6486
  164TCq2    O5 2507   1.781   2.007  11.114 -0.2977  0.1362 -0.4654
  164TCq2    O6 2508   1.893   1.821  11.158 -0.2321 -0.6792  0.0411
  164TCq2    H2 2509   1.778   1.665  11.288 -1.3937 -2.3383  0.5156
  164TCq2    H3 2510   1.547   1.993  11.142 -1.2431  2.0284  2.7045
  164TCq2    H4 2511   1.366   1.641  11.302  0.7220 -1.4331 -1.0176
  165MPD2     C 2512   3.639   3.332   2.375  0.6527  0.3670 -0.4468
  165MPD2    C1 2513   3.609   3.298   2.246 -0.2285  0.1820 -0.6889
  165MPD2    C2 2514   3.508   3.374   2.195  0.9104 -0.1706 -0.8139
  165MPD2    C3 2515   3.422   3.451   2.269  0.1930 -0.2593  0.3440
  165MPD2    C4 2516   3.461   3.480   2.389  0.3803 -1.2757 -0.6827
  165MPD2    C5 2517   3.570   3.422   2.442 -0.5727 -0.2456  0.7565
  165MPD2     H 2518   3.474   3.360   2.093 -0.0473  2.7847 -0.9157
  165MPD2    H1 2519   3.407   3.553   2.448 -0.8018 -1.7495 -1.1756
  165MPD2    H2 2520   3.727   3.283   2.417 -0.5754 -1.4874 -0.0342
  165MPD2    H3 2521   3.603   3.444   2.543 -0.1442 -1.3853  0.8540
  165MPD2     N 2522   3.306   3.517   2.226 -0.5249  0.4228  0.1166
  165MPD2    H5 2523   3.244   3.561   2.294  0.0678  0.0405  0.9000
  165MPD2    N1 2524   3.681   3.203   2.171  0.1298 -0.4692  0.4334
  165MPD2    H7 2525   3.765   3.159   2.209 -0.8082 -2.7452 -0.0868
  166TCq2    C1 2526   3.255   3.515   2.097  0.8056 -0.6032  0.6373
  166TCq2    O2 2527   3.309   3.465   1.996  0.3687 -0.1831 -0.1837
  166TCq2    C2 2528   3.130   3.585   2.080 -0.9285  0.1825 -0.6363
  166TCq2    C3 2529   3.057   3.627   2.188  0.7131  0.2309  0.0662
  166TCq2    C4 2530   2.977   3.731   2.169  0.0980  0.2966  0.0682
  166TCq2    C5 2531   2.964   3.799   2.055 -0.2725 -0.4861 -0.7690
  166TCq2    C6 2532   3.037   3.750   1.955  0.4485 -0.3187 -0.2779
  166TCq2    C7 2533   3.134   3.657   1.969 -0.1711  0.0379  0.3491
  166TCq2    C8 2534   3.046   3.823   1.832 -0.2270  0.3647 -0.4485
  166TCq2    O4 2535   3.090   3.764   1.733  0.3308 -0.3823  0.5573
  166TCq2    C9 2536   2.911   3.781   2.286  1.2908 -0.3848 -0.1929
  166TCq2    O5 2537   2.817   3.865   2.267 -0.2394  0.1276  0.2835
  166TCq2    O6 2538   2.958   3.746   2.396  0.8439  0.3593 -0.0393
  166TCq2    H2 2539   3.060   3.575   2.284 -2.8832  0.7069  0.4583
  166TCq2    H3 2540   2.879   3.866   2.047  1.5520  1.9164  0.2202
  166TCq2    H4 2541   3.197   3.619   1.890  0.5526 -0.0302  0.9645
  167TMC2    C1 2542   0.719   1.315  12.733  0.0998 -0.2624 -0.6782
  167TMC2    C2 2543   0.629   1.347  12.830  0.4991  0.3988 -0.8258
  167TMC2    C3 2544   0.620   1.272  12.949  0.3510 -0.3876 -0.1705
  167TMC2    C4 2545   0.788   1.199  12.732 -0.8852  0.0388 -1.1620
  167TMC2    C5 2546   0.752   1.114  12.837  0.2218 -0.0241 -0.3396
  167TMC2    C6 2547   0.672   1.149  12.944  0.3339 -0.4280 -0.1145
  167TMC2     C 2548   0.706   1.406  12.619 -0.5095 -0.3604 -0.3328
  167TMC2     O 2549   0.674   1.524  12.645  0.0957 -0.2540  0.0150
  167TMC2     H 2550   0.570   1.437  12.821 -1.6999 -1.0704 -1.0741
  167TMC2    H1 2551   0.841   1.182  12.639  0.9986  2.8002 -0.5984
  167TMC2    H2 2552   0.658   1.085  13.030 -0.7552  0.8479  0.6632
  167TMC2    C7 2553   0.772   0.972  12.830 -0.4926  0.7117  0.3124
  167TMC2    C8 2554   0.501   1.280  13.025  1.1767 -0.2847 -0.5844
  167TMC2    O1 2555   0.717   0.903  12.917  0.2576 -0.0429 -0.1366
  167TMC2    O2 2556   0.439   1.188  13.074 -0.6435  0.2802  0.4953
  167TMC2    O5 2557   0.448   1.406  13.021  0.3877  0.0163 -0.3791
  167TMC2    H5 2558   0.516   1.474  13.003  0.4454  0.0173 -0.1568
  168MPD2     C 2559   0.776   1.537  12.363 -0.2651 -0.6305 -0.1418
  168MPD2    C1 2560   0.727   1.406  12.382 -0.6340  0.2309 -0.2422
  168MPD2    C2 2561   0.705   1.333  12.266  0.2481 -0.0032 -0.0110
  168MPD2    C3 2562   0.720   1.383  12.140  0.2449 -0.9700 -0.1417
  168MPD2    C4 2563   0.771   1.513  12.123  0.0332 -0.2075  0.3777
  168MPD2    C5 2564   0.803   1.589  12.236 -0.9972  0.2508 -0.2593
  168MPD2     H 2565   0.673   1.230  12.277 -2.3652  0.6392 -1.6557
  168MPD2    H1 2566   0.791   1.555  12.025 -1.3553  0.1059  0.2248
  168MPD2    H2 2567   0.818   1.592  12.446 -0.4917 -1.5732  0.6038
  168MPD2    H3 2568   0.832   1.692  12.219  0.3181 -0.2004 -0.7785
  168MPD2     N 2569   0.706   1.307  12.028 -0.4882  0.1512 -0.1056
  168MPD2    H5 2570   0.729   1.356  11.942  1.8375 -0.0729  0.4048
  168MPD2    N1 2571   0.705   1.341  12.504 -0.0363  0.5638  0.2906
  168MPD2    H7 2572   0.681   1.244  12.491  0.7899  0.2851  0.8459
  169MPD1     C 2573   3.380   0.061  10.088  0.3745 -0.6112  0.0672
  169MPD1    C1 2574   3.408   0.122   9.970  0.0193 -0.1484 -0.5989
  169MPD1    C2 2575   3.376   0.054   9.859 -0.0402  0.0871  0.5298
  169MPD1    C3 2576   3.360   4.641   9.855 -0.0113  0.1831  0.0466
  169MPD1    C4 2577   3.344   4.579   9.982 -0.1690 -0.1279  0.1324
  169MPD1    C5 2578   3.352   4.652  10.098 -0.2627  0.2899 -0.0495
  169MPD1     H 2579   3.378   0.105   9.763 -1.1769 -2.7845 -1.0050
  169MPD1    H1 2580   3.329   4.473  10.001 -3.8925  0.4460  0.3856
  169MPD1    H2 2581   3.390   0.118  10.180  0.7327  0.0849 -0.4054
  169MPD1    H3 2582   3.345   4.599  10.192  0.9381 -1.7124 -1.0853
  169MPD1     N 2583   3.366   4.562   9.735  0.5550 -0.6465  0.4236
  169MPD1    H5 2584   3.386   4.613   9.649 -1.4047  2.5331  1.8544
  169MPD1    N1 2585   3.442   0.261   9.968 -0.2869 -0.2266 -0.0318
  169MPD1    H6 2586   3.503   0.300  10.040 -0.3746  0.5239 -0.3719
  169MPD1    H7 2587   3.489   0.283   9.881 -1.2732  2.8361  0.2047
  170MPD1     C 2588   2.199   3.537  12.857  0.5380  0.1836 -0.0678
  170MPD1    C1 2589   2.093   3.623  12.871  0.4832 -0.2345  0.6480
  170MPD1    C2 2590   2.088   3.699  12.982  0.4569 -0.1128 -0.4620
  170MPD1    C3 2591   2.174   3.686  13.089 -0.1232 -0.7538 -0.4994
  170MPD1    C4 2592   2.265   3.583  13.083  0.4088  0.6562  0.0428
  170MPD1    C5 2593   2.278   3.513  12.964 -0.3845  0.0596 -0.6436
  170MPD1     H 2594   2.014   3.779  12.983  0.0401 -0.5247  3.3504
  170MPD1    H1 2595   2.337   3.573  13.164  0.0744  1.5104  0.4430
  170MPD1    H2 2596   2.214   3.463  12.778  0.5062 -0.3074  0.3823
  170MPD1    H3 2597   2.352   3.435  12.949 -0.3354  0.2091 -1.1730
  170MPD1     N 2598   2.151   3.763  13.206  0.0058  1.1105 -1.0718
  170MPD1    H5 2599   2.073   3.828  13.204  0.2462  1.4585  1.2587
  170MPD1    N1 2600   2.014   3.640  12.755 -0.2624  0.2291  0.0718
  170MPD1    H6 2601   2.012   3.551  12.706 -1.7463  0.9372 -1.1526
  170MPD1    H7 2602   1.921   3.672  12.781 -0.4563 -0.1827 -0.1063
  171MPD1     C 2603   0.373   4.713  15.161  0.3484 -0.2469 -0.1452
  171MPD1    C1 2604   0.450   0.062  15.258  0.2077 -0.2104  0.8734
  171MPD1    C2 2605   0.546   4.717  15.332  0.0712 -0.3590 -0.0590
  171MPD1    C3 2606   0.588   4.590  15.300  0.5712  0.3974 -0.2933
  171MPD1    C4 2607   0.524   4.532  15.190  0.1411 -0.1012  0.9574
  171MPD1    C5 2608   0.417   4.591  15.128 -0.5011  0.1093 -0.5418
  171MPD1     H 2609   0.589   0.049  15.414  0.0058  0.1505 -0.3796
  171MPD1    H1 2610   0.552   4.432  15.159 -1.2225  0.1672 -1.1597
  171MPD1    H2 2611   0.279   0.017  15.115  1.2267  2.4571 -0.1968
  171MPD1    H3 2612   0.374   4.540  15.042 -0.4484 -0.7348 -0.0643
  171MPD1     N 2613   0.680   4.520  15.372 -0.5528  0.2159 -0.4278
  171MPD1    H5 2614   0.698   4.426  15.337  1.4027 -0.1908  1.6001
  171MPD1    N1 2615   0.409   0.190  15.295  0.2417  0.2934  0.3598
  171MPD1    H6 2616   0.487   0.248  15.323 -1.2937  1.8792  1.3061
  171MPD1    H7 2617   0.362   0.228  15.213  2.4487  3.5612  0.6363
  172MPD1     C 2618   4.323   3.805  17.491  0.2957 -0.3905 -0.3530
  172MPD1    C1 2619   4.322   3.929  17.438 -0.4622 -0.7973 -0.3330
  172MPD1    C2 2620   4.371   4.032  17.513  0.0142 -0.4948  0.1326
  172MPD1    C3 2621   4.407   4.016  17.651  0.0578 -0.1077  0.7942
  172MPD1    C4 2622   4.401   3.893   0.005  0.0673 -0.0907 -0.3068
  172MPD1    C5 2623   4.367   3.788  17.621 -0.3917 -0.5229  0.0942
  172MPD1     H 2624   4.364   4.130  17.467  1.9534 -1.1453 -1.5082
  172MPD1    H1 2625   4.435   3.878   0.107 -0.8222 -0.6987 -0.0984
  172MPD1    H2 2626   4.292   3.721  17.430 -0.3280  0.4013 -1.1236
  172MPD1    H3 2627   4.364   3.688  17.663 -0.8406 -0.3986  0.3509
  172MPD1     N 2628   4.461   4.114   0.033 -0.3537  0.0463 -0.3572
  172MPD1    H5 2629   4.502   4.078   0.118  0.7337  2.5821  0.1967
  172MPD1    N1 2630   4.296   3.938  17.301  0.2680 -0.1351  0.5052
  172MPD1    H6 2631   4.234   3.861  17.277 -1.0279  0.9228  0.4582
  172MPD1    H7 2632   4.237   4.018  17.278 -0.2411  0.2077  3.0459
  173MPD1     C 2633   1.759   4.020  13.274  0.7888  0.2835  0.2028
  173MPD1    C1 2634   1.784   3.892  13.329 -0.1706 -0.1998  0.3303
  173MPD1    C2 2635   1.776   3.872  13.464  0.0190 -0.3927 -0.8358
  173MPD1    C3 2636   1.738   3.971  13.543  0.5061 -0.3172 -0.2840
  173MPD1    C4 2637   1.701   4.096  13.491 -0.5750 -0.1419  0.2380
  173MPD1    C5 2638   1.711   4.115  13.357  0.5883 -0.9524  0.4540
  173MPD1     H 2639   1.803   3.776  13.506  0.7201  0.0170 -0.3601
  173MPD1    H1 2640   1.672   4.183  13.549 -0.5723  0.2122 -0.2940
  173MPD1    H2 2641   1.787   4.046  13.172 -2.7369  2.3790 -0.2231
  173MPD1    H3 2642   1.685   4.213  13.318 -1.6026 -1.8784 -0.4199
  173MPD1     N 2643   1.729   3.942  13.679  0.4682  0.0942  0.1977
  173MPD1    H5 2644   1.741   3.843  13.698  1.6885  0.0027 -1.0755
  173MPD1    N1 2645   1.857   3.805  13.252 -0.2064  0.4389  0.0321
  173MPD1    H6 2646   1.812   3.800  13.161  2.7394  0.0907 -1.4016
  173MPD1    H7 2647   1.843   3.709  13.285 -1.6816 -0.0886 -2.0619
  174MPD1     C 2648   1.842   3.400  14.506  0.1450  0.4173 -0.6503
  174MPD1    C1 2649   1.888   3.389  14.374 -0.4760 -0.3598 -0.1901
  174MPD1    C2 2650   1.827   3.470  14.277  0.0885  0.4925 -0.4537
  174MPD1    C3 2651   1.713   3.535  14.307 -0.6435 -0.8356 -0.2629
  174MPD1    C4 2652   1.660   3.528  14.432 -0.2530 -0.6142 -0.3213
  174MPD1    C5 2653   1.732   3.469  14.534 -0.2566  0.1784 -0.1907
  174MPD1     H 2654   1.876   3.480  14.181  2.1045  1.4835  0.6593
  174MPD1    H1 2655   1.569   3.578  14.462 -0.3434 -0.7079 -0.4413
  174MPD1    H2 2656   1.900   3.353  14.584 -1.2100 -0.7282 -0.3431
  174MPD1    H3 2657   1.694   3.477  14.636  1.5003 -0.5506  0.5098
  174MPD1     N 2658   1.642   3.619  14.212 -0.0475 -0.1118  0.2371
  174MPD1    H5 2659   1.543   3.640  14.220 -0.3016 -1.8970  1.7885
  174MPD1    N1 2660   1.986   3.300  14.332  0.2771 -0.3209  0.2071
  174MPD1    H6 2661   2.039   3.268  14.412  1.5139 -2.7219 -1.5978
  174MPD1    H7 2662   2.041   3.310  14.247  0.3164  0.7657  0.3543
  175MPD1     C 2663   4.556   0.003  15.169  0.0431 -0.2787  0.4206
  175MPD1    C1 2664   4.632   4.675  15.267  0.2993 -0.4289  0.8889
  175MPD1    C2 2665   4.603   4.705  15.398 -0.1970  0.3314  0.9989
  175MPD1    C3 2666   4.486   0.056  15.424 -0.1516  0.2468 -0.3826
  175MPD1    C4 2667   4.407   0.108  15.322  0.0967 -0.3454  0.0831
  175MPD1    C5 2668   4.440   0.082  15.194 -0.4286 -0.1742  0.3030
  175MPD1     H 2669   4.675   4.680  15.476  1.6343 -1.8357 -1.4007
  175MPD1    H1 2670   4.311   0.147  15.355 -0.7016  1.2318 -4.1335
  175MPD1    H2 2671   4.588   4.718  15.066 -0.2771  2.1531  0.0946
  175MPD1    H3 2672   4.371   0.123  15.121 -1.9411 -0.5135  1.5302
  175MPD1     N 2673   4.431   0.074  15.556 -0.2628 -0.1367  0.1772
  175MPD1    H5 2674   4.339   0.117  15.553 -0.7753 -1.3449 -1.3725
  175MPD1    N1 2675   0.034   4.616  15.227 -0.0728 -0.1041  0.0851
  175MPD1    H6 2676   0.031   4.556  15.145  4.0886  0.4416 -0.4525
  175MPD1    H7 2677   0.072   4.561  15.303 -0.6473 -1.6554 -0.7597
  176MPD1     C 2678   1.767   2.143  17.414  0.2113  0.2760 -0.1672
  176MPD1    C1 2679   1.662   2.091  17.350  0.1154  0.2627  0.3072
  176MPD1    C2 2680   1.606   2.163  17.250  0.3087  0.1235 -0.0731
  176MPD1    C3 2681   1.660   2.286  17.209  0.2685  0.3763  0.8725
  176MPD1    C4 2682   1.772   2.334  17.277  0.5210  0.8435  0.6410
  176MPD1    C5 2683   1.826   2.260  17.375  0.0796  0.1134  0.0218
  176MPD1     H 2684   1.515   2.131  17.202  2.2619  0.1568 -3.7814
  176MPD1    H1 2685   1.820   2.427  17.249  1.8035 -0.9785 -3.3046
  176MPD1    H2 2686   1.810   2.090  17.499 -0.2251  1.4634  0.7890
  176MPD1    H3 2687   1.911   2.299  17.430  2.0660 -1.2883 -2.0794
  176MPD1     N 2688   1.593   2.364  17.115 -0.6161  0.4234  0.1978
  176MPD1    H5 2689   1.519   2.317  17.064 -0.1914  0.6232 -0.5939
  176MPD1    N1 2690   1.598   1.971  17.404  0.1183  0.0047 -0.6111
  176MPD1    H6 2691   1.669   1.910  17.446  0.9446  1.1089 -0.3913
  176MPD1    H7 2692   1.560   1.917  17.327 -0.0450 -0.6791 -0.0570
  177MPD1     C 2693   0.024   1.905  10.118 -0.2992  0.5998  0.1119
  177MPD1    C1 2694   4.678   1.789  10.102 -0.0613  0.3374 -0.3735
  177MPD1    C2 2695   4.578   1.794  10.000 -0.1500 -0.2240  0.5691
  177MPD1    C3 2696   4.557   1.894   9.911 -0.4289  0.9530 -0.2696
  177MPD1    C4 2697   4.639   2.004   9.917 -0.3310 -0.6337 -0.0396
  177MPD1    C5 2698   0.009   2.010  10.025  0.2060 -0.1831 -0.1335
  177MPD1     H 2699   4.515   1.707   9.987  0.2970 -0.3883 -0.4808
  177MPD1    H1 2700   4.646   2.082   9.843 -1.7151 -0.5657 -0.0890
  177MPD1    H2 2701   0.100   1.911  10.195  1.1013 -0.8047 -1.1606
  177MPD1    H3 2702   0.079   2.092  10.033 -4.3001  3.7569 -0.7635
  177MPD1     N 2703   4.469   1.878   9.803  0.2500 -0.6227  0.1053
  177MPD1    H5 2704   4.428   1.785   9.801 -1.5363  0.1944 -1.4600
  177MPD1    N1 2705   4.690   1.688  10.195  0.4106 -0.1044 -0.4503
  177MPD1    H6 2706   4.661   1.598  10.156 -0.4165  0.5181 -1.2587
  177MPD1    H7 2707   0.060   1.681  10.233  0.2172  0.9510  0.2255
  178MPD1     C 2708   1.620   3.323  17.328  0.2176  0.0774 -0.1653
  178MPD1    C1 2709   1.634   3.188  17.360  0.0825  0.4393 -0.1564
  178MPD1    C2 2710   1.739   3.119  17.297 -0.2924 -0.4034  0.6903
  178MPD1    C3 2711   1.816   3.169  17.195  0.9774  0.4462 -0.2124
  178MPD1    C4 2712   1.799   3.306  17.165  0.7250 -0.7840  0.3700
  178MPD1    C5 2713   1.706   3.382  17.234 -0.8077 -0.3389 -0.1783
  178MPD1     H 2714   1.751   3.014  17.322 -1.8720 -1.0571 -1.3365
  178MPD1    H1 2715   1.840   3.350  17.075  0.4127  0.5012  0.8638
  178MPD1    H2 2716   1.550   3.380  17.388 -1.9299 -1.6088 -1.0777
  178MPD1    H3 2717   1.678   3.483  17.208 -2.2469 -0.1478  2.1252
  178MPD1     N 2718   1.904   3.093  17.110  0.3802 -0.1252 -0.1681
  178MPD1    H5 2719   1.951   3.146  17.038  2.1350 -0.8318  0.4495
  178MPD1    N1 2720   1.546   3.127  17.455  0.4047  1.4275  0.0159
  178MPD1    H6 2721   1.452   3.166  17.459 -1.2813 -2.7193  0.5438
  178MPD1    H7 2722   1.535   3.027  17.445 -1.2410  1.5760  0.2668
  179MPD1     C 2723   1.547   1.425  16.090  0.0330  0.0028 -0.0875
  179MPD1    C1 2724   1.416   1.392  16.058 -0.7107 -0.0187  0.0093
  179MPD1    C2 2725   1.397   1.259  16.017 -0.3620 -0.0234 -0.2976
  179MPD1    C3 2726   1.506   1.173  15.995  0.0059 -0.1904  0.3927
  179MPD1    C4 2727   1.630   1.221  16.022  0.2090  0.1438  0.2515
  179MPD1    C5 2728   1.653   1.347  16.059  0.2820  0.6559 -0.2990
  179MPD1     H 2729   1.296   1.218  16.021  0.1227 -1.2218 -0.3536
  179MPD1    H1 2730   1.708   1.148  16.002 -0.0721 -0.5144  1.5732
  179MPD1    H2 2731   1.575   1.524  16.124 -1.3986 -0.3291  2.0547
  179MPD1    H3 2732   1.754   1.383  16.072  0.7901  0.1747 -2.9023
  179MPD1     N 2733   1.490   1.037  15.963  0.1176 -0.3654  0.3755
  179MPD1    H5 2734   1.573   0.979  15.956 -0.5563 -1.2132 -0.6844
  179MPD1    N1 2735   1.310   1.471  16.097 -0.0386  0.9083  0.3718
  179MPD1    H6 2736   1.234   1.448  16.032 -0.8894 -1.0202  2.0553
  179MPD1    H7 2737   1.329   1.571  16.089  1.0300  0.6166 -0.7766
  180MPD1     C 2738   1.907   2.561  15.149  0.3151  0.0716 -0.5177
  180MPD1    C1 2739   1.950   2.590  15.020 -0.3736 -0.4447 -0.3735
  180MPD1    C2 2740   1.868   2.577  14.908  0.3210  0.7405  0.1109
  180MPD1    C3 2741   1.747   2.512  14.923 -0.4586 -0.6011  0.5500
  180MPD1    C4 2742   1.702   2.473  15.048  0.1944 -0.5081 -0.3431
  180MPD1    C5 2743   1.780   2.505  15.159  0.3431 -0.3107  0.2905
  180MPD1     H 2744   1.904   2.600  14.808 -0.1717  1.5692  0.1258
  180MPD1    H1 2745   1.608   2.422  15.066 -1.0796  1.2783 -1.7644
  180MPD1    H2 2746   1.964   2.579  15.240  2.3197 -2.2885 -1.3105
  180MPD1    H3 2747   1.747   2.488  15.261 -0.0834  0.7831  0.3401
  180MPD1     N 2748   1.666   2.483  14.809  0.6071  0.0327 -0.1265
  180MPD1    H5 2749   1.694   2.525  14.721 -1.9785 -1.6753 -1.7736
  180MPD1    N1 2750   2.075   2.641  15.011 -0.0844  0.2754  0.8650
  180MPD1    H6 2751   2.068   2.739  14.986  0.1052  0.0011 -0.2978
  180MPD1    H7 2752   2.117   2.648  15.104 -0.9768 -0.4661  1.3223
  181MPD1     C 2753   2.213   2.920  10.676  0.0611  0.4193 -0.1087
  181MPD1    C1 2754   2.304   2.833  10.627  0.4462  0.4381 -0.3093
  181MPD1    C2 2755   2.420   2.882  10.566 -0.0889  0.6042 -0.4943
  181MPD1    C3 2756   2.444   3.021  10.567 -0.0599 -0.9122 -0.1812
  181MPD1    C4 2757   2.353   3.111  10.624  0.1767 -0.1169 -0.5367
  181MPD1    C5 2758   2.232   3.057  10.674  0.5598 -0.0119 -0.3820
  181MPD1     H 2759   2.493   2.821  10.514 -2.1797 -1.6721 -0.7333
  181MPD1    H1 2760   2.381   3.216  10.632 -1.5067  0.3055  0.0459
  181MPD1    H2 2761   2.116   2.888  10.713 -0.3648  0.6504 -1.0109
  181MPD1    H3 2762   2.153   3.115  10.720  1.1493 -0.4591  1.1989
  181MPD1     N 2763   2.556   3.087  10.520  0.3392 -0.2894 -0.5460
  181MPD1    H5 2764   2.559   3.186  10.543 -1.1395 -0.7332  1.5610
  181MPD1    N1 2765   2.277   2.696  10.618 -0.3686 -0.0680 -0.0498
  181MPD1    H6 2766   2.363   2.643  10.633  0.5891  1.5280  0.1568
  181MPD1    H7 2767   2.221   2.660  10.695 -0.8856  0.5252 -0.1457
  182MPD1     C 2768   4.622   2.878   1.273 -0.0068  0.0849  0.3336
  182MPD1    C1 2769   4.552   2.969   1.349 -0.7212  0.4469 -0.3320
  182MPD1    C2 2770   4.440   3.020   1.295 -0.4958 -0.1413  0.0074
  182MPD1    C3 2771   4.396   3.001   1.160 -0.2649  0.4176  0.0507
  182MPD1    C4 2772   4.469   2.903   1.094 -0.4538  0.5441  0.2978
  182MPD1    C5 2773   4.581   2.847   1.143 -0.1966 -0.3158 -0.0255
  182MPD1     H 2774   4.392   3.100   1.350 -0.5843 -0.0245 -0.2389
  182MPD1    H1 2775   4.445   2.866   0.995 -1.7626 -2.8929  1.9245
  182MPD1    H2 2776   4.707   2.828   1.318 -0.0280 -1.0255 -0.8597
  182MPD1    H3 2777   4.624   2.768   1.084  0.5335  1.1075 -1.3949
  182MPD1     N 2778   4.295   3.069   1.096  0.4935  0.5866  0.0063
  182MPD1    H5 2779   4.280   3.042   0.999 -0.0763 -1.2354  0.6088
  182MPD1    N1 2780   4.594   3.002   1.483 -0.1941 -0.4750 -0.1754
  182MPD1    H6 2781   4.695   3.009   1.490  0.0031 -4.4881  0.8664
  182MPD1    H7 2782   4.552   3.087   1.522  0.5596 -0.5592  0.8076
  183MPD1     C 2783   3.799   2.550   8.632  0.8062  0.5081 -0.3846
  183MPD1    C1 2784   3.707   2.568   8.728  0.1171  0.4445  0.0805
  183MPD1    C2 2785   3.758   2.605   8.852  0.5874 -0.0042 -0.0692
  183MPD1    C3 2786   3.887   2.646   8.874  0.1136 -0.4675  0.4266
  183MPD1    C4 2787   3.973   2.641   8.770  0.1242 -0.6887 -0.1156
  183MPD1    C5 2788   3.926   2.593   8.651 -0.1881  0.1850  0.3935
  183MPD1     H 2789   3.695   2.612   8.940 -1.0606 -1.3651 -1.1329
  183MPD1    H1 2790   4.079   2.661   8.785 -0.5532  0.6680  2.9104
  183MPD1    H2 2791   3.768   2.515   8.534 -0.8265 -2.2205  1.1186
  183MPD1    H3 2792   4.001   2.590   8.572 -1.7944 -1.0414 -1.0980
  183MPD1     N 2793   3.927   2.690   9.002 -0.5677  0.9001 -0.2401
  183MPD1    H5 2794   3.854   2.681   9.072  0.6601 -0.1635  0.8920
  183MPD1    N1 2795   3.570   2.520   8.712 -0.3578 -0.5347 -0.2812
  183MPD1    H6 2796   3.543   2.515   8.614  2.6664  2.5840 -1.2510
  183MPD1    H7 2797   3.510   2.590   8.757  0.5902 -1.1830  2.0052
  184MPD1     C 2798   3.942   0.913  10.198  0.7768  0.4744  0.7264
  184MPD1    C1 2799   3.868   0.884  10.085 -0.3643 -0.0613 -0.3056
  184MPD1    C2 2800   3.884   0.969   9.979  0.5901 -0.0794 -0.1282
  184MPD1    C3 2801   3.960   1.081   9.991  0.2773  0.2454 -0.3583
  184MPD1    C4 2802   4.029   1.112  10.107  0.4842  0.1599  0.0092
  184MPD1    C5 2803   4.024   1.018  10.210  0.1528  0.3690 -0.1418
  184MPD1     H 2804   3.818   0.951   9.896  0.4445  1.0168 -0.2558
  184MPD1    H1 2805   4.083   1.204  10.128 -0.3745  0.6889 -0.1037
  184MPD1    H2 2806   3.933   0.852  10.287  1.6460  0.9004  1.1043
  184MPD1    H3 2807   4.077   1.038  10.302 -2.8713  0.7227  1.5104
  184MPD1     N 2808   3.974   1.174   9.885  0.7304 -0.1541  0.1682
  184MPD1    H5 2809   4.032   1.257   9.893 -0.0837  0.4604 -0.3804
  184MPD1    N1 2810   3.762   0.787  10.075  0.5447 -0.0759 -0.2389
  184MPD1    H6 2811   3.770   0.702  10.131 -0.9696  0.2264  0.4307
  184MPD1    H7 2812   3.743   0.751   9.982  2.7376  0.3060 -0.8224
  185MPD1     C 2813   3.798   1.416   8.833 -0.5289  0.7413  0.7259
  185MPD1    C1 2814   3.783   1.296   8.897  0.7827 -0.3188 -0.8248
  185MPD1    C2 2815   3.829   1.290   9.028 -0.1678 -0.2305 -0.1609
  185MPD1    C3 2816   3.908   1.394   9.086 -0.4907  0.0598  0.2942
  185MPD1    C4 2817   3.929   1.506   9.012 -0.2535  0.0713 -0.4303
  185MPD1    C5 2818   3.877   1.517   8.886  0.1413  0.0186  0.0631
  185MPD1     H 2819   3.806   1.199   9.082  2.7016  0.7993  2.8135
  185MPD1    H1 2820   3.986   1.584   9.061  1.1493 -1.7894  0.8491
  185MPD1    H2 2821   3.760   1.440   8.734  0.3865  4.0478  1.1572
  185MPD1    H3 2822   3.889   1.609   8.830 -3.5207  0.9147  0.7242
  185MPD1     N 2823   3.957   1.403   9.222  0.0932 -0.0336  0.3651
  185MPD1    H5 2824   4.013   1.483   9.248 -1.0467 -0.1591  3.1825
  185MPD1    N1 2825   3.695   1.198   8.844  0.1163 -0.2836  0.1564
  185MPD1    H6 2826   3.696   1.107   8.891 -0.1701  0.6564  1.9947
  185MPD1    H7 2827   3.687   1.189   8.743  1.0197 -0.0960  0.0731
  186MPD1     C 2828   2.038   0.516  15.884  0.2519 -0.4399 -0.9495
  186MPD1    C1 2829   1.902   0.543  15.913  0.5153 -0.0835  0.3193
  186MPD1    C2 2830   1.867   0.661  15.973 -0.8100 -0.2830 -0.1414
  186MPD1    C3 2831   1.968   0.746  16.025 -0.0584  0.0307 -0.0243
  186MPD1    C4 2832   2.104   0.712  16.006 -0.0093 -0.0432  0.1472
  186MPD1    C5 2833   2.135   0.594  15.939  0.6459  0.3011  0.5924
  186MPD1     H 2834   1.762   0.678  15.996 -0.8251  0.1428 -0.5028
  186MPD1    H1 2835   2.176   0.780  16.050 -3.0454  1.9486  1.9994
  186MPD1    H2 2836   2.065   0.420  15.841 -1.2842 -2.1662  1.8898
  186MPD1    H3 2837   2.242   0.575  15.929  0.5400 -0.0193  0.0973
  186MPD1     N 2838   1.948   0.858  16.108 -0.8783  0.6006 -0.0419
  186MPD1    H5 2839   2.034   0.901  16.140 -0.1359 -2.6510  2.3904
  186MPD1    N1 2840   1.802   0.458  15.856  0.1961 -0.1942  0.5570
  186MPD1    H6 2841   1.713   0.456  15.906 -0.1756  1.0117 -0.0531
  186MPD1    H7 2842   1.828   0.362  15.878 -0.7205  0.1821  3.3557
  187MPD1     C 2843   0.941   3.520   0.239  0.2823 -0.2706 -0.0847
  187MPD1    C1 2844   1.050   3.600   0.259 -0.2454  0.1592  0.0741
  187MPD1    C2 2845   1.086   3.687   0.155  0.3661 -0.0378 -0.0589
  187MPD1    C3 2846   1.031   3.679   0.028 -0.4107 -0.7712 -0.0331
  187MPD1    C4 2847   0.939   3.578   0.010  0.3975  0.7258  0.2622
  187MPD1    C5 2848   0.898   3.498   0.113 -0.4661  0.8227 -0.4162
  187MPD1     H 2849   1.163   3.762   0.169  1.3629 -1.3285  1.2486
  187MPD1    H1 2850   0.904   3.556  17.609 -1.4564  0.6553  0.9168
  187MPD1    H2 2851   0.912   3.446   0.313 -1.4942  0.4049 -0.0896
  187MPD1    H3 2852   0.839   3.410   0.089  2.0236 -1.2156  0.9747
  187MPD1     N 2853   1.083   3.744  17.614  0.7035 -0.1971 -0.2485
  187MPD1    H5 2854   1.035   3.715  17.530  1.0165 -0.8671 -0.1925
  187MPD1    N1 2855   1.104   3.615   0.390  0.6526  0.4032  0.5473
  187MPD1    H6 2856   1.098   3.530   0.445  0.9833 -0.3105 -0.5380
  187MPD1    H7 2857   1.200   3.647   0.394  0.1633  2.0227 -0.4515
  188MPD1     C 2858   0.369   2.745  10.074 -0.8797 -0.3501  0.8567
  188MPD1    C1 2859   0.434   2.727   9.956 -0.7257  0.4780 -0.3091
  188MPD1    C2 2860   0.521   2.627   9.936  0.0661  0.4395 -0.0507
  188MPD1    C3 2861   0.545   2.538  10.038  0.1990  0.4706  0.1661
  188MPD1    C4 2862   0.473   2.551  10.157  0.3551 -0.4093 -0.3647
  188MPD1    C5 2863   0.396   2.662  10.178  0.2333  0.7483  0.1021
  188MPD1     H 2864   0.579   2.617   9.846  0.4392 -3.3216  0.5893
  188MPD1    H1 2865   0.483   2.484  10.241  3.2438 -0.4997 -0.7627
  188MPD1    H2 2866   0.313   2.831  10.111  0.4220  1.4473 -1.2923
  188MPD1    H3 2867   0.344   2.677  10.272  2.3995  0.1858  1.4067
  188MPD1     N 2868   0.633   2.431  10.037 -0.0395  0.4305  0.3966
  188MPD1    H5 2869   0.644   2.374  10.120 -0.8622 -3.5374 -2.1909
  188MPD1    N1 2870   0.426   2.838   9.866  0.0909 -0.2355 -0.1053
  188MPD1    H6 2871   0.343   2.893   9.887 -0.2498 -0.6181 -0.4760
  188MPD1    H7 2872   0.418   2.801   9.772  2.8371  0.6031 -0.6674
  189MPD1     C 2873   2.947   3.186   0.374  0.4337 -0.1036 -0.3843
  189MPD1    C1 2874   2.821   3.148   0.419  0.3764  0.0676 -0.3803
  189MPD1    C2 2875   2.717   3.233   0.422  0.2659  0.0009 -0.0418
  189MPD1    C3 2876   2.726   3.364   0.383 -0.1700  0.4768 -0.7917
  189MPD1    C4 2877   2.856   3.405   0.348  0.1116 -0.9893 -0.5691
  189MPD1    C5 2878   2.965   3.321   0.348  0.6088  0.1052 -1.0582
  189MPD1     H 2879   2.614   3.205   0.441  0.3659  0.0184  0.5295
  189MPD1    H1 2880   2.883   3.507   0.323 -2.2377 -0.4138 -0.7634
  189MPD1    H2 2881   3.028   3.116   0.361  1.0400  0.4771  0.2627
  189MPD1    H3 2882   3.063   3.361   0.327  0.6156  1.6295  1.8153
  189MPD1     N 2883   2.618   3.450   0.389 -0.0763  0.6904  0.3625
  189MPD1    H5 2884   2.524   3.419   0.412  0.2173  0.4791  1.2719
  189MPD1    N1 2885   2.807   3.014   0.428 -0.5427  0.4997  0.6347
  189MPD1    H6 2886   2.882   2.960   0.470 -0.1983  0.3089 -0.2297
  189MPD1    H7 2887   2.713   2.999   0.466 -0.6416  0.3225  0.3256
  190MPD1     C 2888   1.081   1.622  14.950 -0.1794 -0.5233  0.4409
  190MPD1    C1 2889   1.038   1.752  14.961  0.3127 -0.1463 -0.2697
  190MPD1    C2 2890   1.074   1.828  15.071 -0.9255  0.1502 -0.8749
  190MPD1    C3 2891   1.165   1.772  15.162  0.6847  0.0963 -0.0078
  190MPD1    C4 2892   1.224   1.646  15.150  0.2922 -0.5614  0.3443
  190MPD1    C5 2893   1.172   1.566  15.046 -0.1023  0.0421  0.5246
  190MPD1     H 2894   1.029   1.927  15.075 -2.5119 -0.5635 -0.8051
  190MPD1    H1 2895   1.290   1.601  15.223  0.2569  1.5252  1.6757
  190MPD1    H2 2896   1.030   1.561  14.877 -1.6924 -0.2233  1.2587
  190MPD1    H3 2897   1.208   1.464  15.036 -2.9685 -0.9672  0.7087
  190MPD1     N 2898   1.199   1.854  15.273 -0.6359  0.4655  0.6973
  190MPD1    H5 2899   1.170   1.951  15.270  0.5136  0.8399  1.6116
  190MPD1    N1 2900   0.936   1.796  14.880  0.0783  0.2105  0.0109
  190MPD1    H6 2901   0.906   1.738  14.802  2.1626 -2.9454  1.5713
  190MPD1    H7 2902   0.938   1.898  14.872 -2.0687  0.4160  2.0512
  191MPD1     C 2903   1.015   3.944  13.355 -0.8521 -0.0022  0.4057
  191MPD1    C1 2904   0.881   3.928  13.315  0.2226 -0.0306  0.3001
  191MPD1    C2 2905   0.844   3.997  13.197 -0.1907 -0.1077 -0.6280
  191MPD1    C3 2906   0.943   4.067  13.125  0.3421  0.1160 -0.2535
  191MPD1    C4 2907   1.076   4.075  13.167  0.8542 -0.3701 -0.1856
  191MPD1    C5 2908   1.111   4.017  13.285 -0.7264  0.3266  0.7650
  191MPD1     H 2909   0.740   4.007  13.167 -0.5371  3.7798  1.8155
  191MPD1    H1 2910   1.157   4.126  13.116  0.8802 -1.4051 -1.1957
  191MPD1    H2 2911   1.052   3.916  13.453 -0.2239  1.2620  0.5405
  191MPD1    H3 2912   1.212   4.023  13.324  0.7845 -0.4475 -3.0118
  191MPD1     N 2913   0.904   4.131  13.013 -1.0333  0.4437  0.2039
  191MPD1    H5 2914   0.804   4.124  12.997 -1.1622 -0.0138  1.2282
  191MPD1    N1 2915   0.789   3.887  13.415 -0.5081 -0.2213  0.0007
  191MPD1    H6 2916   0.830   3.826  13.486  0.1996 -0.2397 -0.4288
  191MPD1    H7 2917   0.710   3.840  13.370 -0.5382  0.3089 -0.4963
  192MPD1     C 2918   0.132   4.538  12.575 -0.0405 -0.0625 -0.4776
  192MPD1    C1 2919   0.170   4.458  12.680  0.1050  0.6887 -0.2816
  192MPD1    C2 2920   0.300   4.422  12.692  0.2265 -0.1646 -0.0900
  192MPD1    C3 2921   0.395   4.480  12.608 -0.3998 -0.2739 -0.2180
  192MPD1    C4 2922   0.358   4.572  12.510  0.4053  0.1628 -0.3278
  192MPD1    C5 2923   0.222   4.588  12.484  0.1181 -0.2502  0.4506
  192MPD1     H 2924   0.329   4.342  12.759 -1.0953 -0.0560  0.6160
  192MPD1    H1 2925   0.434   4.636  12.468  0.5466  0.7407  0.8022
  192MPD1    H2 2926   0.028   4.562  12.559 -0.1725  0.0973  0.6309
  192MPD1    H3 2927   0.191   4.648  12.400  0.3835 -0.8435 -0.0681
  192MPD1     N 2928   0.532   4.457  12.628  0.0226  0.1136  0.5256
  192MPD1    H5 2929   0.603   4.502  12.571  1.4853 -2.5570  0.2333
  192MPD1    N1 2930   0.070   4.394  12.757  0.4748 -0.4988 -0.2738
  192MPD1    H6 2931   0.084   4.406  12.857  0.5747  0.1519 -0.3674
  192MPD1    H7 2932   4.702   4.432  12.741  1.3054  0.8745 -1.8680
  193MPD1     C 2933   0.240   4.522  16.216 -0.1572  0.5332 -0.6143
  193MPD1    C1 2934   0.354   4.445  16.214 -0.0311  0.0863  0.2562
  193MPD1    C2 2935   0.462   4.492  16.284  0.0195  0.1532  1.1508
  193MPD1    C3 2936   0.460   4.615  16.356  1.0961 -0.7085  0.1580
  193MPD1    C4 2937   0.346   4.692  16.354  0.4511  0.6282 -0.0272
  193MPD1    C5 2938   0.237   4.642  16.286 -0.4209 -0.6719  0.1626
  193MPD1     H 2939   0.544   4.422  16.288  0.0835  0.2061  0.7814
  193MPD1    H1 2940   0.330   0.059  16.410  1.4757  1.5882 -1.3231
  193MPD1    H2 2941   0.148   4.491  16.166 -0.7132  0.2358  0.6012
  193MPD1    H3 2942   0.142   4.694  16.284 -0.4123 -0.6340  0.8450
  193MPD1     N 2943   0.571   4.673  16.420  0.1063  0.0840  0.1890
  193MPD1    H5 2944   0.562   0.048  16.441  1.7880  0.1145  0.7943
  193MPD1    N1 2945   0.357   4.312  16.173  0.2749  0.4330 -0.4941
  193MPD1    H6 2946   0.434   4.290  16.109 -0.2051 -1.4262 -0.4410
  193MPD1    H7 2947   0.271   4.284  16.128  0.5678 -0.7534 -0.3250
  194MPD1     C 2948   2.800   2.098  16.510 -0.3287  0.9837  0.6008
  194MPD1    C1 2949   2.922   2.146  16.544 -0.3696 -0.2839 -0.3356
  194MPD1    C2 2950   3.030   2.059  16.534  0.1956 -0.4184 -0.7655
  194MPD1    C3 2951   3.019   1.940  16.466  0.4979  0.6414  0.7355
  194MPD1    C4 2952   2.893   1.904  16.423  0.0795 -0.6629  0.1387
  194MPD1    C5 2953   2.784   1.978  16.450 -0.0417  0.2759 -0.5214
  194MPD1     H 2954   3.121   2.092  16.581 -0.2257  0.8491 -0.8337
  194MPD1    H1 2955   2.890   1.810  16.369  1.3764 -0.9551  0.5603
  194MPD1    H2 2956   2.717   2.166  16.524  2.0603  4.2161 -0.8568
  194MPD1    H3 2957   2.689   1.945  16.411 -0.1042  2.5958 -2.2603
  194MPD1     N 2958   3.119   1.842  16.463 -0.5598  0.3278 -0.2237
  194MPD1    H5 2959   3.092   1.750  16.429 -3.4065  1.2400 -0.4258
  194MPD1    N1 2960   2.930   2.268  16.618 -0.0871 -0.0658 -0.2405
  194MPD1    H6 2961   2.869   2.346  16.597  1.9171  1.0633 -1.7607
  194MPD1    H7 2962   3.026   2.288  16.643  0.9872 -0.4463 -4.0663
  195MPD1     C 2963   0.602   3.597  17.037 -0.2442  0.1641 -0.3689
  195MPD1    C1 2964   0.708   3.513  17.069 -0.2940 -0.3391  0.1493
  195MPD1    C2 2965   0.675   3.379  17.073 -0.6507  0.5212  0.4018
  195MPD1    C3 2966   0.544   3.340  17.051  1.3992 -0.3128  0.7557
  195MPD1    C4 2967   0.445   3.428  17.013 -0.0256  0.6555 -0.6573
  195MPD1    C5 2968   0.472   3.559  17.011 -0.3914 -0.5040  0.8043
  195MPD1     H 2969   0.762   3.320  17.101  0.1572  1.3591 -0.3303
  195MPD1    H1 2970   0.343   3.392  17.002 -0.0037  0.7869 -1.3001
  195MPD1    H2 2971   0.640   3.699  17.037  0.4688 -0.0991 -0.0271
  195MPD1    H3 2972   0.394   3.628  16.979 -1.3802 -1.2282  1.6312
  195MPD1     N 2973   0.494   3.209  17.079  0.4464  0.0351 -0.3938
  195MPD1    H5 2974   0.396   3.206  17.106  1.1006  2.0801  2.2406
  195MPD1    N1 2975   0.827   3.560  17.127  0.5590 -0.0403  0.0074
  195MPD1    H6 2976   0.871   3.646  17.095 -2.0341  1.3277  0.1587
  195MPD1    H7 2977   0.895   3.485  17.138  0.7781  0.6580  3.3185
  196MPD1     C 2978   0.705   3.098  17.441  0.1773  0.0485  0.0011
  196MPD1    C1 2979   0.667   3.218  17.500 -0.0438 -0.5785  0.0921
  196MPD1    C2 2980   0.630   3.199  17.633  0.0255  0.4127 -0.2185
  196MPD1    C3 2981   0.604   3.073  17.692  0.3649  0.3022 -0.4185
  196MPD1    C4 2982   0.622   2.958  17.621  0.3722  0.7037  0.4658
  196MPD1    C5 2983   0.684   2.972  17.499 -0.3520  0.8325 -0.1568
  196MPD1     H 2984   0.605   3.287  17.690  0.1011  0.7966 -0.7712
  196MPD1    H1 2985   0.605   2.855  17.653 -0.2132  0.5627 -0.2863
  196MPD1    H2 2986   0.737   3.091  17.338 -1.2848  1.2352 -0.5309
  196MPD1    H3 2987   0.704   2.884  17.440 -1.3932 -0.0571  0.8219
  196MPD1     N 2988   0.543   3.064   0.117 -0.2433  0.8883  0.0212
  196MPD1    H5 2989   0.518   2.970   0.147  0.0645 -0.5714 -4.4074
  196MPD1    N1 2990   0.695   3.343  17.444 -0.0092 -0.3605 -0.3428
  196MPD1    H6 2991   0.686   3.335  17.343 -0.4195 -1.4315 -0.2229
  196MPD1    H7 2992   0.634   3.413  17.486 -2.1521 -2.8506  0.6922
  197MPD1     C 2993   4.231   1.305   0.415 -0.1558  0.0419  0.2917
  197MPD1    C1 2994   4.281   1.179   0.388  0.4181  0.5396  0.7769
  197MPD1    C2 2995   4.307   1.140   0.263 -0.3346  0.1398 -0.1455
  197MPD1    C3 2996   4.323   1.237   0.161  0.0813 -0.2802  0.0881
  197MPD1    C4 2997   4.301   1.368   0.198 -0.2285  1.0386 -0.0186
  197MPD1    C5 2998   4.255   1.403   0.321  0.6820 -0.4783 -1.3239
  197MPD1     H 2999   4.321   1.035   0.241  3.4842  0.1556  2.3101
  197MPD1    H1 3000   4.334   1.446   0.130  1.2864  0.1361 -0.3062
  197MPD1    H2 3001   4.192   1.342   0.510 -1.2940 -0.4128  0.0096
  197MPD1    H3 3002   4.229   1.507   0.339  0.5751 -1.1910  2.5207
  197MPD1     N 3003   4.354   1.208   0.028  0.3529 -0.3121 -0.7883
  197MPD1    H5 3004   4.368   1.286  17.664 -0.0283  0.6456  0.3035
  197MPD1    N1 3005   4.270   1.081   0.489 -0.1960  0.1299  0.4486
  197MPD1    H6 3006   4.336   1.004   0.496  2.1500  2.0626 -0.4794
  197MPD1    H7 3007   4.254   1.125   0.580 -0.3127  0.7713  0.1197
  198MPD1     C 3008   1.177   3.782  15.644 -0.3313  0.2461  0.5173
  198MPD1    C1 3009   1.215   3.753  15.771 -0.5068  0.0626  0.1673
  198MPD1    C2 3010   1.347   3.762  15.806 -0.1173  0.6811 -0.0271
  198MPD1    C3 3011   1.439   3.808  15.707  0.1052  0.0902 -0.3010
  198MPD1    C4 3012   1.392   3.841  15.581 -0.2689  0.2583 -0.4035
  198MPD1    C5 3013   1.266   3.827  15.549  0.3638  0.0138 -0.0346
  198MPD1     H 3014   1.377   3.742  15.909 -2.3394  0.0850  0.5054
  198MPD1    H1 3015   1.465   3.872  15.507 -0.8194 -0.1845 -1.1333
  198MPD1    H2 3016   1.074   3.779  15.611  0.2742  3.3622 -1.7268
  198MPD1    H3 3017   1.236   3.858  15.450 -0.3249 -4.6898 -1.2778
  198MPD1     N 3018   1.569   3.821  15.752  0.3722  0.8601  0.0602
  198MPD1    H5 3019   1.577   3.767  15.838  0.3120  0.2335 -0.3238
  198MPD1    N1 3020   1.116   3.719  15.863  0.0378  0.2381 -0.0911
  198MPD1    H6 3021   1.142   3.755  15.954  0.7518  1.3779 -0.7515
  198MPD1    H7 3022   1.021   3.744  15.840  0.4574  1.1613 -0.8008
  199MPD1     C 3023   1.957   3.038   9.828 -0.3248 -0.5983  0.3712
  199MPD1    C1 3024   2.080   3.022   9.771  0.4753  0.1171  0.7295
  199MPD1    C2 3025   2.169   3.121   9.765 -0.3758 -0.2401 -0.4523
  199MPD1    C3 3026   2.145   3.252   9.819 -0.2100 -0.3819 -0.6044
  199MPD1    C4 3027   2.020   3.263   9.879 -0.0755 -0.4838 -0.0248
  199MPD1    C5 3028   1.930   3.160   9.884  0.8071  0.4179 -0.2515
  199MPD1     H 3029   2.261   3.110   9.709  0.7395 -1.1414  1.5557
  199MPD1    H1 3030   1.990   3.357   9.923  1.8996 -0.7569  1.9075
  199MPD1    H2 3031   1.888   2.955   9.834 -0.7467 -0.2384  0.4859
  199MPD1    H3 3032   1.837   3.175   9.937  0.5558  1.0487 -0.8664
  199MPD1     N 3033   2.233   3.366   9.826  0.6379 -0.3916 -0.3246
  199MPD1    H5 3034   2.208   3.441   9.890  0.7118 -2.0943  1.6855
  199MPD1    N1 3035   2.103   2.902   9.698 -0.1916  0.3313 -0.2480
  199MPD1    H6 3036   2.203   2.884   9.697 -0.0372  1.1382  0.0947
  199MPD1    H7 3037   2.066   2.826   9.754 -0.2920  0.7136  0.2074
  200MPD1     C 3038   2.010   4.613  14.878 -0.8438  0.8469  0.5959
  200MPD1    C1 3039   2.037   4.500  14.802  0.6140  0.7823  0.6421
  200MPD1    C2 3040   2.153   4.501  14.728  0.6252 -0.1849 -0.3814
  200MPD1    C3 3041   2.241   4.615  14.733 -0.3741  0.3321  0.4763
  200MPD1    C4 3042   2.202   0.001  14.798 -0.2822  0.2800  0.7355
  200MPD1    C5 3043   2.078   4.725  14.860  0.0826  0.1549  0.2432
  200MPD1     H 3044   2.186   4.408  14.683  0.4102  0.5800 -2.1198
  200MPD1    H1 3045   2.253   0.096  14.797  1.5195 -0.7074 -1.4286
  200MPD1    H2 3046   1.917   4.621  14.933 -1.0610  0.9642  0.2129
  200MPD1    H3 3047   2.044   0.092  14.905  2.0670  0.0254  1.9738
  200MPD1     N 3048   2.353   4.618  14.649  0.0491 -0.2319 -0.4258
  200MPD1    H5 3049   2.371   4.538  14.589  1.2487  0.4391 -0.9623
  200MPD1    N1 3050   1.966   4.380  14.813  0.3488  0.2885  0.7386
  200MPD1    H6 3051   1.979   4.315  14.736  0.3020  2.2772 -0.9544
  200MPD1    H7 3052   1.869   4.381  14.841  0.2160 -1.1973  0.3455
  201MPD1     C 3053   4.582   3.984  13.547  0.8653 -0.8072 -0.5110
  201MPD1    C1 3054   4.714   3.966  13.567 -0.0980  0.2909 -0.1264
  201MPD1    C2 3055   0.042   3.837  13.559  0.4827 -0.0577 -0.3658
  201MPD1    C3 3056   4.686   3.729  13.542 -0.1698 -0.8054 -0.8536
  201MPD1    C4 3057   4.544   3.747  13.537 -0.3321 -0.5259 -0.1566
  201MPD1    C5 3058   4.494   3.877  13.539 -0.2302  0.1256  0.2836
  201MPD1     H 3059   0.148   3.817  13.558  0.5558  0.3092  0.0413
  201MPD1    H1 3060   4.469   3.669  13.541 -0.2799 -0.5185  1.0245
  201MPD1    H2 3061   4.545   4.086  13.552 -0.3646 -1.1731 -2.1437
  201MPD1    H3 3062   4.388   3.900  13.542 -0.5071 -1.2444  0.9176
  201MPD1     N 3063   0.028   3.601  13.523  0.1824  0.4831 -0.1349
  201MPD1    H5 3064   0.129   3.606  13.516  0.3523  0.2407  2.2510
  201MPD1    N1 3065   0.076   4.079  13.559  0.0186 -0.0883  0.5939
  201MPD1    H6 3066   0.168   4.048  13.590 -0.4585 -1.9345  0.1368
  201MPD1    H7 3067   0.051   4.157  13.620 -1.4978 -1.2571  1.4650
  202MPD1     C 3068   0.059   1.788   9.139 -0.5980  0.2368  0.0506
  202MPD1    C1 3069   0.026   1.912   9.065 -0.2745 -0.2609  0.3294
  202MPD1    C2 3070   0.093   2.023   9.112  0.1393  0.7602 -0.5425
  202MPD1    C3 3071   0.206   2.019   9.184 -0.4301  0.3873 -0.0817
  202MPD1    C4 3072   0.257   1.898   9.222  0.5206 -0.1727 -1.0864
  202MPD1    C5 3073   0.183   1.784   9.192 -0.0093 -0.6040  0.4261
  202MPD1     H 3074   0.057   2.114   9.065  0.4245 -0.6546 -3.4790
  202MPD1    H1 3075   0.350   1.890   9.277  0.2562 -1.8440 -0.8831
  202MPD1    H2 3076   0.003   1.695   9.136 -2.2763  1.2809 -1.2486
  202MPD1    H3 3077   0.227   1.692   9.229 -0.4960 -0.5555  1.1244
  202MPD1     N 3078   0.269   2.132   9.236  0.1310 -0.2363  0.0435
  202MPD1    H5 3079   0.352   2.108   9.289 -0.7596  2.2629  2.5527
  202MPD1    N1 3080   4.614   1.929   9.034 -0.3754  0.0172  0.3695
  202MPD1    H6 3081   4.611   2.010   8.972  0.7577  0.4031  0.8205
  202MPD1    H7 3082   4.584   1.848   8.981  3.4780 -1.0625 -0.1878
  203MPD1     C 3083   2.850   3.191  12.537  0.0941 -0.3338  0.7754
  203MPD1    C1 3084   2.954   3.154  12.460 -0.2427  0.2003 -0.8963
  203MPD1    C2 3085   3.078   3.161  12.517 -1.0228  0.3706  0.7872
  203MPD1    C3 3086   3.102   3.186  12.651 -0.6241 -0.8505  0.3307
  203MPD1    C4 3087   2.989   3.242  12.723 -0.1597  0.0619 -0.2661
  203MPD1    C5 3088   2.864   3.238  12.664  0.3295  1.1779  0.5934
  203MPD1     H 3089   3.164   3.117  12.467 -1.0173  0.8722  0.3534
  203MPD1    H1 3090   2.995   3.274  12.827 -0.2789 -2.3848  0.4803
  203MPD1    H2 3091   2.748   3.188  12.501  0.4701  0.7978 -0.3801
  203MPD1    H3 3092   2.772   3.271  12.711 -0.0368  0.2552  0.5329
  203MPD1     N 3093   3.231   3.191  12.697 -0.3609 -0.3820  0.3841
  203MPD1    H5 3094   3.303   3.161  12.632 -1.1526 -4.6229  1.4534
  203MPD1    N1 3095   2.941   3.109  12.330  0.0638 -0.2291 -0.1273
  203MPD1    H6 3096   2.861   3.047  12.322 -0.5276  0.5233  0.0240
  203MPD1    H7 3097   3.016   3.046  12.300  0.3057 -0.1025  0.2205
  204MPD1     C 3098   2.556   0.021  17.527 -0.4846 -0.4977 -1.3199
  204MPD1    C1 3099   2.647   4.656  17.571  0.0803 -0.1627  0.4853
  204MPD1    C2 3100   2.716   4.576  17.479 -0.7461 -0.0923  0.8099
  204MPD1    C3 3101   2.681   4.582  17.344 -0.3260 -0.3275  0.0645
  204MPD1    C4 3102   2.574   4.664  17.303  0.0223 -0.2027  1.0306
  204MPD1    C5 3103   2.513   0.014  17.397 -0.3480  0.0095 -0.3244
  204MPD1     H 3104   2.800   4.516  17.512  0.8138  1.3297 -0.5342
  204MPD1    H1 3105   2.533   4.664  17.203 -3.1635  0.3829  2.3098
  204MPD1    H2 3106   2.505   0.086  17.596  0.9407  0.5671 -1.2542
  204MPD1    H3 3107   2.423   0.066  17.366  0.9188  1.7063 -1.1555
  204MPD1     N 3108   2.762   4.511  17.247 -0.0678 -0.4239 -0.4757
  204MPD1    H5 3109   2.832   4.445  17.279 -0.4875 -1.1203 -0.9965
  204MPD1    N1 3110   2.692   4.664   0.006  0.0181 -0.7015 -0.3075
  204MPD1    H6 3111   2.612   4.698   0.060 -0.6132 -0.8557 -1.1323
  204MPD1    H7 3112   2.731   4.578   0.044 -0.1192 -0.9246 -0.6649
  205MPD1     C 3113   2.824   2.823  17.267  0.2818  0.3284  0.7019
  205MPD1    C1 3114   2.767   2.946  17.308  0.0136 -0.0612 -0.1608
  205MPD1    C2 3115   2.842   3.061  17.323 -0.5219 -0.0884 -0.0049
  205MPD1    C3 3116   2.984   3.048  17.317  0.0367  0.0037 -0.0015
  205MPD1    C4 3117   3.041   2.927  17.290 -0.5683 -0.2617 -0.1416
  205MPD1    C5 3118   2.961   2.821  17.249  0.1998  0.0343  0.5440
  205MPD1     H 3119   2.788   3.153  17.343  1.3704  0.8641  0.6827
  205MPD1    H1 3120   3.149   2.920  17.290 -0.6364 -1.2369  1.0504
  205MPD1    H2 3121   2.766   2.736  17.236  1.5075 -0.9246  1.9566
  205MPD1    H3 3122   3.016   2.735  17.214  0.8991  0.1687  1.3094
  205MPD1     N 3123   3.075   3.153  17.349 -0.4604 -0.9529 -0.2418
  205MPD1    H5 3124   3.173   3.129  17.347 -0.0112  0.7757  0.7439
  205MPD1    N1 3125   2.623   2.955  17.300 -0.3360 -0.0057  0.0665
  205MPD1    H6 3126   2.583   3.030  17.356  1.0405  1.4475 -0.8980
  205MPD1    H7 3127   2.574   2.869  17.320  0.9302 -0.3990  1.5094
  206MPD1     C 3128   3.837   2.007  15.878  0.1846 -0.3179 -0.1478
  206MPD1    C1 3129   3.727   2.084  15.901  0.0106 -0.5972 -0.4968
  206MPD1    C2 3130   3.600   2.021  15.885 -0.8539  0.4856  0.0131
  206MPD1    C3 3131   3.593   1.896  15.826 -0.5000  0.6669 -0.6655
  206MPD1    C4 3132   3.713   1.825  15.803  0.2553  0.4469 -0.6945
  206MPD1    C5 3133   3.833   1.883  15.829  0.0811 -0.1374 -0.2340
  206MPD1     H 3134   3.506   2.065  15.917 -2.7532 -4.3249  1.0691
  206MPD1    H1 3135   3.714   1.730  15.752 -0.8101 -0.6033  1.2134
  206MPD1    H2 3136   3.933   2.042  15.913 -0.5249  1.4163  0.0642
  206MPD1    H3 3137   3.926   1.828  15.816  1.0970  1.6943 -0.7168
  206MPD1     N 3138   3.473   1.835  15.782 -0.4049 -0.2070 -0.5566
  206MPD1    H5 3139   3.473   1.741  15.744  1.8005  0.5419 -2.4335
  206MPD1    N1 3140   3.734   2.203  15.977  0.5500  0.1022  0.8392
  206MPD1    H6 3141   3.642   2.246  15.967  1.2372  1.3525 -0.0463
  206MPD1    H7 3142   3.814   2.263  15.959  0.2401  0.3509  0.3074
  207MPD1     C 3143   0.728   3.492  10.138  0.1436 -0.5559 -0.4756
  207MPD1    C1 3144   0.804   3.394  10.182 -0.3130  0.0806  0.4055
  207MPD1    C2 3145   0.878   3.429  10.292 -0.4458 -0.2818  0.4237
  207MPD1    C3 3146   0.860   3.552  10.360 -0.3368 -0.4394  0.0730
  207MPD1    C4 3147   0.773   3.648  10.313 -0.3623 -0.6773 -0.3531
  207MPD1    C5 3148   0.705   3.610  10.202  0.7044 -0.4494  0.3546
  207MPD1     H 3149   0.958   3.364  10.326  0.0158  0.3390  0.5435
  207MPD1    H1 3150   0.748   3.741  10.363 -1.1064 -0.0865 -1.8443
  207MPD1    H2 3151   0.672   3.479  10.046  1.2901 -2.0036 -0.9545
  207MPD1    H3 3152   0.648   3.691  10.158  2.1782  1.1167  1.3158
  207MPD1     N 3153   0.925   3.575  10.480 -0.7781 -0.0206  0.2715
  207MPD1    H5 3154   0.924   3.667  10.523  1.2673  0.8210 -1.4716
  207MPD1    N1 3155   0.842   3.285  10.094  0.2708  0.4563 -0.7544
  207MPD1    H6 3156   0.871   3.198  10.140 -0.3277 -0.8138 -2.7757
  207MPD1    H7 3157   0.761   3.248  10.044 -0.8365 -0.3207  1.5697
  208MPD1     C 3158   0.385   3.626   0.100  0.4590  0.5103 -0.6269
  208MPD1    C1 3159   0.293   3.697   0.178 -0.5917  0.4334 -0.3940
  208MPD1    C2 3160   0.163   3.647   0.183 -0.9925 -0.0451  0.4376
  208MPD1    C3 3161   0.114   3.562   0.093 -0.4548 -0.3397 -0.0726
  208MPD1    C4 3162   0.206   3.494   0.016  0.1614 -0.5603 -0.2159
  208MPD1    C5 3163   0.338   3.526   0.022 -0.7577  0.3541 -0.4041
  208MPD1     H 3164   0.096   3.691   0.257  1.0580 -0.0276  2.2870
  208MPD1    H1 3165   0.172   3.406  17.663 -0.3428  0.5087 -1.6859
  208MPD1    H2 3166   0.492   3.637   0.098  0.5318 -0.0108  0.5121
  208MPD1    H3 3167   0.418   3.482  17.663 -0.2252  0.3043  0.3498
  208MPD1     N 3168   4.703   3.520   0.088 -0.7754  0.1241 -0.6301
  208MPD1    H5 3169   4.640   3.555   0.159 -1.1879  1.1271 -1.4901
  208MPD1    N1 3170   0.333   3.796   0.273 -0.3603  0.3066 -0.8384
  208MPD1    H6 3171   0.264   3.871   0.275 -0.4590  0.1967 -0.1098
  208MPD1    H7 3172   0.424   3.834   0.251  0.8773 -1.2893  1.5952
  209MPD1     C 3173   1.535   2.930  12.381  0.2625 -0.5030  0.3322
  209MPD1    C1 3174   1.435   3.026  12.388 -0.3239 -0.5088  0.4007
  209MPD1    C2 3175   1.408   3.103  12.278  0.3075 -0.2512  0.3149
  209MPD1    C3 3176   1.477   3.073  12.159  0.4926  0.2786 -0.8005
  209MPD1    C4 3177   1.559   2.967  12.138 -0.6475 -0.3306  0.4719
  209MPD1    C5 3178   1.591   2.903  12.256 -0.1167  0.6636 -0.0206
  209MPD1     H 3179   1.344   3.190  12.282  0.3021 -0.2445  0.0652
  209MPD1    H1 3180   1.611   2.947  12.045  1.4968  2.4326  1.0430
  209MPD1    H2 3181   1.562   2.863  12.461 -0.4686 -1.3925 -0.1570
  209MPD1    H3 3182   1.662   2.822  12.266 -1.3723 -0.4902 -0.4491
  209MPD1     N 3183   1.449   3.165  12.053 -0.4268  0.0429  0.2960
  209MPD1    H5 3184   1.391   3.243  12.081 -1.1073 -1.1912  2.3398
  209MPD1    N1 3185   1.384   3.060  12.508  0.0551  0.4578 -0.2127
  209MPD1    H6 3186   1.290   3.100  12.507  0.1575  0.6158 -2.3791
  209MPD1    H7 3187   1.367   2.981  12.571 -0.1076  1.1334  0.5972
  210MPD1     C 3188   1.028   3.812  12.265 -0.2635 -0.3505 -0.2321
  210MPD1    C1 3189   1.021   3.842  12.130 -0.1900  0.1324  0.2984
  210MPD1    C2 3190   1.124   3.791  12.056  0.8710 -0.3753 -0.6722
  210MPD1    C3 3191   1.211   3.698  12.107  0.1924  0.2889  0.1222
  210MPD1    C4 3192   1.214   3.673  12.241  0.2672 -0.1457  1.1056
  210MPD1    C5 3193   1.132   3.745  12.318  0.1457 -0.4181  0.9425
  210MPD1     H 3194   1.129   3.818  11.951  1.3257 -0.5530 -0.6963
  210MPD1    H1 3195   1.291   3.618  12.293  2.5223  0.7948 -1.2462
  210MPD1    H2 3196   0.958   3.861  12.331  1.2317  0.1339  0.9900
  210MPD1    H3 3197   1.137   3.726  12.424 -0.4028 -1.3556  0.8052
  210MPD1     N 3198   1.295   3.612  12.032  0.3300 -0.1961 -0.8942
  210MPD1    H5 3199   1.334   3.534  12.084  1.3044 -0.2296 -1.6759
  210MPD1    N1 3200   0.936   3.941  12.089 -0.0539 -0.3102 -0.0084
  210MPD1    H6 3201   0.845   3.921  12.130 -1.0045 -0.4433 -2.1526
  210MPD1    H7 3202   0.913   3.937  11.990 -1.6796 -0.3888  0.3732
  211MPD1     C 3203   4.354   3.493  16.677 -0.6234 -0.0636  0.4384
  211MPD1    C1 3204   4.304   3.614  16.629 -0.1213 -0.4117 -0.5697
  211MPD1    C2 3205   4.162   3.635  16.639  0.0494  0.6148 -0.6879
  211MPD1    C3 3206   4.080   3.556  16.711  0.2987  0.5770 -0.1384
  211MPD1    C4 3207   4.130   3.432  16.755  0.0597  0.2239 -0.0969
  211MPD1    C5 3208   4.265   3.403  16.734 -0.5345  0.4143  0.5334
  211MPD1     H 3209   4.129   3.734  16.609  0.6661  0.3748 -2.1422
  211MPD1    H1 3210   4.075   3.357  16.811  2.6284 -1.1087  0.6185
  211MPD1    H2 3211   4.455   3.459  16.658 -0.3728  0.7668  0.2514
  211MPD1    H3 3212   4.298   3.307  16.771  0.1484  1.7501  3.3473
  211MPD1     N 3213   3.948   3.598  16.743 -0.1518  0.3103 -0.1148
  211MPD1    H5 3214   3.923   3.689  16.705  0.8621  0.8595  0.5525
  211MPD1    N1 3215   4.387   3.695  16.553  0.5738 -0.2390 -0.4031
  211MPD1    H6 3216   4.358   3.792  16.542 -3.7875 -1.6292 -1.2283
  211MPD1    H7 3217   4.484   3.685  16.580 -0.2131  0.9878  2.9236
  212MPD1     C 3218   2.327   2.430  16.410  0.3868  0.5646 -0.4461
  212MPD1    C1 3219   2.248   2.317  16.368  0.0199  0.2413  0.1588
  212MPD1    C2 3220   2.299   2.196  16.407 -0.0974 -0.1662 -0.2109
  212MPD1    C3 3221   2.394   2.179  16.503  0.0502  0.0401  0.6211
  212MPD1    C4 3222   2.454   2.286  16.555 -0.3819  0.0230  0.0102
  212MPD1    C5 3223   2.418   2.412  16.515  0.1577  0.0378  0.1593
  212MPD1     H 3224   2.267   2.105  16.358 -1.7511 -0.6900  1.8933
  212MPD1    H1 3225   2.530   2.282  16.631  0.2697 -0.3857 -0.6601
  212MPD1    H2 3226   2.315   2.528  16.366 -2.9995 -0.0286 -0.8139
  212MPD1    H3 3227   2.474   2.496  16.554  0.0814 -0.5568  1.5251
  212MPD1     N 3228   2.422   2.054  16.568 -0.1795  0.2758 -0.1917
  212MPD1    H5 3229   2.481   2.057  16.651 -0.9447 -0.1289  0.3649
  212MPD1    N1 3230   2.159   2.323  16.258  0.2525  0.8534 -0.5262
  212MPD1    H6 3231   2.103   2.238  16.255 -0.4187  1.3609 -2.3225
  212MPD1    H7 3232   2.096   2.402  16.273 -0.1058  0.7408 -1.4232
  213MPD1     C 3233   0.884   2.089  15.826 -0.4088 -0.3661  0.5430
  213MPD1    C1 3234   0.790   2.134  15.735  0.5368 -0.2642  0.0074
  213MPD1    C2 3235   0.829   2.240  15.655 -0.1458  0.1167  0.0714
  213MPD1    C3 3236   0.945   2.309  15.674 -0.5552 -0.6775 -0.3971
  213MPD1    C4 3237   1.031   2.270  15.776  0.1725 -0.0420  0.4889
  213MPD1    C5 3238   1.002   2.157  15.852 -0.3910 -0.5567  0.0273
  213MPD1     H 3239   0.780   2.268  15.563 -2.8250 -0.2754  1.3940
  213MPD1    H1 3240   1.131   2.314  15.783 -0.1825  0.7780  0.4497
  213MPD1    H2 3241   0.855   2.004  15.888 -1.2618  0.6963  1.5947
  213MPD1    H3 3242   1.066   2.117  15.930 -0.1402  0.3884  0.3026
  213MPD1     N 3243   0.976   2.413  15.584  0.2154 -0.1448 -0.2122
  213MPD1    H5 3244   0.914   2.431  15.505 -1.2743  0.9679  1.2297
  213MPD1    N1 3245   0.688   2.048  15.680 -0.2816 -0.2995  0.0533
  213MPD1    H6 3246   0.624   2.094  15.616  0.5681  0.8544  0.0553
  213MPD1    H7 3247   0.638   1.986  15.744 -0.9579 -0.2588 -0.4330
  214MPD1     C 3248   0.436   2.571  15.060 -0.3931 -0.1764 -0.1547
  214MPD1    C1 3249   0.541   2.633  14.991  0.2993  0.4322  0.1685
  214MPD1    C2 3250   0.651   2.664  15.071 -0.5178 -0.0777 -1.1797
  214MPD1    C3 3251   0.655   2.654  15.204 -0.2094  0.2702  0.0279
  214MPD1    C4 3252   0.539   2.615  15.267 -0.3030  0.2716 -0.3383
  214MPD1    C5 3253   0.427   2.577  15.197 -0.2430 -0.0372 -0.3861
  214MPD1     H 3254   0.737   2.706  15.020 -0.9975  0.6158 -1.4103
  214MPD1    H1 3255   0.532   2.607  15.375 -1.4077 -1.4333 -0.5345
  214MPD1    H2 3256   0.346   2.543  15.006  1.1175  1.1234 -3.3554
  214MPD1    H3 3257   0.336   2.546  15.246 -0.7780  1.2932 -0.5604
  214MPD1     N 3258   0.766   2.694  15.280  0.1757  0.5823  0.0118
  214MPD1    H5 3259   0.760   2.683  15.381 -2.3873  0.2037 -0.1753
  214MPD1    N1 3260   0.536   2.676  14.856 -0.0551 -0.5497  0.5859
  214MPD1    H6 3261   0.618   2.673  14.796  1.2479  0.2806  2.3402
  214MPD1    H7 3262   0.460   2.630  14.805 -1.0912  1.8552 -0.0514
  215MPD1     C 3263   0.928   2.674  10.688 -0.2943 -0.5354 -0.2194
  215MPD1    C1 3264   0.874   2.791  10.647  0.1475 -0.0982 -0.0585
  215MPD1    C2 3265   0.848   2.876  10.750  0.0185  0.6022 -0.3585
  215MPD1    C3 3266   0.879   2.853  10.884 -0.6909 -0.5390  0.9860
  215MPD1    C4 3267   0.915   2.727  10.918 -0.1601 -0.0451 -0.1947
  215MPD1    C5 3268   0.941   2.647  10.818 -0.0608  0.5598  0.6358
  215MPD1     H 3269   0.813   2.975  10.723 -2.7152 -0.5930 -1.1162
  215MPD1    H1 3270   0.940   2.693  11.018  0.2048  0.7048 -0.0320
  215MPD1    H2 3271   0.968   2.604  10.615  1.4854 -0.8173  1.0286
  215MPD1    H3 3272   0.983   2.553  10.851  1.5062  0.4795 -1.5412
  215MPD1     N 3273   0.878   2.958  10.973 -0.2242 -0.0988 -0.2537
  215MPD1    H5 3274   0.870   3.048  10.928 -0.3570 -0.6057 -1.2333
  215MPD1    N1 3275   0.881   2.823  10.510 -0.0603 -0.1630  0.0166
  215MPD1    H6 3276   0.848   2.753  10.444 -0.2402 -0.0482 -0.0129
  215MPD1    H7 3277   0.825   2.907  10.498 -0.4628 -0.7424 -2.0259
  216MPD1     C 3278   2.513   0.816  16.599 -0.0870  0.4351 -0.6931
  216MPD1    C1 3279   2.600   0.714  16.628  0.1388  0.5249  0.7551
  216MPD1    C2 3280   2.730   0.751  16.657  0.1624  0.1944  0.1587
  216MPD1    C3 3281   2.772   0.877  16.639  0.1456 -0.0508 -0.0312
  216MPD1    C4 3282   2.694   0.973  16.573 -0.5587 -0.0004  0.4006
  216MPD1    C5 3283   2.561   0.941  16.566 -0.5796  0.1940 -0.6698
  216MPD1     H 3284   2.798   0.679  16.700 -0.6067  0.1246  1.2535
  216MPD1    H1 3285   2.733   1.071  16.547  0.8824 -0.1104  2.1659
  216MPD1    H2 3286   2.409   0.794  16.583 -0.6011  1.0013  1.8795
  216MPD1    H3 3287   2.497   1.007  16.510  1.0958  0.5707 -2.1456
  216MPD1     N 3288   2.905   0.907  16.686  0.3208 -0.1767  0.5196
  216MPD1    H5 3289   2.959   0.832  16.728  1.4306 -0.9585 -2.3396
  216MPD1    N1 3290   2.552   0.591  16.675 -0.7200  0.0924  0.6052
  216MPD1    H6 3291   2.470   0.553  16.628  0.1717 -1.1631  0.0675
  216MPD1    H7 3292   2.627   0.523  16.663 -2.9005 -2.0354 -0.8415
  217MPD1     C 3293   3.508   0.966   9.404  0.1140  0.2258 -0.0658
  217MPD1    C1 3294   3.549   1.070   9.488  0.1736  0.3939 -0.3741
  217MPD1    C2 3295   3.566   1.193   9.437 -0.7504 -0.3891  0.5125
  217MPD1    C3 3296   3.546   1.211   9.296  0.2789 -0.4197 -0.0272
  217MPD1    C4 3297   3.511   1.109   9.215  0.4652 -0.9537  0.0996
  217MPD1    C5 3298   3.497   0.991   9.271 -0.7685 -0.1958 -0.3615
  217MPD1     H 3299   3.589   1.267   9.512  0.8645  0.4703 -0.8320
  217MPD1    H1 3300   3.490   1.127   9.110  2.6701  0.7762 -0.0483
  217MPD1    H2 3301   3.493   0.862   9.434 -0.5507  0.8950  1.9605
  217MPD1    H3 3302   3.470   0.911   9.202 -1.8989 -1.2563  1.3218
  217MPD1     N 3303   3.556   1.340   9.238  0.3232 -0.9810 -0.9633
  217MPD1    H5 3304   3.541   1.357   9.140  2.6175  0.9278 -0.9866
  217MPD1    N1 3305   3.559   1.035   9.626  0.3887 -0.4596  0.2276
  217MPD1    H6 3306   3.629   0.963   9.642  0.9914  0.1577  0.3227
  217MPD1    H7 3307   3.596   1.116   9.676  0.7620 -0.2207 -0.4365
  218MPD1     C 3308   0.967   4.373  11.728  0.1335 -0.3453  0.2353
  218MPD1    C1 3309   0.917   4.314  11.844  0.3704 -0.0940 -0.4074
  218MPD1    C2 3310   0.998   4.258  11.945 -0.0770  0.3030 -0.4649
  218MPD1    C3 3311   1.125   4.219  11.906  0.0611  0.0299 -0.6848
  218MPD1    C4 3312   1.169   4.255  11.780  0.0737  0.8408  0.4598
  218MPD1    C5 3313   1.096   4.338  11.699  0.1636 -0.5208  0.9331
  218MPD1     H 3314   0.957   4.230  12.042 -0.5317 -1.2909 -1.1095
  218MPD1    H1 3315   1.272   4.236  11.753 -0.5034  0.8505 -1.6950
  218MPD1    H2 3316   0.916   4.439  11.659  0.5212 -0.8339 -0.5063
  218MPD1    H3 3317   1.136   4.383  11.608 -2.8848  1.1141  0.3727
  218MPD1     N 3318   1.202   4.159  12.004 -0.1382 -0.7929  0.7114
  218MPD1    H5 3319   1.164   4.152  12.098 -1.1637  2.5350  0.5502
  218MPD1    N1 3320   0.787   4.353  11.883  0.1630  0.2962 -0.3850
  218MPD1    H6 3321   0.719   4.374  11.810 -1.2039 -1.7759  0.2888
  218MPD1    H7 3322   0.749   4.286  11.950 -0.9691  1.8340  0.5332
  219MPD1     C 3323   1.780   3.393  11.850 -0.0463 -0.1162  0.1429
  219MPD1    C1 3324   1.780   3.395  11.984  0.1994  0.1972  0.0355
  219MPD1    C2 3325   1.736   3.511  12.034 -0.0114  0.4486 -0.6742
  219MPD1    C3 3326   1.680   3.615  11.966 -0.6399  0.0754  0.1713
  219MPD1    C4 3327   1.670   3.604  11.833 -0.0248  0.7417  0.7495
  219MPD1    C5 3328   1.718   3.490  11.780  0.0277  0.9715  0.3462
  219MPD1     H 3329   1.755   3.520  12.140 -0.0287  0.2930 -0.6584
  219MPD1    H1 3330   1.626   3.677  11.767 -1.4359 -0.2607  0.5941
  219MPD1    H2 3331   1.816   3.304  11.801  0.1119 -0.2252  0.4573
  219MPD1    H3 3332   1.727   3.494  11.672  3.1312 -1.1268  0.5283
  219MPD1     N 3333   1.631   3.735  12.018  0.2738  0.2799  0.1463
  219MPD1    H5 3334   1.615   3.814  11.955 -0.0633  0.6056  0.6400
  219MPD1    N1 3335   1.846   3.301  12.062 -0.1093  0.0005 -0.7576
  219MPD1    H6 3336   1.797   3.285  12.149  0.3007  0.1026 -0.5045
  219MPD1    H7 3337   1.858   3.211  12.015 -1.3818 -0.9537  0.7543
  220MPD1     C 3338   0.387   3.773   9.892  0.4922 -0.1461 -0.2897
  220MPD1    C1 3339   0.247   3.790   9.905  0.7656 -0.0400  0.1727
  220MPD1    C2 3340   0.177   3.721  10.000 -0.4890  0.4165  0.2666
  220MPD1    C3 3341   0.252   3.647  10.092 -0.3840  0.9058 -0.0887
  220MPD1    C4 3342   0.392   3.641  10.083  0.2611 -0.5720 -0.1861
  220MPD1    C5 3343   0.459   3.699   9.980  0.3542  0.5591 -0.3839
  220MPD1     H 3344   0.070   3.730  10.011 -0.1134  1.5853  2.9976
  220MPD1    H1 3345   0.441   3.585  10.161  1.3806  2.6649  1.3922
  220MPD1    H2 3346   0.446   3.815   9.811  1.0620 -1.7062 -0.6907
  220MPD1    H3 3347   0.566   3.692   9.967  0.6108 -0.2334  2.1458
  220MPD1     N 3348   0.181   3.592  10.202 -0.9179 -0.1370  0.0154
  220MPD1    H5 3349   0.080   3.601  10.197 -1.3038 -3.0597  2.4275
  220MPD1    N1 3350   0.178   3.844   9.794 -0.1341  0.2750 -0.1210
  220MPD1    H6 3351   0.088   3.886   9.815  0.4557  1.5560 -0.1840
  220MPD1    H7 3352   0.240   3.911   9.750  1.4960 -1.3401 -0.3124
  221MPD1     C 3353   2.758   4.186  15.925  0.3393 -0.2630 -0.1320
  221MPD1    C1 3354   2.751   4.063  15.871 -0.0867  0.0887  0.1215
  221MPD1    C2 3355   2.834   3.964  15.923 -0.5776 -0.1192 -0.0627
  221MPD1    C3 3356   2.903   3.991  16.040 -1.0013 -0.5244 -0.4008
  221MPD1    C4 3357   2.898   4.113  16.100 -0.4492 -0.5888  0.7155
  221MPD1    C5 3358   2.825   4.215  16.042 -0.1504  0.4825 -0.0161
  221MPD1     H 3359   2.836   3.864  15.881  0.1933  0.1648 -0.6959
  221MPD1    H1 3360   2.953   4.135  16.191  1.3645  0.7589 -0.7122
  221MPD1    H2 3361   2.715   4.268  15.868  2.8533  1.8299  0.9582
  221MPD1    H3 3362   2.839   4.314  16.084 -0.9124  0.7279 -0.3321
  221MPD1     N 3363   2.985   3.902  16.112 -0.1122  0.1700  0.0026
  221MPD1    H5 3364   3.008   3.937  16.205 -1.3774  0.4959  0.1986
  221MPD1    N1 3365   2.688   4.049  15.746 -0.0879  0.6073  0.1303
  221MPD1    H6 3366   2.608   4.112  15.741 -1.2567 -0.7559  1.8199
  221MPD1    H7 3367   2.658   3.952  15.743  1.4069  0.0657  2.7233
  222MPD1     C 3368   2.856   1.695  16.763 -1.1071 -0.0539 -0.3797
  222MPD1    C1 3369   2.856   1.597  16.861 -0.6633 -0.1349  0.1001
  222MPD1    C2 3370   2.858   1.632  16.995 -0.6608  0.0829 -0.4106
  222MPD1    C3 3371   2.862   1.768  17.028 -0.3801 -0.2296  0.8423
  222MPD1    C4 3372   2.858   1.862  16.932 -0.4830  0.0159 -0.4123
  222MPD1    C5 3373   2.866   1.824  16.799  0.4780  0.5705 -0.0900
  222MPD1     H 3374   2.852   1.553  17.069  1.4009 -0.7504 -1.1287
  222MPD1    H1 3375   2.859   1.969  16.952 -1.1665  0.4544 -2.6877
  222MPD1    H2 3376   2.843   1.672  16.658 -1.3018 -0.3707 -0.2870
  222MPD1    H3 3377   2.872   1.901  16.723 -1.0023 -0.3006 -1.1108
  222MPD1     N 3378   2.885   1.817  17.161  0.5128  0.0182 -0.7419
  222MPD1    H5 3379   2.875   1.917  17.174  0.5928  0.1981 -2.0378
  222MPD1    N1 3380   2.832   1.464  16.815  0.1206 -0.7825  0.2675
  222MPD1    H6 3381   2.811   1.395  16.886 -2.6641  0.8162  0.9814
  222MPD1    H7 3382   2.752   1.464  16.753  1.8637 -1.1837 -2.0009
  223MPD1     C 3383   2.695   1.654   0.511  0.4612  0.6575 -0.3418
  223MPD1    C1 3384   2.787   1.755   0.495  0.6130 -0.8246  0.5380
  223MPD1    C2 3385   2.817   1.799   0.365 -0.0232 -0.2427  0.1751
  223MPD1    C3 3386   2.738   1.759   0.254  0.0271 -0.3174  0.2929
  223MPD1    C4 3387   2.639   1.667   0.279  0.2794 -0.7438  0.3632
  223MPD1    C5 3388   2.619   1.621   0.407 -0.1065 -0.2537 -0.2498
  223MPD1     H 3389   2.896   1.869   0.339 -0.6116  0.0935 -0.7076
  223MPD1    H1 3390   2.568   1.631   0.205  0.4370  0.5124 -0.3989
  223MPD1    H2 3391   2.687   1.617   0.613 -3.2111  0.3672 -0.7397
  223MPD1    H3 3392   2.542   1.546   0.420  0.1239 -0.5504 -0.6129
  223MPD1     N 3393   2.768   1.811   0.122 -0.1915  0.2883  0.0724
  223MPD1    H5 3394   2.839   1.883   0.111 -1.8579  2.0041  0.4733
  223MPD1    N1 3395   2.858   1.794   0.608 -0.7135 -0.4074 -0.1714
  223MPD1    H6 3396   2.820   1.746   0.689  3.2831 -3.6545 -0.2038
  223MPD1    H7 3397   2.845   1.894   0.621 -1.9048 -0.4544 -0.9893
  224MPD1     C 3398   3.562   1.821   9.933  0.3684 -0.0416 -0.0815
  224MPD1    C1 3399   3.445   1.884   9.963  0.5959 -0.2365  0.5214
  224MPD1    C2 3400   3.436   2.018   9.928  0.2278 -0.5210 -0.0427
  224MPD1    C3 3401   3.529   2.074   9.849  0.4304 -0.4319 -0.3452
  224MPD1    C4 3402   3.636   2.006   9.804 -0.7170 -1.0017 -0.9360
  224MPD1    C5 3403   3.661   1.881   9.858  0.5704 -0.1718 -0.1282
  224MPD1     H 3404   3.361   2.082   9.973  2.0324  0.9205  0.9525
  224MPD1    H1 3405   3.709   2.058   9.743  1.4228 -1.4168  1.2905
  224MPD1    H2 3406   3.579   1.719   9.965  0.5406  0.0692  0.1794
  224MPD1    H3 3407   3.761   1.840   9.850 -0.1377 -1.9779  0.3615
  224MPD1     N 3408   3.532   2.210   9.820 -0.3441  0.7276 -0.7442
  224MPD1    H5 3409   3.613   2.248   9.772  1.9416 -1.1073  1.6704
  224MPD1    N1 3410   3.363   1.815  10.057 -0.3005 -0.2814  0.0875
  224MPD1    H6 3411   3.267   1.848  10.046 -0.2501  0.0897  0.7908
  224MPD1    H7 3412   3.361   1.713  10.053 -2.5801 -0.2808  1.3465
  225MPD1     C 3413   0.794   0.201  12.513 -0.4651 -0.4782  0.0882
  225MPD1    C1 3414   0.786   0.097  12.419 -0.3165  0.7831  0.0332
  225MPD1    C2 3415   0.674   0.085  12.342 -0.3802  0.1398 -0.1775
  225MPD1    C3 3416   0.570   0.177  12.338 -0.0947  0.1124 -0.0759
  225MPD1    C4 3417   0.591   0.279  12.430  0.2589 -0.5066 -0.1159
  225MPD1    C5 3418   0.692   0.286  12.510 -0.0605  0.6498 -0.0230
  225MPD1     H 3419   0.666   4.719  12.284 -0.9199  1.9239 -2.8960
  225MPD1    H1 3420   0.525   0.365  12.425 -0.0511 -0.8539 -2.0249
  225MPD1    H2 3421   0.875   0.212  12.584  0.7328  0.1146 -1.3539
  225MPD1    H3 3422   0.688   0.367  12.582 -2.6678 -1.1361  1.8420
  225MPD1     N 3423   0.451   0.160  12.263 -0.0088 -0.0936  0.1004
  225MPD1    H5 3424   0.382   0.234  12.274  0.9594  0.7019  0.7842
  225MPD1    N1 3425   0.881   4.712  12.423  0.4291 -0.1225  0.2143
  225MPD1    H6 3426   0.980   0.008  12.438  0.3405  1.4626 -1.3582
  225MPD1    H7 3427   0.871   4.657  12.338 -2.2640 -0.6254  0.8688
  226MPD1     C 3428   2.493   3.225  10.144  0.4318  0.4782 -0.9501
  226MPD1    C1 3429   2.529   3.135  10.046  0.5766 -0.3106 -0.7417
  226MPD1    C2 3430   2.638   3.160   9.972 -0.0353 -0.6647  0.8535
  226MPD1    C3 3431   2.701   3.280   9.985  0.0342 -0.2148 -0.4314
  226MPD1    C4 3432   2.653   3.377  10.071 -0.1495 -0.4976 -0.8716
  226MPD1    C5 3433   2.547   3.348  10.150 -0.0725  0.5086 -0.2203
  226MPD1     H 3434   2.686   3.077   9.921  0.8128 -1.1554  2.4655
  226MPD1    H1 3435   2.703   3.473  10.070 -1.3122  0.1281  1.3702
  226MPD1    H2 3436   2.411   3.203  10.212  0.3542  0.6669 -0.9805
  226MPD1    H3 3437   2.508   3.420  10.221 -0.5759  1.0553 -1.0666
  226MPD1     N 3438   2.820   3.295   9.905  0.1019  0.1566 -0.0643
  226MPD1    H5 3439   2.835   3.231   9.827 -1.7048 -1.8346  1.2410
  226MPD1    N1 3440   2.481   3.001  10.048  0.5855  0.4473 -0.5056
  226MPD1    H6 3441   2.380   3.004  10.056  0.5513 -0.9507 -0.4450
  226MPD1    H7 3442   2.500   2.941   9.968 -0.4854 -0.0386 -0.3891
  227MPD1     C 3443   3.474   4.050   9.799  0.5969  0.2054 -0.1495
  227MPD1    C1 3444   3.362   4.027   9.876  0.1726 -0.1053 -0.6422
  227MPD1    C2 3445   3.306   3.901   9.854 -0.2756  0.1038  0.6910
  227MPD1    C3 3446   3.354   3.805   9.776  0.4144 -0.2610 -0.3408
  227MPD1    C4 3447   3.472   3.825   9.708 -0.1880  0.1304  0.7240
  227MPD1    C5 3448   3.529   3.951   9.719  0.5829  0.2023  0.5924
  227MPD1     H 3449   3.215   3.875   9.907 -0.9482  1.8082  0.3850
  227MPD1    H1 3450   3.505   3.750   9.636  1.0788 -0.0444  1.4778
  227MPD1    H2 3451   3.511   4.152   9.802 -0.9394  0.7862 -0.9705
  227MPD1    H3 3452   3.623   3.977   9.671  0.8555 -2.1984 -0.1837
  227MPD1     N 3453   3.272   3.685   9.766  0.1953  0.6586 -0.0507
  227MPD1    H5 3454   3.179   3.689   9.805 -0.3427  0.1892 -1.2852
  227MPD1    N1 3455   3.315   4.119   9.972  0.6309  0.3664  0.0256
  227MPD1    H6 3456   3.286   4.194   9.909  0.8342  1.1572  0.8702
  227MPD1    H7 3457   3.226   4.093  10.013  1.1114 -1.8238 -0.3206
  228MPD1     C 3458   1.958   2.307  12.989  0.0192 -0.3367  0.1016
  228MPD1    C1 3459   1.931   2.247  12.865 -0.6156 -0.2592 -0.3048
  228MPD1    C2 3460   1.808   2.176  12.854 -0.3427  0.0753 -0.4767
  228MPD1    C3 3461   1.721   2.161  12.957 -0.0767  0.0293  0.1607
  228MPD1    C4 3462   1.747   2.233  13.077 -0.5060 -0.9073 -0.8440
  228MPD1    C5 3463   1.868   2.297  13.098 -1.2976  0.3813 -0.4588
  228MPD1     H 3464   1.783   2.128  12.760 -0.3791 -0.2615 -0.2969
  228MPD1    H1 3465   1.680   2.237  13.162 -1.0695  1.1215 -1.3775
  228MPD1    H2 3466   2.050   2.361  13.007  0.4152 -0.1126 -2.6762
  228MPD1    H3 3467   1.881   2.344  13.195  0.6928 -2.1288  0.4728
  228MPD1     N 3468   1.605   2.079  12.933  0.2796  0.0284 -0.0116
  228MPD1    H5 3469   1.593   2.022  12.850 -2.2643  1.0937 -0.3704
  228MPD1    N1 3470   2.016   2.259  12.752 -0.1527 -0.6070  0.4231
  228MPD1    H6 3471   1.985   2.195  12.678 -0.5101 -1.2259  1.1083
  228MPD1    H7 3472   2.107   2.219  12.774 -1.4838 -3.0107  1.5365
  229MPD1     C 3473   1.412   1.067  15.028  0.8567  0.7511  0.6382
  229MPD1    C1 3474   1.476   0.955  15.090 -0.2748 -0.0092 -0.8484
  229MPD1    C2 3475   1.526   0.859  15.008  0.3128 -0.1633  0.1048
  229MPD1    C3 3476   1.536   0.870  14.870  0.1192  0.4934  0.4492
  229MPD1    C4 3477   1.468   0.973  14.813 -0.8087  0.0245 -0.0408
  229MPD1    C5 3478   1.407   1.064  14.893  0.8236  0.0616  0.1131
  229MPD1     H 3479   1.578   0.777  15.056 -0.4698  0.0010  1.2421
  229MPD1    H1 3480   1.474   0.981  14.705  1.3279  0.7191  0.1348
  229MPD1    H2 3481   1.370   1.145  15.089  0.7961  1.2044  0.0113
  229MPD1    H3 3482   1.361   1.150  14.847  3.0242  0.4081 -1.4755
  229MPD1     N 3483   1.602   0.777  14.779  0.6854  0.2439 -0.2503
  229MPD1    H5 3484   1.615   0.802  14.682 -0.8211  0.5277 -0.3731
  229MPD1    N1 3485   1.483   0.930  15.226  0.1065 -0.0945  0.3783
  229MPD1    H6 3486   1.455   1.008  15.285  3.3102  0.1983  1.5176
  229MPD1    H7 3487   1.561   0.872  15.255  1.3006  1.1576 -0.3333
  230MPD1     C 3488   1.566   4.540  14.604  0.3552  0.1370 -0.0578
  230MPD1    C1 3489   1.481   4.645  14.577 -0.0567 -0.0311  0.0152
  230MPD1    C2 3490   1.531   0.048  14.598 -0.7828 -0.8957  0.5709
  230MPD1    C3 3491   1.662   0.077  14.613  0.2240  0.1328 -0.0294
  230MPD1    C4 3492   1.746   4.697  14.627  0.5174  0.3358  0.1034
  230MPD1    C5 3493   1.694   4.572  14.618  0.5662 -0.4420 -0.0551
  230MPD1     H 3494   1.466   0.134  14.585 -1.0882 -0.8603  2.4490
  230MPD1    H1 3495   1.851   4.719  14.638  0.3441  1.3290 -0.2269
  230MPD1    H2 3496   1.545   4.436  14.583  0.1657 -0.0012  0.8198
  230MPD1    H3 3497   1.775   4.500  14.630  1.8365  1.2123  1.2101
  230MPD1     N 3498   1.704   0.211  14.611  0.1303  0.6581  0.3388
  230MPD1    H5 3499   1.635   0.285  14.606  0.0128  0.6587  1.8921
  230MPD1    N1 3500   1.349   4.617  14.544 -0.2692 -0.3606  0.0756
  230MPD1    H6 3501   1.341   4.536  14.484 -0.2247  0.3412 -0.8758
  230MPD1    H7 3502   1.294   4.698  14.514 -0.2928 -0.7478 -0.8996
  231MPD1     C 3503   0.305   3.802  15.437  0.6232 -0.1552  0.2936
  231MPD1    C1 3504   0.274   3.712  15.341  0.2847  0.1223 -0.1084
  231MPD1    C2 3505   0.369   3.690  15.238  0.5617  0.0449  0.9046
  231MPD1    C3 3506   0.485   3.765  15.236  0.4464 -0.4314  0.9981
  231MPD1    C4 3507   0.513   3.846  15.336  0.9520 -1.5567  0.6638
  231MPD1    C5 3508   0.414   3.880  15.422 -0.5054  0.5315  0.2785
  231MPD1     H 3509   0.363   3.613  15.162 -2.1207 -1.4501  2.6352
  231MPD1    H1 3510   0.602   3.908  15.333 -0.1360 -0.0525 -0.8538
  231MPD1    H2 3511   0.240   3.804  15.524 -0.0707 -1.2356 -0.2034
  231MPD1    H3 3512   0.434   3.958  15.495  0.9135 -0.2906  0.7677
  231MPD1     N 3513   0.577   3.744  15.131  0.4505  0.3435  0.6017
  231MPD1    H5 3514   0.573   3.663  15.070 -0.4752  0.2265  0.8149
  231MPD1    N1 3515   0.157   3.639  15.362 -0.0498 -0.6560  0.0233
  231MPD1    H6 3516   0.095   3.691  15.423  0.1046 -0.9284  0.4144
  231MPD1    H7 3517   0.119   3.611  15.272  1.7967 -2.0998 -0.3225
  232MPD1     C 3518   2.070   0.528  17.657  0.5926  0.0711 -0.6197
  232MPD1    C1 3519   1.966   0.600  17.595 -0.3729  0.8000 -0.0054
  232MPD1    C2 3520   1.848   0.617  17.662 -0.1080 -0.0261  0.2439
  232MPD1    C3 3521   1.831   0.553   0.084  0.4265 -0.9813 -0.0014
  232MPD1    C4 3522   1.930   0.477   0.142  0.3172  0.9447 -0.1584
  232MPD1    C5 3523   2.050   0.475   0.077 -0.2532 -0.0742  0.0893
  232MPD1     H 3524   1.766   0.667  17.613 -0.9257 -0.8834  0.7361
  232MPD1    H1 3525   1.930   0.430   0.240  0.4157  0.8267 -0.2141
  232MPD1    H2 3526   2.164   0.510  17.606  1.8188  0.5107  1.4798
  232MPD1    H3 3527   2.130   0.412   0.114 -1.9171 -1.0469  2.0208
  232MPD1     N 3528   1.708   0.570   0.149 -0.3287 -0.4525  0.4626
  232MPD1    H5 3529   1.642   0.631   0.102  2.5222  3.3312  1.3411
  232MPD1    N1 3530   1.972   0.631  17.460  0.1107  0.1166 -0.0888
  232MPD1    H6 3531   1.929   0.722  17.445  2.0303  0.8543 -1.0735
  232MPD1    H7 3532   2.072   0.642  17.447  0.2737 -2.2386 -0.8155
  233MPD1     C 3533   3.409   3.915   2.557 -0.3509 -0.2130  0.2167
  233MPD1    C1 3534   3.309   3.889   2.465 -0.1258  0.8964 -0.1615
  233MPD1    C2 3535   3.342   3.867   2.326 -0.4138 -0.0350  0.2116
  233MPD1    C3 3536   3.476   3.861   2.292  0.5179  0.2062 -0.2934
  233MPD1    C4 3537   3.577   3.883   2.383  0.2998 -0.3381 -0.2750
  233MPD1    C5 3538   3.535   3.912   2.511  0.5460  0.1404  0.3879
  233MPD1     H 3539   3.259   3.837   2.264  0.7132 -0.0569 -1.2957
  233MPD1    H1 3540   3.682   3.883   2.359  0.4323 -1.5582  0.3004
  233MPD1    H2 3541   3.392   3.946   2.659 -0.0831 -2.2984  0.8847
  233MPD1    H3 3542   3.617   3.932   2.580  1.2013 -0.6655 -0.1635
  233MPD1     N 3543   3.511   3.823   2.162 -0.4686 -0.4273  0.3057
  233MPD1    H5 3544   3.610   3.807   2.147 -1.0500 -1.6304 -2.2359
  233MPD1    N1 3545   3.178   3.897   2.507 -0.0267  0.1411  0.2288
  233MPD1    H6 3546   3.113   3.839   2.454 -0.4362  1.8954 -1.1774
  233MPD1    H7 3547   3.163   3.882   2.607 -0.6358 -2.5057 -0.2456
  234MPD1     C 3548   0.217   1.703   9.651 -0.5774  0.2757  1.0321
  234MPD1    C1 3549   0.137   1.671   9.545 -0.1143 -0.5137 -0.4981
  234MPD1    C2 3550   0.048   1.773   9.498 -0.0911 -1.0064 -0.3170
  234MPD1    C3 3551   0.057   1.902   9.541  0.3071  0.2115 -0.1816
  234MPD1    C4 3552   0.146   1.928   9.640  0.2426  1.0636  0.8454
  234MPD1    C5 3553   0.223   1.829   9.693  0.3759  1.0716 -0.4370
  234MPD1     H 3554   4.709   1.755   9.413  0.8759 -1.5231 -0.9273
  234MPD1    H1 3555   0.155   2.027   9.685 -1.9328  0.7795  1.9233
  234MPD1    H2 3556   0.278   1.630   9.701 -0.6226  0.4709  1.3701
  234MPD1    H3 3557   0.293   1.854   9.772 -0.8993  1.7243  0.4990
  234MPD1     N 3558   4.695   2.001   9.485 -0.3790  0.2171  0.0074
  234MPD1    H5 3559   4.637   1.971   9.407  0.4136 -0.0306 -0.4846
  234MPD1    N1 3560   0.114   1.533   9.513 -0.3466 -0.4647  0.1825
  234MPD1    H6 3561   0.191   1.467   9.525 -1.6084 -2.0899 -0.7131
  234MPD1    H7 3562   0.090   1.525   9.415 -1.4749 -1.3960  0.5229
  235MPD1     C 3563   0.889   3.846  10.825  0.1622 -0.5202  0.3420
  235MPD1    C1 3564   0.904   3.914  10.707 -0.2804  0.0104  0.4835
  235MPD1    C2 3565   0.996   4.025  10.709 -0.2006 -0.0971  0.7424
  235MPD1    C3 3566   1.071   4.070  10.825  0.2393 -0.2070  0.5496
  235MPD1    C4 3567   1.047   3.998  10.937 -0.9217 -0.1999  0.1240
  235MPD1    C5 3568   0.965   3.885  10.932  0.2987 -0.5067  0.1516
  235MPD1     H 3569   1.007   4.076  10.613  0.8143 -2.7475 -0.5421
  235MPD1    H1 3570   1.107   4.020  11.025 -1.2131 -0.8010  0.4776
  235MPD1    H2 3571   0.834   3.752  10.836  0.7892 -0.8877  0.3180
  235MPD1    H3 3572   0.941   3.846  11.030 -0.0103 -0.4339  0.1042
  235MPD1     N 3573   1.154   4.182  10.813 -0.2493  0.1562  0.0617
  235MPD1    H5 3574   1.172   4.204  10.715  0.6004 -3.2116 -0.5249
  235MPD1    N1 3575   0.845   3.869  10.588  0.2563  1.1878 -0.0910
  235MPD1    H6 3576   0.751   3.830  10.591  0.3874  0.8883  0.0348
  235MPD1    H7 3577   0.844   3.946  10.521 -2.8997 -0.6761 -2.1687
  236MPD1     C 3578   0.455   1.183   9.807 -0.2488  0.2040 -0.6290
  236MPD1    C1 3579   0.436   1.049   9.792 -0.1698  0.5198  0.4041
  236MPD1    C2 3580   0.512   0.970   9.874  0.1616 -0.8944 -0.5597
  236MPD1    C3 3581   0.593   1.021   9.972  0.0767 -0.3456  0.3299
  236MPD1    C4 3582   0.596   1.161   9.986  0.1694  0.4657  0.7009
  236MPD1    C5 3583   0.530   1.239   9.903 -0.0199  0.6885 -0.5276
  236MPD1     H 3584   0.513   0.861   9.871 -1.3138 -0.9078 -0.8361
  236MPD1    H1 3585   0.640   1.204  10.075 -0.0644  0.3476  0.8739
  236MPD1    H2 3586   0.411   1.245   9.729 -2.7094  0.5264  1.0131
  236MPD1    H3 3587   0.549   1.345   9.907 -1.6185  1.0642 -3.3041
  236MPD1     N 3588   0.663   0.942  10.063  0.4353  0.1842 -0.0726
  236MPD1    H5 3589   0.712   0.999  10.131 -1.5637  1.6145  0.1397
  236MPD1    N1 3590   0.362   1.004   9.681 -0.4015  0.4085 -0.5102
  236MPD1    H6 3591   0.306   0.920   9.690  0.4283  0.1537  2.2367
  236MPD1    H7 3592   0.291   1.069   9.647  0.9347  2.1961  0.0791
  237MPD1     C 3593   0.444   4.205  14.965  0.2374  0.2622 -0.7237
  237MPD1    C1 3594   0.374   4.150  15.069 -0.6698  0.3559  0.3707
  237MPD1    C2 3595   0.242   4.178  15.089  0.3986 -0.3953  0.0603
  237MPD1    C3 3596   0.178   4.250  14.986  0.5960  0.0163  0.0315
  237MPD1    C4 3597   0.246   4.303  14.875  0.6388 -0.0292  0.0828
  237MPD1    C5 3598   0.382   4.278  14.870 -0.3108 -0.4017 -0.3714
  237MPD1     H 3599   0.198   4.156  15.185 -2.4871 -0.1448 -1.2063
  237MPD1    H1 3600   0.204   4.354  14.789  3.0040  1.7038 -0.0420
  237MPD1    H2 3601   0.552   4.199  14.959  0.2462  0.3198 -0.6318
  237MPD1    H3 3602   0.447   4.322  14.795  1.0446 -2.5975 -0.4734
  237MPD1     N 3603   0.039   4.287  15.004  0.1631  0.2816 -0.0414
  237MPD1    H5 3604   0.004   4.360  14.943  2.1849  0.7546 -0.6474
  237MPD1    N1 3605   0.448   4.083  15.170  0.5308 -0.4194 -0.6974
  237MPD1    H6 3606   0.534   4.042  15.134 -1.1024 -1.6810 -3.2031
  237MPD1    H7 3607   0.397   4.010  15.221  2.0202  0.6526  2.2695
  238MPD1     C 3608   2.243   3.104  14.649  0.3009 -0.0424 -1.4357
  238MPD1    C1 3609   2.182   3.056  14.756 -0.0723  0.0596  0.1644
  238MPD1    C2 3610   2.051   3.013  14.758  0.1394 -0.8440  0.2053
  238MPD1    C3 3611   1.977   3.008  14.640 -0.2719  0.2821  0.5787
  238MPD1    C4 3612   2.051   3.044  14.527  0.1405 -0.6261 -0.7028
  238MPD1    C5 3613   2.177   3.090  14.530 -0.0351 -0.8558 -0.0202
  238MPD1     H 3614   2.014   2.970  14.850  2.5480 -0.5688  1.2969
  238MPD1    H1 3615   2.005   3.036  14.430 -0.6332  1.3062 -0.4979
  238MPD1    H2 3616   2.340   3.153  14.652 -0.5031  1.4754 -0.4878
  238MPD1    H3 3617   2.230   3.121  14.440 -1.9158 -0.3221 -0.9277
  238MPD1     N 3618   1.852   2.954  14.621 -0.1693  0.6528  0.3102
  238MPD1    H5 3619   1.825   2.958  14.524 -2.4051  3.2853  1.0515
  238MPD1    N1 3620   2.251   3.086  14.874  0.6735 -0.9955  0.4826
  238MPD1    H6 3621   2.224   3.015  14.941  1.0190 -1.9988 -0.4379
  238MPD1    H7 3622   2.351   3.082  14.855  0.7513 -3.4567  1.4066
  239MPD1     C 3623   2.326   3.450  14.774  0.2583 -0.0662 -0.1084
  239MPD1    C1 3624   2.404   3.564  14.764  0.2844  1.1726  0.4399
  239MPD1    C2 3625   2.376   3.659  14.666 -0.2314  0.0246  0.6222
  239MPD1    C3 3626   2.275   3.643  14.579  0.1352  0.4339  0.7296
  239MPD1    C4 3627   2.208   3.521  14.578  0.5588  0.3296 -0.0510
  239MPD1    C5 3628   2.234   3.428  14.679 -0.4202  0.3466  0.5695
  239MPD1     H 3629   2.428   3.754  14.656  2.2839 -1.7229 -3.2319
  239MPD1    H1 3630   2.132   3.504  14.502  0.2898 -1.0171  0.5142
  239MPD1    H2 3631   2.345   3.381  14.855 -0.3759  0.2403  0.3058
  239MPD1    H3 3632   2.177   3.337  14.666 -2.0781  1.4323  0.2910
  239MPD1     N 3633   2.240   3.741  14.487 -0.2416  0.2037  0.2962
  239MPD1    H5 3634   2.150   3.729  14.440 -0.0170  1.5813 -0.4721
  239MPD1    N1 3635   2.513   3.584  14.848  0.3714 -0.6337 -0.2128
  239MPD1    H6 3636   2.510   3.540  14.939  0.1632  0.1568  0.1600
  239MPD1    H7 3637   2.547   3.679  14.853  1.4334 -0.9805 -0.7245
  240MPD1     C 3638   1.768   3.547  13.700 -0.2834 -0.5483 -1.1454
  240MPD1    C1 3639   1.809   3.494  13.818  0.5171  0.2549  0.3898
  240MPD1    C2 3640   1.715   3.425  13.896  0.3695  0.0408 -0.2044
  240MPD1    C3 3641   1.582   3.447  13.871  0.4749 -0.5707 -0.1614
  240MPD1    C4 3642   1.536   3.509  13.754  0.2175  0.8375 -0.0590
  240MPD1    C5 3643   1.632   3.557  13.669  0.4674 -0.3003  0.3375
  240MPD1     H 3644   1.752   3.383  13.988 -1.2612  0.7595  0.7750
  240MPD1    H1 3645   1.434   3.528  13.724 -0.2255 -0.7472  0.3892
  240MPD1    H2 3646   1.837   3.562  13.618 -0.4670 -0.6353 -1.3179
  240MPD1    H3 3647   1.593   3.589  13.573 -3.1337 -0.4491  1.7333
  240MPD1     N 3648   1.492   3.409  13.971 -0.3244  0.4931  0.1751
  240MPD1    H5 3649   1.538   3.373  14.054 -0.0667  0.1168 -0.1339
  240MPD1    N1 3650   1.946   3.481  13.840 -0.1315 -0.5291  0.2641
  240MPD1    H6 3651   1.962   3.502  13.939 -0.2765 -1.3550  0.4614
  240MPD1    H7 3652   2.002   3.553  13.794 -0.1302 -0.7123 -0.0224
  241MPD1     C 3653   1.530   3.157  14.903  0.6542 -0.3421  0.4302
  241MPD1    C1 3654   1.612   3.175  14.791 -0.9552 -0.1020  0.5708
  241MPD1    C2 3655   1.549   3.197  14.669  0.0836  0.0322 -0.3920
  241MPD1    C3 3656   1.409   3.193  14.660 -0.1249 -0.2716 -1.1972
  241MPD1    C4 3657   1.330   3.174  14.774 -0.8202 -0.2642 -0.8829
  241MPD1    C5 3658   1.393   3.164  14.889  0.1840 -1.0776 -0.0449
  241MPD1     H 3659   1.611   3.245  14.594 -1.5278  1.0411 -1.0909
  241MPD1    H1 3660   1.222   3.163  14.771 -0.5644 -2.9673  0.5865
  241MPD1    H2 3661   1.571   3.143  15.003  0.8861  1.6905  0.6121
  241MPD1    H3 3662   1.341   3.141  14.981  0.8829  2.0526  1.1426
  241MPD1     N 3663   1.343   3.209  14.537 -0.0880 -0.0781  0.3587
  241MPD1    H5 3664   1.242   3.212  14.540 -0.0759  1.0506 -0.3463
  241MPD1    N1 3665   1.750   3.208  14.806 -0.4199  0.8028  0.1117
  241MPD1    H6 3666   1.809   3.168  14.733 -1.9079 -0.1966 -0.5464
  241MPD1    H7 3667   1.794   3.171  14.890 -1.7508 -3.8309 -1.2504
  242MPD1     C 3668   0.867   1.746  15.948  0.3267  0.2127 -0.5271
  242MPD1    C1 3669   0.771   1.688  15.869 -0.4435  0.1932  0.3444
  242MPD1    C2 3670   0.819   1.645  15.747 -0.2523 -0.3245  0.5555
  242MPD1    C3 3671   0.944   1.679  15.693 -0.2447  0.5707  0.4098
  242MPD1    C4 3672   1.033   1.748  15.776  0.1413 -0.1036  0.5908
  242MPD1    C5 3673   0.992   1.779  15.898  0.3159  0.0943 -0.3651
  242MPD1     H 3674   0.764   1.570  15.691 -3.3928  2.6247 -0.3778
  242MPD1    H1 3675   1.140   1.761  15.759  0.1257 -1.0334 -0.2474
  242MPD1    H2 3676   0.830   1.783  16.043  0.6635  3.4862 -1.6637
  242MPD1    H3 3677   1.070   1.818  15.962 -1.0796  2.1203  0.1243
  242MPD1     N 3678   0.990   1.623  15.568  0.1726 -0.4629  0.0903
  242MPD1    H5 3679   1.086   1.647  15.544  0.1145 -1.0338 -0.7157
  242MPD1    N1 3680   0.644   1.654  15.919  0.1681 -0.3075 -0.5338
  242MPD1    H6 3681   0.608   1.719  15.988  0.1607  1.6982 -2.4516
  242MPD1    H7 3682   0.578   1.637  15.843  0.3137 -1.4152 -0.4168
  243MPD1     C 3683   3.864   0.954  17.288  0.6055  0.6850 -0.0190
  243MPD1    C1 3684   3.797   1.019  17.190 -0.1723  0.8121  0.3547
  243MPD1    C2 3685   3.713   0.939  17.103  0.3618  0.4732  0.0115
  243MPD1    C3 3686   3.710   0.804  17.112 -0.2618  0.1091 -0.5240
  243MPD1    C4 3687   3.790   0.745  17.211 -0.1492  0.0136 -0.0052
  243MPD1    C5 3688   3.859   0.822  17.295 -0.1796 -0.3545 -0.0630
  243MPD1     H 3689   3.646   0.993  17.036  1.0437  1.2572 -0.0450
  243MPD1    H1 3690   3.793   0.637  17.215  2.2996  0.1381  1.2809
  243MPD1    H2 3691   3.919   1.008  17.365 -0.8277  0.1730  1.3464
  243MPD1    H3 3692   3.916   0.774  17.374 -1.4224 -0.6234  0.6710
  243MPD1     N 3693   3.634   0.729  17.021  0.0511  0.0657  0.3369
  243MPD1    H5 3694   3.595   0.783  16.945 -0.0617 -0.9127 -0.3049
  243MPD1    N1 3695   3.790   1.158  17.190  0.4967 -0.1760  0.2645
  243MPD1    H6 3696   3.876   1.199  17.224  0.9448 -0.1901 -0.8463
  243MPD1    H7 3697   3.769   1.196  17.098  2.7123  2.3895  0.8242
  244MPD1     C 3698   3.078   0.010  17.271  0.0222  0.0767 -0.0177
  244MPD1    C1 3699   3.210   4.697  17.263 -0.4540 -0.0111  0.7095
  244MPD1    C2 3700   3.287   0.044  17.174 -0.0348  0.5977 -0.5373
  244MPD1    C3 3701   3.227   0.132  17.082 -0.2928 -0.4464 -0.3637
  244MPD1    C4 3702   3.092   0.160  17.091  0.4416 -0.6755  0.0162
  244MPD1    C5 3703   3.019   0.100  17.190 -0.8004  0.4033 -0.8786
  244MPD1     H 3704   3.394   0.034  17.162  0.1506  0.7257  1.0034
  244MPD1    H1 3705   3.036   0.234  17.035 -1.1836 -2.1630 -0.3114
  244MPD1    H2 3706   3.012   4.693  17.347 -2.3673  1.0848 -1.5256
  244MPD1    H3 3707   2.913   0.120  17.204 -0.2620  1.6843  1.5085
  244MPD1     N 3708   3.312   0.214  17.002 -0.0809 -0.1238  0.0680
  244MPD1    H5 3709   3.413   0.204  17.015  0.3497  3.2874 -0.7139
  244MPD1    N1 3710   3.267   4.630  17.375  0.4652 -0.1088  0.5311
  244MPD1    H6 3711   3.206   4.563  17.421 -1.6249  2.9751  2.3015
  244MPD1    H7 3712   3.349   4.575  17.349  1.3264  0.4624  2.0126
  245MPD1     C 3713   4.298   1.269  12.840 -0.9744  0.2198  0.3287
  245MPD1    C1 3714   4.330   1.378  12.914  0.2606 -0.7238 -0.1774
  245MPD1    C2 3715   4.447   1.388  12.979 -0.0967 -0.3899 -0.1826
  245MPD1    C3 3716   4.535   1.284  12.965  0.7907 -0.2910  0.8091
  245MPD1    C4 3717   4.511   1.170  12.886  0.3709  0.0910  0.6856
  245MPD1    C5 3718   4.387   1.165  12.819  0.3122 -0.4102  1.2876
  245MPD1     H 3719   4.473   1.477  13.037  0.3789 -1.8405  1.8239
  245MPD1    H1 3720   4.581   1.088  12.881 -0.9739 -1.0923  1.3461
  245MPD1    H2 3721   4.202   1.269  12.792  0.2122 -0.0455 -2.0295
  245MPD1    H3 3722   4.373   1.075  12.761  0.3999  1.6108 -1.8608
  245MPD1     N 3723   4.662   1.305  13.028  0.4516  0.4756  0.3584
  245MPD1    H5 3724   4.690   1.390  13.076  3.4655 -0.2303 -0.1243
  245MPD1    N1 3725   4.231   1.471  12.942  0.8729  0.4309  0.2110
  245MPD1    H6 3726   4.143   1.465  12.891  0.4626  3.0833  0.5963
  245MPD1    H7 3727   4.267   1.566  12.938  1.3874  0.1855 -1.2097
  246MPD1     C 3728   1.172   2.398   9.991  0.0178  1.4399 -0.0864
  246MPD1    C1 3729   1.238   2.303   9.913 -0.5167  0.1541  0.3188
  246MPD1    C2 3730   1.202   2.283   9.788  0.0049 -0.1896 -0.8429
  246MPD1    C3 3731   1.109   2.374   9.723 -0.2049  0.4582  0.1143
  246MPD1    C4 3732   1.043   2.470   9.796 -0.2838  0.4612  0.5736
  246MPD1    C5 3733   1.087   2.488   9.929 -0.5211 -0.8708 -0.3593
  246MPD1     H 3734   1.259   2.210   9.731  3.6291  2.0781 -0.1718
  246MPD1    H1 3735   0.944   2.501   9.766 -0.5053 -0.0405  0.7864
  246MPD1    H2 3736   1.199   2.400  10.096 -0.4704 -3.6568  0.1291
  246MPD1    H3 3737   1.018   2.546   9.988  1.2059  1.0968 -0.2607
  246MPD1     N 3738   1.069   2.348   9.592 -0.3520  0.0081  0.8559
  246MPD1    H5 3739   1.112   2.267   9.548  2.2121  2.0669 -0.4263
  246MPD1    N1 3740   1.322   2.219   9.982  0.3792  0.1392  0.4562
  246MPD1    H6 3741   1.396   2.176   9.927  1.7580  0.2978  2.1619
  246MPD1    H7 3742   1.368   2.275  10.054 -0.7752 -1.4464  2.4045
  247MPD1     C 3743   4.247   1.155  17.137  0.6831 -0.0195 -0.2595
  247MPD1    C1 3744   4.290   1.195  17.009  0.0677  0.2480 -1.4165
  247MPD1    C2 3745   4.269   1.114  16.902  0.2700 -0.4547 -0.0096
  247MPD1    C3 3746   4.201   0.993  16.919  0.0993 -0.7428  0.2422
  247MPD1    C4 3747   4.152   0.965  17.045 -0.0437  0.0126  0.0802
  247MPD1    C5 3748   4.182   1.041  17.151 -0.0797  0.4466  0.2590
  247MPD1     H 3749   4.305   1.140  16.804 -0.3165 -0.2924 -0.1831
  247MPD1    H1 3750   4.098   0.872  17.058  1.8246 -0.9271  1.1174
  247MPD1    H2 3751   4.254   1.222  17.221  0.5490 -1.4024  0.8603
  247MPD1    H3 3752   4.150   1.007  17.249 -1.8477  1.0631 -0.1105
  247MPD1     N 3753   4.185   0.893  16.822 -0.2300 -0.0169 -0.6783
  247MPD1    H5 3754   4.141   0.810  16.860  0.9303 -0.2396  0.1912
  247MPD1    N1 3755   4.373   1.313  16.998  0.3341  0.2184 -0.1890
  247MPD1    H6 3756   4.464   1.301  17.042 -0.2247 -1.9467  0.3843
  247MPD1    H7 3757   4.385   1.335  16.900 -0.9340 -2.0929 -0.8528
  248MPD1     C 3758   0.595   0.987  17.624 -0.8813  0.9512 -0.0107
  248MPD1    C1 3759   0.476   0.969  17.554  0.5735 -0.2392  0.4102
  248MPD1    C2 3760   0.395   0.872  17.603 -0.3753 -0.4128  0.3259
  248MPD1    C3 3761   0.406   0.800   0.022 -0.6455  0.2619  0.6465
  248MPD1    C4 3762   0.517   0.831   0.088  0.9551 -0.3194 -0.4677
  248MPD1    C5 3763   0.615   0.913   0.041 -0.5196 -0.3749 -0.1832
  248MPD1     H 3764   0.308   0.849  17.543 -0.6496  1.0919  0.1474
  248MPD1    H1 3765   0.539   0.792   0.187 -2.0010 -0.7869  0.0032
  248MPD1    H2 3766   0.677   1.051  17.594 -0.6361  1.0756  0.9161
  248MPD1    H3 3767   0.700   0.919   0.108 -1.4039 -0.5129  0.9419
  248MPD1     N 3768   0.315   0.703   0.060 -0.1665 -0.4711  0.0625
  248MPD1    H5 3769   0.239   0.685  17.695 -1.5449  1.5162  1.1258
  248MPD1    N1 3770   0.471   1.018  17.424  0.0521  0.0287 -0.4402
  248MPD1    H6 3771   0.379   1.024  17.381 -0.9370 -0.8613  1.5731
  248MPD1    H7 3772   0.494   1.118  17.423 -0.1067  0.0728  0.1118
  249MPD1     C 3773   0.895   2.784   9.738 -0.0692  0.2027  0.2150
  249MPD1    C1 3774   1.017   2.834   9.690 -0.0367 -0.8362  0.2246
  249MPD1    C2 3775   1.073   2.932   9.769 -0.1397 -0.3141 -0.5703
  249MPD1    C3 3776   1.027   2.954   9.896 -0.1713 -0.3753  0.3465
  249MPD1    C4 3777   0.917   2.887   9.946 -0.5344 -0.2857  0.1771
  249MPD1    C5 3778   0.843   2.812   9.863 -0.0693  0.1685 -0.9445
  249MPD1     H 3779   1.163   2.979   9.730  0.0127 -3.7100 -4.2367
  249MPD1    H1 3780   0.883   2.907  10.047  1.4034  1.2728  0.5363
  249MPD1    H2 3781   0.835   2.718   9.677 -0.1675  0.3168  0.1865
  249MPD1    H3 3782   0.745   2.776   9.892 -0.1853 -0.0994 -1.6781
  249MPD1     N 3783   1.108   3.045   9.975  0.7033  0.6489  0.4058
  249MPD1    H5 3784   1.197   3.079   9.940  0.8577 -0.2487 -0.0595
  249MPD1    N1 3785   1.061   2.807   9.558  0.1055 -0.3029  0.0770
  249MPD1    H6 3786   1.023   2.717   9.531 -2.2599  0.7835 -0.1818
  249MPD1    H7 3787   1.163   2.813   9.563  0.0337 -0.3502  1.6470
  250MPD2     C 3788   3.398   4.053  12.664 -0.0697 -0.0277 -0.0710
  250MPD2    C1 3789   3.325   4.119  12.760 -0.3069  0.9980 -0.2051
  250MPD2    C2 3790   3.206   4.062  12.795  0.3707 -0.0603  0.5254
  250MPD2    C3 3791   3.153   3.951  12.728 -0.3052 -0.3597 -0.0957
  250MPD2    C4 3792   3.230   3.887  12.631  0.1013 -0.7011 -0.5427
  250MPD2    C5 3793   3.356   3.934  12.604 -0.1927  0.1208  0.6088
  250MPD2     H 3794   3.143   4.111  12.869  0.1894 -0.9047  0.9246
  250MPD2    H1 3795   3.190   3.802  12.578  0.2983 -0.7310 -0.6440
  250MPD2    H2 3796   3.494   4.089  12.628  0.3446 -0.0154  1.0603
  250MPD2    H3 3797   3.410   3.892  12.520  0.4665  0.3057  0.9446
  250MPD2     N 3798   3.017   3.905  12.744 -0.5082 -0.1755  0.4121
  250MPD2    H5 3799   2.986   3.847  12.667  3.2541 -0.7966 -0.6645
  250MPD2    N1 3800   3.375   4.238  12.810  0.1916  0.4604  0.2106
  250MPD2    H7 3801   3.464   4.271  12.775  0.5554  3.1111  3.5955
  251TMC3    C1 3802   3.378   4.433  12.935  0.8019  0.5714 -0.8998
  251TMC3    C2 3803   3.295   4.545  12.960  0.1224  0.3658 -0.3045
  251TMC3    C3 3804   3.352   4.670  12.937  0.0212  0.1606 -0.2447
  251TMC3    C4 3805   3.503   4.453  12.888  0.4228 -0.1939 -0.2815
  251TMC3    C5 3806   3.555   4.581  12.859  0.8938  0.4529 -0.4818
  251TMC3    C6 3807   3.483   4.690  12.893  0.1738 -0.4362  0.0909
  251TMC3     C 3808   3.314   4.312  12.906  0.1839 -0.4521 -0.3529
  251TMC3     O 3809   3.205   4.299  12.963 -0.2218 -0.5376 -0.4076
  251TMC3     H 3810   3.201   4.543  13.015 -0.0356  0.2477 -0.5780
  251TMC3    H1 3811   3.567   4.365  12.883  2.0912  0.9805  0.2611
  251TMC3    H2 3812   3.527   0.064  12.896  1.3740 -0.9696  0.0852
  251TMC3    C7 3813   3.703   4.585  12.843 -0.3639 -0.0721 -0.1648
  251TMC3    C8 3814   3.264   0.061  12.961 -0.1629 -0.1278  0.2014
  251TMC3    O1 3815   3.759   4.476  12.821  0.6836  0.0203 -0.1328
  251TMC3    O2 3816   3.181   0.052  13.050  0.2609  0.4323  0.1334
  252TMC3    C1 3817   3.363   4.368   9.601  0.1239 -0.2895 -0.0015
  252TMC3    C2 3818   3.451   4.424   9.513  0.2197  0.4007  0.3517
  252TMC3    C3 3819   3.481   4.349   9.395  0.3627 -0.3277 -0.1777
  252TMC3    C4 3820   3.316   4.242   9.570 -0.0463  0.3879 -0.3805
  252TMC3    C5 3821   3.348   4.178   9.454  0.3237 -0.0427  0.6479
  252TMC3    C6 3822   3.425   4.232   9.359 -0.2539  0.1557 -0.8329
  252TMC3     C 3823   3.336   4.423   9.729 -0.1061  0.5189 -0.2311
  252TMC3     O 3824   3.267   4.357   9.804 -0.7625  0.6717  0.2943
  252TMC3     H 3825   3.502   4.517   9.536  2.3455 -0.9517  1.1171
  252TMC3    H1 3826   3.253   4.196   9.645 -1.2112  0.9732 -0.9981
  252TMC3    H2 3827   3.443   4.191   9.261  1.6849  2.4620 -1.4605
  252TMC3    C7 3828   3.289   4.052   9.417 -0.5255 -0.2267  0.0038
  252TMC3    C8 3829   3.574   4.413   9.310  0.2166  0.0580 -0.0475
  252TMC3    O1 3830   3.345   3.987   9.328  0.4515  0.1265  0.0794
  252TMC3    O2 3831   3.558   4.411   9.187 -0.1858  0.2026 -0.2753
  253MPD2     C 3832   4.038   3.654  15.192  0.2402  0.1321  0.3292
  253MPD2    C1 3833   4.002   3.784  15.170  0.5914  0.8117  0.0617
  253MPD2    C2 3834   3.960   3.853  15.278 -0.7584  0.4343 -0.4337
  253MPD2    C3 3835   3.944   3.802  15.404 -0.4860 -0.8134 -1.0479
  253MPD2    C4 3836   3.973   3.663  15.417  0.1858 -0.5722  0.1000
  253MPD2    C5 3837   4.024   3.592  15.315  0.4026 -0.4118 -0.5038
  253MPD2     H 3838   3.941   3.959  15.263 -1.7500  0.0832 -1.5931
  253MPD2    H1 3839   3.954   3.597  15.501 -1.4559 -0.3717 -0.0999
  253MPD2    H2 3840   4.096   3.597  15.120  0.5416 -1.4747  1.8370
  253MPD2    H3 3841   4.041   3.485  15.310 -3.8521 -1.1439  0.6207
  253MPD2     N 3842   3.887   3.880  15.508  0.6110 -0.5091  0.1275
  253MPD2    H5 3843   3.867   3.832  15.595 -1.3239  1.7020  0.9264
  253MPD2    N1 3844   4.004   3.850  15.043 -0.2623  0.2510 -0.4634
  253MPD2    H7 3845   3.953   3.938  15.037 -1.5071 -0.4074  0.4743
  254TMC3    C1 3846   3.787   4.062  15.618  0.0902  0.2332 -1.0093
  254TMC3    C2 3847   3.705   4.176  15.609 -0.7077 -0.1244 -0.8431
  254TMC3    C3 3848   3.617   4.199  15.702 -0.2494  0.5758  0.3548
  254TMC3    C4 3849   3.796   3.992  15.739  0.9112  0.7695 -0.2824
  254TMC3    C5 3850   3.732   4.043  15.845 -0.0133  0.3929  0.1256
  254TMC3    C6 3851   3.637   4.136  15.826 -0.7712  0.1638 -0.3469
  254TMC3     C 3852   3.853   4.019  15.501  0.2140  0.1739  0.0569
  254TMC3     O 3853   3.846   4.096  15.404  0.3317  0.0069 -0.5668
  254TMC3     H 3854   3.706   4.241  15.522  0.0725  0.6382 -0.2652
  254TMC3    H1 3855   3.875   3.918  15.749  0.9537  0.7583 -0.7092
  254TMC3    H2 3856   3.587   4.189  15.907  0.0424 -1.0929  0.9665
  254TMC3    C7 3857   3.821   4.079  15.959  0.2263 -0.0279  0.1478
  254TMC3    C8 3858   3.605   4.336  15.731 -0.2477  0.1701  0.1066
  254TMC3    O1 3859   3.860   3.975  16.017  0.3744 -0.2424  0.1717
  254TMC3    O2 3860   3.700   4.374  15.795  0.8321 -0.0177  0.3887
  255MPD2     C 3861   2.474   1.602  10.349 -0.0960  0.2251  0.2659
  255MPD2    C1 3862   2.591   1.662  10.394 -0.5138 -0.5154  0.1341
  255MPD2    C2 3863   2.707   1.595  10.378 -0.0992  0.0033  0.2570
  255MPD2    C3 3864   2.713   1.466  10.334  0.2828  0.0389  0.5813
  255MPD2    C4 3865   2.594   1.402  10.296  0.0662  0.1106  0.3293
  255MPD2    C5 3866   2.473   1.474  10.299  0.1138  0.3730  0.7252
  255MPD2     H 3867   2.804   1.634  10.405 -0.7416  0.2158  2.2549
  255MPD2    H1 3868   2.591   1.308  10.244  0.8477  0.1831  0.1556
  255MPD2    H2 3869   2.381   1.656  10.362 -0.4656 -0.6191  1.0574
  255MPD2    H3 3870   2.384   1.421  10.267  0.8952  0.0800 -0.9211
  255MPD2     N 3871   2.839   1.402  10.318 -0.0991 -0.3020  0.1756
  255MPD2    H5 3872   2.925   1.435  10.360  0.5735  0.3916 -1.7175
  255MPD2    N1 3873   2.576   1.788  10.443 -0.8607  0.4811  0.0068
  255MPD2    H7 3874   2.482   1.825  10.444  0.0326  2.8171 -1.8162
  256TMC3    C1 3875   2.641   2.006  10.507 -1.1402  0.1343  0.2140
  256TMC3    C2 3876   2.727   2.092  10.450 -0.2599  0.4636 -0.3725
  256TMC3    C3 3877   2.684   2.175  10.355  0.5089  0.0735 -0.1370
  256TMC3    C4 3878   2.505   2.028  10.486  0.0593 -0.3840 -0.5763
  256TMC3    C5 3879   2.463   2.116  10.388 -0.5809  0.7082  0.0704
  256TMC3    C6 3880   2.553   2.199  10.323 -0.5062 -0.1423 -0.1566
  256TMC3     C 3881   2.676   1.866  10.492  0.1783 -0.1761 -0.4860
  256TMC3     O 3882   2.794   1.839  10.487 -0.3562 -0.2066 -0.1341
  256TMC3     H 3883   2.827   2.055  10.434 -0.5271 -0.8845  1.0786
  256TMC3    H1 3884   2.432   1.961  10.531  0.3779  0.9723  1.9811
  256TMC3    H2 3885   2.536   2.268  10.240  2.6008  0.2035 -0.4915
  256TMC3    C7 3886   2.326   2.108  10.355  0.5481 -0.1550 -0.3702
  256TMC3    C8 3887   2.778   2.210  10.258 -0.0765 -0.5402  0.4098
  256TMC3    O1 3888   2.264   2.014  10.398  0.4861  0.0438  0.5182
  256TMC3    O2 3889   2.864   2.291  10.290  0.3924  0.3293  0.4747
  257MPD2     C 3890   1.997   4.595  13.214  0.9232  0.1431  0.0069
  257MPD2    C1 3891   1.978   4.488  13.131 -0.2517 -0.3417 -0.5617
  257MPD2    C2 3892   1.993   4.359  13.185 -0.4365  0.2443 -0.2509
  257MPD2    C3 3893   2.017   4.340  13.322  0.1311  0.5137  0.1928
  257MPD2    C4 3894   2.033   4.450  13.409  0.4415 -0.1239  0.0327
  257MPD2    C5 3895   2.030   4.576  13.349  0.0902 -0.6484 -0.0927
  257MPD2     H 3896   1.981   4.277  13.115 -0.2285 -1.7954  2.0935
  257MPD2    H1 3897   2.057   4.450  13.515 -0.2933 -0.2560  0.2007
  257MPD2    H2 3898   1.984   4.695  13.176 -0.0058 -0.1087 -0.3290
  257MPD2    H3 3899   2.039   4.662  13.414 -0.3099  0.4743 -1.5144
  257MPD2     N 3900   2.030   4.205  13.362  0.0755  0.6226  0.3269
  257MPD2    H5 3901   2.032   4.133  13.290  0.4228  1.3617 -0.3985
  257MPD2    N1 3902   1.953   4.516  12.993  0.0150  0.0298 -0.4920
  257MPD2    H7 3903   1.974   4.611  12.964  1.3789 -0.5531 -1.3710
  258TMC3    C1 3904   2.064   4.023  13.505  0.3547  0.3418  0.4013
  258TMC3    C2 3905   2.115   3.952  13.403 -0.3023 -0.1191 -0.2752
  258TMC3    C3 3906   2.173   3.831  13.432 -0.3246 -0.4119  0.1792
  258TMC3    C4 3907   2.064   3.968  13.633  0.0617 -0.7488  0.0899
  258TMC3    C5 3908   2.128   3.846  13.655  0.5691  0.5194 -0.0015
  258TMC3    C6 3909   2.183   3.777  13.556  0.1541 -0.3608  0.2007
  258TMC3     C 3910   2.052   4.169  13.491 -0.0507  0.6423  0.0768
  258TMC3     O 3911   2.045   4.232  13.597 -0.3525  0.5385  0.2830
  258TMC3     H 3912   2.130   3.987  13.302 -0.4247 -0.3825 -0.3856
  258TMC3    H1 3913   2.013   4.016  13.716 -1.5270 -1.7111 -0.3296
  258TMC3    H2 3914   2.219   3.675  13.567 -0.3574 -0.4440  1.1158
  258TMC3    C7 3915   2.118   3.794  13.792 -0.1600 -0.6160 -0.4334
  258TMC3    C8 3916   2.221   3.747  13.326  0.9376  0.1804 -0.4158
  258TMC3    O1 3917   2.017   3.824  13.854  0.0258  0.7153 -0.0128
  258TMC3    O2 3918   2.319   3.678  13.350 -0.6056  0.0949  0.5851
  259MPD2     C 3919   1.104   1.750   1.011  0.0733  0.6634  0.0521
  259MPD2    C1 3920   1.036   1.635   0.985 -0.1530 -0.5458 -0.1989
  259MPD2    C2 3921   0.982   1.616   0.854 -0.6114 -0.3730  0.2063
  259MPD2    C3 3922   1.019   1.691   0.750 -0.4203 -0.7984 -0.5890
  259MPD2    C4 3923   1.089   1.803   0.777 -0.1622 -0.3719  0.2471
  259MPD2    C5 3924   1.122   1.835   0.907 -0.0410 -0.0272 -0.6223
  259MPD2     H 3925   0.927   1.523   0.842 -0.7978 -0.5512  2.4667
  259MPD2    H1 3926   1.114   1.873   0.699  2.9546  0.6653  2.1921
  259MPD2    H2 3927   1.122   1.781   1.113 -0.7626 -0.7633  0.6434
  259MPD2    H3 3928   1.173   1.931   0.917  0.3646 -0.1971 -1.0640
  259MPD2     N 3929   0.983   1.634   0.625  0.1126  0.3388  0.8965
  259MPD2    H5 3930   0.948   1.540   0.611  3.0790 -0.7400  0.7190
  259MPD2    N1 3931   1.002   1.551   1.096  0.0062  0.1677 -0.2652
  259MPD2    H7 3932   1.054   1.563   1.181  0.6717  0.8102 -0.7662
  260TMC3    C1 3933   1.004   1.610   0.384  0.3154  0.4401 -0.6391
  260TMC3    C2 3934   1.093   1.627   0.290 -0.4122 -0.5033 -0.1911
  260TMC3    C3 3935   1.074   1.561   0.170 -0.1587  0.3595 -0.6261
  260TMC3    C4 3936   0.896   1.523   0.373 -0.3169  0.0496  0.0690
  260TMC3    C5 3937   0.894   1.450   0.257 -0.2356 -0.1743 -0.3174
  260TMC3    C6 3938   0.982   1.461   0.159 -0.1510 -0.3919 -0.4809
  260TMC3     C 3939   1.029   1.691   0.505  0.0893  0.1743  0.1087
  260TMC3     O 3940   1.116   1.776   0.496 -0.2953 -0.3862 -0.0466
  260TMC3     H 3941   1.183   1.684   0.311 -0.3008 -0.8014  0.1370
  260TMC3    H1 3942   0.831   1.509   0.459  0.5568 -0.0937  0.7096
  260TMC3    H2 3943   0.967   1.416   0.061 -2.2594  1.1412 -0.8532
  260TMC3    C7 3944   0.822   1.324   0.268  0.7102 -0.3127  0.3687
  260TMC3    C8 3945   1.199   1.527   0.118 -0.0127  0.5512 -0.4005
  260TMC3    O1 3946   0.859   1.232   0.190  0.0648 -0.3494  0.3965
  260TMC3    O2 3947   1.274   1.623   0.110  0.3120 -0.2557  0.0047
  261MPD2     C 3948   2.664   3.766  12.218 -0.4237 -0.2856 -0.4683
  261MPD2    C1 3949   2.685   3.885  12.281 -0.6026  0.2064 -0.5339
  261MPD2    C2 3950   2.711   4.006  12.215  0.6424  0.0573  0.0052
  261MPD2    C3 3951   2.727   4.003  12.082  0.7831  0.1688 -0.3730
  261MPD2    C4 3952   2.693   3.891  12.013 -0.2234 -0.1725 -0.3774
  261MPD2    C5 3953   2.671   3.772  12.076  0.0713  0.4151  0.4255
  261MPD2     H 3954   2.744   4.091  12.273 -2.4311  1.2399  0.0172
  261MPD2    H1 3955   2.697   3.888  11.904  0.1964  0.7203 -0.3803
  261MPD2    H2 3956   2.657   3.670  12.269  0.6648 -0.7775 -1.2224
  261MPD2    H3 3957   2.674   3.680  12.018  0.5265  2.2084 -2.3822
  261MPD2     N 3958   2.766   4.125  12.012 -0.5809  0.0863 -0.3964
  261MPD2    H5 3959   2.786   4.204  12.072  1.0283 -0.0982 -0.7105
  261MPD2    N1 3960   2.659   3.907  12.422 -0.1104  0.6341  0.0719
  261MPD2    H7 3961   2.666   4.001  12.461  1.8262  0.0486  1.1522
  262TMC3    C1 3962   2.831   4.273  11.835  0.1619 -0.1393 -0.6501
  262TMC3    C2 3963   2.748   4.384  11.854  0.4420 -0.7360  0.4038
  262TMC3    C3 3964   2.763   4.487  11.760 -0.4377 -0.5714  0.2406
  262TMC3    C4 3965   2.915   4.263  11.730 -0.0573 -0.0811  0.3628
  262TMC3    C5 3966   2.934   4.370  11.651  0.1813 -0.8039  0.7652
  262TMC3    C6 3967   2.857   4.480  11.662 -1.1102 -0.3643 -1.0458
  262TMC3     C 3968   2.780   4.141  11.876 -0.2936  0.1744 -0.2885
  262TMC3     O 3969   2.798   4.060  11.789  0.2679 -0.1724  0.6869
  262TMC3     H 3970   2.685   4.389  11.943 -0.4975 -2.3112 -0.1807
  262TMC3    H1 3971   2.975   4.173  11.720  2.1831  1.5463 -1.0040
  262TMC3    H2 3972   2.880   4.576  11.617  0.5601  0.1038  0.8018
  262TMC3    C7 3973   3.070   4.374  11.589  0.0785 -0.2087 -0.0117
  262TMC3    C8 3974   2.672   4.608  11.767 -0.4799  0.2096 -0.2103
  262TMC3    O1 3975   3.149   4.301  11.653  0.2328 -0.7102 -0.0033
  262TMC3    O2 3976   2.685   4.693  11.679 -0.5171  0.3696  0.2401
  263MPD2     C 3977   3.257   3.249  11.764 -0.3334  0.1110 -0.7366
  263MPD2    C1 3978   3.360   3.197  11.696  0.0558  0.3250  0.1825
  263MPD2    C2 3979   3.354   3.218  11.560  0.3898  0.0783 -0.1533
  263MPD2    C3 3980   3.244   3.283  11.500  0.7815 -0.1973 -0.6904
  263MPD2    C4 3981   3.136   3.324  11.575  0.8638  0.2790  0.3373
  263MPD2    C5 3982   3.146   3.302  11.711  0.2642 -0.2695  0.1832
  263MPD2     H 3983   3.425   3.180  11.487 -0.6172 -1.6982 -0.2322
  263MPD2    H1 3984   3.043   3.364  11.537 -0.1809 -3.0931 -0.5980
  263MPD2    H2 3985   3.254   3.261  11.872  1.5246 -0.4145 -0.6423
  263MPD2    H3 3986   3.061   3.328  11.774 -2.7448 -2.1452 -3.1255
  263MPD2     N 3987   3.264   3.312  11.364  0.0538  0.0872 -0.5507
  263MPD2    H5 3988   3.345   3.267  11.322  1.9963  1.6763  1.4962
  263MPD2    N1 3989   3.472   3.129  11.762 -0.1255  0.1730 -0.2946
  263MPD2    H7 3990   3.473   3.126  11.864  2.2569 -0.3467 -0.3299
  264TMC3    C1 3991   3.224   3.411  11.146 -0.2288 -0.2951 -0.3868
  264TMC3    C2 3992   3.241   3.541  11.110 -0.5156 -0.4352 -0.5455
  264TMC3    C3 3993   3.343   3.563  11.016  0.4573 -0.1781 -0.1768
  264TMC3    C4 3994   3.290   3.308  11.086  0.1891  0.7774  0.6581
  264TMC3    C5 3995   3.376   3.331  10.980  0.1778 -0.1757  0.6303
  264TMC3    C6 3996   3.410   3.460  10.952  0.3803 -0.3607 -0.5875
  264TMC3     C 3997   3.177   3.399  11.289 -0.2181 -0.8076 -0.7453
  264TMC3     O 3998   3.072   3.453  11.326 -0.3237  0.4355 -0.7219
  264TMC3     H 3999   3.203   3.613  11.182  2.8877  0.6530  0.1547
  264TMC3    H1 4000   3.277   3.212  11.135  0.9172 -0.2326 -1.1325
  264TMC3    H2 4001   3.485   3.482  10.876  0.9380  0.3435  0.1765
  264TMC3    C7 4002   3.417   3.232  10.880 -0.1214 -0.3434 -0.0859
  264TMC3    C8 4003   3.407   3.689  10.996  0.0644 -0.0236 -0.0273
  264TMC3    O1 4004   3.483   3.277  10.787  0.1832 -0.0618  0.1488
  264TMC3    O2 4005   3.524   3.691  10.959 -0.4932  0.8909 -0.3719
  265MPD2     C 4006   0.857   3.856  15.415 -0.4232 -0.0438 -0.3104
  265MPD2    C1 4007   0.940   3.955  15.371 -1.3188  0.8239  0.5393
  265MPD2    C2 4008   1.022   3.918  15.265  0.6938  0.2537  0.3904
  265MPD2    C3 4009   1.035   3.786  15.227 -0.7013 -1.1722  0.2091
  265MPD2    C4 4010   0.957   3.689  15.285  0.1180  0.7891  0.7554
  265MPD2    C5 4011   0.855   3.725  15.370  0.1132 -0.5894 -1.2014
  265MPD2     H 4012   1.085   3.995  15.222 -1.4192  1.3175 -0.7778
  265MPD2    H1 4013   0.969   3.588  15.248  0.8082  0.4434  1.9111
  265MPD2    H2 4014   0.781   3.875  15.489  0.0090  0.4055  0.0187
  265MPD2    H3 4015   0.782   3.655  15.407  0.4513  0.2449  1.0455
  265MPD2     N 4016   1.132   3.744  15.129 -0.2830 -0.1568  0.3891
  265MPD2    H5 4017   1.152   3.649  15.102  1.0004  0.6424 -1.4754
  265MPD2    N1 4018   0.944   4.092  15.413  0.5426 -0.8905  0.1481
  265MPD2    H7 4019   1.006   4.156  15.366 -0.1910 -0.2159  0.0945
  266TMC3    C1 4020   0.903   4.263  15.577  0.0451  0.1883 -0.4439
  266TMC3    C2 4021   0.909   4.275  15.716 -0.3695 -0.3387 -0.3485
  266TMC3    C3 4022   0.895   4.395  15.771 -0.2923  1.0169 -0.2286
  266TMC3    C4 4023   0.866   4.363  15.494 -0.0768 -0.0528  0.1124
  266TMC3    C5 4024   0.836   4.479  15.554 -0.0183  0.5836  0.7378
  266TMC3    C6 4025   0.860   4.500  15.688 -0.6269 -0.3448  0.1520
  266TMC3     C 4026   0.877   4.125  15.531 -0.1648  0.3311  0.5849
  266TMC3     O 4027   0.810   4.058  15.607  0.0113  0.1931 -0.4198
  266TMC3     H 4028   0.936   4.186  15.772 -0.6437  0.7562  1.5539
  266TMC3    H1 4029   0.860   4.350  15.386 -0.5738 -3.0882  0.5164
  266TMC3    H2 4030   0.844   4.602  15.720 -0.6409  0.0857 -1.2049
  266TMC3    C7 4031   0.755   4.573  15.478 -0.1834  0.1975 -0.1438
  266TMC3    C8 4032   0.941   4.407  15.910 -0.6083  0.3152 -0.5217
  266TMC3    O1 4033   0.751   4.683  15.531  0.1462 -0.3082 -0.1372
  266TMC3    O2 4034   0.967   4.301  15.972  0.3098  0.1864 -0.2612
  267MPD2     C 4035   3.250   1.782  17.049  0.2109  0.2587 -0.2945
  267MPD2    C1 4036   3.283   1.688  17.138  0.2564 -0.2588  0.6250
  267MPD2    C2 4037   3.276   1.555  17.095  0.3277 -0.2705  0.5832
  267MPD2    C3 4038   3.243   1.514  16.965 -0.9429  0.0963  0.7404
  267MPD2    C4 4039   3.209   1.617  16.876  0.6020  0.0722 -0.8070
  267MPD2    C5 4040   3.220   1.750  16.918 -0.2167  0.0128 -0.0021
  267MPD2     H 4041   3.308   1.472  17.158 -0.9681 -0.1619  1.3894
  267MPD2    H1 4042   3.180   1.603  16.773  1.1677 -0.6192 -0.8713
  267MPD2    H2 4043   3.256   1.888  17.069  0.8566 -0.1492  1.6905
  267MPD2    H3 4044   3.198   1.826  16.845  0.9360 -1.2188 -1.6357
  267MPD2     N 4045   3.247   1.380  16.914  0.4181  0.2316  0.6335
  267MPD2    H5 4046   3.232   1.371  16.814 -0.8262 -0.1608  0.8464
  267MPD2    N1 4047   3.317   1.726  17.269 -0.5131 -0.6994 -0.4001
  267MPD2    H7 4048   3.323   1.825  17.290  1.1085 -1.0901  0.9703
  268TMC3    C1 4049   3.416   1.698  17.489  0.4562 -0.0030  0.4405
  268TMC3    C2 4050   3.526   1.761  17.434 -0.6240  0.5860 -0.3433
  268TMC3    C3 4051   3.648   1.723  17.483 -0.6796 -0.1395  0.0002
  268TMC3    C4 4052   3.433   1.608  17.592  0.8277 -0.1355  0.6309
  268TMC3    C5 4053   3.555   1.571  17.633  0.1776 -0.8856  0.3023
  268TMC3    C6 4054   3.666   1.627  17.578 -0.4724 -0.3022 -0.5082
  268TMC3     C 4055   3.339   1.640  17.376  0.6774 -0.0000 -0.8504
  268TMC3     O 4056   3.306   1.520  17.380 -0.2870 -0.1831 -0.6288
  268TMC3     H 4057   3.523   1.845  17.365  0.4652  0.7359 -0.2088
  268TMC3    H1 4058   3.343   1.566  17.636 -1.0079  1.7759 -1.3106
  268TMC3    H2 4059   3.767   1.592  17.596 -0.0173  0.7524 -1.0198
  268TMC3    C7 4060   3.581   1.439  17.691  0.2541  0.4442 -0.4972
  268TMC3    C8 4061   3.737   1.692  17.372 -0.1525  0.1483 -0.1743
  268TMC3    O1 4062   3.698   1.405  17.693  0.4873  0.0579  0.0669
  268TMC3    O2 4063   3.859   1.671  17.388 -0.1368 -0.1588  0.1417
  269MPD2     C 4064   3.220   4.486  16.064  0.2081 -0.7154  0.2269
  269MPD2    C1 4065   3.156   4.482  15.944  0.1169  0.4350 -0.5821
  269MPD2    C2 4066   3.107   4.601  15.881  0.0653 -0.0973 -0.1158
  269MPD2    C3 4067   3.135   4.724  15.934 -0.2058  0.4146  0.4650
  269MPD2    C4 4068   3.223   0.005  16.038  0.5065  0.2092 -0.2244
  269MPD2    C5 4069   3.259   4.614  16.099 -0.6245 -0.2224  0.7180
  269MPD2     H 4070   3.062   4.593  15.783  0.4890  1.9024 -0.4714
  269MPD2    H1 4071   3.248   0.102  16.078 -2.6887  1.4854 -1.3416
  269MPD2    H2 4072   3.257   4.394  16.109  0.1074  0.0316  1.8385
  269MPD2    H3 4073   3.310   4.639  16.192  0.6787 -0.3376  0.0279
  269MPD2     N 4074   3.102   0.111  15.857  0.5840 -1.2400 -0.6782
  269MPD2    H5 4075   3.029   0.101  15.787 -0.6712  2.2595  0.1359
  269MPD2    N1 4076   3.143   4.352  15.891 -0.0229  0.6069 -0.1042
  269MPD2    H7 4077   3.173   4.277  15.953  2.2250  0.8141 -0.9519
  270TMC3    C1 4078   3.079   4.161  15.768 -0.1157  0.8915  0.0136
  270TMC3    C2 4079   2.998   4.099  15.680  0.1067 -0.2457  0.7056
  270TMC3    C3 4080   3.015   3.964  15.657  0.2591  0.9972 -0.5314
  270TMC3    C4 4081   3.178   4.092  15.836 -0.4051 -0.2411  0.6192
  270TMC3    C5 4082   3.196   3.963  15.800  0.2900  0.4020  0.0931
  270TMC3    C6 4083   3.115   3.892  15.710  0.1117 -0.7954 -0.3811
  270TMC3     C 4084   3.074   4.307  15.781  0.1171  0.1099 -0.3147
  270TMC3     O 4085   3.001   4.370  15.705 -0.1516 -0.1424 -0.2765
  270TMC3     H 4086   2.931   4.164  15.625  1.1066 -0.2570 -0.5174
  270TMC3    H1 4087   3.252   4.142  15.898 -0.3344 -0.6788  0.8871
  270TMC3    H2 4088   3.118   3.786  15.692 -0.5022 -0.7940 -0.4733
  270TMC3    C7 4089   3.309   3.898  15.865 -0.1176  0.2368  0.6605
  270TMC3    C8 4090   2.969   3.929  15.532  0.1594 -0.5157 -0.5119
  270TMC3    O1 4091   3.405   3.972  15.879 -0.4519  0.5009 -0.3120
  270TMC3    O2 4092   3.021   3.834  15.473 -0.1846  0.4814 -0.4193
  271MPD2     C 4093   2.470   4.562  13.716 -0.1836  0.8775  0.5577
  271MPD2    C1 4094   2.398   4.505  13.823  0.5530 -0.1310 -0.5250
  271MPD2    C2 4095   2.263   4.528  13.830 -0.5644 -0.4410  0.6661
  271MPD2    C3 4096   2.193   4.597  13.731  0.0624 -0.3550 -0.0257
  271MPD2    C4 4097   2.264   4.648  13.627  0.2045  0.5096 -0.0193
  271MPD2    C5 4098   2.398   4.629  13.625 -0.6485  0.0485 -0.6692
  271MPD2     H 4099   2.212   4.495  13.920 -1.1767  1.6885  1.1092
  271MPD2    H1 4100   2.212   4.695  13.544 -2.6458  0.1717  1.5765
  271MPD2    H2 4101   2.576   4.546  13.706 -0.3466 -0.8439  1.5582
  271MPD2    H3 4102   2.446   4.681  13.542  2.2893  0.4764  1.3170
  271MPD2     N 4103   2.057   4.616  13.734  0.3178  0.2008 -0.3939
  271MPD2    H5 4104   2.011   4.667  13.659  0.4438 -0.3688 -0.8522
  271MPD2    N1 4105   2.467   4.436  13.929 -0.4835 -0.1499  0.1578
  271MPD2    H7 4106   2.410   4.407  14.008 -0.1372 -2.0243 -0.2819
  272TMC3    C1 4107   2.627   4.319  14.056  0.5312 -0.6783  0.5465
  272TMC3    C2 4108   2.724   4.225  14.053 -0.0962  0.2531 -0.7515
  272TMC3    C3 4109   2.739   4.135  14.157 -0.6392  0.6753 -0.0297
  272TMC3    C4 4110   2.541   4.331  14.163  0.1232  0.3167 -1.0550
  272TMC3    C5 4111   2.570   4.247  14.270  0.1616 -0.1739 -0.2350
  272TMC3    C6 4112   2.672   4.159  14.269 -0.5065  0.0259 -0.8758
  272TMC3     C 4113   2.600   4.405  13.935 -0.1826 -0.0542 -0.0824
  272TMC3     O 4114   2.695   4.428  13.860  0.1631  0.5119  0.6212
  272TMC3     H 4115   2.784   4.221  13.963  0.5259 -0.0250 -0.3295
  272TMC3    H1 4116   2.456   4.398  14.172 -0.1732 -0.5144  2.4794
  272TMC3    H2 4117   2.677   4.086  14.349 -0.6335  0.0837 -0.8156
  272TMC3    C7 4118   2.487   4.264  14.392  0.0317  0.5364  0.4675
  272TMC3    C8 4119   2.857   4.052  14.156  0.5594 -0.4636  0.5576
  272TMC3    O1 4120   2.371   4.302  14.382 -0.0164  0.6283 -0.3652
  272TMC3    O2 4121   2.923   4.066  14.055  0.4109 -0.5881  0.2862
  273MPD2     C 4122   4.276   2.120  12.125  0.1015  1.0162 -0.3325
  273MPD2    C1 4123   4.369   2.209  12.079 -0.4512  0.3509  0.0875
  273MPD2    C2 4124   4.403   2.202  11.947  0.1973  0.8072  0.3970
  273MPD2    C3 4125   4.325   2.122  11.859 -0.2794  0.0312 -0.2046
  273MPD2    C4 4126   4.228   2.038  11.906  0.4002  0.4573  0.2160
  273MPD2    C5 4127   4.205   2.035  12.040  0.2048  0.0284 -0.6047
  273MPD2     H 4128   4.481   2.266  11.906 -0.6175 -1.6040 -4.9367
  273MPD2    H1 4129   4.156   1.979  11.850  2.7187 -1.3739 -0.8252
  273MPD2    H2 4130   4.259   2.112  12.232 -0.5731  2.4873 -0.3238
  273MPD2    H3 4131   4.126   1.976  12.087  0.0032  0.1082 -0.8434
  273MPD2     N 4132   4.339   2.135  11.720  0.2360  0.1482  0.0594
  273MPD2    H5 4133   4.268   2.095  11.661  1.1396 -3.0237  1.1362
  273MPD2    N1 4134   4.415   2.305  12.171 -0.2463  0.5153  1.0426
  273MPD2    H7 4135   4.373   2.305  12.263 -0.1369 -0.8750  1.0898
  274TMC3    C1 4136   4.412   2.257  11.537  0.5467  0.2901 -0.5144
  274TMC3    C2 4137   4.313   2.206  11.458  0.0091  0.3750  0.1351
  274TMC3    C3 4138   4.274   2.277  11.350 -1.3580 -0.7062 -0.4405
  274TMC3    C4 4139   4.470   2.377  11.512  0.0994 -0.5912 -0.7624
  274TMC3    C5 4140   4.419   2.451  11.413  0.2141 -0.0146  0.0859
  274TMC3    C6 4141   4.334   2.393  11.320 -0.1613  0.0758  0.0827
  274TMC3     C 4142   4.444   2.205  11.663  0.6878  0.5186 -0.0851
  274TMC3     O 4143   4.551   2.236  11.708  0.4531 -0.5743 -0.0793
  274TMC3     H 4144   4.285   2.104  11.480  1.2777 -0.0569 -0.2469
  274TMC3    H1 4145   4.538   2.421  11.584  0.7017  0.2961 -1.8844
  274TMC3    H2 4146   4.280   2.461  11.255 -0.2828  1.7748  1.9695
  274TMC3    C7 4147   4.369   2.585  11.455 -0.8455  0.4212 -0.2864
  274TMC3    C8 4148   4.180   2.211  11.260 -0.2986 -0.1523 -1.0439
  274TMC3    O1 4149   4.250   2.595  11.429  0.3972 -0.5721 -0.1114
  274TMC3    O2 4150   4.140   2.103  11.292  0.0314 -0.0496 -0.2264
  275MPD2     C 4151   4.140   0.224  14.412  0.1630 -0.7980  0.0128
  275MPD2    C1 4152   4.064   0.202  14.524 -0.0241  0.4489  0.4378
  275MPD2    C2 4153   3.929   0.178  14.515 -0.1709  1.0921  0.0203
  275MPD2    C3 4154   3.865   0.187  14.395  0.0574 -0.2456  0.0942
  275MPD2    C4 4155   3.938   0.199  14.286  0.4183  0.5109 -0.1536
  275MPD2    C5 4156   4.072   0.215  14.291  0.0064  0.6608  0.2768
  275MPD2     H 4157   3.885   0.155  14.612  0.4638  0.4052  0.1465
  275MPD2    H1 4158   3.892   0.192  14.188 -3.7316  1.9486  1.6827
  275MPD2    H2 4159   4.247   0.242  14.420  0.2513 -1.4161  0.1932
  275MPD2    H3 4160   4.131   0.233  14.202  0.9144  1.4615  1.0327
  275MPD2     N 4161   3.726   0.204  14.375 -0.1706 -0.4745  0.2072
  275MPD2    H5 4162   3.696   0.240  14.285 -1.9935 -0.9575  0.6225
  275MPD2    N1 4163   4.125   0.188  14.649 -0.2787 -0.1654  0.1172
  275MPD2    H7 4164   4.072   0.137  14.719 -0.1212 -1.2978 -0.5688
  276TMC3    C1 4165   4.239   0.262  14.837 -0.0426 -1.1405  0.1300
  276TMC3    C2 4166   4.156   0.172  14.905 -0.0643 -0.4388  1.2231
  276TMC3    C3 4167   4.126   0.205  15.030  0.9208 -0.3759  0.3505
  276TMC3    C4 4168   4.294   0.376  14.889 -0.9331 -0.0400  0.2348
  276TMC3    C5 4169   4.258   0.398  15.021  0.0043 -0.5428 -0.4237
  276TMC3    C6 4170   4.176   0.317  15.089  0.5371  0.1269 -0.0025
  276TMC3     C 4171   4.231   0.261  14.696  0.2385  0.7024  0.0105
  276TMC3     O 4172   4.290   0.352  14.630 -0.3097 -0.0851 -0.4528
  276TMC3     H 4173   4.109   0.083  14.865  0.1528  0.3304 -0.7462
  276TMC3    H1 4174   4.351   0.441  14.824  0.4986 -1.7125 -0.1852
  276TMC3    H2 4175   4.147   0.346  15.189 -0.1895  1.3266 -0.5568
  276TMC3    C7 4176   4.346   0.485  15.104  0.4536  0.6589 -0.9490
  276TMC3    C8 4177   4.034   0.125  15.107  0.8003 -0.1116  0.6052
  276TMC3    O1 4178   4.319   0.501  15.221  0.8883 -0.5219  0.6686
  276TMC3    O2 4179   3.956   0.180  15.182 -0.3226  0.0320 -0.6398
  277MPD2     C 4180   1.339   4.306  13.507  0.0620  0.2350 -0.6361
  277MPD2    C1 4181   1.202   4.321  13.495 -0.2156 -0.0835  0.0805
  277MPD2    C2 4182   1.119   4.268  13.594  0.0278  0.0063  0.3175
  277MPD2    C3 4183   1.171   4.198  13.704 -0.7458  0.2065 -0.2396
  277MPD2    C4 4184   1.310   4.189  13.714  0.0736 -0.2828 -0.0004
  277MPD2    C5 4185   1.389   4.236  13.615 -0.0207 -0.3606 -0.3905
  277MPD2     H 4186   1.011   4.272  13.584 -0.0900 -1.1551  1.1068
  277MPD2    H1 4187   1.354   4.143  13.801  1.2412 -1.6911 -1.3251
  277MPD2    H2 4188   1.404   4.349  13.432  0.9571 -1.7891 -1.0270
  277MPD2    H3 4189   1.497   4.233  13.627  0.0741 -3.6293 -2.0857
  277MPD2     N 4190   1.074   4.144  13.790 -0.2596  0.5043 -0.1968
  277MPD2    H5 4191   0.977   4.133  13.760  0.5796  0.2490 -2.8215
  277MPD2    N1 4192   1.154   4.383  13.377 -0.3826  0.3472  0.0507
  277MPD2    H7 4193   1.229   4.414  13.316 -0.4806  1.3549  0.4418
  278TMC3    C1 4194   0.974   3.999  13.926 -0.3825  0.1076  0.0755
  278TMC3    C2 4195   0.966   3.864  13.926 -0.6722 -0.1955 -0.5354
  278TMC3    C3 4196   0.844   3.807  13.917 -0.9025 -0.1716  0.6510
  278TMC3    C4 4197   0.865   4.079  13.930 -0.5120 -0.6466  0.4210
  278TMC3    C5 4198   0.740   4.022  13.926  0.3973 -0.1629  0.2103
  278TMC3    C6 4199   0.726   3.884  13.915 -0.2691 -0.3305  0.4698
  278TMC3     C 4200   1.100   4.045  13.872 -0.2605  0.0901  0.4503
  278TMC3     O 4201   1.206   3.991  13.902 -0.3760  0.2427  0.6366
  278TMC3     H 4202   1.059   3.809  13.916 -0.2377  0.7775 -1.8339
  278TMC3    H1 4203   0.876   4.186  13.922 -3.4482 -0.5084 -1.8651
  278TMC3    H2 4204   0.626   3.841  13.913 -0.4154  0.0516 -0.4568
  278TMC3    C7 4205   0.625   4.112  13.952 -1.1048  0.3344 -0.0537
  278TMC3    C8 4206   0.828   3.664  13.908 -0.2722  0.0805  0.6816
  278TMC3    O1 4207   0.654   4.232  13.965 -0.4074  0.1167 -0.0662
  278TMC3    O2 4208   0.923   3.609  13.959  0.1693  0.0829  0.5081
  279MPD2     C 4209   0.263   4.064  17.651  0.4576 -0.1737 -0.1225
  279MPD2    C1 4210   0.256   4.196  17.677 -0.4088  0.0496  0.0767
  279MPD2    C2 4211   0.302   4.289  17.587  0.6533 -0.1224 -0.5793
  279MPD2    C3 4212   0.372   4.245  17.472  0.1942  0.2037  0.8249
  279MPD2    C4 4213   0.385   4.111  17.456 -0.2058 -0.1880 -0.2989
  279MPD2    C5 4214   0.328   4.017  17.542 -0.3544  0.1815 -0.6646
  279MPD2     H 4215   0.287   4.396  17.600  1.0041 -0.2919  1.2303
  279MPD2    H1 4216   0.439   4.062  17.376  0.7963 -0.9367  0.8410
  279MPD2    H2 4217   0.213   4.004   0.027 -1.7546 -0.4966 -1.8323
  279MPD2    H3 4218   0.354   3.911  17.539 -0.5657  0.0577  1.4283
  279MPD2     N 4219   0.416   4.341  17.376  0.1572 -0.1124 -0.4175
  279MPD2    H5 4220   0.410   4.309  17.280 -0.7611 -1.4633  0.0780
  279MPD2    N1 4221   0.187   4.234   0.096 -0.1305 -0.5955 -0.0343
  279MPD2    H7 4222   0.140   4.157   0.143  0.8977 -1.0916  0.1808
  280TMC3    C1 4223   0.021   4.387   0.174 -0.5160  0.4284  0.2661
  280TMC3    C2 4224   4.658   4.286   0.138  0.7444 -0.2514 -0.1520
  280TMC3    C3 4225   4.532   4.334   0.093  0.2191  0.6737  0.0733
  280TMC3    C4 4226   4.716   4.526   0.168 -0.2789 -0.2191 -0.5494
  280TMC3    C5 4227   4.593   4.557   0.120 -0.4857 -0.3494  0.1151
  280TMC3    C6 4228   4.500   4.467   0.074 -0.6314 -0.3354  0.1855
  280TMC3     C 4229   0.158   4.363   0.131 -0.6313  0.2706 -0.4108
  280TMC3     O 4230   0.226   4.461   0.103 -0.3066  0.2458 -0.0195
  280TMC3     H 4231   4.685   4.187   0.105 -0.1900 -0.6797  0.3956
  280TMC3    H1 4232   0.062   4.602   0.198 -0.9522  0.0083  0.4495
  280TMC3    H2 4233   4.402   4.499   0.041 -0.6097 -0.2467  0.2063
  280TMC3    C7 4234   4.562   4.700   0.104 -0.3590 -0.5942 -0.1225
  280TMC3    C8 4235   4.457   4.250   0.002  1.5174 -0.2304 -0.3529
  280TMC3    O1 4236   4.596   0.054   0.193  0.1943 -0.4813 -0.0639
  280TMC3    O2 4237   4.390   4.302  17.615  0.1094 -0.4255  0.0305
  281TMC3    C1 4238   3.908   4.348  13.244  0.5441 -0.4764 -0.1157
  281TMC3    C2 4239   4.007   4.423  13.184  0.1763 -0.1607 -0.6670
  281TMC3    C3 4240   4.053   4.368  13.066  0.4209 -0.3466  0.0317
  281TMC3    C4 4241   3.860   4.229  13.193  0.1806  0.2311 -0.1040
  281TMC3    C5 4242   3.909   4.174  13.078  0.4778  0.8581 -0.7759
  281TMC3    C6 4243   4.008   4.246  13.018 -0.6058  0.3820 -0.4741
  281TMC3     C 4244   3.807   4.415  13.325  0.1992 -0.6484 -0.2039
  281TMC3     O 4245   3.763   4.361  13.426  0.6565 -1.0155 -0.1470
  281TMC3     H 4246   4.061   4.510  13.221  2.0402 -2.2407  1.5256
  281TMC3    H1 4247   3.773   4.197  13.249  0.0718 -0.5947 -0.7521
  281TMC3    H2 4248   4.031   4.213  12.917  3.5280  1.9009 -0.0237
  281TMC3    C7 4249   3.820   4.094  12.993  0.4363  0.4385  0.3648
  281TMC3    C8 4250   4.172   4.409  12.995  0.7036 -0.1180  0.0442
  281TMC3    O1 4251   3.780   4.148  12.890  0.2210 -0.1890 -0.1438
  281TMC3    O2 4252   4.250   4.317  12.974  0.6286 -0.6515 -0.2557
  282MPD2     C 4253   0.768   0.981  15.140 -0.2398  0.3845 -1.1440
  282MPD2    C1 4254   0.669   1.082  15.149 -0.0842  0.6317  0.4244
  282MPD2    C2 4255   0.613   1.140  15.035 -0.7016  1.0048 -0.7407
  282MPD2    C3 4256   0.649   1.084  14.915  0.2747  0.2978  0.0291
  282MPD2    C4 4257   0.741   0.980  14.905  0.9004 -0.2159 -0.5493
  282MPD2    C5 4258   0.806   0.938  15.017  0.3775  0.2126  0.3124
  282MPD2     H 4259   0.538   1.218  15.044 -1.7297  0.1578 -2.1314
  282MPD2    H1 4260   0.779   0.941  14.812 -0.6378  0.1012 -1.3172
  282MPD2    H2 4261   0.829   0.951  15.225 -4.4597  0.4420  1.9278
  282MPD2    H3 4262   0.884   0.863  15.011  0.1582  0.0484 -0.4450
  282MPD2     N 4263   0.601   1.149  14.802  0.2258 -0.6105 -0.4996
  282MPD2    H5 4264   0.546   1.232  14.822 -0.9329 -1.2457 -1.1031
  282MPD2    N1 4265   0.633   1.137  15.271  0.8003 -0.1094 -0.3218
  282MPD2    H7 4266   0.568   1.215  15.282  0.3352 -0.5210 -0.1773
  283TMC3    C1 4267   0.581   1.149  15.497 -0.1891 -0.5507  0.7119
  283TMC3    C2 4268   0.573   1.284  15.516  0.2178  0.2064  0.5215
  283TMC3    C3 4269   0.495   1.323  15.628 -0.4421  0.3139 -0.4814
  283TMC3    C4 4270   0.527   1.063  15.587 -0.3323  0.2841 -0.5704
  283TMC3    C5 4271   0.463   1.101  15.703 -0.8149 -0.4556  0.1230
  283TMC3    C6 4272   0.440   1.233  15.721 -0.3986  0.4711  0.0151
  283TMC3     C 4273   0.672   1.099  15.400 -0.2335  0.5693 -0.5716
  283TMC3     O 4274   0.741   1.011  15.445  0.2999 -0.5470  0.0944
  283TMC3     H 4275   0.614   1.352  15.443 -0.5271  2.1453  1.9014
  283TMC3    H1 4276   0.538   0.956  15.576  0.8401  0.1561  1.9691
  283TMC3    H2 4277   0.389   1.266  15.811  1.4719  0.5732  1.0393
  283TMC3    C7 4278   0.386   1.013  15.785 -0.3144  0.3247  0.3133
  283TMC3    C8 4279   0.442   1.463  15.635  0.2179  0.3377 -0.4248
  283TMC3    O1 4280   0.348   1.046  15.898  0.1528 -0.0214  0.1173
  283TMC3    O2 4281   0.337   1.483  15.696 -0.3078  0.1705 -0.5189
  284MPD2     C 4282   4.131   4.554  11.994  0.0396 -0.3084 -0.3270
  284MPD2    C1 4283   4.071   4.589  11.875 -0.2851 -0.3734  0.1305
  284MPD2    C2 4284   3.938   4.562  11.855 -1.3424  0.3681  0.5477
  284MPD2    C3 4285   3.872   4.470  11.937 -0.1880 -0.1541  0.1193
  284MPD2    C4 4286   3.932   4.436  12.056 -0.0754  0.6860 -0.3326
  284MPD2    C5 4287   4.056   4.480  12.084 -0.5102  0.0307  0.0334
  284MPD2     H 4288   3.903   4.591  11.757 -2.5972 -0.1283  0.8543
  284MPD2    H1 4289   3.873   4.377  12.126 -0.3979 -0.9402 -2.0024
  284MPD2    H2 4290   4.235   4.574  12.017 -0.1716  0.2070  0.1620
  284MPD2    H3 4291   4.104   4.450  12.176 -1.6429 -1.3342  0.1804
  284MPD2     N 4292   3.741   4.434  11.920  0.3601 -0.0584  0.0125
  284MPD2    H5 4293   3.707   4.360  11.982 -1.4522  0.0524 -0.8291
  284MPD2    N1 4294   4.145   4.658  11.777 -0.3126  0.8886  0.1874
  284MPD2    H7 4295   4.093   4.680  11.693 -0.2978 -0.9489 -0.2973
  285TMC3    C1 4296   4.319   0.060  11.668 -0.1122 -0.1622  0.4354
  285TMC3    C2 4297   4.265   0.017  11.547 -0.2211  0.2927 -0.4143
  285TMC3    C3 4298   4.270   0.101  11.439 -0.2802 -0.3321 -0.8627
  285TMC3    C4 4299   4.372   0.185  11.688 -0.3530 -0.5941  0.1510
  285TMC3    C5 4300   4.377   0.258  11.576  0.0626 -0.2842  0.5051
  285TMC3    C6 4301   4.335   0.217  11.451 -0.1527  0.0635  0.1145
  285TMC3     C 4302   4.270   4.722  11.788 -0.2463  0.7409 -0.1626
  285TMC3     O 4303   4.348   0.000  11.886 -0.7313 -0.1321 -0.1763
  285TMC3     H 4304   4.230   4.640  11.532 -2.0279  0.7141  1.0017
  285TMC3    H1 4305   4.374   0.227  11.788  1.3397  0.9742 -0.5554
  285TMC3    H2 4306   4.337   0.284  11.365  1.1132 -0.8649 -0.5723
  285TMC3    C7 4307   4.439   0.394  11.570 -0.1225 -0.3780  0.2346
  285TMC3    C8 4308   4.210   0.055  11.312 -0.1926 -0.7454 -0.4610
  285TMC3    O1 4309   4.443   0.449  11.456 -0.5607  0.0018  0.2717
  285TMC3    O2 4310   4.112   4.713  11.321  0.3852  0.5587 -0.4902
  286MPD2     C 4311   3.953   3.799   1.644  0.2855 -0.0660  0.2078
  286MPD2    C1 4312   3.952   3.819   1.507  0.1915 -0.1360 -0.8727
  286MPD2    C2 4313   4.035   3.742   1.427 -0.3805 -0.2771 -1.0558
  286MPD2    C3 4314   4.094   3.630   1.475 -1.0836 -0.4159  0.0667
  286MPD2    C4 4315   4.091   3.611   1.615 -0.4091  0.1446 -1.0978
  286MPD2    C5 4316   4.025   3.695   1.693  1.1790  0.2782 -0.1680
  286MPD2     H 4317   4.043   3.768   1.322  2.7522 -0.4899 -0.8720
  286MPD2    H1 4318   4.148   3.533   1.663 -1.8578 -1.5181 -2.0398
  286MPD2    H2 4319   3.914   3.863   1.722  0.5363  2.2476 -1.5589
  286MPD2    H3 4320   4.024   3.684   1.801 -1.8972 -3.0532 -0.5319
  286MPD2     N 4321   4.180   3.543   1.394  0.2036 -0.0518 -0.5401
  286MPD2    H5 4322   4.220   3.462   1.439  0.2287  1.2466  1.7819
  286MPD2    N1 4323   3.884   3.925   1.447 -0.2339  0.3126  0.0924
  286MPD2    H7 4324   3.892   3.945   1.348  0.1224  0.6218  0.1849
  287TMC3    C1 4325   4.336   3.510   1.221  0.5884  0.7702 -0.2839
  287TMC3    C2 4326   4.348   3.505   1.081 -0.1745 -0.3511 -0.4407
  287TMC3    C3 4327   4.462   3.447   1.034  0.3054 -0.0777 -0.0839
  287TMC3    C4 4328   4.431   3.475   1.307  0.2702 -0.2186  0.6470
  287TMC3    C5 4329   4.546   3.418   1.259 -0.3620 -0.7377 -0.1518
  287TMC3    C6 4330   4.562   3.397   1.119 -0.9931  0.1618  0.0685
  287TMC3     C 4331   4.210   3.567   1.263  0.1514  0.9990  0.1190
  287TMC3     O 4332   4.160   3.644   1.177 -0.1655  0.4512  0.2161
  287TMC3     H 4333   4.276   3.541   1.009 -2.8347 -1.0705  1.8674
  287TMC3    H1 4334   4.412   3.480   1.414 -1.6967 -0.9204  0.3263
  287TMC3    H2 4335   4.638   3.332   1.079 -2.1950 -1.9302  1.1471
  287TMC3    C7 4336   4.659   3.416   1.352  0.1661 -0.0655  0.2168
  287TMC3    C8 4337   4.450   3.402   0.897  0.3974 -0.2372 -1.0480
  287TMC3    O1 4338   4.641   3.451   1.467  0.0870 -0.4710  0.0546
  287TMC3    O2 4339   4.338   3.388   0.849 -0.4148 -0.4305 -0.0499
  288TMC3    C1 4340   1.635   3.780  14.039 -0.6439 -0.4366 -0.7485
  288TMC3    C2 4341   1.525   3.834  14.103  0.0804 -0.5965  0.0359
  288TMC3    C3 4342   1.486   3.954  14.060  0.2839  0.6065 -0.7623
  288TMC3    C4 4343   1.694   3.840  13.930  0.1459  0.2604  0.0102
  288TMC3    C5 4344   1.647   3.960  13.902 -0.0588  0.4761  0.0768
  288TMC3    C6 4345   1.546   4.023  13.966  0.2598  0.2517 -0.1439
  288TMC3     C 4346   1.709   3.683  14.111  1.0471 -0.2925 -0.4337
  288TMC3     O 4347   1.831   3.677  14.083  0.0006  0.1036 -0.3858
  288TMC3     H 4348   1.477   3.806  14.196  0.3126  1.3006  0.7218
  288TMC3    H1 4349   1.781   3.792  13.886  0.0294 -0.7840  0.8935
  288TMC3    H2 4350   1.516   4.124  13.943  0.4560  0.1644 -0.7682
  288TMC3    C7 4351   1.685   4.025  13.779  0.1954  0.6154 -0.0150
  288TMC3    C8 4352   1.392   4.034  14.146  0.2022  0.2528 -0.1602
  288TMC3    O1 4353   1.669   4.142  13.768  0.4683 -0.1565  0.2961
  288TMC3    O2 4354   1.398   4.156  14.135 -0.0959  0.0883  0.1948
  289MPD2     C 4355   0.979   2.745  14.272 -0.5073 -0.2128 -0.2994
  289MPD2    C1 4356   0.951   2.853  14.189  0.7082  0.1463  0.2882
  289MPD2    C2 4357   0.839   2.846  14.100  0.4585  0.6370  0.2551
  289MPD2    C3 4358   0.769   2.731  14.085 -0.3596  0.2566 -0.5035
  289MPD2    C4 4359   0.785   2.639  14.178 -0.2904  1.2748  0.0777
  289MPD2    C5 4360   0.894   2.637  14.261  0.8086 -0.2448 -0.1923
  289MPD2     H 4361   0.817   2.928  14.034  1.8348  0.4747 -0.4054
  289MPD2    H1 4362   0.730   2.546  14.170  2.5605 -0.4746  0.7404
  289MPD2    H2 4363   1.059   2.746  14.346  0.1368  0.0210 -1.0028
  289MPD2    H3 4364   0.891   2.548  14.323 -2.0854  0.2071  0.3091
  289MPD2     N 4365   0.660   2.718  13.994  0.1415 -1.1242  0.5400
  289MPD2    H5 4366   0.599   2.637  14.005 -2.5973  0.7972 -0.3965
  289MPD2    N1 4367   1.038   2.968  14.206  0.3424 -0.2943  0.4923
  289MPD2    H7 4368   1.116   2.961  14.270  0.6725  1.6742  0.2786
  290TMC3    C1 4369   0.486   2.783  13.859 -0.4031 -0.1075 -0.6309
  290TMC3    C2 4370   0.427   2.901  13.831 -0.2163  0.4699 -0.0561
  290TMC3    C3 4371   0.289   2.901  13.798  0.6566  0.0091 -0.6356
  290TMC3    C4 4372   0.423   2.666  13.865  0.0204  0.3266  0.2330
  290TMC3    C5 4373   0.290   2.671  13.842  0.1530  0.5029  0.4964
  290TMC3    C6 4374   0.223   2.785  13.804  0.4488 -0.4177  1.1626
  290TMC3     C 4375   0.627   2.810  13.898  0.0973  0.2252  0.6665
  290TMC3     O 4376   0.678   2.916  13.863 -0.4026 -0.3836  0.0797
  290TMC3     H 4377   0.484   2.994  13.825  1.6324 -0.7059 -0.6056
  290TMC3    H1 4378   0.481   2.575  13.856 -2.7201 -1.5207  1.0905
  290TMC3    H2 4379   0.117   2.795  13.789  0.9504 -0.8333 -2.6016
  290TMC3    C7 4380   0.210   2.549  13.867 -0.1690  0.0877  0.4036
  290TMC3    C8 4381   0.210   3.020  13.812 -0.5392 -0.4170 -0.0397
  290TMC3    O1 4382   0.091   2.552  13.837  0.1129  0.2923  0.1197
  290TMC3    O2 4383   0.094   3.031  13.779  0.2252 -0.2118 -0.0329
  291MPD2     C 4384   0.076   3.054   0.114  0.2768  0.3622 -0.4922
  291MPD2    C1 4385   0.087   2.923   0.074 -0.6678 -0.5111  0.1100
  291MPD2    C2 4386   0.156   2.889  17.654  0.9767  0.2570  0.8756
  291MPD2    C3 4387   0.224   2.987  17.587 -0.1354 -0.1002  0.1732
  291MPD2    C4 4388   0.218   3.116  17.636  0.6765  0.4486  0.3277
  291MPD2    C5 4389   0.145   3.146   0.047 -0.5186  0.1584  0.3504
  291MPD2     H 4390   0.166   2.786  17.623 -0.5656  0.0494  1.0600
  291MPD2    H1 4391   0.280   3.193  17.591  2.2770 -2.0836 -1.7771
  291MPD2    H2 4392   0.008   3.086   0.192 -1.4307  1.1784 -2.3160
  291MPD2    H3 4393   0.142   3.248   0.083 -1.2682 -0.1514  1.1608
  291MPD2     N 4394   0.313   2.956  17.475 -0.5060  0.5196 -0.2623
  291MPD2    H5 4395   0.349   3.038  17.427  1.0036 -0.5175 -0.8908
  291MPD2    N1 4396   0.026   2.823   0.144 -0.5398 -0.4137  0.9374
  291MPD2    H7 4397   0.018   2.728   0.108  4.0279 -1.3556  2.5342
  292TMC3    C1 4398   4.606   2.726   0.302 -0.2412 -0.3025  0.4777
  292TMC3    C2 4399   4.512   2.749   0.401 -0.5162  0.0277  0.0670
  292TMC3    C3 4400   4.439   2.640   0.446  0.5440  0.1370  0.0676
  292TMC3    C4 4401   4.642   2.599   0.259 -0.7757  0.2798 -0.4227
  292TMC3    C5 4402   4.577   2.496   0.327  0.2036  0.4777  0.2384
  292TMC3    C6 4403   4.478   2.517   0.413 -0.5766  0.1490  0.5055
  292TMC3     C 4404   4.692   2.837   0.272  0.2523 -0.1786 -0.1411
  292TMC3     O 4405   4.716   2.920   0.357 -0.2470  0.1344  0.1683
  292TMC3     H 4406   4.500   2.848   0.443 -0.6607  1.2495 -2.8669
  292TMC3    H1 4407   4.721   2.573   0.190  0.0575 -0.5816  0.8413
  292TMC3    H2 4408   4.425   2.430   0.450  0.4671 -1.0144 -0.7506
  292TMC3    C7 4409   4.656   2.386   0.377 -0.2770  0.4864  0.0502
  292TMC3    C8 4410   4.361   2.661   0.576 -0.2694 -0.7387 -0.3814
  292TMC3    O1 4411   4.654   2.382   0.498  0.4633 -0.0081  0.7564
  292TMC3    O2 4412   4.400   2.745   0.649 -0.1145 -0.3678 -0.0091
  293MPD2     C 4413   2.053   4.243  12.451  0.4428 -0.3877 -0.0926
  293MPD2    C1 4414   2.019   4.159  12.554 -0.1177 -0.5854  0.0953
  293MPD2    C2 4415   2.065   4.179  12.683  0.6117  0.2131  0.4317
  293MPD2    C3 4416   2.153   4.280  12.715 -0.1492  0.8359 -0.0596
  293MPD2    C4 4417   2.187   4.364  12.606  0.3427 -0.2973 -0.4959
  293MPD2    C5 4418   2.132   4.351  12.480 -0.0765 -0.5743 -0.6388
  293MPD2     H 4419   2.043   4.104  12.758 -0.1317  0.0855  0.0886
  293MPD2    H1 4420   2.249   4.453  12.616  0.3343 -0.2873 -0.5358
  293MPD2    H2 4421   2.027   4.230  12.346 -0.7684  0.3863  0.1144
  293MPD2    H3 4422   2.160   4.417  12.399  0.8988  0.0215  0.1728
  293MPD2     N 4423   2.208   4.295  12.844  0.2067  0.1510  0.0660
  293MPD2    H5 4424   2.193   4.217  12.907 -2.7340  1.0267  0.4449
  293MPD2    N1 4425   1.941   4.055  12.504  0.6251 -0.5153  0.1467
  293MPD2    H7 4426   1.915   4.040  12.406 -0.7642  1.9641  0.1486
  294TMC3    C1 4427   1.802   3.867  12.532 -0.8102  0.0418  0.2547
  294TMC3    C2 4428   1.692   3.810  12.595 -0.3919  0.3472 -0.3733
  294TMC3    C3 4429   1.662   3.680  12.575 -0.2052 -0.2796  0.0387
  294TMC3    C4 4430   1.883   3.792  12.452  0.3026 -0.7833  0.6813
  294TMC3    C5 4431   1.855   3.656  12.446 -0.2140 -0.2605 -0.0251
  294TMC3    C6 4432   1.745   3.601  12.508  0.4792  0.1093  0.3015
  294TMC3     C 4433   1.866   3.978  12.595 -0.0136  0.1979 -0.7534
  294TMC3     O 4434   1.831   4.000  12.709  0.2573  0.2069 -0.1639
  294TMC3     H 4435   1.631   3.865  12.666 -0.0395 -0.8975  0.8995
  294TMC3    H1 4436   1.976   3.834  12.415 -0.0874  0.2375  0.8817
  294TMC3    H2 4437   1.734   3.493  12.505  2.3581 -0.0856  0.3505
  294TMC3    C7 4438   1.930   3.567  12.365  0.0034  0.2274 -0.0382
  294TMC3    C8 4439   1.522   3.652  12.603 -0.2732 -0.7364  0.6044
  294TMC3    O1 4440   1.916   3.449  12.383 -0.4674  0.7732  0.0793
  294TMC3    O2 4441   1.448   3.746  12.605  0.1058 -0.0733  0.3776
  295MPD2     C 4442   3.698   2.714   0.231  0.4192 -0.1441  0.0146
  295MPD2    C1 4443   3.595   2.793   0.274  0.3211 -0.1967 -0.7288
  295MPD2    C2 4444   3.580   2.812   0.409  0.3438  0.1820 -0.1537
  295MPD2    C3 4445   3.654   2.747   0.501 -0.2393 -0.0788  0.6139
  295MPD2    C4 4446   3.760   2.673   0.467 -0.0104  0.0267  0.2479
  295MPD2    C5 4447   3.783   2.663   0.329 -0.5737  0.6981 -0.0479
  295MPD2     H 4448   3.505   2.882   0.444  1.4222  0.2089  2.1159
  295MPD2    H1 4449   3.830   2.629   0.537  1.6496 -0.1956 -1.5420
  295MPD2    H2 4450   3.720   2.709   0.125  2.2906 -1.0344  0.4550
  295MPD2    H3 4451   3.867   2.604   0.295 -1.9892 -2.1540  1.4080
  295MPD2     N 4452   3.626   2.732   0.643  0.0826 -0.4441  0.6209
  295MPD2    H5 4453   3.697   2.685   0.698 -0.5632 -2.1591 -0.0160
  295MPD2    N1 4454   3.493   2.845   0.187 -0.3559 -0.3781 -0.0616
  295MPD2    H7 4455   3.425   2.907   0.231  1.5378 -0.0676  2.4199
  296TMC3    C1 4456   3.503   2.755   0.853 -0.5445  0.0995  0.2784
  296TMC3    C2 4457   3.603   2.690   0.926 -0.1976  0.0535 -0.1270
  296TMC3    C3 4458   3.573   2.649   1.047 -0.1952 -0.6375 -0.4781
  296TMC3    C4 4459   3.375   2.763   0.900  0.3786  0.1651 -0.4410
  296TMC3    C5 4460   3.354   2.700   1.018  0.3961 -0.4411 -0.1266
  296TMC3    C6 4461   3.447   2.650   1.100 -0.1312 -0.0886  0.4409
  296TMC3     C 4462   3.514   2.789   0.705 -0.3216 -0.5314 -0.5445
  296TMC3     O 4463   3.422   2.852   0.653  0.1356 -0.5956  0.0567
  296TMC3     H 4464   3.700   2.662   0.885  1.2905  2.7947  1.4572
  296TMC3    H1 4465   3.298   2.799   0.834  0.0995  1.6113  0.6745
  296TMC3    H2 4466   3.420   2.606   1.195  1.9232  0.8054  1.4251
  296TMC3    C7 4467   3.213   2.708   1.062 -0.3494 -0.2285 -0.5345
  296TMC3    C8 4468   3.672   2.577   1.126 -0.6028 -1.0358  0.7849
  296TMC3    O1 4469   3.139   2.796   1.026 -0.2881 -0.3913  0.2909
  296TMC3    O2 4470   3.743   2.497   1.071 -0.1144  0.3390 -0.1785
  297MPD2     C 4471   4.561   0.079  16.369 -0.7714  0.8860  0.2016
  297MPD2    C1 4472   4.577   0.127  16.238  0.5061  0.2634  0.2977
  297MPD2    C2 4473   4.678   0.216  16.212  0.2531 -0.8196 -0.0802
  297MPD2    C3 4474   0.041   0.253  16.309  0.2641  0.0675  0.1837
  297MPD2    C4 4475   0.012   0.212  16.442  0.2109  0.7325 -1.1605
  297MPD2    C5 4476   4.646   0.115  16.467  0.3386  0.4647 -0.1039
  297MPD2     H 4477   4.682   0.260  16.114 -1.3413  0.3248  0.3669
  297MPD2    H1 4478   0.070   0.251  16.525 -1.4554  2.7341 -0.9335
  297MPD2    H2 4479   4.490   0.003  16.399 -0.2822  0.8650  1.3235
  297MPD2    H3 4480   4.637   0.074  16.567 -0.3578 -0.5733 -0.5873
  297MPD2     N 4481   0.142   0.349  16.283 -0.1722  0.2983  0.4638
  297MPD2    H5 4482   0.170   0.352  16.185 -2.2842 -0.0120 -0.1546
  297MPD2    N1 4483   4.506   0.076  16.132 -0.0248  0.5706  0.2176
  297MPD2    H7 4484   4.522   0.120  16.042  2.3017 -0.0683  0.3340
  298TMC3    C1 4485   4.346   4.705  16.009 -0.4228  0.5850  0.5002
  298TMC3    C2 4486   4.429   4.708  15.907  0.3511 -0.2529 -0.4604
  298TMC3    C3 4487   4.395   0.039  15.783 -0.0067 -0.4493 -0.0801
  298TMC3    C4 4488   4.220   0.019  15.991 -0.3727  0.2266 -0.2609
  298TMC3    C5 4489   4.186   0.077  15.871 -0.5245 -0.3051 -0.0309
  298TMC3    C6 4490   4.269   0.093  15.761  0.2626  0.4465  0.3161
  298TMC3     C 4491   4.398   4.716  16.138  0.3006  0.1508  1.2423
  298TMC3     O 4492   4.330   4.679  16.230  0.4352 -0.0229  0.4212
  298TMC3     H 4493   4.528   4.669  15.929  1.3530  3.2525  1.1920
  298TMC3    H1 4494   4.151   0.012  16.075  2.0531 -0.4936  1.6542
  298TMC3    H2 4495   4.239   0.143  15.670 -1.7637 -1.7137 -0.2035
  298TMC3    C7 4496   4.056   0.153  15.878  0.4926 -0.9752  0.1490
  298TMC3    C8 4497   4.480   0.007  15.670 -0.0446 -0.6754 -0.4133
  298TMC3    O1 4498   4.018   0.198  15.984  0.3465  0.1287 -0.1715
  298TMC3    O2 4499   4.580   4.666  15.687 -0.4561  0.1299  0.0860
  299MPD2     C 4500   0.810   4.343  10.549 -0.0992 -0.2787 -1.1179
  299MPD2    C1 4501   0.749   4.243  10.625  0.1170  0.9740  0.4377
  299MPD2    C2 4502   0.666   4.153  10.564  0.4260  0.1496  0.1846
  299MPD2    C3 4503   0.640   4.162  10.428 -0.0644 -0.1599  0.5191
  299MPD2    C4 4504   0.715   4.248  10.352 -0.0361  0.3978  0.4629
  299MPD2    C5 4505   0.793   4.341  10.414  0.5979  0.5079 -0.0650
  299MPD2     H 4506   0.611   4.084  10.627 -0.1190  0.6337  0.2480
  299MPD2    H1 4507   0.701   4.251  10.244  0.2621  1.7762  0.4654
  299MPD2    H2 4508   0.874   4.421  10.589  2.2213 -2.2553 -1.0038
  299MPD2    H3 4509   0.861   4.400  10.353  1.6643 -1.9605 -1.2472
  299MPD2     N 4510   0.552   4.077  10.354  0.2424 -0.3535 -0.5664
  299MPD2    H5 4511   0.533   4.099  10.256  2.9911  0.1183 -0.9978
  299MPD2    N1 4512   0.761   4.246  10.770  0.4414 -0.1351  0.0018
  299MPD2    H7 4513   0.822   4.322  10.795  0.3871 -0.4918  1.2053
  300TMC3    C1 4514   0.345   3.946  10.348 -0.3270 -0.2116 -0.2611
  300TMC3    C2 4515   0.305   4.011  10.231 -0.1326  0.3474 -0.1190
  300TMC3    C3 4516   0.173   4.014  10.209 -0.3243  0.3793 -0.5204
  300TMC3    C4 4517   0.258   3.884  10.436  0.3046 -1.4229  0.1282
  300TMC3    C5 4518   0.128   3.899  10.404 -0.4094  0.5205  0.1024
  300TMC3    C6 4519   0.086   3.958  10.292  0.6561 -0.1052  0.1591
  300TMC3     C 4520   0.470   3.984  10.414 -0.2855  0.4989  0.0239
  300TMC3     O 4521   0.501   3.914  10.513 -0.2276  0.2293 -0.6670
  300TMC3     H 4522   0.375   4.044  10.156  0.0931 -0.2903 -0.1898
  300TMC3    H1 4523   0.289   3.844  10.532 -0.5767 -0.1344  0.9521
  300TMC3    H2 4524   4.712   3.935  10.253 -0.1403 -0.2031  2.1852
  300TMC3    C7 4525   0.041   3.852  10.511 -0.3775  0.1682 -0.1566
  300TMC3    C8 4526   0.125   4.102  10.104 -0.2341  0.2721  0.2992
  300TMC3    O1 4527   0.095   3.788  10.604 -0.2602 -0.5989 -0.0603
  300TMC3    O2 4528   0.198   4.124  10.009 -0.3114 -0.7605  0.1583
  301MPD2     C 4529   2.697   0.668   1.592  0.0161 -0.6310 -0.1968
  301MPD2    C1 4530   2.589   0.686   1.504 -0.1289  0.4213  0.4242
  301MPD2    C2 4531   2.579   0.600   1.396 -0.1469 -0.5369  0.5667
  301MPD2    C3 4532   2.670   0.495   1.377 -0.0129  0.3297  0.7292
  301MPD2    C4 4533   2.768   0.469   1.474 -0.1180  0.7465 -0.3487
  301MPD2    C5 4534   2.783   0.560   1.579  0.0700  0.1640 -0.0875
  301MPD2     H 4535   2.495   0.619   1.330  0.8296 -1.3245 -0.9046
  301MPD2    H1 4536   2.832   0.382   1.471 -1.5351 -0.3041  0.2008
  301MPD2    H2 4537   2.715   0.740   1.670  1.4849 -0.8793 -0.3035
  301MPD2    H3 4538   2.865   0.559   1.650 -0.2582 -2.2098  0.2431
  301MPD2     N 4539   2.667   0.410   1.263  0.2398 -0.3675  0.4559
  301MPD2    H5 4540   2.736   0.337   1.273  1.6946  1.0634  1.0304
  301MPD2    N1 4541   2.497   0.792   1.518 -0.3729  0.1841  0.8125
  301MPD2    H7 4542   2.422   0.797   1.449  0.3463 -1.0814 -0.0626
  302TMC3    C1 4543   2.609   0.319   1.046 -0.3237 -0.8820  0.6852
  302TMC3    C2 4544   2.725   0.245   1.033  0.8474  0.4920  0.3288
  302TMC3    C3 4545   2.752   0.189   0.911  0.2055  0.6756 -0.2774
  302TMC3    C4 4546   2.514   0.320   0.941 -0.0709  0.5426 -0.7378
  302TMC3    C5 4547   2.552   0.270   0.822  0.1651 -0.2936 -0.0093
  302TMC3    C6 4548   2.667   0.199   0.805 -0.0214 -0.1986 -0.0343
  302TMC3     C 4549   2.580   0.416   1.154 -0.3720  0.3565  0.8580
  302TMC3     O 4550   2.491   0.499   1.126  0.2592  0.1497 -0.4937
  302TMC3     H 4551   2.806   0.252   1.104 -0.2441  2.3567  1.3832
  302TMC3    H1 4552   2.420   0.370   0.961 -0.1126  0.2045 -0.0904
  302TMC3    H2 4553   2.689   0.142   0.716  0.1368  0.2308 -0.2719
  302TMC3    C7 4554   2.457   0.281   0.709  0.9158 -0.2169 -0.8119
  302TMC3    C8 4555   2.871   0.110   0.892  0.2297  0.0203 -0.5673
  302TMC3    O1 4556   2.469   0.204   0.611  0.1036 -0.1999 -0.3210
  302TMC3    O2 4557   2.924   0.099   0.785  0.8690 -0.2864  0.2719
  303MPD2     C 4558   2.052   3.326  11.457  0.3268 -1.0383  0.4865
  303MPD2    C1 4559   2.102   3.239  11.367  0.4154 -0.8688  0.3316
  303MPD2    C2 4560   2.094   3.275  11.235 -0.2299 -0.2567 -0.5751
  303MPD2    C3 4561   2.023   3.387  11.193 -0.3085  0.4203 -0.5544
  303MPD2    C4 4562   1.985   3.480  11.284  0.9869 -0.3935 -0.1743
  303MPD2    C5 4563   1.999   3.446  11.417  0.7332  0.1184  0.5338
  303MPD2     H 4564   2.126   3.207  11.156  1.3742  0.2914 -0.4083
  303MPD2    H1 4565   1.943   3.574  11.249 -0.0631 -0.4564  0.9122
  303MPD2    H2 4566   2.066   3.306  11.562  1.0532 -4.0609 -0.1731
  303MPD2    H3 4567   1.961   3.521  11.486 -0.9663  0.6168 -0.9463
  303MPD2     N 4568   2.020   3.435  11.059 -0.4618 -0.2990 -0.3802
  303MPD2    H5 4569   1.976   3.524  11.037  2.0604  0.4860 -2.2044
  303MPD2    N1 4570   2.141   3.113  11.411  0.0911  0.0011 -0.3716
  303MPD2    H7 4571   2.115   3.090  11.506  0.0441  1.6988  0.0284
  304TMC3    C1 4572   2.235   2.895  11.382 -0.7727  0.3793  1.1885
  304TMC3    C2 4573   2.115   2.847  11.439 -0.5486 -0.3474 -0.3813
  304TMC3    C3 4574   2.098   2.713  11.432  0.0879 -0.0402  0.5391
  304TMC3    C4 4575   2.334   2.815  11.324 -0.4490 -0.0596 -0.2649
  304TMC3    C5 4576   2.316   2.679  11.331  0.1928 -0.4201 -0.0390
  304TMC3    C6 4577   2.203   2.623  11.401  0.6786 -0.1865 -0.5472
  304TMC3     C 4578   2.236   3.035  11.343 -0.1834 -0.0010  0.3904
  304TMC3     O 4579   2.297   3.057  11.241 -0.4981 -0.5152  0.5598
  304TMC3     H 4580   2.026   2.908  11.448 -1.0496 -1.1640  0.1058
  304TMC3    H1 4581   2.409   2.862  11.261  0.2670 -0.6243  0.1767
  304TMC3    H2 4582   2.181   2.518  11.386 -1.2124 -0.0704  1.4870
  304TMC3    C7 4583   2.333   2.605  11.207 -0.3990 -0.0382  0.3341
  304TMC3    C8 4584   1.962   2.674  11.383  0.4955 -0.1869 -0.0986
  304TMC3    O1 4585   2.225   2.574  11.159  0.2344 -0.2099 -0.1697
  304TMC3    O2 4586   1.873   2.730  11.440 -0.0585 -0.7144  0.1223
  305MPD2     C 4587   0.513   1.106  13.869 -0.4193  0.6927  0.4797
  305MPD2    C1 4588   0.634   1.054  13.882 -0.0421  0.0768  0.4568
  305MPD2    C2 4589   0.675   0.956  13.793  0.0103  0.5640  0.1591
  305MPD2    C3 4590   0.577   0.910  13.698 -0.1977  0.8677  0.6431
  305MPD2    C4 4591   0.451   0.965  13.684  0.3158  0.3982 -0.5755
  305MPD2    C5 4592   0.419   1.056  13.780  0.5410 -0.1728  0.1043
  305MPD2     H 4593   0.776   0.917  13.789  0.0986  0.8131 -0.0667
  305MPD2    H1 4594   0.372   0.947  13.612  0.1242  0.9624 -0.5078
  305MPD2    H2 4595   0.484   1.193  13.927 -1.4237  0.7651 -0.1271
  305MPD2    H3 4596   0.324   1.108  13.772  0.7835  0.0782 -1.0444
  305MPD2     N 4597   0.618   0.834  13.590  0.2014 -0.3846  0.3747
  305MPD2    H5 4598   0.566   0.846  13.504  1.1531  1.8594  0.1179
  305MPD2    N1 4599   0.720   1.118  13.978 -0.1314  0.0458  0.5774
  305MPD2    H7 4600   0.682   1.187  14.042  0.4358  2.8223 -2.0707
  306TMC3    C1 4601   0.923   1.157  14.107 -0.3851  0.2972 -0.5626
  306TMC3    C2 4602   1.045   1.111  14.131  0.9731  0.1421  0.1152
  306TMC3    C3 4603   1.098   1.122  14.254  0.0340  0.5109 -0.3575
  306TMC3    C4 4604   0.845   1.212  14.203  0.2293 -0.6517  0.5954
  306TMC3    C5 4605   0.915   1.245  14.315 -0.6393  0.1761 -0.7371
  306TMC3    C6 4606   1.034   1.187  14.355  0.3606 -0.5576 -0.5764
  306TMC3     C 4607   0.861   1.102  13.987 -0.2637  0.8131 -0.9255
  306TMC3     O 4608   0.933   1.029  13.915  0.1126 -0.0769  0.0600
  306TMC3     H 4609   1.093   1.061  14.048  1.1505  1.4660 -0.5680
  306TMC3    H1 4610   0.753   1.265  14.181  0.5349 -0.7638 -0.9511
  306TMC3    H2 4611   1.079   1.195  14.453  0.1966 -0.6101 -0.4964
  306TMC3    C7 4612   0.855   1.343  14.398 -0.0397 -0.4754 -0.3611
  306TMC3    C8 4613   1.209   1.034  14.285  0.6392 -0.2355 -0.6139
  306TMC3    O1 4614   0.798   1.431  14.334 -0.1897 -0.4756 -0.2504
  306TMC3    O2 4615   1.274   1.000  14.189  0.2797  0.3882  0.1461
  307MPD2     C 4616   3.356   3.229   0.650 -0.0013 -0.0719 -0.2021
  307MPD2    C1 4617   3.290   3.330   0.586  0.4430 -0.3573 -0.2781
  307MPD2    C2 4618   3.162   3.356   0.629  0.0131  0.2315  0.0642
  307MPD2    C3 4619   3.090   3.267   0.712  0.1238  0.0257  0.1446
  307MPD2    C4 4620   3.155   3.155   0.766  0.0399  0.2246 -0.7533
  307MPD2    C5 4621   3.286   3.146   0.729 -0.6538  0.0219 -0.1627
  307MPD2     H 4622   3.108   3.437   0.581 -0.6149  1.3563  2.6540
  307MPD2    H1 4623   3.106   3.081   0.828 -0.4415  0.1451 -1.2216
  307MPD2    H2 4624   3.457   3.195   0.628 -0.8786 -1.4006 -2.1388
  307MPD2    H3 4625   3.329   3.053   0.766  2.2626  0.7623 -1.7235
  307MPD2     N 4626   2.958   3.295   0.738 -0.3076 -0.7828 -0.2758
  307MPD2    H5 4627   2.923   3.378   0.691 -0.5595 -0.2640  0.8347
  307MPD2    N1 4628   3.343   3.406   0.481 -0.0014  0.3686  0.1882
  307MPD2    H7 4629   3.282   3.478   0.445  1.2028  2.0384  1.4750
  308TMC3    C1 4630   2.630   3.497   0.825  0.0465  0.1003  0.3723
  308TMC3    C2 4631   2.677   3.574   0.929  0.3585  0.2911  0.0063
  308TMC3    C3 4632   2.776   3.524   1.007  0.1997 -0.1659  0.1385
  308TMC3    C4 4633   2.672   3.363   0.801 -0.0131 -0.3728  0.5160
  308TMC3    C5 4634   2.780   3.329   0.875 -0.4350 -0.1666  0.4449
  308TMC3    C6 4635   2.831   3.403   0.981  0.6114 -1.1682 -0.7476
  308TMC3     C 4636   2.512   3.537   0.752  0.0031  0.6387 -0.6233
  308TMC3     O 4637   2.431   3.449   0.730 -0.2073  0.5151  0.4259
  308TMC3     H 4638   2.613   3.659   0.950  1.1371  0.8602  0.0796
  308TMC3    H1 4639   2.633   3.297   0.724  3.0544  0.8458 -2.0842
  308TMC3    H2 4640   2.911   3.359   1.039 -0.2810 -0.5318  0.9557
  308TMC3    C7 4641   2.875   3.234   0.830  1.1341 -0.8586  0.2182
  308TMC3    C8 4642   2.874   3.615   1.060 -0.8826 -0.6897 -0.4010
  308TMC3    O1 4643   2.892   3.144   0.912  0.3422 -0.1629  0.3029
  308TMC3    O2 4644   2.965   3.565   1.125 -0.4094  0.2041 -0.7211
  309MPD2     C 4645   2.404   4.271  17.012  0.4176  0.1089  0.6988
  309MPD2    C1 4646   2.416   4.395  16.952 -0.1668  0.2778  0.4697
  309MPD2    C2 4647   2.339   4.498  17.002 -0.0984  0.6187 -0.3121
  309MPD2    C3 4648   2.249   4.474  17.104  1.2732 -0.3316  0.6482
  309MPD2    C4 4649   2.222   4.345  17.152  0.4172  0.3379  0.4089
  309MPD2    C5 4650   2.308   4.250  17.107  0.2765  0.5598 -0.0835
  309MPD2     H 4651   2.354   4.598  16.962 -1.1871  1.7880  2.2037
  309MPD2    H1 4652   2.144   4.330  17.225 -1.7025  0.1098 -1.9215
  309MPD2    H2 4653   2.461   4.184  16.982 -0.9184 -0.2182 -0.8876
  309MPD2    H3 4654   2.284   4.148  17.135  1.3931  0.0519 -0.9808
  309MPD2     N 4655   2.176   4.576  17.168  0.2358  0.1537 -0.5759
  309MPD2    H5 4656   2.109   4.545  17.237  1.4199 -0.0579  0.4786
  309MPD2    N1 4657   2.517   4.421  16.849 -0.4504 -0.1171  0.2357
  309MPD2    H7 4658   2.528   4.517  16.817  1.7734 -0.7693 -0.9284
  310TMC3    C1 4659   2.699   4.363  16.712  0.0683 -0.3055 -0.9369
  310TMC3    C2 4660   2.695   4.463  16.612 -0.6412 -0.4996 -0.6339
  310TMC3    C3 4661   2.805   4.454  16.519  0.4280 -0.0396 -0.0246
  310TMC3    C4 4662   2.798   4.278  16.732 -0.2811 -0.3281 -0.0172
  310TMC3    C5 4663   2.907   4.280  16.645  0.2113  0.3654  0.1480
  310TMC3    C6 4664   2.909   4.363  16.531  0.2822 -0.6008  0.3006
  310TMC3     C 4665   2.585   4.323  16.784 -0.2883 -0.1024  0.0030
  310TMC3     O 4666   2.567   4.203  16.778 -0.0781  0.6137  0.5400
  310TMC3     H 4667   2.608   4.524  16.589  0.0831  0.9176  0.4202
  310TMC3    H1 4668   2.798   4.214  16.819 -1.5685 -1.2016 -0.6638
  310TMC3    H2 4669   2.995   4.365  16.465 -0.5759 -1.2045 -0.8347
  310TMC3    C7 4670   3.020   4.203  16.683  0.1262  0.6437  0.1150
  310TMC3    C8 4671   2.829   4.561  16.428 -0.0142  0.2315  0.1129
  310TMC3    O1 4672   3.011   4.097  16.749 -0.6428  0.3655  0.9034
  310TMC3    O2 4673   2.947   4.577  16.409 -0.4664 -0.3166 -0.1711
  311MPD2     C 4674   4.613   0.691  12.755  0.4480 -0.6069  0.2793
  311MPD2    C1 4675   4.647   0.790  12.848  0.4585 -0.2055 -0.6264
  311MPD2    C2 4676   4.552   0.822  12.949 -0.4447 -0.4620 -0.3098
  311MPD2    C3 4677   4.427   0.756  12.944  0.7628  0.4592  0.7662
  311MPD2    C4 4678   4.412   0.648  12.858 -0.1483 -0.8875 -0.3546
  311MPD2    C5 4679   4.503   0.619  12.766  0.3604 -0.7487  0.3116
  311MPD2     H 4680   4.561   0.904  13.020 -0.3159 -0.4837 -0.3015
  311MPD2    H1 4681   4.321   0.591  12.844 -0.9397  0.2793  0.0996
  311MPD2    H2 4682   4.685   0.655  12.683  0.1288 -0.6922  0.0041
  311MPD2    H3 4683   4.483   0.533  12.702 -2.7456 -0.0986  0.3979
  311MPD2     N 4684   4.314   0.811  13.017 -0.3084 -0.0084 -0.0147
  311MPD2    H5 4685   4.336   0.892  13.073  2.4413 -1.3585  0.8751
  311MPD2    N1 4686   0.038   0.863  12.836 -0.1251  1.1136  0.5683
  311MPD2    H7 4687   0.041   0.934  12.908  2.2835  0.7786  0.8237
  312TMC3    C1 4688   4.084   0.860  13.041 -0.0948 -0.2637  0.9442
  312TMC3    C2 4689   3.962   0.841  12.988  0.1819  0.2969 -0.6706
  312TMC3    C3 4690   3.881   0.951  12.988 -0.1944 -0.7422  0.3895
  312TMC3    C4 4691   4.121   0.977  13.104 -0.2291  0.5865  0.6083
  312TMC3    C5 4692   4.033   1.080  13.105  0.4199  0.1154 -0.2320
  312TMC3    C6 4693   3.919   1.076  13.029  0.4508 -0.3976  0.1378
  312TMC3     C 4694   4.184   0.765  12.995 -0.9786 -0.2822  0.4178
  312TMC3     O 4695   4.147   0.664  12.938 -0.5552  0.2695 -0.1045
  312TMC3     H 4696   3.929   0.745  12.949  2.2265 -0.8564  0.4495
  312TMC3    H1 4697   4.216   0.977  13.157  0.4362  1.8105 -0.5784
  312TMC3    H2 4698   3.846   1.155  13.042  0.4420  0.0114 -2.4393
  312TMC3    C7 4699   4.036   1.177  13.208  0.2550  0.4531  0.0121
  312TMC3    C8 4700   3.774   0.941  12.883  0.3299  0.1611  0.4554
  312TMC3    O1 4701   4.003   1.291  13.179  0.5801 -0.0760  0.4388
  312TMC3    O2 4702   3.734   0.824  12.873  0.3261 -0.0892 -0.0008
  313MPD2     C 4703   3.490   4.539  10.945 -0.4753 -0.5432  0.1854
  313MPD2    C1 4704   3.597   4.555  10.861  0.7716 -1.0192  0.4392
  313MPD2    C2 4705   3.629   4.458  10.763  0.1572 -0.0051  0.5164
  313MPD2    C3 4706   3.542   4.357  10.745  0.6722 -0.2157  0.1825
  313MPD2    C4 4707   3.440   4.330  10.831  0.3420 -0.5856  0.0626
  313MPD2    C5 4708   3.412   4.427  10.928 -0.0763 -0.8407 -0.2550
  313MPD2     H 4709   3.708   4.469  10.690  0.0535  0.6482  0.5070
  313MPD2    H1 4710   3.381   4.240  10.842  0.5249 -0.7633 -0.4008
  313MPD2    H2 4711   3.472   4.601  11.032  2.6403 -1.0288  1.1789
  313MPD2    H3 4712   3.320   4.407  10.981  0.0939 -0.6707  0.0997
  313MPD2     N 4713   3.570   4.262  10.639  0.0926  0.0842  1.0399
  313MPD2    H5 4714   3.655   4.289  10.592  1.0936 -1.9736  1.6670
  313MPD2    N1 4715   3.678   4.670  10.864 -0.7642 -0.9583  0.2489
  313MPD2    H7 4716   3.758   4.674  10.802 -1.0836  0.1609 -0.0764
  314TMC3    C1 4717   3.735   0.170  10.883  0.0775 -1.0710 -0.5609
  314TMC3    C2 4718   3.838   0.220  10.961 -0.4553 -0.4179 -0.2661
  314TMC3    C3 4719   3.951   0.263  10.896  0.4010 -0.4462 -0.3256
  314TMC3    C4 4720   3.761   0.153  10.747  0.0178 -0.1151  0.9499
  314TMC3    C5 4721   3.881   0.192  10.692  0.4224  0.2064  0.4563
  314TMC3    C6 4722   3.976   0.244  10.768 -0.3160 -0.3266 -0.6354
  314TMC3     C 4723   3.659   0.058  10.938 -0.8651  0.3784  0.4431
  314TMC3     O 4724   3.620   0.064  11.051  0.3858 -0.4876 -1.0340
  314TMC3     H 4725   3.830   0.224  11.069  0.3141 -2.4717 -0.1367
  314TMC3    H1 4726   3.681   0.103  10.694  0.4059 -1.1432  1.3417
  314TMC3    H2 4727   4.070   0.278  10.727 -0.2588  1.0632  0.6487
  314TMC3    C7 4728   3.929   0.081  10.615 -0.6432  0.5500 -0.0003
  314TMC3    C8 4729   4.030   0.376  10.944  0.1518  0.6722 -0.0251
  314TMC3    O1 4730   3.865   4.706  10.640  0.1063  0.0155 -0.0729
  314TMC3    O2 4731   4.091   0.445  10.865 -0.1302  0.1463  0.7921
  315MPD2     C 4732   3.734   4.402  17.206 -0.7076 -0.6009  0.6564
  315MPD2    C1 4733   3.824   4.448  17.296 -0.8968 -1.0882  0.2603
  315MPD2    C2 4734   3.903   4.551  17.264 -0.4407 -0.0671  0.3358
  315MPD2    C3 4735   3.882   4.626  17.152  0.0837 -0.6908  0.3317
  315MPD2    C4 4736   3.790   4.572  17.060  0.1594  0.2958 -0.2794
  315MPD2    C5 4737   3.728   4.456  17.085  0.3070  0.6249  0.0619
  315MPD2     H 4738   3.974   4.586  17.338 -1.5960 -0.6647  1.7382
  315MPD2    H1 4739   3.766   4.623  16.968 -1.8805 -1.9640 -0.9831
  315MPD2    H2 4740   3.687   4.304  17.215  2.6971 -2.2303  0.4256
  315MPD2    H3 4741   3.659   4.415  17.012  2.3447 -0.9897 -0.9697
  315MPD2     N 4742   3.958   0.018  17.123  0.4854  0.5656  0.0109
  315MPD2    H5 4743   4.018   0.050  17.199 -0.2829  1.5378  0.2166
  315MPD2    N1 4744   3.861   4.380  17.415  0.5489  0.2332  0.3269
  315MPD2    H7 4745   3.943   4.410  17.466 -0.7794 -0.7963  3.0679
  316TMC3    C1 4746   4.009   0.223  17.050  0.3042 -0.3044  0.1238
  316TMC3    C2 4747   4.144   0.212  17.102  0.1796 -0.2444 -0.3209
  316TMC3    C3 4748   4.223   0.325  17.106  0.7198  0.8250 -0.1205
  316TMC3    C4 4749   3.963   0.344  17.000  0.3464  0.1211 -0.5244
  316TMC3    C5 4750   4.047   0.452  17.012  0.2292  0.0622  0.7575
  316TMC3    C6 4751   4.174   0.447  17.068 -0.1510 -0.4526 -0.4542
  316TMC3     C 4752   3.940   0.106  17.020 -0.1465  0.3817 -0.2190
  316TMC3     O 4753   3.864   0.107  16.920 -0.8747 -0.0723 -0.2910
  316TMC3     H 4754   4.175   0.121  17.151 -0.0380 -0.1081  0.0628
  316TMC3    H1 4755   3.865   0.340  16.954 -0.2316 -2.0702  0.9042
  316TMC3    H2 4756   4.234   0.536  17.076 -1.6294  0.7839 -3.0657
  316TMC3    C7 4757   4.014   0.571  16.934  0.0043  0.1550 -0.9251
  316TMC3    C8 4758   4.304   0.355  17.230  0.6026  0.4857 -0.2409
  316TMC3    O1 4759   4.084   0.672  16.952 -0.0847  0.2969 -0.0863
  316TMC3    O2 4760   4.274   0.460  17.281 -0.3538 -0.3916  0.4587
  317MPD2     C 4761   0.677   2.910  12.847  0.0827 -0.2251 -0.1321
  317MPD2    C1 4762   0.719   2.775  12.826 -0.7452  0.1530 -0.7790
  317MPD2    C2 4763   0.819   2.733  12.913 -0.8771  0.2348  0.6300
  317MPD2    C3 4764   0.869   2.810  13.016 -0.3754 -0.6849 -0.0285
  317MPD2    C4 4765   0.823   2.935  13.029 -0.1134 -0.7456 -0.6135
  317MPD2    C5 4766   0.738   2.991  12.938  0.6370  0.7207  0.1853
  317MPD2     H 4767   0.861   2.634  12.898 -0.0692  0.5802  0.6233
  317MPD2    H1 4768   0.860   2.989  13.115  0.4043 -1.5721 -0.3248
  317MPD2    H2 4769   0.623   2.963  12.770  2.4105  0.7717 -1.0831
  317MPD2    H3 4770   0.715   3.096  12.948  2.9219  1.4262 -2.0179
  317MPD2     N 4771   0.965   2.751  13.100  0.1490 -0.9457  0.1267
  317MPD2    H5 4772   0.981   2.654  13.078 -1.6110 -0.8904 -1.4400
  317MPD2    N1 4773   0.688   2.693  12.719  0.1714 -0.2960 -0.0968
  317MPD2    H7 4774   0.728   2.600  12.718  1.3455  0.2041  0.2752
  318TMC3    C1 4775   1.072   2.723  13.307  0.5121  0.2660  0.2042
  318TMC3    C2 4776   1.011   2.598  13.314 -0.0517 -0.4106 -0.4593
  318TMC3    C3 4777   1.046   2.517  13.417  0.2987 -0.5047 -0.6150
  318TMC3    C4 4778   1.165   2.761  13.397 -0.2953 -0.2004 -0.0403
  318TMC3    C5 4779   1.201   2.666  13.492 -0.1172  0.2945 -0.2954
  318TMC3    C6 4780   1.131   2.555  13.510  0.0646  0.0990 -0.2545
  318TMC3     C 4781   1.027   2.818  13.200 -0.0613  0.5424  0.7857
  318TMC3     O 4782   1.043   2.940  13.238  0.1617  0.3290  0.6424
  318TMC3     H 4783   0.945   2.568  13.233 -1.6460  2.8838 -0.3560
  318TMC3    H1 4784   1.221   2.855  13.393 -0.9761  0.1987 -0.1417
  318TMC3    H2 4785   1.156   2.490  13.594 -1.0238 -1.4840 -1.1426
  318TMC3    C7 4786   1.297   2.711  13.586  0.3014  0.3581  0.1756
  318TMC3    C8 4787   0.971   2.396  13.441  0.3386 -0.0566 -1.2336
  318TMC3    O1 4788   1.335   2.829  13.588  0.3142  0.6562 -0.0308
  318TMC3    O2 4789   1.012   2.320  13.524 -0.1272  0.5631 -0.3382
  319MPD2     C 4790   2.001   4.226  16.709  0.1814  1.0013 -0.7522
  319MPD2    C1 4791   1.883   4.179  16.759 -0.6667  0.2203 -0.0178
  319MPD2    C2 4792   1.803   4.096  16.675  0.1621  0.6356  0.3009
  319MPD2    C3 4793   1.839   4.079  16.543  0.0578 -0.1162  0.6735
  319MPD2    C4 4794   1.957   4.126  16.494 -0.7147 -1.0081  0.6882
  319MPD2    C5 4795   2.040   4.198  16.575  0.0344  0.1521 -0.4550
  319MPD2     H 4796   1.708   4.062  16.714  0.3974 -0.2579  0.0965
  319MPD2    H1 4797   1.978   4.117  16.388 -1.6597  0.1145  0.3971
  319MPD2    H2 4798   2.069   4.278  16.776  1.3455 -2.9684  1.1712
  319MPD2    H3 4799   2.125   4.244  16.527  0.1988  2.4675  2.0622
  319MPD2     N 4800   1.749   4.027  16.444 -0.0461  0.0495  0.3300
  319MPD2    H5 4801   1.778   4.041  16.347 -0.3700 -1.4523  0.0157
  319MPD2    N1 4802   1.853   4.178  16.896 -1.3850  0.5310 -0.8630
  319MPD2    H7 4803   1.779   4.118  16.930 -1.1237 -0.2858 -1.7120
  320TMC3    C1 4804   1.545   3.961  16.367 -0.2501  0.0756 -0.1104
  320TMC3    C2 4805   1.529   4.071  16.283 -0.6139  0.8263 -0.5352
  320TMC3    C3 4806   1.418   4.075  16.198  0.2022 -0.2384  0.3245
  320TMC3    C4 4807   1.451   3.866  16.368 -0.2999  0.4036  0.8409
  320TMC3    C5 4808   1.346   3.874  16.283 -0.9164 -0.3615  0.4137
  320TMC3    C6 4809   1.330   3.974  16.193 -0.0075 -0.5713  0.3924
  320TMC3     C 4810   1.628   3.967  16.482 -0.5656  0.4207 -0.5552
  320TMC3     O 4811   1.586   3.910  16.581 -0.4243 -0.5531 -0.0227
  320TMC3     H 4812   1.607   4.146  16.272  1.1846 -1.0990 -0.9968
  320TMC3    H1 4813   1.480   3.778  16.424 -0.1654  0.3638  0.7102
  320TMC3    H2 4814   1.242   3.983  16.130 -1.1948 -1.1992  1.9562
  320TMC3    C7 4815   1.293   3.752  16.216  0.3806 -0.1277 -0.2353
  320TMC3    C8 4816   1.429   4.187  16.104  0.3620 -0.5627 -0.5924
  320TMC3    O1 4817   1.209   3.774  16.133 -0.3326  0.3014 -0.1014
  320TMC3    O2 4818   1.490   4.293  16.139 -0.4869  0.3537  0.3841
  321TMC3    C1 4819   1.859   4.248  17.121 -0.4328 -0.5899 -0.1050
  321TMC3    C2 4820   1.839   4.120  17.169  0.6956  0.0418  0.0961
  321TMC3    C3 4821   1.834   4.104  17.305 -0.0351 -0.3770  0.4964
  321TMC3    C4 4822   1.868   4.360  17.202 -0.0422  0.0101  0.5224
  321TMC3    C5 4823   1.856   4.340  17.340  0.1010 -0.6175  0.4764
  321TMC3    C6 4824   1.830   4.211  17.388 -0.0723 -0.8022  0.5107
  321TMC3     C 4825   1.905   4.266  16.985  0.7831  0.1584 -0.7136
  321TMC3     O 4826   1.966   4.368  16.965  1.1484  0.2242  0.0060
  321TMC3     H 4827   1.836   4.036  17.101 -0.5559 -0.6982  1.0713
  321TMC3    H1 4828   1.884   4.457  17.155 -2.5832 -1.0633 -2.5282
  321TMC3    H2 4829   1.817   4.193  17.494 -0.1048 -2.4415  0.2272
  321TMC3    C7 4830   1.959   4.413  17.418  1.1794  0.7502 -0.5091
  321TMC3    C8 4831   1.927   4.004  17.357 -0.0365  0.2288  0.5105
  321TMC3    O1 4832   1.996   4.521  17.373 -0.5938 -0.6132  0.1773
  321TMC3    O2 4833   1.976   4.033  17.466 -0.1506 -0.4669  0.2290
  322MPD2     C 4834   0.461   0.654  13.842  0.8185 -0.7641  0.7493
  322MPD2    C1 4835   0.560   0.580  13.890  0.2774 -0.0573  0.1144
  322MPD2    C2 4836   0.594   0.459  13.828  0.1633 -0.6241  0.3178
  322MPD2    C3 4837   0.521   0.414  13.719 -0.4248  0.2773 -0.6937
  322MPD2    C4 4838   0.424   0.498  13.666  0.0228  0.5014  0.7499
  322MPD2    C5 4839   0.391   0.617  13.729  0.0310  0.7140 -0.2149
  322MPD2     H 4840   0.677   0.394  13.852  1.2715 -0.0600 -1.9185
  322MPD2    H1 4841   0.371   0.470  13.575  0.3681 -0.4847  0.8477
  322MPD2    H2 4842   0.432   0.746  13.892  1.6301 -1.8854  3.2611
  322MPD2    H3 4843   0.303   0.666  13.689 -0.0284 -1.5365 -2.8685
  322MPD2     N 4844   0.540   0.281  13.668  0.0630  0.6713  0.0565
  322MPD2    H5 4845   0.590   0.212  13.724  1.0940  1.1162 -0.3104
  322MPD2    N1 4846   0.629   0.626  14.003  0.3050  0.3269  1.1140
  322MPD2    H7 4847   0.614   0.723  14.027 -2.2435  0.4201 -0.8545
  323TMC3    C1 4848   0.805   0.649  14.156 -0.4736 -1.0105  0.0776
  323TMC3    C2 4849   0.888   0.707  14.065  0.4872  0.2294 -0.2051
  323TMC3    C3 4850   1.017   0.726  14.106  0.2888 -0.3261 -0.2825
  323TMC3    C4 4851   0.846   0.613  14.285 -0.7501  0.7316  0.6224
  323TMC3    C5 4852   0.960   0.659  14.333  0.3785 -0.1635  0.6072
  323TMC3    C6 4853   1.046   0.700  14.238  0.0800 -0.3470  1.1495
  323TMC3     C 4854   0.708   0.563  14.086  0.6761 -0.2122  0.3751
  323TMC3     O 4855   0.744   0.444  14.089 -0.0904 -0.2302  0.5520
  323TMC3     H 4856   0.854   0.716  13.962 -1.7032  1.1830  0.6090
  323TMC3    H1 4857   0.776   0.583  14.363 -1.3666 -0.9432 -0.5795
  323TMC3    H2 4858   1.152   0.717  14.258  0.5397 -0.4702 -1.1350
  323TMC3    C7 4859   1.024   0.561  14.421  0.2600  0.6931  0.4567
  323TMC3    C8 4860   1.128   0.724  14.008  0.0955 -0.0448  0.0613
  323TMC3    O1 4861   1.051   0.453  14.365  0.0283  0.0716 -0.2423
  323TMC3    O2 4862   1.226   0.657  14.029 -0.3631  0.1698  0.3381
  324MPD2     C 4863   1.919   1.392  14.487  0.0319  0.0766 -0.5943
  324MPD2    C1 4864   1.896   1.526  14.522 -0.3497 -0.3474 -0.3058
  324MPD2    C2 4865   1.792   1.589  14.462  0.4974  0.4038  0.7180
  324MPD2    C3 4866   1.719   1.535  14.359 -0.5524 -0.3471  0.7653
  324MPD2    C4 4867   1.741   1.401  14.328  0.7077  0.4428 -0.0549
  324MPD2    C5 4868   1.844   1.337  14.395 -0.6379 -0.1882  0.0247
  324MPD2     H 4869   1.771   1.691  14.492 -0.2916  0.0832  1.2364
  324MPD2    H1 4870   1.681   1.342  14.260  2.7346  0.7429 -2.0855
  324MPD2    H2 4871   1.992   1.325  14.530 -0.7860 -1.3827 -1.4719
  324MPD2    H3 4872   1.872   1.233  14.378  2.1144  0.7073 -0.9949
  324MPD2     N 4873   1.619   1.599  14.287 -0.0248  0.1389 -0.2267
  324MPD2    H5 4874   1.561   1.535  14.235  3.1077 -1.7845 -1.3635
  324MPD2    N1 4875   1.982   1.599  14.615  0.5043 -0.5301 -0.2919
  324MPD2    H7 4876   1.969   1.697  14.635 -0.7354 -0.8180  0.3165
  325TMC3    C1 4877   1.450   1.748  14.242 -0.7146 -0.0592 -0.9106
  325TMC3    C2 4878   1.367   1.640  14.237 -0.6058 -0.7093 -0.5140
  325TMC3    C3 4879   1.236   1.651  14.216 -0.6507 -0.0095  0.2090
  325TMC3    C4 4880   1.403   1.874  14.230  0.0604  0.3600  0.4532
  325TMC3    C5 4881   1.261   1.885  14.215 -0.4123 -0.0250 -0.1361
  325TMC3    C6 4882   1.178   1.774  14.202  0.1762  0.2378 -0.1989
  325TMC3     C 4883   1.573   1.727  14.305  0.1338 -0.3387 -0.2009
  325TMC3     O 4884   1.627   1.822  14.350 -0.0088 -0.1260 -0.3288
  325TMC3     H 4885   1.401   1.539  14.255 -1.4228 -0.8369  0.3197
  325TMC3    H1 4886   1.468   1.959  14.247 -0.7786  0.9749  0.5614
  325TMC3    H2 4887   1.078   1.787  14.163  0.3729  0.8117 -0.5266
  325TMC3    C7 4888   1.210   2.017  14.175  0.4159 -0.9515  0.1401
  325TMC3    C8 4889   1.178   1.541  14.149  0.0788  0.3893 -0.6671
  325TMC3    O1 4890   1.095   2.015  14.130  0.0636 -0.5759  0.0876
  325TMC3    O2 4891   1.263   1.464  14.102  0.3836  0.2145 -0.0712
  326MPD2     C 4892   3.849   2.151  11.484  0.2911  0.0395  0.6656
  326MPD2    C1 4893   3.780   2.214  11.387  0.1253  0.3499 -0.1998
  326MPD2    C2 4894   3.827   2.342  11.353 -0.1024 -0.5694 -0.2658
  326MPD2    C3 4895   3.928   2.406  11.421 -0.3932  0.2855 -0.3865
  326MPD2    C4 4896   3.991   2.343  11.523  0.2998 -0.0156  0.1765
  326MPD2    C5 4897   3.956   2.215  11.542  0.8018 -0.3117 -0.3433
  326MPD2     H 4898   3.778   2.400  11.276  1.2386 -0.8183 -1.3068
  326MPD2    H1 4899   4.068   2.392  11.581  1.8695 -0.4277 -1.5442
  326MPD2    H2 4900   3.827   2.047  11.504  0.2171  0.4098  2.5217
  326MPD2    H3 4901   4.015   2.166  11.619 -1.4553 -1.8423  0.3863
  326MPD2     N 4902   3.976   2.534  11.392  0.3316  0.2445 -0.2733
  326MPD2    H5 4903   4.034   2.578  11.462 -1.1554 -0.3612  1.3394
  326MPD2    N1 4904   3.668   2.161  11.311  0.0453 -0.1268  0.6325
  326MPD2    H7 4905   3.623   2.226  11.247 -0.6183  0.0759  1.2962
  327TMC3    C1 4906   3.528   2.015  11.204  0.0313 -0.1824 -0.1300
  327TMC3    C2 4907   3.450   2.123  11.171  1.0827 -0.6013 -0.0070
  327TMC3    C3 4908   3.416   2.140  11.035  0.1037  0.2996 -0.6107
  327TMC3    C4 4909   3.579   1.932  11.110 -1.0818 -0.2916  0.6113
  327TMC3    C5 4910   3.555   1.964  10.980  0.2863 -0.2491 -0.3040
  327TMC3    C6 4911   3.459   2.053  10.937 -0.0914 -0.1442  0.5747
  327TMC3     C 4912   3.624   2.033  11.309  0.0433  0.5712  0.2910
  327TMC3     O 4913   3.667   1.926  11.352 -0.4029  0.2233 -0.2172
  327TMC3     H 4914   3.412   2.183  11.253 -0.1236  0.0101 -1.0000
  327TMC3    H1 4915   3.658   1.862  11.134 -1.1734 -0.7205 -0.3649
  327TMC3    H2 4916   3.435   2.086  10.837  0.2623 -1.4868  0.0484
  327TMC3    C7 4917   3.673   1.993  10.897 -0.0587  0.5166  0.4810
  327TMC3    C8 4918   3.341   2.257  10.988 -0.8171  0.7013 -0.4643
  327TMC3    O1 4919   3.653   2.040  10.788  0.5963  0.4766 -0.5845
  327TMC3    O2 4920   3.343   2.291  10.873 -0.1057  0.7506 -0.2200
  328MPD2     C 4921   1.564   3.119  16.920  0.2564 -0.7982  0.3693
  328MPD2    C1 4922   1.499   3.040  16.828 -0.3863 -0.1727  0.5083
  328MPD2    C2 4923   1.420   3.099  16.732 -0.2989 -0.1817  0.2811
  328MPD2    C3 4924   1.405   3.239  16.725  0.3948  0.2205 -0.0712
  328MPD2    C4 4925   1.462   3.314  16.831  0.4173 -0.7002 -0.0950
  328MPD2    C5 4926   1.554   3.250  16.912  0.5089 -0.1197 -0.1911
  328MPD2     H 4927   1.354   3.041  16.668 -0.6576  1.5543 -0.9393
  328MPD2    H1 4928   1.450   3.421  16.824 -3.2076 -1.0942  0.1991
  328MPD2    H2 4929   1.625   3.072  16.996  1.1106  1.5439  1.1361
  328MPD2    H3 4930   1.607   3.320  16.976 -2.7689  3.0616 -0.9266
  328MPD2     N 4931   1.316   3.306  16.645  0.4566 -0.3254 -0.3242
  328MPD2    H5 4932   1.335   3.405  16.632  0.8876  0.0676  3.3283
  328MPD2    N1 4933   1.522   2.900  16.838  0.2539  0.5108 -0.6032
  328MPD2    H7 4934   1.550   2.866  16.929 -0.0217  0.0067 -0.7041
  329TMC3    C1 4935   1.475   2.673  16.791  0.0779  0.2941 -0.3476
  329TMC3    C2 4936   1.356   2.614  16.768  0.1334 -0.1699 -0.2746
  329TMC3    C3 4937   1.324   2.510  16.848  0.2965 -0.4612 -0.4863
  329TMC3    C4 4938   1.549   2.639  16.899 -0.2403  0.0462 -0.1472
  329TMC3    C5 4939   1.521   2.529  16.972 -0.6303  0.7032 -0.7429
  329TMC3    C6 4940   1.406   2.462  16.944  0.2851  0.3552  0.2458
  329TMC3     C 4941   1.467   2.813  16.749  0.5488  0.2452 -0.6706
  329TMC3     O 4942   1.426   2.831  16.636  0.1696 -0.1460  0.3684
  329TMC3     H 4943   1.297   2.651  16.685  0.8062  1.0427 -0.2207
  329TMC3    H1 4944   1.649   2.680  16.906 -0.8358  1.2072  1.5277
  329TMC3    H2 4945   1.370   2.371  16.990  0.4227  0.2583  0.1605
  329TMC3    C7 4946   1.609   2.494  17.079  0.5677 -0.2112 -0.2394
  329TMC3    C8 4947   1.203   2.443  16.817  0.4677  1.0233  0.0853
  329TMC3    O1 4948   1.674   2.584  17.133 -0.0755 -0.2502 -0.0819
  329TMC3    O2 4949   1.183   2.332  16.857  0.1050 -0.1912  0.0359
  330TMC3    C1 4950   4.147   1.959   9.492  0.2590 -0.3201  0.4545
  330TMC3    C2 4951   4.134   1.825   9.468  0.3901  0.4792  0.8003
  330TMC3    C3 4952   4.220   1.741   9.527 -0.5191 -0.3688 -0.1677
  330TMC3    C4 4953   4.243   2.005   9.573 -0.0439  0.0984  0.5180
  330TMC3    C5 4954   4.334   1.924   9.624 -0.5992  0.3089 -0.3858
  330TMC3    C6 4955   4.329   1.784   9.604  0.7192  0.2808  0.2030
  330TMC3     C 4956   4.028   2.043   9.484  0.2665 -0.4156 -0.0471
  330TMC3     O 4957   4.036   2.163   9.485  0.2552 -0.6362 -0.7089
  330TMC3     H 4958   4.056   1.791   9.400  1.1231  1.2709 -0.4418
  330TMC3    H1 4959   4.244   2.112   9.590 -0.0678  0.4010 -1.3173
  330TMC3    H2 4960   4.408   1.723   9.647  0.8782  1.5220  1.6608
  330TMC3    C7 4961   4.425   1.977   9.723 -0.3267  0.8462  0.1534
  330TMC3    C8 4962   4.239   1.618   9.458 -0.1558  0.3230  0.3299
  330TMC3    O1 4963   4.446   2.097   9.718  0.0722 -0.2166 -0.9401
  330TMC3    O2 4964   4.174   1.604   9.354 -0.9367  0.3999  0.4220
  331MPD2     C 4965   1.816   0.814  13.121  0.5444 -0.2518 -0.0694
  331MPD2    C1 4966   1.912   0.875  13.046  0.3085 -0.0145 -0.3901
  331MPD2    C2 4967   1.985   0.795  12.956 -0.1848  0.6343  0.3669
  331MPD2    C3 4968   1.949   0.667  12.928  0.0791  0.4319  0.2577
  331MPD2    C4 4969   1.849   0.608  13.001  0.3347  0.0521 -0.3849
  331MPD2    C5 4970   1.784   0.677  13.103 -0.3085 -0.5505 -0.2486
  331MPD2     H 4971   2.062   0.840  12.895 -1.4550 -0.6930 -2.2055
  331MPD2    H1 4972   1.824   0.503  12.987 -2.6961  0.5480  1.3555
  331MPD2    H2 4973   1.773   0.866  13.207  1.5372  0.0152  0.2693
  331MPD2    H3 4974   1.704   0.626  13.154  0.5108  0.3798  1.9606
  331MPD2     N 4975   2.001   0.616  12.810  0.2032  0.7353  0.6556
  331MPD2    H5 4976   2.064   0.672  12.754  0.6192 -0.9154 -0.5304
  331MPD2    N1 4977   1.930   1.014  13.051 -0.5124  0.2417  0.4512
  331MPD2    H7 4978   1.867   1.062  13.115 -0.0949  0.5069  0.6683
  332TMC3    C1 4979   2.076   0.449  12.667 -0.2436 -0.1393 -0.0652
  332TMC3    C2 4980   2.095   0.547  12.566 -0.3776  0.6432  0.4149
  332TMC3    C3 4981   2.203   0.529  12.486  0.3479 -0.5525  0.1763
  332TMC3    C4 4982   2.158   0.342  12.691 -0.2090  0.1550 -0.2970
  332TMC3    C5 4983   2.279   0.363  12.626 -0.6031  0.7906 -0.0524
  332TMC3    C6 4984   2.307   0.446  12.521  0.4105  0.4342 -0.2182
  332TMC3     C 4985   1.996   0.478  12.785 -0.9864 -0.6706 -0.1277
  332TMC3     O 4986   1.948   0.385  12.852 -0.7226 -0.5171  0.0942
  332TMC3     H 4987   2.019   0.619  12.537  0.8038  0.5199 -3.0441
  332TMC3    H1 4988   2.140   0.279  12.777 -0.0293  2.5062  1.4596
  332TMC3    H2 4989   2.392   0.424  12.457 -0.0805  0.9056 -1.0382
  332TMC3    C7 4990   2.391   0.290  12.684  0.2128  0.4485 -0.0267
  332TMC3    C8 4991   2.248   0.638  12.401  0.4341  0.3959 -0.0135
  332TMC3    O1 4992   2.359   0.182  12.735  0.5822 -0.4542  0.4191
  332TMC3    O2 4993   2.371   0.663  12.397  0.5225 -0.7200  0.3118
  333MPD2     C 4994   2.162   1.170  11.110  0.2221  0.2264 -0.3233
  333MPD2    C1 4995   2.249   1.075  11.060  0.6621  0.6088  0.7579
  333MPD2    C2 4996   2.267   0.955  11.120 -0.3753  0.2825 -0.3589
  333MPD2    C3 4997   2.192   0.922  11.235  0.4331  0.0299 -0.5804
  333MPD2    C4 4998   2.109   1.016  11.290 -0.7827  0.7910 -0.0074
  333MPD2    C5 4999   2.091   1.140  11.225  0.1879  0.7171  0.2443
  333MPD2     H 5000   2.325   0.879  11.070 -1.3465 -0.1144 -0.8975
  333MPD2    H1 5001   2.054   1.003  11.382 -2.6003 -0.0380 -1.2195
  333MPD2    H2 5002   2.150   1.268  11.065  1.4012  0.0933 -0.9344
  333MPD2    H3 5003   2.020   1.211  11.267 -0.8131 -0.2099  0.1547
  333MPD2     N 5004   2.194   0.789  11.281 -0.3744  0.1141 -0.0834
  333MPD2    H5 5005   2.239   0.720  11.221 -1.5627 -0.4180 -0.3492
  333MPD2    N1 5006   2.323   1.119  10.945 -0.4607 -0.8340 -0.1844
  333MPD2    H7 5007   2.306   1.217  10.929  0.3639 -0.4433  1.2791
  334TMC3    C1 5008   2.496   1.139  10.784 -0.7156 -0.1876 -0.0144
  334TMC3    C2 5009   2.606   1.084  10.727 -0.2406 -0.0632 -0.9383
  334TMC3    C3 5010   2.695   1.160  10.663 -0.0163  0.4758  0.3068
  334TMC3    C4 5011   2.465   1.270  10.771  0.0782 -0.1153  0.0729
  334TMC3    C5 5012   2.568   1.346  10.708 -0.3493 -0.0686 -0.0064
  334TMC3    C6 5013   2.678   1.293  10.644 -0.1222 -0.0336  0.2125
  334TMC3     C 5014   2.424   1.048  10.882  0.7416 -0.3833 -0.1663
  334TMC3     O 5015   2.466   0.936  10.901  0.1097 -0.1324  0.1044
  334TMC3     H 5016   2.618   0.976  10.735  1.0618  0.3204  1.9141
  334TMC3    H1 5017   2.384   1.312  10.830  0.1351  0.7127 -0.4400
  334TMC3    H2 5018   2.747   1.349  10.582  1.9746  0.1115  2.6542
  334TMC3    C7 5019   2.571   1.486  10.735 -0.5136 -0.6084 -0.6565
  334TMC3    C8 5020   2.773   1.088  10.562 -0.1183  0.6606 -0.0185
  334TMC3    O1 5021   2.675   1.533  10.768  0.1080  0.1116  0.1382
  334TMC3    O2 5022   2.717   0.995  10.504 -0.0314 -0.1333  0.4705
  335TMC3    C1 5023   2.002   2.885  17.026 -0.1580 -0.6783  0.0245
  335TMC3    C2 5024   1.955   2.758  16.990 -0.3094  0.0853  0.2416
  335TMC3    C3 5025   1.997   2.721  16.865 -0.3312  0.8111  0.2061
  335TMC3    C4 5026   2.087   2.958  16.949  0.6717  0.2334 -0.2232
  335TMC3    C5 5027   2.127   2.913  16.830 -0.0545  0.5645 -0.5607
  335TMC3    C6 5028   2.071   2.801  16.779 -0.0602 -0.4718 -0.7860
  335TMC3     C 5029   1.913   2.953  17.114  0.0809  0.3946  0.0745
  335TMC3     O 5030   1.843   2.877  17.180 -0.5774 -0.7397  0.4484
  335TMC3     H 5031   1.892   2.704  17.060 -3.6794  2.8996 -0.6531
  335TMC3    H1 5032   2.127   3.053  16.983 -3.3997  2.3572 -1.3619
  335TMC3    H2 5033   2.105   2.755  16.687 -0.6531 -3.3522  0.4372
  335TMC3    C7 5034   2.260   2.949  16.797  0.6884  0.6782  0.5497
  335TMC3    C8 5035   1.937   2.603  16.808 -0.9871  0.3840  0.4849
  335TMC3    O1 5036   2.319   2.995  16.895  0.2289  0.0305  0.3603
  335TMC3    O2 5037   1.885   2.613  16.697 -0.0029  0.0811 -0.8296
  336MPD2     C 5038   1.569   0.575  16.409  0.4190  0.3960  0.4520
  336MPD2    C1 5039   1.595   0.519  16.291 -0.3112  0.2565 -0.2339
  336MPD2    C2 5040   1.658   0.395  16.285  0.3141 -0.2230 -0.1544
  336MPD2    C3 5041   1.713   0.349  16.406 -0.3061 -0.4994 -0.4205
  336MPD2    C4 5042   1.681   0.406  16.529 -0.7037  0.0900  0.7960
  336MPD2    C5 5043   1.610   0.522  16.528  0.2676  0.3938  0.4880
  336MPD2     H 5044   1.661   0.332  16.197 -0.2754  1.8739 -1.7037
  336MPD2    H1 5045   1.723   0.361  16.619 -0.4940  0.1884  0.7472
  336MPD2    H2 5046   1.516   0.669  16.407 -0.7647 -0.3102 -0.6661
  336MPD2    H3 5047   1.573   0.582  16.610  0.7305  0.9390  0.2966
  336MPD2     N 5048   1.790   0.228  16.412 -0.2122  0.1714  0.4819
  336MPD2    H5 5049   1.815   0.189  16.503  0.3415  0.9262  0.6551
  336MPD2    N1 5050   1.537   0.584  16.177 -0.0145  0.7420  0.4821
  336MPD2    H7 5051   1.490   0.673  16.188  0.9413  1.3088 -0.0417
  337TMC3    C1 5052   1.467   0.632  15.955  0.0715  0.0698 -0.0942
  337TMC3    C2 5053   1.391   0.573  15.853 -1.1877  0.0358  0.5511
  337TMC3    C3 5054   1.294   0.653  15.802  0.6092  0.4609 -0.8675
  337TMC3    C4 5055   1.463   0.761  15.991  0.5661  0.6511 -0.4873
  337TMC3    C5 5056   1.377   0.839  15.912  0.0354 -0.4334 -0.8123
  337TMC3    C6 5057   1.291   0.785  15.821 -0.4339 -0.4864 -0.1696
  337TMC3     C 5058   1.534   0.538  16.046 -0.4165 -0.0188  0.5875
  337TMC3     O 5059   1.556   0.430  15.995  0.9058  0.0126  0.2673
  337TMC3     H 5060   1.399   0.469  15.824 -2.2221  0.1156 -0.0493
  337TMC3    H1 5061   1.516   0.809  16.073  0.0247  2.2244 -1.0584
  337TMC3    H2 5062   1.230   0.839  15.750  0.2917 -1.2404 -1.3767
  337TMC3    C7 5063   1.363   0.984  15.933  0.0790 -0.1601  0.0096
  337TMC3    C8 5064   1.204   0.601  15.700  0.4755 -0.5255 -0.3463
  337TMC3    O1 5065   1.249   1.032  15.933 -0.6142 -0.0792  0.3909
  337TMC3    O2 5066   1.236   0.497  15.652  0.4033  0.3929 -0.2512
  338MPD2     C 5067   2.499   4.672   1.060  0.2422 -0.7849  0.0228
  338MPD2    C1 5068   2.403   4.698   0.962  0.1818  0.2063 -0.1373
  338MPD2    C2 5069   2.300   0.065   1.000 -0.3531 -0.0927  0.0067
  338MPD2    C3 5070   2.302   0.124   1.125  0.4792 -0.5790 -0.4168
  338MPD2    C4 5071   2.406   0.094   1.210  0.3285  0.3883  0.2792
  338MPD2    C5 5072   2.501   0.002   1.183  0.1393 -0.3185  0.4209
  338MPD2     H 5073   2.224   0.080   0.925 -1.6529 -1.5864  1.0249
  338MPD2    H1 5074   2.423   0.154   1.299 -2.4515  0.7407  0.5732
  338MPD2    H2 5075   2.590   4.614   1.045  1.0051 -0.2921  2.6464
  338MPD2    H3 5076   2.580   4.698   1.251  0.8799 -2.9293 -1.5293
  338MPD2     N 5077   2.195   0.205   1.153 -0.2401 -0.0648 -0.2330
  338MPD2    H5 5078   2.120   0.192   1.086  0.2390 -0.9021 -0.5984
  338MPD2    N1 5079   2.386   4.633   0.841  0.1672 -0.3219  0.1185
  338MPD2    H7 5080   2.326   4.681   0.773 -0.2868 -2.8645 -1.2745
  339TMC3    C1 5081   2.036   0.326   1.284  0.9392 -0.0402 -0.1984
  339TMC3    C2 5082   1.985   0.338   1.408 -0.2483  0.2139 -0.5625
  339TMC3    C3 5083   1.855   0.374   1.417  0.3880  0.0495 -0.7800
  339TMC3    C4 5084   1.961   0.354   1.175 -0.2883 -0.2067 -0.0895
  339TMC3    C5 5085   1.837   0.403   1.189  0.4037  0.6952 -0.0793
  339TMC3    C6 5086   1.775   0.405   1.310  0.0456  0.0656  0.5000
  339TMC3     C 5087   2.173   0.270   1.271  0.3452 -0.6239 -0.3697
  339TMC3     O 5088   2.239   0.295   1.367  0.1407  0.5367  0.0818
  339TMC3     H 5089   2.056   0.318   1.487 -1.7444  1.6707  1.1687
  339TMC3    H1 5090   2.009   0.353   1.078  0.7626 -1.2748  0.4320
  339TMC3    H2 5091   1.672   0.432   1.330 -0.7833 -2.6614 -0.1687
  339TMC3    C7 5092   1.753   0.403   1.071  0.5813  0.2843 -0.2031
  339TMC3    C8 5093   1.812   0.380   1.559  0.3153  0.2431 -0.2546
  339TMC3    O1 5094   1.807   0.413   0.962  0.2939  0.5372  0.1494
  339TMC3    O2 5095   1.901   0.409   1.639  0.1045  1.1015  0.0927
  340MPD2     C 5096   2.024   2.150   9.966  0.7466  0.4357  0.1772
  340MPD2    C1 5097   2.043   2.042  10.053 -0.5029 -0.3026 -0.5528
  340MPD2    C2 5098   2.113   2.064  10.169  0.2319 -1.2953 -0.1194
  340MPD2    C3 5099   2.180   2.186  10.186  0.2483  0.6196  0.4759
  340MPD2    C4 5100   2.143   2.295  10.109  0.3931  0.2254 -0.0303
  340MPD2    C5 5101   2.071   2.271   9.990  0.2611 -0.4809 -0.5637
  340MPD2     H 5102   2.144   1.978  10.227 -1.0010 -2.1066 -0.6626
  340MPD2    H1 5103   2.172   2.398  10.124 -0.3033  0.6065 -1.3141
  340MPD2    H2 5104   1.966   2.146   9.875  0.7506 -1.3897  0.2690
  340MPD2    H3 5105   2.035   2.362   9.944 -0.2699  0.3716  1.5474
  340MPD2     N 5106   2.286   2.203  10.272  1.0166  0.2055  0.4169
  340MPD2    H5 5107   2.343   2.286  10.259  1.0625 -0.2725 -2.4042
  340MPD2    N1 5108   1.998   1.914  10.007  0.4169  0.6372 -0.0816
  340MPD2    H7 5109   1.995   1.914   9.906 -0.1374  1.0650 -0.0634
  341TMC3    C1 5110   1.959   1.682  10.008  0.3968  0.4563  0.1807
  341TMC3    C2 5111   1.872   1.596  10.069  0.0638  0.5348  0.2570
  341TMC3    C3 5112   1.843   1.483   9.996  0.4970  0.0474 -0.1318
  341TMC3    C4 5113   2.021   1.669   9.887  0.1277  0.0590 -0.3905
  341TMC3    C5 5114   1.983   1.558   9.818  0.1517  0.6219  0.3755
  341TMC3    C6 5115   1.902   1.460   9.869  0.5433  0.0031 -0.3509
  341TMC3     C 5116   1.995   1.803  10.081 -0.4566 -0.4396 -0.4753
  341TMC3     O 5117   1.999   1.792  10.204 -0.0655 -0.3038  0.0822
  341TMC3     H 5118   1.825   1.602  10.166 -0.9803  2.3047 -0.3702
  341TMC3    H1 5119   2.088   1.746   9.853 -0.7638  0.3655 -1.4493
  341TMC3    H2 5120   1.873   1.381   9.800 -0.5600  0.2602 -0.1706
  341TMC3    C7 5121   2.040   1.538   9.687  0.3044 -0.5302  0.0359
  341TMC3    C8 5122   1.767   1.373  10.055  0.4706 -0.1861 -0.7321
  341TMC3    O1 5123   2.141   1.593   9.661 -0.2019 -0.2426 -0.0510
  341TMC3    O2 5124   1.752   1.279   9.976  0.4116  0.4790  0.3691
  342MPD2     C 5125   4.715   0.885   0.016 -0.3684 -0.4012 -0.1519
  342MPD2    C1 5126   0.043   0.919  17.598  0.4975  0.0780  0.0379
  342MPD2    C2 5127   0.071   1.054  17.564  0.7946 -0.3200  0.0619
  342MPD2    C3 5128   0.048   1.154  17.656  0.1075  0.1024 -0.1834
  342MPD2    C4 5129   4.707   1.118   0.070  0.5500 -0.0414 -0.6253
  342MPD2    C5 5130   4.690   0.985   0.098  0.5805 -0.4392 -1.1680
  342MPD2     H 5131   0.110   1.082  17.467 -1.7148 -1.8646 -1.3777
  342MPD2    H1 5132   4.676   1.188   0.147 -0.5422 -0.5054 -0.6415
  342MPD2    H2 5133   4.694   0.782   0.043  0.9763 -0.6891 -0.1700
  342MPD2    H3 5134   4.642   0.967   0.193  4.6729  0.1209  1.0326
  342MPD2     N 5135   0.072   1.292  17.636  0.7018  0.6162  0.5552
  342MPD2    H5 5136   0.049   1.352   0.014  0.1736  0.2091  0.7058
  342MPD2    N1 5137   0.068   0.832  17.494  0.9294 -1.0322  0.3095
  342MPD2    H7 5138   0.091   0.873  17.405 -0.1903 -2.9000 -0.8587
  343TMC3    C1 5139   0.084   0.617  17.377 -0.6850 -0.0354 -0.4098
  343TMC3    C2 5140   0.164   0.678  17.280  0.1339  0.4614  0.7511
  343TMC3    C3 5141   0.204   0.603  17.175  0.1946  0.0323 -0.5593
  343TMC3    C4 5142   0.055   0.478  17.375  0.4218 -0.0245  0.1751
  343TMC3    C5 5143   0.088   0.413  17.255 -0.6970  0.4321  0.3195
  343TMC3    C6 5144   0.158   0.477  17.152 -0.2484 -0.3444  0.0160
  343TMC3     C 5145   0.059   0.687  17.499 -0.7620  0.7211 -0.0495
  343TMC3     O 5146   0.060   0.613  17.598  0.8371 -0.2685  0.6004
  343TMC3     H 5147   0.182   0.785  17.279 -1.1396  0.6628 -1.7906
  343TMC3    H1 5148   4.708   0.438  17.446  0.5696  1.1528  0.9810
  343TMC3    H2 5149   0.191   0.421  17.065  1.4585 -0.1873  0.5686
  343TMC3    C7 5150   0.035   0.277  17.235 -0.1832 -0.2249 -0.3373
  343TMC3    C8 5151   0.312   0.655  17.089 -0.2183  0.1935 -0.5941
  343TMC3    O1 5152   0.015   0.246  17.117 -0.3598  0.4930 -1.1193
  343TMC3    O2 5153   0.339   0.777  17.081  0.5814 -0.0836  0.0852
  344MPD2     C 5154   1.151   4.633  11.227  0.4213 -0.1039 -0.1887
  344MPD2    C1 5155   1.079   4.614  11.116 -0.0021 -0.0976  1.0171
  344MPD2    C2 5156   1.114   4.690  11.009 -0.7916 -0.5341  0.1432
  344MPD2    C3 5157   1.208   0.067  11.023  0.2228  0.0383 -0.2351
  344MPD2    C4 5158   1.270   0.098  11.141  0.4008 -0.0236 -0.2188
  344MPD2    C5 5159   1.237   0.018  11.242  0.4978  0.5380 -0.2266
  344MPD2     H 5160   1.067   4.675  10.913  1.5716 -1.1694 -0.9119
  344MPD2    H1 5161   1.347   0.174  11.149  0.2277  0.2384 -0.9596
  344MPD2    H2 5162   1.131   4.578  11.318  0.9337 -0.7609 -0.4671
  344MPD2    H3 5163   1.280   0.028  11.341 -1.8098 -0.5489  0.9022
  344MPD2     N 5164   1.252   0.153  10.915 -0.0237 -0.7749  0.2873
  344MPD2    H5 5165   1.337   0.206  10.933 -0.4287  1.0461 -3.1231
  344MPD2    N1 5166   0.976   4.523  11.109 -0.4923  0.5186 -0.2103
  344MPD2    H7 5167   0.952   4.508  11.012  2.2976  0.3086 -0.8831
  345TMC3    C1 5168   1.280   0.241  10.700  0.7056  0.3302  0.1428
  345TMC3    C2 5169   1.416   0.260  10.715  0.4992  0.0388 -0.1547
  345TMC3    C3 5170   1.473   0.345  10.619 -1.4386 -0.4223 -0.4559
  345TMC3    C4 5171   1.200   0.313  10.612  0.3440  0.0540  0.0475
  345TMC3    C5 5172   1.269   0.390  10.526  0.7734 -0.8300  0.3276
  345TMC3    C6 5173   1.397   0.428  10.541 -0.6041 -0.6820 -0.1948
  345TMC3     C 5174   1.207   0.143  10.785 -0.1831  0.1121  0.8729
  345TMC3     O 5175   1.107   0.090  10.737  0.8180 -0.0523  0.4823
  345TMC3     H 5176   1.476   0.210  10.790 -0.6028 -0.8679  0.1093
  345TMC3    H1 5177   1.095   0.286  10.607  0.4245  0.0188 -1.4869
  345TMC3    H2 5178   1.433   0.524  10.505  0.6665 -1.0115  0.2089
  345TMC3    C7 5179   1.197   0.501  10.470 -0.4396 -0.5483 -0.1316
  345TMC3    C8 5180   1.574   0.425  10.677 -0.0405 -0.5997 -0.1227
  345TMC3    O1 5181   1.226   0.606  10.525  0.3634 -0.4193 -0.6200
  345TMC3    O2 5182   1.578   0.473  10.789  0.6084 -0.0468 -0.0016
  346MPD2     C 5183   0.689   2.243  14.361 -0.2617 -0.2526 -0.2572
  346MPD2    C1 5184   0.797   2.209  14.279  0.0504  0.2389 -0.4313
  346MPD2    C2 5185   0.923   2.262  14.308 -0.8773 -0.0154  0.0124
  346MPD2    C3 5186   0.948   2.329  14.435  0.7444 -0.1675  0.3073
  346MPD2    C4 5187   0.839   2.356  14.511 -0.1816 -0.7188  0.2853
  346MPD2    C5 5188   0.710   2.318  14.476  0.2458  0.7062  0.5684
  346MPD2     H 5189   1.010   2.222  14.257 -2.2564 -1.9672 -0.8079
  346MPD2    H1 5190   0.849   2.435  14.585 -2.3525 -0.1405 -0.0530
  346MPD2    H2 5191   0.590   2.204  14.340 -1.2320  1.2752  1.4702
  346MPD2    H3 5192   0.623   2.333  14.538 -1.5566 -0.0837 -1.7506
  346MPD2     N 5193   1.068   2.392  14.465 -0.4047  0.6949 -0.0201
  346MPD2    H5 5194   1.133   2.401  14.387 -1.6441  2.0429 -0.9106
  346MPD2    N1 5195   0.792   2.123  14.170 -0.6158  0.3426 -0.5398
  346MPD2    H7 5196   0.886   2.114  14.133 -0.3162 -0.1853  0.3516
  347TMC3    C1 5197   1.248   2.451  14.589 -0.0874 -0.3954 -0.3550
  347TMC3    C2 5198   1.299   2.495  14.471 -0.0367  0.4870 -0.0828
  347TMC3    C3 5199   1.429   2.509  14.466 -0.3516  0.4401 -0.8631
  347TMC3    C4 5200   1.328   2.395  14.696 -0.2382  0.0253 -0.1982
  347TMC3    C5 5201   1.462   2.419  14.682 -0.2048 -0.0134 -0.3695
  347TMC3    C6 5202   1.518   2.469  14.563  0.9189  0.1140 -0.7403
  347TMC3     C 5203   1.106   2.417  14.592  0.3295  0.2248 -0.2533
  347TMC3     O 5204   1.056   2.373  14.694  0.3246 -0.6877 -0.3099
  347TMC3     H 5205   1.242   2.547  14.395 -0.2307  1.9476  1.0433
  347TMC3    H1 5206   1.283   2.352  14.785 -0.3228 -0.6399 -0.5664
  347TMC3    H2 5207   1.623   2.486  14.541  1.1340  2.4493  2.0716
  347TMC3    C7 5208   1.544   2.417  14.812  0.4807 -0.0837  0.6299
  347TMC3    C8 5209   1.496   2.574  14.353  0.6626  0.6357  0.8491
  347TMC3    O1 5210   1.482   2.362  14.903  0.0642  0.0720 -0.2238
  347TMC3    O2 5211   1.592   2.648  14.380  0.7093  0.8680  0.2729
  348MPD2     C 5212   4.522   1.650  12.194 -0.8559 -0.3125 -0.2437
  348MPD2    C1 5213   4.653   1.672  12.152 -0.3407  0.0012 -0.4091
  348MPD2    C2 5214   4.681   1.743  12.036 -0.4396 -0.3271  0.6929
  348MPD2    C3 5215   4.583   1.778  11.949 -0.2883  0.3215 -0.2325
  348MPD2    C4 5216   4.455   1.750  11.989 -0.1087  0.0905 -0.3283
  348MPD2    C5 5217   4.419   1.686  12.105  0.5203 -0.4312  0.0091
  348MPD2     H 5218   0.059   1.755  12.005 -1.1620  1.2477 -1.1110
  348MPD2    H1 5219   4.370   1.794  11.937 -0.1056  0.2789 -0.1733
  348MPD2    H2 5220   4.493   1.600  12.286 -0.3229 -0.1424  0.0100
  348MPD2    H3 5221   4.315   1.670  12.131 -0.2554  1.3618 -2.0255
  348MPD2     N 5222   4.615   1.844  11.833 -0.4591  0.4890 -0.3260
  348MPD2    H5 5223   4.710   1.876  11.814 -0.7417  1.4224 -0.1631
  348MPD2    N1 5224   0.039   1.620  12.222  0.2817 -0.3409 -0.0429
  348MPD2    H7 5225   0.126   1.656  12.184  0.5977  0.1790  1.1637
  349TMC3    C1 5226   0.164   1.466  12.347 -0.4634 -0.0341  0.2100
  349TMC3    C2 5227   0.159   1.330  12.386  0.3326  0.4719  0.3395
  349TMC3    C3 5228   0.256   1.243  12.346 -0.5123  0.1011 -0.6808
  349TMC3    C4 5229   0.265   1.510  12.269  0.5080  0.0561 -0.3148
  349TMC3    C5 5230   0.351   1.414  12.216  0.0029  0.0813  0.5339
  349TMC3    C6 5231   0.354   1.288  12.259 -0.3135 -0.1011  1.3007
  349TMC3     C 5232   0.030   1.514  12.312  0.0403  0.9612  0.3012
  349TMC3     O 5233   4.663   1.440  12.347  0.0318 -0.1885  0.4976
  349TMC3     H 5234   0.072   1.304  12.445 -1.3282  0.2278 -2.1974
  349TMC3    H1 5235   0.271   1.616  12.248 -2.7369  0.7363  2.1478
  349TMC3    H2 5236   0.433   1.219  12.234  1.9580  2.7285  0.7262
  349TMC3    C7 5237   0.338   1.403  12.071 -0.6964  0.4447 -0.4878
  349TMC3    C8 5238   0.227   1.098  12.351 -0.1960  0.5144  0.7054
  349TMC3    O1 5239   0.344   1.290  12.025  0.0456 -0.2700 -0.2523
  349TMC3    O2 5240   0.142   1.058  12.429 -0.2837 -0.0406  0.4102
  350MPD2     C 5241   2.846   3.771  10.438  0.1367  0.3834 -0.2198
  350MPD2    C1 5242   2.948   3.690  10.389 -0.1369 -0.0420 -0.1972
  350MPD2    C2 5243   3.070   3.745  10.353  0.0473 -0.6143  1.0104
  350MPD2    C3 5244   3.085   3.884  10.375  0.7946  0.1623 -0.1261
  350MPD2    C4 5245   2.980   3.956  10.427  0.7963  0.1770  0.2184
  350MPD2    C5 5246   2.859   3.905  10.449 -0.0471  0.6158  0.0511
  350MPD2     H 5247   3.147   3.687  10.304  1.1402  1.6475  0.0495
  350MPD2    H1 5248   2.985   4.061  10.455 -0.5967 -0.1161  1.5142
  350MPD2    H2 5249   2.747   3.732  10.460  1.2140 -1.3768  1.4128
  350MPD2    H3 5250   2.771   3.956  10.487 -0.4671 -0.0592 -0.0232
  350MPD2     N 5251   3.212   3.943  10.348 -0.4848 -0.2437  0.2378
  350MPD2    H5 5252   3.234   4.036  10.382  0.5257  0.2330 -1.7276
  350MPD2    N1 5253   2.922   3.553  10.352 -0.1616  0.6372 -0.2982
  350MPD2    H7 5254   3.008   3.508  10.321  0.6810  0.8929  1.6937
  351TMC3    C1 5255   2.820   3.336  10.346 -0.3782 -0.1688 -0.3666
  351TMC3    C2 5256   2.916   3.296  10.256 -0.5069  0.3312  0.4135
  351TMC3    C3 5257   2.928   3.159  10.246 -0.7582  0.5339 -0.6498
  351TMC3    C4 5258   2.755   3.256  10.435 -0.1069 -0.4079  0.3849
  351TMC3    C5 5259   2.771   3.120  10.422 -0.0108 -0.3038 -0.6715
  351TMC3    C6 5260   2.864   3.066  10.327  0.3190  0.4190  0.6812
  351TMC3     C 5261   2.809   3.477  10.380  0.2320 -0.3984 -0.7854
  351TMC3     O 5262   2.700   3.506  10.429  0.1648  0.1996  0.5644
  351TMC3     H 5263   2.955   3.363  10.179 -0.6860  2.0286  1.8069
  351TMC3    H1 5264   2.699   3.304  10.515 -1.9205  0.0017 -1.1483
  351TMC3    H2 5265   2.891   2.961  10.315 -0.5561  0.2393  0.3236
  351TMC3    C7 5266   2.666   3.026  10.458  0.5228  0.1080  0.0125
  351TMC3    C8 5267   3.022   3.103  10.153 -0.7374  0.5352  0.5489
  351TMC3    O1 5268   2.697   2.911  10.440 -0.5163  0.2029  0.2165
  351TMC3    O2 5269   3.016   2.983  10.121 -0.6143 -0.1565 -0.2002
  352MPD2     C 5270   2.740   1.656   1.305  0.3533 -0.0432  0.2311
  352MPD2    C1 5271   2.607   1.679   1.323  0.1033  0.2386  0.0870
  352MPD2    C2 5272   2.532   1.581   1.386 -0.0126  0.0363 -0.1531
  352MPD2    C3 5273   2.596   1.463   1.434  0.0050 -0.2172  0.5585
  352MPD2    C4 5274   2.731   1.449   1.408 -0.9521 -0.0635  0.1042
  352MPD2    C5 5275   2.803   1.543   1.342  0.1986 -0.8032 -0.4952
  352MPD2     H 5276   2.429   1.604   1.408 -0.1404 -0.4105 -0.2744
  352MPD2    H1 5277   2.795   1.371   1.447 -0.9171  0.1413  0.4561
  352MPD2    H2 5278   2.803   1.731   1.260  0.5982  1.1081  2.4761
  352MPD2    H3 5279   2.909   1.527   1.324  0.6717 -0.4126  1.9341
  352MPD2     N 5280   2.528   1.344   1.484  0.0141  0.7183 -0.4083
  352MPD2    H5 5281   2.589   1.268   1.511 -2.0042 -1.4935 -2.0790
  352MPD2    N1 5282   2.557   1.807   1.283  0.1221 -0.8709  0.1773
  352MPD2    H7 5283   2.624   1.852   1.221 -0.5957  0.1987  0.1718
  353TMC3    C1 5284   2.350   1.199   1.523  0.0556 -0.0228  0.2437
  353TMC3    C2 5285   2.435   1.121   1.599 -0.0705 -0.8594  0.2333
  353TMC3    C3 5286   2.401   0.987   1.605 -0.0816  0.1242  0.9102
  353TMC3    C4 5287   2.231   1.147   1.478  0.1450  0.1745 -0.3772
  353TMC3    C5 5288   2.204   1.018   1.499  0.4793 -0.3195  0.2720
  353TMC3    C6 5289   2.285   0.929   1.564  0.1438 -0.4546 -0.5942
  353TMC3     C 5290   2.389   1.326   1.477 -0.6824  0.3743  0.4850
  353TMC3     O 5291   2.302   1.406   1.443 -0.7335 -0.1069  0.5030
  353TMC3     H 5292   2.540   1.145   1.613 -0.3381 -0.0532  0.8701
  353TMC3    H1 5293   2.161   1.210   1.425 -0.6106  1.0533  1.6573
  353TMC3    H2 5294   2.252   0.826   1.571 -0.7289 -0.1252  0.0826
  353TMC3    C7 5295   2.100   0.965   1.415  0.2159  0.3717 -0.2716
  353TMC3    C8 5296   2.517   0.906   1.597  0.0003 -0.6019 -0.5448
  353TMC3    O1 5297   2.070   1.026   1.313 -0.1185 -0.3959  0.8699
  353TMC3    O2 5298   2.619   0.945   1.658  0.0883  0.1060  0.6066
  354TMC3    C1 5299   3.470   2.715  13.677  0.2624 -0.9683 -0.2612
  354TMC3    C2 5300   3.600   2.741  13.714 -0.1414 -0.1539  0.3386
  354TMC3    C3 5301   3.700   2.714  13.635 -0.5353  0.6812  0.4276
  354TMC3    C4 5302   3.446   2.657  13.553 -0.2012  0.3129 -0.4461
  354TMC3    C5 5303   3.554   2.620  13.482 -0.2390  0.0568 -0.5256
  354TMC3    C6 5304   3.683   2.649  13.520 -0.2970 -0.0236 -0.6060
  354TMC3     C 5305   3.361   2.700  13.780  0.7197  0.4406 -0.6944
  354TMC3     O 5306   3.245   2.675  13.744 -0.1233 -0.1633 -0.2246
  354TMC3     H 5307   3.622   2.789  13.810  0.8848 -1.9187  0.9906
  354TMC3    H1 5308   3.350   2.615  13.524  0.2823 -0.3932 -0.9925
  354TMC3    H2 5309   3.774   2.604  13.482 -0.2720 -1.0428  0.6534
  354TMC3    C7 5310   3.536   2.636  13.332  0.1946 -0.3859 -0.2625
  354TMC3    C8 5311   3.781   2.832  13.612  0.4587 -0.2971 -0.5323
  354TMC3    O1 5312   3.421   2.666  13.293  0.0974  0.5094 -0.0958
  354TMC3    O2 5313   3.832   2.895  13.707  0.0990 -0.1930 -0.3026
  355MPD2     C 5314   3.703   3.458  12.212 -0.0452 -0.4077 -0.2582
  355MPD2    C1 5315   3.720   3.481  12.081 -0.4878  0.5131  0.8642
  355MPD2    C2 5316   3.823   3.549  12.028 -0.2049 -0.0607 -0.1614
  355MPD2    C3 5317   3.929   3.586  12.111 -0.8779  0.8306 -0.0486
  355MPD2    C4 5318   3.922   3.558  12.244 -0.2039  1.1646  0.3485
  355MPD2    C5 5319   3.814   3.485  12.290  0.1856  0.2598 -0.4172
  355MPD2     H 5320   3.821   3.580  11.924  0.5100  0.8474  0.0949
  355MPD2    H1 5321   4.002   3.578  12.315 -1.3305 -0.8352  2.1791
  355MPD2    H2 5322   3.613   3.418  12.257 -1.6223  2.0780 -1.2121
  355MPD2    H3 5323   3.815   3.469  12.397  0.2414  0.1479 -0.4341
  355MPD2     N 5324   4.033   3.675  12.067  0.3819  0.5604 -0.3977
  355MPD2    H5 5325   4.093   3.715  12.137  0.3216  0.0508 -0.0516
  355MPD2    N1 5326   3.614   3.445  11.995 -0.7289  0.3970  0.6030
  355MPD2    H7 5327   3.521   3.457  12.033 -1.3774  1.8960 -1.4951
  356TMC3    C1 5328   4.141   3.830  11.930 -0.0109 -0.0688 -0.3421
  356TMC3    C2 5329   4.188   3.860  11.805 -0.1562 -0.3810 -0.8865
  356TMC3    C3 5330   4.266   3.968  11.788  0.8649 -0.3396 -0.1234
  356TMC3    C4 5331   4.151   3.916  12.034  0.0404  0.7224 -0.4464
  356TMC3    C5 5332   4.224   4.029  12.007 -0.2776  0.2487  0.4247
  356TMC3    C6 5333   4.283   4.060  11.890 -1.0177  0.1209 -0.1596
  356TMC3     C 5334   4.047   3.724  11.936 -0.3673 -0.1089  0.2178
  356TMC3     O 5335   4.006   3.679  11.833  0.7955 -0.2403  0.5900
  356TMC3     H 5336   4.163   3.804  11.715  2.7446  1.7598 -3.0647
  356TMC3    H1 5337   4.113   3.905  12.134  0.9455  1.4575 -0.0255
  356TMC3    H2 5338   4.354   4.140  11.873 -3.0384  2.1555  1.1368
  356TMC3    C7 5339   4.236   4.121  12.120 -0.1333 -0.2319 -0.3458
  356TMC3    C8 5340   4.357   3.978  11.671 -0.3137 -0.0365  0.2131
  356TMC3    O1 5341   4.170   4.106  12.224 -0.0610  0.0531  0.0426
  356TMC3    O2 5342   4.362   3.879  11.605 -0.4094 -0.0299 -0.8206
  357MPD2     C 5343   3.647   3.747   1.094 -0.1455 -0.3576 -0.4247
  357MPD2    C1 5344   3.695   3.635   1.156 -0.3962 -0.4111 -0.2251
  357MPD2    C2 5345   3.663   3.620   1.291 -0.7299  0.4095 -0.1944
  357MPD2    C3 5346   3.576   3.710   1.356 -0.0216  0.0870  0.3400
  357MPD2    C4 5347   3.524   3.819   1.292  0.2167 -0.1659  0.3895
  357MPD2    C5 5348   3.558   3.835   1.159  0.2479  0.7852  0.2381
  357MPD2     H 5349   3.699   3.551   1.366 -0.4792  0.4551 -0.2709
  357MPD2    H1 5350   3.449   3.887   1.331 -0.0153  0.2110 -0.7212
  357MPD2    H2 5351   3.669   3.767   0.990  0.5836 -2.4232 -0.6556
  357MPD2    H3 5352   3.515   3.917   1.101 -4.5728 -1.5493  0.5789
  357MPD2     N 5353   3.571   3.699   1.495  0.0461  0.0568 -0.2055
  357MPD2    H5 5354   3.609   3.615   1.538 -1.5059  0.1632  1.3623
  357MPD2    N1 5355   3.784   3.549   1.088  0.3969  0.4252  0.7610
  357MPD2    H7 5356   3.818   3.584   0.999  0.5935 -0.5275  0.4719
  358TMC3    C1 5357   3.924   3.360   1.065 -1.0192 -0.0855 -0.1640
  358TMC3    C2 5358   3.930   3.365   0.926  0.0046 -0.8923  0.7444
  358TMC3    C3 5359   4.022   3.287   0.862 -0.9826 -0.1379 -0.1022
  358TMC3    C4 5360   4.019   3.292   1.141 -0.1054 -0.2346  0.5555
  358TMC3    C5 5361   4.105   3.208   1.074 -0.7405 -0.6007 -0.0289
  358TMC3    C6 5362   4.107   3.203   0.933  0.4367 -0.1797 -0.1432
  358TMC3     C 5363   3.840   3.444   1.149 -0.0120  0.6523 -0.5039
  358TMC3     O 5364   3.804   3.384   1.254 -0.0774 -0.2951 -0.0979
  358TMC3     H 5365   3.864   3.433   0.874  0.0901 -1.0981  0.3653
  358TMC3    H1 5366   4.021   3.296   1.250 -3.2392 -2.5750  0.7103
  358TMC3    H2 5367   4.205   3.184   0.890  0.9492  1.5015  0.2711
  358TMC3    C7 5368   4.205   3.150   1.163  0.2659 -0.4559  0.1718
  358TMC3    C8 5369   4.050   3.316   0.725 -0.3516 -0.4916 -0.3909
  358TMC3    O1 5370   4.208   3.180   1.282 -1.1470  0.1509  0.5917
  358TMC3    O2 5371   4.140   3.247   0.673  0.0102  0.6310 -0.2201
  359MPD2     C 5372   3.948   2.810  12.318 -0.7654  1.4483  0.2126
  359MPD2    C1 5373   4.029   2.743  12.410 -0.1320 -0.2774 -0.8701
  359MPD2    C2 5374   3.960   2.698  12.523  0.3656  0.2119  0.6898
  359MPD2    C3 5375   3.832   2.746  12.558  0.5162 -0.0332  0.4270
  359MPD2    C4 5376   3.765   2.823  12.469  0.6293  0.6120  0.7591
  359MPD2    C5 5377   3.821   2.843  12.347 -0.1967 -0.5979  0.0831
  359MPD2     H 5378   4.012   2.628  12.588 -0.9753 -0.3086  1.1899
  359MPD2    H1 5379   3.672   2.872  12.493  0.6194  0.0537  1.8743
  359MPD2    H2 5380   3.993   2.840  12.224 -0.4747  2.4357  0.6780
  359MPD2    H3 5381   3.779   2.915  12.278  0.2210  0.0333  0.4841
  359MPD2     N 5382   3.763   2.696  12.674  0.0394  0.1042  0.4419
  359MPD2    H5 5383   3.670   2.734  12.683 -0.8185 -1.8475 -0.3187
  359MPD2    N1 5384   4.165   2.700  12.386  0.2458  0.5019  0.1231
  359MPD2    H7 5385   4.200   2.625  12.444  1.4854 -0.2609 -1.5955
  360TMC3    C1 5386   4.374   2.687  12.277  0.2342 -0.1663  0.3267
  360TMC3    C2 5387   4.472   2.772  12.242 -0.3417 -0.2358  0.0635
  360TMC3    C3 5388   4.598   2.724  12.216 -0.2812  1.2852  0.4329
  360TMC3    C4 5389   4.386   2.555  12.273 -0.4780 -0.1388 -0.0395
  360TMC3    C5 5390   4.508   2.514  12.232  0.1501 -0.2599 -0.6587
  360TMC3    C6 5391   4.612   2.590  12.216  0.3702  0.0483  1.2921
  360TMC3     C 5392   4.243   2.752  12.285  0.4638  0.1887  0.4167
  360TMC3     O 5393   4.216   2.836  12.201 -0.2880 -1.5346  0.2238
  360TMC3     H 5394   4.449   2.871  12.208  0.4912 -0.3400 -0.8096
  360TMC3    H1 5395   4.295   2.498  12.273  0.0995 -1.0467 -2.6730
  360TMC3    H2 5396   4.707   2.539  12.208  1.0071  1.6320 -1.5330
  360TMC3    C7 5397   4.516   2.393  12.149  0.7524  0.3613  0.3059
  360TMC3    C8 5398   4.679   2.815  12.141 -0.0604  0.7595 -0.1859
  360TMC3    O1 5399   4.611   2.378  12.073 -0.2746 -0.3361  0.0505
  360TMC3    O2 5400   4.665   2.934  12.162 -0.3711  0.6083  0.2684
  361MPD2     C 5401   1.408   1.769  16.697  0.3431  0.0806 -0.3276
  361MPD2    C1 5402   1.318   1.668  16.714 -0.1054 -0.3692  0.1306
  361MPD2    C2 5403   1.339   1.561  16.800  0.2506 -0.4595  0.0591
  361MPD2    C3 5404   1.451   1.558  16.888 -0.0676  0.4718 -0.1910
  361MPD2    C4 5405   1.551   1.649  16.856 -0.1215 -0.4400  0.3213
  361MPD2    C5 5406   1.525   1.755  16.770  0.0724  0.1952 -0.1214
  361MPD2     H 5407   1.269   1.479  16.802  0.2716 -0.4840 -0.2936
  361MPD2    H1 5408   1.646   1.665  16.906 -0.3731 -1.1877  1.0418
  361MPD2    H2 5409   1.397   1.862  16.644  2.5071  0.7592  0.4147
  361MPD2    H3 5410   1.593   1.837  16.747 -1.4753  1.2837 -0.7724
  361MPD2     N 5411   1.458   1.452  16.978  0.3846 -0.0589  0.5881
  361MPD2    H5 5412   1.388   1.379  16.970  1.9002 -1.1496 -2.5843
  361MPD2    N1 5413   1.190   1.661  16.652  0.4885 -0.6972 -0.3807
  361MPD2    H7 5414   1.125   1.596  16.695  1.0432  0.6596  2.5783
  362TMC3    C1 5415   1.000   1.767  16.555 -0.2175  0.7714  0.4466
  362TMC3    C2 5416   0.943   1.797  16.680  0.4622 -0.5933 -0.4935
  362TMC3    C3 5417   0.832   1.867  16.684  0.3233 -0.4689 -0.1478
  362TMC3    C4 5418   0.948   1.808  16.443 -0.1546  0.2268 -0.0432
  362TMC3    C5 5419   0.833   1.888  16.446 -0.2546  0.6499  0.4411
  362TMC3    C6 5420   0.778   1.920  16.561  0.4496  0.0059 -0.4687
  362TMC3     C 5421   1.146   1.746  16.558 -0.5787 -0.2596 -0.3404
  362TMC3     O 5422   1.208   1.822  16.485 -0.0163  0.2132 -0.2625
  362TMC3     H 5423   0.986   1.769  16.775 -1.0743  1.7694  0.8769
  362TMC3    H1 5424   0.988   1.779  16.346  0.5916 -0.4144  0.4524
  362TMC3    H2 5425   0.680   1.966  16.561 -0.0884 -1.1269  0.6912
  362TMC3    C7 5426   0.789   1.946  16.326 -0.3689  0.6844  0.7136
  362TMC3    C8 5427   0.773   1.899  16.811 -0.2239 -0.6204 -0.2529
  362TMC3    O1 5428   0.854   2.033  16.277  0.3165  0.2932 -0.2295
  362TMC3    O2 5429   0.802   1.834  16.909  0.0186  0.0675  0.4743
  363TMC3    C1 5430   4.041   2.805   9.174 -0.4077  0.5362 -0.0796
  363TMC3    C2 5431   4.158   2.840   9.230  0.5981 -0.1299 -0.0829
  363TMC3    C3 5432   4.151   2.894   9.364 -0.4987 -0.9774  0.3457
  363TMC3    C4 5433   3.912   2.846   9.224 -0.2134  0.3716  0.0308
  363TMC3    C5 5434   3.914   2.898   9.351 -0.0701 -0.5394  0.4627
  363TMC3    C6 5435   4.031   2.935   9.417 -1.2074  0.4066 -0.2465
  363TMC3     C 5436   4.050   2.741   9.043 -0.0966  0.0747 -0.3025
  363TMC3     O 5437   4.155   2.764   8.983 -0.3326 -0.1126 -0.2519
  363TMC3     H 5438   4.250   2.823   9.175 -0.3127  0.3382 -1.7536
  363TMC3    H1 5439   3.815   2.829   9.179  0.0764 -1.6325  0.1533
  363TMC3    H2 5440   4.030   2.974   9.518  2.7197  1.2555 -0.5227
  363TMC3    C7 5441   3.791   2.929   9.414 -0.4188  0.4107  0.4446
  363TMC3    C8 5442   4.263   2.939   9.436  0.2614 -0.2320 -0.2195
  363TMC3    O1 5443   3.799   3.023   9.499  0.1701  0.3788 -0.3477
  363TMC3    O2 5444   4.245   3.026   9.517  0.1823 -0.0697 -0.1447
  364MPD2     C 5445   3.036   2.662  11.067  0.0090 -0.2131 -0.5133
  364MPD2    C1 5446   3.130   2.634  10.966 -0.3045  0.0724  0.0071
  364MPD2    C2 5447   3.207   2.520  10.974 -0.0857 -0.1719  0.6804
  364MPD2    C3 5448   3.195   2.429  11.084  0.9794  0.7195 -0.5724
  364MPD2    C4 5449   3.103   2.462  11.189 -0.1022  0.1511 -0.3916
  364MPD2    C5 5450   3.026   2.576  11.175  0.2710 -0.7065 -0.2127
  364MPD2     H 5451   3.263   2.490  10.886  1.7772  0.6659  1.5972
  364MPD2    H1 5452   3.089   2.392  11.271 -2.4021 -1.3039 -2.0337
  364MPD2    H2 5453   2.972   2.749  11.075  2.7575  1.8877 -1.1159
  364MPD2    H3 5454   2.960   2.604  11.256  2.1316  0.5447  0.8885
  364MPD2     N 5455   3.269   2.306  11.093 -0.6953  0.0706 -0.3582
  364MPD2    H5 5456   3.272   2.250  11.178  0.2950  1.6013  0.6102
  364MPD2    N1 5457   3.133   2.727  10.856 -0.1826 -0.2664  0.3376
  364MPD2    H7 5458   3.086   2.817  10.866  1.0185  0.3049  0.7524
  365TMC3    C1 5459   3.212   2.822  10.649  0.4040  0.0910  0.1663
  365TMC3    C2 5460   3.315   2.810  10.563 -0.2026  0.1871 -0.1731
  365TMC3    C3 5461   3.341   2.922  10.486  0.0018  0.4687  0.7829
  365TMC3    C4 5462   3.145   2.944  10.667 -0.8388  0.4770  0.0063
  365TMC3    C5 5463   3.192   3.054  10.601 -0.0374 -0.5464  0.0185
  365TMC3    C6 5464   3.284   3.042  10.502  0.4675  0.0272  0.2204
  365TMC3     C 5465   3.178   2.701  10.727  0.4162 -0.6932 -0.3991
  365TMC3     O 5466   3.209   2.590  10.684 -0.2044  0.7177  0.1727
  365TMC3     H 5467   3.374   2.719  10.566  2.3271  1.9158  1.7576
  365TMC3    H1 5468   3.056   2.951  10.729 -1.4245  1.0013 -0.8813
  365TMC3    H2 5469   3.317   3.126  10.443  1.6375 -0.9328 -0.4958
  365TMC3    C7 5470   3.109   3.166  10.607  0.1098  0.6467 -0.3936
  365TMC3    C8 5471   3.452   2.928  10.393 -0.4117 -0.1893  0.8139
  365TMC3    O1 5472   3.133   3.251  10.520  0.0905  0.2885  0.1764
  365TMC3    O2 5473   3.520   3.032  10.375  0.1907  0.3139 -0.3127
  366MPD2     C 5474   1.826   3.846  15.119  0.5652  0.0698  0.1855
  366MPD2    C1 5475   1.811   3.920  15.235  0.1316 -0.1448  0.2581
  366MPD2    C2 5476   1.920   3.959  15.301  0.3626  0.4007  0.2039
  366MPD2    C3 5477   2.035   3.981  15.232  0.2024 -0.4903 -0.1738
  366MPD2    C4 5478   2.056   3.915  15.116  0.1091 -0.1947 -0.2710
  366MPD2    C5 5479   1.953   3.831  15.068 -0.6527  0.4907 -0.4321
  366MPD2     H 5480   1.910   4.004  15.399  2.1364  0.4745  0.3539
  366MPD2    H1 5481   2.148   3.929  15.060 -0.4425  2.7002 -0.4565
  366MPD2    H2 5482   1.749   3.791  15.068 -1.0379  2.2226  0.2733
  366MPD2    H3 5483   1.958   3.764  14.983 -0.6465 -1.0445  0.7804
  366MPD2     N 5484   2.114   4.086  15.287  0.0100  0.4860 -0.6860
  366MPD2    H5 5485   2.074   4.144  15.360  0.8950 -0.6705  0.7447
  366MPD2    N1 5486   1.688   3.954  15.291  0.3238  0.0741 -0.2013
  366MPD2    H7 5487   1.699   4.003  15.379  0.6218 -0.7492  0.2165
  367TMC3    C1 5488   1.513   4.100  15.271 -0.4032  0.3500  0.2615
  367TMC3    C2 5489   1.593   4.191  15.339 -0.2048 -0.3339 -0.0403
  367TMC3    C3 5490   1.536   4.301  15.390 -0.6681  0.0268 -0.2242
  367TMC3    C4 5491   1.382   4.120  15.247  0.0107 -0.4105 -0.4319
  367TMC3    C5 5492   1.326   4.238  15.293  0.4153 -0.0462 -0.0530
  367TMC3    C6 5493   1.402   4.329  15.368 -0.0829 -0.0098  0.1564
  367TMC3     C 5494   1.573   3.972  15.221  0.3710 -0.0846  0.5755
  367TMC3     O 5495   1.541   3.922  15.113  0.3108  0.2609 -0.0705
  367TMC3     H 5496   1.700   4.178  15.352 -0.0812  0.4096 -0.2965
  367TMC3    H1 5497   1.324   4.056  15.181 -1.0050 -1.3541  1.3858
  367TMC3    H2 5498   1.356   4.417  15.411  1.0569  1.4272 -1.5687
  367TMC3    C7 5499   1.197   4.295  15.246  0.0815 -0.3589 -0.6882
  367TMC3    C8 5500   1.623   4.386  15.460  1.0138 -0.1764 -0.1899
  367TMC3    O1 5501   1.141   4.373  15.317  0.5315 -0.7302 -0.1989
  367TMC3    O2 5502   1.712   4.331  15.522  0.2695 -0.5143 -0.8825
  368MPD2     C 5503   2.520   1.527  13.395  0.4251  0.0840 -0.1291
  368MPD2    C1 5504   2.527   1.646  13.323  0.5215  0.2590 -0.1131
  368MPD2    C2 5505   2.637   1.677  13.247  0.0186  0.2964 -0.3001
  368MPD2    C3 5506   2.739   1.583  13.231 -0.4092 -0.3243  0.3828
  368MPD2    C4 5507   2.724   1.459  13.286  0.3444 -0.6286 -0.2691
  368MPD2    C5 5508   2.615   1.433  13.369 -0.2580 -0.5151  0.4348
  368MPD2     H 5509   2.642   1.774  13.199  0.9878  0.2427 -0.3030
  368MPD2    H1 5510   2.782   1.370  13.261  2.7995  0.7783  0.4297
  368MPD2    H2 5511   2.435   1.503  13.458  0.2532  1.2113  0.0569
  368MPD2    H3 5512   2.600   1.329  13.397  0.3371 -1.1350 -1.4644
  368MPD2     N 5513   2.847   1.606  13.144 -0.3316 -0.4102 -0.2723
  368MPD2    H5 5514   2.908   1.529  13.120 -2.1738 -2.5074  1.8221
  368MPD2    N1 5515   2.411   1.728  13.339 -0.0202 -0.0624  0.1796
  368MPD2    H7 5516   2.329   1.687  13.382  1.2825 -2.8552  0.0078
  369TMC3    C1 5517   2.263   1.905  13.277 -0.2916 -0.3923 -0.2828
  369TMC3    C2 5518   2.262   2.022  13.205  0.3782 -0.1451 -0.3435
  369TMC3    C3 5519   2.181   2.045  13.096  0.2192 -0.1298 -0.0684
  369TMC3    C4 5520   2.165   1.811  13.257  0.1045 -0.3469  0.0055
  369TMC3    C5 5521   2.082   1.841  13.153 -0.3102 -0.5289  0.1201
  369TMC3    C6 5522   2.084   1.956  13.075 -0.0666  0.1394 -0.0224
  369TMC3     C 5523   2.397   1.854  13.287  1.1058 -0.0969  0.1736
  369TMC3     O 5524   2.474   1.923  13.220  0.8373  0.2520  0.1805
  369TMC3     H 5525   2.343   2.091  13.227  1.8438 -2.6404  2.1558
  369TMC3    H1 5526   2.150   1.719  13.312 -1.6357  0.8117  1.4807
  369TMC3    H2 5527   2.025   1.969  12.985 -2.9712 -0.9817  1.7255
  369TMC3    C7 5528   1.951   1.775  13.180  0.2703 -0.1061  0.0852
  369TMC3    C8 5529   2.253   2.080  12.981 -0.3136 -0.3829 -0.4633
  369TMC3    O1 5530   1.918   1.749  13.295 -0.0722  0.4444 -0.0976
  369TMC3    O2 5531   2.186   2.102  12.883  0.2094 -0.1538  0.2966
  370TMC3    C1 5532   1.694   2.113  16.350 -0.0122  0.2482  0.2843
  370TMC3    C2 5533   1.718   2.047  16.462  0.6689  0.6778  0.3394
  370TMC3    C3 5534   1.741   1.908  16.444  0.1415 -0.1329 -0.6647
  370TMC3    C4 5535   1.679   2.066  16.228  0.4131  0.1323 -0.1295
  370TMC3    C5 5536   1.696   1.932  16.210 -0.7971 -0.4247  0.4181
  370TMC3    C6 5537   1.728   1.854  16.323  0.2872 -0.9636 -0.7245
  370TMC3     C 5538   1.682   2.252  16.356 -0.1548  0.5137 -0.4868
  370TMC3     O 5539   1.609   2.287  16.447 -0.5123  0.3418 -0.1033
  370TMC3     H 5540   1.721   2.098  16.558 -2.0259 -0.4119  1.0022
  370TMC3    H1 5541   1.651   2.132  16.147 -1.7238  0.8103  1.1570
  370TMC3    H2 5542   1.751   1.749  16.308 -0.9348 -1.2961 -0.3466
  370TMC3    C7 5543   1.688   1.876  16.078 -0.2326 -0.4714  0.2122
  370TMC3    C8 5544   1.812   1.845  16.557 -0.3920  0.3899  0.1961
  370TMC3    O1 5545   1.641   1.940  15.984  0.7582 -0.2537  0.3453
  370TMC3    O2 5546   1.803   1.725  16.557  0.1285  0.0024  0.1754
  371TMC3    C1 5547   3.087   0.336  15.787 -0.0739 -0.1023 -0.2996
  371TMC3    C2 5548   2.950   0.331  15.807 -0.4588  0.0433  0.6611
  371TMC3    C3 5549   2.881   0.442  15.764  0.0754  0.0926 -0.0250
  371TMC3    C4 5550   3.156   0.447  15.748 -0.3311 -0.3517 -0.3864
  371TMC3    C5 5551   3.082   0.558  15.719  0.3139  0.4110 -0.4031
  371TMC3    C6 5552   2.947   0.556  15.731  0.1644 -0.3373 -0.2662
  371TMC3     C 5553   3.151   0.237  15.875 -0.0518  0.1749  0.0570
  371TMC3     O 5554   3.234   0.277  15.955  0.5788 -0.3806 -0.4180
  371TMC3     H 5555   2.907   0.232  15.817  0.8878 -0.6109  0.0079
  371TMC3    H1 5556   3.264   0.439  15.749 -0.3131 -0.2461 -1.1094
  371TMC3    H2 5557   2.894   0.641  15.690  3.1247  1.4533 -0.3619
  371TMC3    C7 5558   3.130   0.668  15.647 -0.4445  0.4345 -0.0065
  371TMC3    C8 5559   2.733   0.423  15.745 -0.0234 -0.4913  0.3738
  371TMC3    O1 5560   3.057   0.755  15.597 -0.0409  0.3932  0.0205
  371TMC3    O2 5561   2.689   0.311  15.734 -0.0136 -0.0673 -0.2070
  372MPD2     C 5562   3.237   1.841  13.775  0.4588 -0.3039  0.4909
  372MPD2    C1 5563   3.320   1.733  13.738 -0.0569 -0.3144 -0.4071
  372MPD2    C2 5564   3.263   1.626  13.682  0.2573 -0.7404  0.4176
  372MPD2    C3 5565   3.121   1.622  13.672  0.3191 -0.1758 -0.0201
  372MPD2    C4 5566   3.044   1.720  13.726 -0.1008 -0.1816 -0.9397
  372MPD2    C5 5567   3.098   1.831  13.785  0.1720 -0.1677  0.0731
  372MPD2     H 5568   3.334   1.557  13.639  1.6375 -0.2123  1.8446
  372MPD2    H1 5569   2.937   1.705  13.721  0.1058 -1.7502 -0.6166
  372MPD2    H2 5570   3.285   1.930  13.815  0.9946  1.2530 -3.6477
  372MPD2    H3 5571   3.042   1.914  13.828  0.0780 -0.2418  0.0924
  372MPD2     N 5572   3.068   1.512  13.605  0.2137 -0.2066  0.8164
  372MPD2    H5 5573   3.137   1.440  13.586  1.1025  1.0635 -0.7782
  372MPD2    N1 5574   3.460   1.738  13.731 -0.2894 -0.4384  0.6423
  372MPD2    H7 5575   3.508   1.652  13.706 -1.6649 -1.0932  0.2123
  373TMC3    C1 5576   2.915   1.353  13.561  0.4394 -0.4209 -0.0270
  373TMC3    C2 5577   2.832   1.285  13.649 -0.1870 -0.2174  1.0039
  373TMC3    C3 5578   2.817   1.150  13.638  0.2017  0.2073 -0.2168
  373TMC3    C4 5579   2.983   1.288  13.463  0.4716 -0.5725  0.3695
  373TMC3    C5 5580   2.953   1.157  13.431  0.3974 -0.1281  0.1734
  373TMC3    C6 5581   2.855   1.090  13.513  0.3395  0.4022  0.5342
  373TMC3     C 5582   2.933   1.492  13.583 -0.2060 -0.0187 -0.2196
  373TMC3     O 5583   2.832   1.561  13.589 -0.0201  0.9992  0.4931
  373TMC3     H 5584   2.787   1.338  13.732  0.6904  0.7023  0.8963
  373TMC3    H1 5585   3.065   1.338  13.414  0.3373 -1.8763 -1.1539
  373TMC3    H2 5586   2.853   0.982  13.517 -0.6990  0.3794 -0.4986
  373TMC3    C7 5587   3.063   1.072  13.391  0.5127  0.0879 -0.4071
  373TMC3    C8 5588   2.885   1.088  13.756 -0.2564 -0.5628 -0.3754
  373TMC3    O1 5589   3.034   1.002  13.296 -0.6209  0.1907 -0.3818
  373TMC3    O2 5590   2.912   1.162  13.849  0.7960  0.5363  0.2483
  374TMC3    C1 5591   3.952   1.263   9.680  0.1538 -0.0948  0.3984
  374TMC3    C2 5592   3.939   1.391   9.726  0.1390  0.1155 -0.1353
  374TMC3    C3 5593   3.935   1.490   9.636 -0.3299  0.0266  0.0808
  374TMC3    C4 5594   3.969   1.237   9.545 -0.0699  0.8400 -0.7478
  374TMC3    C5 5595   3.963   1.340   9.459 -0.2039 -0.7433 -0.5859
  374TMC3    C6 5596   3.946   1.469   9.503  0.1486  0.6784  0.0208
  374TMC3     C 5597   3.921   1.154   9.765 -0.4911  0.7306 -0.2161
  374TMC3     O 5598   3.873   1.051   9.713  0.0174  0.6407 -0.0965
  374TMC3     H 5599   3.922   1.404   9.833  0.1313 -0.6809 -0.0354
  374TMC3    H1 5600   3.978   1.136   9.508 -0.3665  0.3204  0.5987
  374TMC3    H2 5601   3.936   1.551   9.433 -0.1807  1.8325  1.4272
  374TMC3    C7 5602   3.932   1.306   9.319 -0.3344 -0.4279 -0.5851
  374TMC3    C8 5603   3.936   1.626   9.683  0.0504 -0.5500  0.6181
  374TMC3    O1 5604   3.895   1.191   9.299  0.0669  0.1946 -0.4169
  374TMC3    O2 5605   3.913   1.723   9.608 -0.4516 -0.0973  1.1092
  375MPD2     C 5606   3.562   3.397  16.590 -0.1687  0.2449  0.4498
  375MPD2    C1 5607   3.488   3.287  16.627  0.1230  0.1572  0.9469
  375MPD2    C2 5608   3.545   3.159  16.620 -0.1741 -0.4616  0.2745
  375MPD2    C3 5609   3.676   3.143  16.574 -0.0087  0.0471 -0.1277
  375MPD2    C4 5610   3.754   3.257  16.546 -0.5777 -0.7506 -0.1983
  375MPD2    C5 5611   3.687   3.379  16.546  0.1688  0.0122 -0.4993
  375MPD2     H 5612   3.485   3.075  16.651 -0.9727 -0.2736 -0.7919
  375MPD2    H1 5613   3.856   3.249  16.509 -0.5118 -1.5575  0.1401
  375MPD2    H2 5614   3.525   3.499  16.589  2.4090  1.1671 -0.5495
  375MPD2    H3 5615   3.736   3.472  16.519  3.1437 -0.7645  2.2304
  375MPD2     N 5616   3.739   3.020  16.549 -0.1348 -0.2506  0.5808
  375MPD2    H5 5617   3.836   3.011  16.520 -0.4481 -0.6311 -0.3528
  375MPD2    N1 5618   3.353   3.298  16.668 -0.8163  0.7352  0.3600
  375MPD2    H7 5619   3.314   3.206  16.686  0.9828  0.2462  1.6944
  376TMC3    C1 5620   3.764   2.790  16.514  0.2918 -0.2925 -0.9986
  376TMC3    C2 5621   3.902   2.799  16.543  0.2456 -0.2615  0.2344
  376TMC3    C3 5622   3.992   2.719  16.474  0.2892  0.4086  0.9105
  376TMC3    C4 5623   3.717   2.706  16.422 -0.4567 -0.0243  0.5794
  376TMC3    C5 5624   3.807   2.631  16.351  0.3321 -0.6453  0.0170
  376TMC3    C6 5625   3.941   2.631  16.383  0.1943 -0.2133 -0.7847
  376TMC3     C 5626   3.670   2.904  16.550  0.2560 -0.2864 -0.1319
  376TMC3     O 5627   3.551   2.888  16.553 -0.0924 -0.0895  0.4744
  376TMC3     H 5628   3.937   2.861  16.625  1.1108  0.8564 -0.9813
  376TMC3    H1 5629   3.611   2.701  16.398 -0.3550 -1.2104  0.4148
  376TMC3    H2 5630   3.990   2.558  16.319  0.8108 -0.4683 -0.0163
  376TMC3    C7 5631   3.766   2.562  16.234 -0.1485 -0.1524 -0.2388
  376TMC3    C8 5632   4.138   2.735  16.488  0.0877  0.1770 -0.0224
  376TMC3    O1 5633   3.827   2.590  16.133 -0.5189 -0.2516 -0.1196
  376TMC3    O2 5634   4.210   2.694  16.394  0.7584 -0.0341 -0.2328
  377MPD2     C 5635   1.312   1.825  12.308  0.4737 -0.1430  0.7982
  377MPD2    C1 5636   1.366   1.835  12.432 -0.5392 -0.5249 -0.0268
  377MPD2    C2 5637   1.281   1.813  12.546  0.4122 -0.4539  0.4305
  377MPD2    C3 5638   1.152   1.776  12.538  0.8273  0.1236  0.5002
  377MPD2    C4 5639   1.102   1.769  12.405 -0.1800 -0.8208 -0.5968
  377MPD2    C5 5640   1.180   1.795  12.301  0.4397  1.4072  0.5256
  377MPD2     H 5641   1.322   1.815  12.646 -2.1649  2.1696  1.4466
  377MPD2    H1 5642   0.997   1.746  12.393  0.7738 -4.1076 -2.5620
  377MPD2    H2 5643   1.370   1.845  12.218 -1.0025 -2.6738 -0.7053
  377MPD2    H3 5644   1.134   1.806  12.203 -0.7821 -0.3579  0.8978
  377MPD2     N 5645   1.066   1.755  12.647 -0.5229 -0.0713  0.0587
  377MPD2    H5 5646   0.967   1.771  12.632 -0.5541  1.2348  1.6853
  377MPD2    N1 5647   1.498   1.873  12.438  0.1821  0.0810 -0.1978
  377MPD2    H7 5648   1.554   1.844  12.359  0.3626 -1.9875  0.6832
  378TMC3    C1 5649   1.892   1.908  12.361  0.6609  0.6568 -0.1502
  378TMC3    C2 5650   1.763   1.905  12.390  0.2084 -0.3396 -0.3376
  378TMC3    C3 5651   1.714   1.914  12.518  0.1740 -0.1516 -0.0390
  378TMC3    C4 5652   1.981   1.920  12.463 -0.5751 -0.4161  0.0051
  378TMC3    C5 5653   1.938   1.912  12.588 -0.1817 -0.7148  0.0796
  378TMC3    C6 5654   1.800   1.926  12.621  0.2995  0.8572  0.0932
  378TMC3     C 5655   1.927   1.917  12.228 -0.0895  0.0061  0.1121
  378TMC3     O 5656   1.830   1.944  12.159 -0.3850  0.5945  0.5824
  378TMC3     H 5657   1.697   1.876  12.309  2.3012 -1.4280 -1.6518
  378TMC3    H1 5658   2.088   1.929  12.447 -0.4635 -0.4279  0.7506
  378TMC3    H2 5659   1.767   1.916  12.724  1.4486  0.2751  0.4080
  378TMC3    C7 5660   2.016   1.841  12.694  0.6257 -0.4508  0.7893
  378TMC3    C8 5661   1.569   1.919  12.550 -0.4396  0.0838 -0.0087
  378TMC3    O1 5662   1.957   1.789  12.790  0.3363 -0.0446 -0.3877
  378TMC3    O2 5663   1.534   1.955  12.661 -0.3580  0.2304 -0.0189
  379MPD2     C 5664   2.754   0.181  16.054  0.6801 -0.5590  0.0309
  379MPD2    C1 5665   2.633   0.122  16.076  0.2504 -0.5945  0.4099
  379MPD2    C2 5666   2.629   0.020  16.178 -0.2519  0.9623  0.7666
  379MPD2    C3 5667   2.736   4.722  16.263 -0.1167 -0.2433 -0.6167
  379MPD2    C4 5668   2.853   0.065  16.240  0.1634 -0.4039  0.2257
  379MPD2    C5 5669   2.859   0.162  16.147 -1.1081  0.3025  0.3924
  379MPD2     H 5670   2.538   4.690  16.200  0.3759 -2.1127 -4.3949
  379MPD2    H1 5671   2.945   0.043  16.294 -0.0913 -0.2575  0.7142
  379MPD2    H2 5672   2.753   0.258  15.978  2.6541 -2.4454 -1.8907
  379MPD2    H3 5673   2.946   0.225  16.138 -0.9619  0.0853  0.2643
  379MPD2     N 5674   2.727   4.620  16.360 -0.0724 -0.5009 -1.1270
  379MPD2    H5 5675   2.645   4.560  16.358 -1.1138  0.8711  0.1412
  379MPD2    N1 5676   2.527   0.150  15.991  0.7165  0.3957  0.1368
  379MPD2    H7 5677   2.557   0.195  15.905  0.8524 -0.4817 -0.2771
  380TMC3    C1 5678   2.332   0.111  15.885  0.0786  0.1145 -0.8887
  380TMC3    C2 5679   2.402   0.093  15.771 -0.6680  0.2732 -0.0020
  380TMC3    C3 5680   2.339   0.078  15.649 -0.0793 -0.8049  0.6476
  380TMC3    C4 5681   2.193   0.124  15.887  1.0439 -0.1405 -0.6765
  380TMC3    C5 5682   2.131   0.108  15.764  0.2668 -0.0423 -0.5944
  380TMC3    C6 5683   2.203   0.079  15.648 -0.3321  0.2491  0.4398
  380TMC3     C 5684   2.396   0.119  16.012  0.0834  0.7687 -0.5328
  380TMC3     O 5685   2.337   0.116  16.118 -0.8185 -0.0257  0.2547
  380TMC3     H 5686   2.506   0.063  15.763 -0.5119  0.8111  0.0075
  380TMC3    H1 5687   2.137   0.158  15.973 -0.0381  2.3519 -2.3439
  380TMC3    H2 5688   2.141   0.061  15.561  1.5903 -1.0021 -0.6881
  380TMC3    C7 5689   1.985   0.120  15.759  0.1520 -0.4362 -0.2906
  380TMC3    C8 5690   2.423   0.063  15.528 -0.2014  0.2212  0.1421
  380TMC3    O1 5691   1.933   0.192  15.836 -0.2177 -0.1089  0.0764
  380TMC3    O2 5692   2.544   0.059  15.541  0.0553  0.4671  0.4186
  381TMC3    C1 5693   1.861   1.005  16.255  0.2336  0.3133 -0.0365
  381TMC3    C2 5694   1.922   1.113  16.200 -0.0989  0.0386  0.4155
  381TMC3    C3 5695   1.944   1.218  16.281  0.3319  0.6771  0.5387
  381TMC3    C4 5696   1.820   0.997  16.384  0.0297  0.0577  0.5673
  381TMC3    C5 5697   1.839   1.110  16.464 -0.4911  0.3160 -0.0682
  381TMC3    C6 5698   1.907   1.223  16.418  0.3963  0.3537 -0.1000
  381TMC3     C 5699   1.834   0.900  16.165  0.0857 -0.4837  0.5359
  381TMC3     O 5700   1.721   0.857  16.166  0.1670 -0.4311  0.3762
  381TMC3     H 5701   1.935   1.121  16.093 -0.0244 -0.5897  0.3740
  381TMC3    H1 5702   1.780   0.902  16.417 -1.6876  0.4048 -0.5316
  381TMC3    H2 5703   1.942   1.299  16.487  1.2258 -0.5992  0.5259
  381TMC3    C7 5704   1.797   1.102  16.601 -0.0958 -0.2721  0.0721
  381TMC3    C8 5705   1.997   1.335  16.206 -0.4549 -0.6071  0.3922
  381TMC3    O1 5706   1.753   0.995  16.637  0.2603  0.2940 -0.4428
  381TMC3    O2 5707   2.033   1.311  16.089  0.3855 -0.2693  0.0021
  382MPD2     C 5708   1.590   4.514  17.033  0.6941 -0.5229 -0.3338
  382MPD2    C1 5709   1.563   4.513  17.169 -0.3603 -0.3804 -0.6754
  382MPD2    C2 5710   1.507   4.403  17.227 -0.0326 -0.1786 -0.2180
  382MPD2    C3 5711   1.475   4.287  17.154 -0.0704  0.5686  0.9576
  382MPD2    C4 5712   1.486   4.297  17.017  0.2914  0.0719 -0.3410
  382MPD2    C5 5713   1.542   4.405  16.962 -0.5153 -0.3664  0.0397
  382MPD2     H 5714   1.499   4.408  17.335 -0.4125 -2.0719 -0.1588
  382MPD2    H1 5715   1.453   4.216  16.952  0.2035 -0.4469  0.3557
  382MPD2    H2 5716   1.617   4.600  16.973 -1.0051  0.9801  1.0665
  382MPD2    H3 5717   1.549   4.401  16.854 -1.1861  0.0117 -0.0148
  382MPD2     N 5718   1.420   4.168  17.205  0.1404  0.8192 -0.0458
  382MPD2    H5 5719   1.399   4.098  17.135 -2.4495  1.2461  0.2998
  382MPD2    N1 5720   1.608   4.622  17.241  0.4066 -0.2037  0.0043
  382MPD2    H7 5721   1.599   4.608  17.341 -0.9730  0.9258  0.0352
  383TMC3    C1 5722   1.354   4.010  17.359 -0.0476  0.3016  0.0914
  383TMC3    C2 5723   1.347   3.932  17.248  0.0121  0.1196 -1.1160
  383TMC3    C3 5724   1.267   3.819  17.268 -0.1623 -0.2543  0.0497
  383TMC3    C4 5725   1.287   3.983  17.472 -1.0873 -0.1359 -0.0894
  383TMC3    C5 5726   1.205   3.880  17.482 -1.0866 -0.1548  0.1218
  383TMC3    C6 5727   1.178   3.800  17.373  0.5360 -0.3107  0.5472
  383TMC3     C 5728   1.410   4.137  17.339  0.2094  0.1802 -0.7925
  383TMC3     O 5729   1.421   4.212  17.436 -0.2794 -0.3706 -1.0968
  383TMC3     H 5730   1.404   3.938  17.156  1.1278 -1.0006 -0.5016
  383TMC3    H1 5731   1.304   4.047  17.558 -1.3358 -0.7734  0.4407
  383TMC3    H2 5732   1.120   3.709  17.378 -0.8348  0.5848  1.1132
  383TMC3    C7 5733   1.178   3.835  17.613 -0.1798 -0.1905  0.2156
  383TMC3    C8 5734   1.248   3.721  17.165 -0.1209  0.8485 -0.0334
  383TMC3    O1 5735   1.252   3.873   0.004  0.0464 -0.4281  0.0542
  383TMC3    O2 5736   1.262   3.759  17.052 -0.1768 -0.1826  0.0053
  384MPD2     C 5737   2.994   0.087  11.831 -0.4456  0.7151 -0.6513
  384MPD2    C1 5738   2.966   0.030  11.955 -0.2254 -0.0386 -0.4208
  384MPD2    C2 5739   3.029   4.633  11.989  0.0297  0.0189  0.6627
  384MPD2    C3 5740   3.107   4.565  11.904  0.0374 -0.4963 -0.5563
  384MPD2    C4 5741   3.133   4.622  11.783  1.0204  0.3057 -0.5158
  384MPD2    C5 5742   3.078   0.020  11.749 -0.1274  0.1673 -0.3137
  384MPD2     H 5743   2.997   4.588  12.082 -0.3625 -0.1211  0.4595
  384MPD2    H1 5744   3.208   4.580  11.716  2.3672  1.8789 -0.0105
  384MPD2    H2 5745   2.942   0.172  11.788 -1.2308  0.7868  0.4542
  384MPD2    H3 5746   3.097   0.052  11.647 -2.0460  0.6539 -0.5136
  384MPD2     N 5747   3.165   4.435  11.939  0.1448 -0.2318 -0.3562
  384MPD2    H5 5748   3.206   4.386  11.861 -0.8940 -2.9747  0.8233
  384MPD2    N1 5749   2.881   0.091  12.050 -0.3853 -0.3516  0.2527
  384MPD2    H7 5750   2.889   0.044  12.139 -1.7885 -0.6239  0.2326
  385TMC3    C1 5751   3.200   4.240  12.084  0.0046  0.3418  0.5338
  385TMC3    C2 5752   3.132   4.154  11.994  0.0385 -0.4152 -1.1103
  385TMC3    C3 5753   3.096   4.034  12.035 -0.0316 -0.2651 -0.0451
  385TMC3    C4 5754   3.206   4.208  12.218 -0.3939  0.3692  0.2918
  385TMC3    C5 5755   3.154   4.090  12.258 -0.6621 -0.3778  0.1006
  385TMC3    C6 5756   3.107   3.998  12.170 -0.1356 -0.7131  0.6064
  385TMC3     C 5757   3.160   4.378  12.072  0.1373 -0.0750  0.2245
  385TMC3     O 5758   3.122   4.422  12.180  0.1939  0.0006 -0.2407
  385TMC3     H 5759   3.130   4.177  11.888 -1.5481 -1.9957 -1.4161
  385TMC3    H1 5760   3.261   4.269  12.288  0.9713 -2.2055  1.4335
  385TMC3    H2 5761   3.071   3.902  12.207 -1.2269 -0.5444 -0.0158
  385TMC3    C7 5762   3.064   4.106  12.373  0.0399  0.1039 -0.7035
  385TMC3    C8 5763   3.145   3.929  11.944  0.8017  0.4786  0.4408
  385TMC3    O1 5764   3.011   4.009  12.418 -0.0455  0.2391  0.6144
  385TMC3    O2 5765   3.263   3.900  11.953  0.5057 -0.2288  0.3015
  386TMC3    C1 5766   3.214   1.483  11.591 -0.9000 -0.3985  0.5849
  386TMC3    C2 5767   3.314   1.554  11.530  0.2492  0.2333  0.2713
  386TMC3    C3 5768   3.328   1.688  11.558  0.0692 -0.5445  0.8720
  386TMC3    C4 5769   3.116   1.543  11.663 -0.0943  0.3993  0.0946
  386TMC3    C5 5770   3.146   1.672  11.699 -0.0453  0.0414  0.7118
  386TMC3    C6 5771   3.254   1.748  11.656  0.5359  0.2508 -0.0648
  386TMC3     C 5772   3.228   1.338  11.601 -0.8812  0.4623 -0.0630
  386TMC3     O 5773   3.131   1.274  11.634  0.1807 -0.3437  1.0698
  386TMC3     H 5774   3.390   1.506  11.470 -0.8403 -2.7196  1.2239
  386TMC3    H1 5775   3.026   1.491  11.693  0.1598 -0.2740 -0.2948
  386TMC3    H2 5776   3.264   1.856  11.662 -1.6348  0.3908  0.8181
  386TMC3    C7 5777   3.034   1.750  11.749 -0.5301  0.0032  0.0652
  386TMC3    C8 5778   3.350   1.775  11.445 -0.1469 -0.0491  0.4672
  386TMC3    O1 5779   3.050   1.842  11.832  0.0236 -0.3753 -0.1346
  386TMC3    O2 5780   3.349   1.898  11.461 -0.2072  0.4421  0.3706
  387MPD2     C 5781   1.102   1.796   9.613 -0.0592 -0.0380  0.1823
  387MPD2    C1 5782   1.137   1.845   9.735 -0.2744  0.1584 -0.0704
  387MPD2    C2 5783   1.213   1.769   9.822  0.8172 -0.3334  0.2907
  387MPD2    C3 5784   1.262   1.640   9.783 -1.0601  0.6489  0.0827
  387MPD2    C4 5785   1.246   1.609   9.655 -0.7009  0.1121 -0.3311
  387MPD2    C5 5786   1.163   1.679   9.569  0.3571 -1.0028  0.4208
  387MPD2     H 5787   1.221   1.798   9.926  0.2922 -1.1739  0.5610
  387MPD2    H1 5788   1.278   1.515   9.612  0.1311 -0.8394  2.3790
  387MPD2    H2 5789   1.041   1.851   9.543  3.0877  1.1615 -1.6368
  387MPD2    H3 5790   1.153   1.643   9.467  1.6225  0.0068 -0.0594
  387MPD2     N 5791   1.326   1.556   9.881 -0.2592  0.8957  0.0705
  387MPD2    H5 5792   1.338   1.606   9.969  1.9163 -0.6678  0.6466
  387MPD2    N1 5793   1.070   1.959   9.791 -0.5759  0.0727  0.5009
  387MPD2    H7 5794   1.097   1.971   9.888 -1.6246  1.9982  0.5283
  388TMC3    C1 5795   0.904   2.094   9.864 -0.5427 -0.2170 -0.4500
  388TMC3    C2 5796   0.841   2.211   9.850 -0.4546  0.0700 -0.1888
  388TMC3    C3 5797   0.794   2.277   9.962 -0.2603  0.0934  0.4004
  388TMC3    C4 5798   0.906   2.041   9.994  0.3275 -0.5629 -0.0403
  388TMC3    C5 5799   0.862   2.113  10.103  0.0677 -0.3196 -0.8960
  388TMC3    C6 5800   0.801   2.232  10.091  0.3162  0.1810 -0.0302
  388TMC3     C 5801   0.970   2.039   9.744  0.6149  0.0831 -0.3573
  388TMC3     O 5802   0.927   2.051   9.628 -0.3471  0.4607 -0.3963
  388TMC3     H 5803   0.833   2.245   9.747  0.2325  0.4384 -0.1243
  388TMC3    H1 5804   0.920   1.933   9.996  2.2364 -0.3074 -0.0861
  388TMC3    H2 5805   0.748   2.277  10.174  0.6593  0.4956  0.0166
  388TMC3    C7 5806   0.874   2.049  10.229 -0.5344  0.8276 -0.1768
  388TMC3    C8 5807   0.710   2.393   9.933  0.3942 -0.2726  0.8873
  388TMC3    O1 5808   0.794   2.072  10.319  0.0219  0.2593  0.3833
  388TMC3    O2 5809   0.702   2.433   9.816  0.0578  0.0272  0.7393
  389MPD2     C 5810   0.046   4.697  10.971  0.0391  0.3144  0.7198
  389MPD2    C1 5811   4.671   4.651  10.886 -0.0867  0.1795 -0.6505
  389MPD2    C2 5812   4.570   4.560  10.933 -0.2845  0.0609  0.5202
  389MPD2    C3 5813   4.556   4.540  11.067 -0.7628 -0.1148  0.0242
  389MPD2    C4 5814   4.652   4.589  11.153 -0.4142  0.0993  0.5319
  389MPD2    C5 5815   0.028   4.666  11.110  0.0681 -0.6222 -0.5954
  389MPD2     H 5816   4.495   4.517  10.868 -1.3231  0.9637  1.1194
  389MPD2    H1 5817   4.652   4.562  11.258 -3.3274 -0.9533  0.2655
  389MPD2    H2 5818   0.129   0.028  10.929  0.3262 -0.2849  0.4963
  389MPD2    H3 5819   0.104   4.706  11.177 -0.1271  1.9921 -1.9302
  389MPD2     N 5820   4.447   4.469  11.130  0.0488  0.2395 -0.4045
  389MPD2    H5 5821   4.437   4.474  11.230 -0.1549  1.1549 -0.4689
  389MPD2    N1 5822   4.693   4.694  10.755 -0.1311  0.1726  0.2800
  389MPD2    H7 5823   0.056   0.017  10.737 -0.2393  0.0879 -0.4677
  390TMC3    C1 5824   4.276   4.298  11.146  1.0565  0.8286  0.0398
  390TMC3    C2 5825   4.296   4.297  11.283  0.3566  0.1070  0.3224
  390TMC3    C3 5826   4.252   4.193  11.356  1.0180 -0.7900 -0.0560
  390TMC3    C4 5827   4.235   4.188  11.085 -0.5191 -0.2410  0.2871
  390TMC3    C5 5828   4.201   4.079  11.157 -0.2255  0.2727 -0.0228
  390TMC3    C6 5829   4.208   4.079  11.289  0.4233  0.3526  0.4889
  390TMC3     C 5830   4.351   4.392  11.065 -0.2561  0.4779  0.0502
  390TMC3     O 5831   4.358   4.354  10.949  0.3685  0.5439  0.1968
  390TMC3     H 5832   4.315   4.389  11.336  0.8908  0.5870 -0.7063
  390TMC3    H1 5833   4.223   4.189  10.977 -0.6054  0.1532  0.2988
  390TMC3    H2 5834   4.167   3.992  11.339  0.8773  1.1235  2.1997
  390TMC3    C7 5835   4.074   4.031  11.120  0.0417  0.4161 -0.3781
  390TMC3    C8 5836   4.177   4.235  11.474 -0.0303  0.1914 -0.0830
  390TMC3    O1 5837   4.070   3.937  11.043  0.2200 -0.1290  0.2355
  390TMC3    O2 5838   4.184   4.345  11.521 -0.1548 -0.2329 -0.1992
  391MPD2     C 5839   4.457   1.482  11.154 -0.6251  0.0147  0.3318
  391MPD2    C1 5840   4.509   1.614  11.128 -0.3015 -0.8785  0.1011
  391MPD2    C2 5841   4.523   1.659  11.000 -0.4724 -0.2865  0.3396
  391MPD2    C3 5842   4.468   1.589  10.900 -0.5962  0.4538  0.6651
  391MPD2    C4 5843   4.398   1.470  10.927 -0.3778  0.0973 -0.9901
  391MPD2    C5 5844   4.395   1.417  11.051  0.0185 -0.2542  0.2419
  391MPD2     H 5845   4.560   1.760  10.984 -3.0273  0.6500  0.2347
  391MPD2    H1 5846   4.347   1.414  10.849  2.5058 -2.7769 -0.8254
  391MPD2    H2 5847   4.443   1.436  11.251  1.2282 -1.6423 -0.1991
  391MPD2    H3 5848   4.334   1.329  11.071 -2.0214  1.2629  0.7016
  391MPD2     N 5849   4.484   1.644  10.773 -0.2172  0.1170  0.1057
  391MPD2    H5 5850   4.556   1.714  10.768 -0.5050  0.3424 -0.8693
  391MPD2    N1 5851   4.568   1.671  11.241 -0.2891 -0.0547 -0.0427
  391MPD2    H7 5852   4.582   1.613  11.324  0.0161  2.7179  1.8363
  392TMC3    C1 5853   4.447   1.699  10.549  0.5272 -0.4777  0.1253
  392TMC3    C2 5854   4.368   1.679  10.442  0.7264 -0.2017 -0.2310
  392TMC3    C3 5855   4.393   1.761  10.337  0.6133  0.5798  0.4835
  392TMC3    C4 5856   4.535   1.799  10.560 -0.0384 -0.0176 -0.1140
  392TMC3    C5 5857   4.540   1.884  10.452  0.2958 -0.0431  0.4184
  392TMC3    C6 5858   4.471   1.873  10.338  0.5171 -0.2643  0.2551
  392TMC3     C 5859   4.410   1.617  10.662 -0.5059 -0.3056 -0.1326
  392TMC3     O 5860   4.301   1.559  10.656  0.0350 -0.1165 -0.8038
  392TMC3     H 5861   4.315   1.585  10.432 -0.2412  0.1799  1.4288
  392TMC3    H1 5862   4.606   1.818  10.640 -0.4835  0.9306  0.0619
  392TMC3    H2 5863   4.486   1.922  10.242 -1.3379 -1.5901 -0.7337
  392TMC3    C7 5864   4.601   2.013  10.480 -0.2569 -0.2374  0.6073
  392TMC3    C8 5865   4.303   1.735  10.221  0.6409  0.1599  0.7187
  392TMC3    O1 5866   4.658   2.020  10.587  0.2249  0.0919  0.3132
  392TMC3    O2 5867   4.251   1.623  10.215  0.5016 -0.0756 -0.5274
  393TMC3    C1 5868   3.084   4.327  10.774 -0.0988  0.1033 -0.0061
  393TMC3    C2 5869   3.017   4.356  10.889 -0.2666 -0.7886  0.1890
  393TMC3    C3 5870   2.980   4.260  10.976 -0.2242  0.5316 -0.1837
  393TMC3    C4 5871   3.111   4.197  10.747 -0.2425  0.4209 -0.4143
  393TMC3    C5 5872   3.080   4.100  10.840  0.0047 -0.0832  0.3143
  393TMC3    C6 5873   3.009   4.127  10.954  0.3264  0.8497 -0.0277
  393TMC3     C 5874   3.156   4.423  10.694 -0.1638  0.5137  0.5968
  393TMC3     O 5875   3.200   4.388  10.581 -0.1662 -0.4755  0.3391
  393TMC3     H 5876   2.986   4.458  10.911  1.8806  0.5610 -3.0481
  393TMC3    H1 5877   3.145   4.180  10.645 -0.1954  0.0696 -0.3401
  393TMC3    H2 5878   2.952   4.052  11.006  0.8307  0.3687 -0.1681
  393TMC3    C7 5879   3.105   3.957  10.803  0.0460 -0.0541 -0.2547
  393TMC3    C8 5880   2.862   4.300  11.054 -0.2589 -0.6580 -0.1776
  393TMC3    O1 5881   3.032   3.872  10.854  0.1932 -0.0810  0.3766
  393TMC3    O2 5882   2.807   4.398  11.006 -0.3436  0.3984  0.4486
  394TMC3    C1 5883   4.626   0.012  10.530 -0.0358  0.2527 -0.0389
  394TMC3    C2 5884   4.528   4.723  10.432  0.2804 -0.6619  0.1192
  394TMC3    C3 5885   4.549   0.060  10.313  0.0104 -0.0026  0.2021
  394TMC3    C4 5886   0.009   0.097  10.528 -0.2935  0.0969  0.5554
  394TMC3    C5 5887   0.022   0.158  10.404  0.1545  0.2690  0.4538
  394TMC3    C6 5888   4.661   0.133  10.305 -0.4560 -0.2407 -0.4277
  394TMC3     C 5889   4.600   4.668  10.657 -0.4902  0.2391  0.7638
  394TMC3     O 5890   4.493   4.611  10.662  0.3945 -0.0942 -0.3449
  394TMC3     H 5891   4.450   4.649  10.444 -0.0741 -0.2719  0.2006
  394TMC3    H1 5892   0.081   0.123  10.604  1.3270  1.7512 -1.5527
  394TMC3    H2 5893   4.682   0.187  10.213 -0.5476 -0.4565 -0.5735
  394TMC3    C7 5894   0.152   0.203  10.370  0.0282 -0.0432  0.3328
  394TMC3    C8 5895   4.523   4.711  10.193 -0.3486 -0.1357 -0.5437
  394TMC3    O1 5896   0.162   0.274  10.273 -0.3474  0.1909  0.2415
  394TMC3    O2 5897   4.507   0.054  10.091  0.3958 -0.5603 -0.3168
  395TMC3    C1 5898   0.119   2.875  15.145 -0.2203  0.3904  0.0748
  395TMC3    C2 5899   0.105   2.776  15.050  0.2134  0.6235 -0.0825
  395TMC3    C3 5900   0.184   2.772  14.939 -0.2828  0.1138  0.5530
  395TMC3    C4 5901   0.224   2.961  15.136  0.6070  0.3665  0.2495
  395TMC3    C5 5902   0.305   2.948  15.031  0.5099 -0.4568  0.3099
  395TMC3    C6 5903   0.289   2.858  14.927 -0.5189 -0.7788  0.3997
  395TMC3     C 5904   0.028   2.862  15.261 -0.1166 -0.0385  0.3014
  395TMC3     O 5905   4.706   2.751  15.279 -0.2993 -0.1029  0.4613
  395TMC3     H 5906   0.019   2.710  15.058  0.5697  0.2825  0.8504
  395TMC3    H1 5907   0.245   3.032  15.216  0.6436  1.0976 -0.4140
  395TMC3    H2 5908   0.362   2.841  14.848  0.1442 -0.1460  0.8740
  395TMC3    C7 5909   0.433   3.023  15.027  0.5442 -0.2572 -0.2846
  395TMC3    C8 5910   0.178   2.679  14.835 -0.6525 -0.6024  0.3383
  395TMC3    O1 5911   0.440   3.119  15.104 -0.1733 -0.1243 -0.2453
  395TMC3    O2 5912   0.268   2.670  14.753 -0.6971  0.1415  0.6897
  396MPD2     C 5913   4.238   3.541  17.170 -0.3068 -0.3457 -0.5555
  396MPD2    C1 5914   4.371   3.542  17.120  0.3569 -0.7459 -1.5208
  396MPD2    C2 5915   4.398   3.636  17.021 -0.2479 -0.1971 -0.4733
  396MPD2    C3 5916   4.304   3.737  16.983  0.7867 -0.1087 -0.7275
  396MPD2    C4 5917   4.180   3.734  17.043  0.2953  0.1649  0.4031
  396MPD2    C5 5918   4.146   3.636  17.133 -0.4795  0.1413 -0.4134
  396MPD2     H 5919   4.494   3.645  16.970 -0.6843 -2.3047 -1.6655
  396MPD2    H1 5920   4.111   3.818  17.042  0.1206  0.0208  0.4381
  396MPD2    H2 5921   4.220   3.478  17.256 -1.0809 -0.2296 -0.6343
  396MPD2    H3 5922   4.051   3.632  17.184 -1.0482 -0.5271 -1.5152
  396MPD2     N 5923   4.338   3.838  16.889 -0.0658  0.0120  0.3727
  396MPD2    H5 5924   4.436   3.841  16.861  0.5461 -2.6175  2.1740
  396MPD2    N1 5925   4.447   3.428  17.150 -0.0032  0.7090  0.3898
  396MPD2    H7 5926   4.391   3.354  17.191 -2.9676  2.0305 -1.3083
  397TMC3    C1 5927   4.593   3.263  17.092 -0.2160 -0.3833  0.7048
  397TMC3    C2 5928   4.633   3.241  16.966  0.1932 -0.4309  0.3340
  397TMC3    C3 5929   4.563   3.154  16.883 -0.0354  0.0530  0.6300
  397TMC3    C4 5930   4.484   3.192  17.144 -0.9300  0.0852  0.3513
  397TMC3    C5 5931   4.418   3.106  17.060 -0.4475 -0.3364  0.3742
  397TMC3    C6 5932   4.455   3.088  16.933  0.8594 -0.1866 -1.3304
  397TMC3     C 5933   4.567   3.403  17.103  0.4916 -0.3568 -0.2212
  397TMC3     O 5934   4.647   3.477  17.043  0.0883  0.1436 -0.3794
  397TMC3     H 5935   4.699   3.313  16.919 -2.4545  1.4677 -0.5105
  397TMC3    H1 5936   4.459   3.203  17.248  1.8698 -0.6464  1.1084
  397TMC3    H2 5937   4.403   3.019  16.867 -0.9681 -0.5743  0.5302
  397TMC3    C7 5938   4.289   3.040  17.098  0.2943 -0.2661  0.6833
  397TMC3    C8 5939   4.572   3.171  16.743 -0.4031 -0.4883 -0.9884
  397TMC3    O1 5940   4.209   2.998  17.016 -0.1621  0.0102  0.2183
  397TMC3    O2 5941   4.477   3.143  16.672  0.0620  0.7542 -0.0408
  398MPD2     C 5942   2.466   4.291   0.232  0.5252 -0.5473 -0.0461
  398MPD2    C1 5943   2.534   4.198   0.309 -0.0298 -0.2116 -0.2263
  398MPD2    C2 5944   2.630   4.244   0.396  0.1718  0.0446  0.0094
  398MPD2    C3 5945   2.659   4.378   0.413 -0.4397 -0.5770  0.1466
  398MPD2    C4 5946   2.594   4.470   0.332  0.3574  0.2366  1.0300
  398MPD2    C5 5947   2.496   4.422   0.244 -0.0399 -0.0113 -0.1706
  398MPD2     H 5948   2.677   4.168   0.457  1.1557 -0.4820 -1.3989
  398MPD2    H1 5949   2.610   4.576   0.350  0.2245 -0.0475  2.8818
  398MPD2    H2 5950   2.393   4.264   0.156  0.7436 -1.5617  0.1128
  398MPD2    H3 5951   2.436   4.500   0.199  0.0945 -0.8216 -1.7337
  398MPD2     N 5952   2.752   4.406   0.515 -0.0475 -0.3260  0.5227
  398MPD2    H5 5953   2.795   4.331   0.567 -0.6746 -0.1693  1.2691
  398MPD2    N1 5954   2.507   4.059   0.310  0.0956  0.1155 -0.6509
  398MPD2    H7 5955   2.576   3.996   0.352 -1.6253 -2.5275 -1.7843
  399TMC3    C1 5956   2.390   3.850   0.285  0.1547 -0.6258  1.1688
  399TMC3    C2 5957   2.496   3.781   0.332  0.6829  0.2610  0.2530
  399TMC3    C3 5958   2.498   3.647   0.352 -0.0211  0.7537  0.1179
  399TMC3    C4 5959   2.280   3.780   0.251  0.2357  0.5083 -0.3204
  399TMC3    C5 5960   2.279   3.651   0.261 -0.2094  0.0418 -0.1538
  399TMC3    C6 5961   2.389   3.585   0.314 -0.0946  0.7433  0.2856
  399TMC3     C 5962   2.391   3.996   0.270  0.3943  0.9611 -0.1011
  399TMC3     O 5963   2.294   4.044   0.219 -0.0150 -0.0227 -0.7779
  399TMC3     H 5964   2.582   3.831   0.375  0.8238 -0.1259  0.4250
  399TMC3    H1 5965   2.187   3.836   0.248  0.4446  0.7874 -1.4598
  399TMC3    H2 5966   2.373   3.479   0.320 -0.5029  0.7386 -0.8935
  399TMC3    C7 5967   2.158   3.587   0.208  0.7053  0.3204 -0.0144
  399TMC3    C8 5968   2.628   3.586   0.360 -0.4358 -0.5418  0.3840
  399TMC3    O1 5969   2.049   3.629   0.241  0.4546 -0.4409  0.4586
  399TMC3    O2 5970   2.721   3.664   0.331 -0.5543  0.5345 -0.1595
  400TMC3    C1 5971   1.142   3.353  16.487  0.4109 -0.4319  1.0587
  400TMC3    C2 5972   1.038   3.304  16.407 -0.3449 -0.7868 -0.2954
  400TMC3    C3 5973   0.929   3.380  16.377  0.5435 -0.0055  0.8589
  400TMC3    C4 5974   1.146   3.488  16.516 -0.0051  1.2209 -0.0461
  400TMC3    C5 5975   1.042   3.565  16.473 -0.3731  0.4181 -0.1841
  400TMC3    C6 5976   0.925   3.515  16.418  0.1233 -0.0649 -0.4721
  400TMC3     C 5977   1.220   3.252  16.560 -0.6442 -0.8037 -0.0924
  400TMC3     O 5978   1.175   3.141  16.550 -0.2449  0.2261  0.2197
  400TMC3     H 5979   1.021   3.197  16.399 -1.8113 -0.5331 -0.5566
  400TMC3    H1 5980   1.228   3.529  16.574 -0.8563  1.1115  1.2513
  400TMC3    H2 5981   0.848   3.584  16.384 -0.5327  0.2864  1.6838
  400TMC3    C7 5982   1.048   3.705  16.516 -0.0872  0.1211  0.0483
  400TMC3    C8 5983   0.804   3.332  16.343  0.4434 -0.3966 -0.7835
  400TMC3    O1 5984   1.136   3.740  16.593  0.3454 -0.4577  0.3966
  400TMC3    O2 5985   0.708   3.400  16.378 -0.3704  0.6005 -0.7337
  401MPD2     C 5986   3.710   1.550   0.483  0.3361 -0.0537 -0.3479
  401MPD2    C1 5987   3.793   1.534   0.590  0.5999 -0.8529  0.2362
  401MPD2    C2 5988   3.861   1.415   0.603 -0.1816 -0.0303  0.3574
  401MPD2    C3 5989   3.836   1.308   0.516  0.2869 -0.4143 -0.0434
  401MPD2    C4 5990   3.756   1.329   0.408  0.5188 -0.1045 -0.2746
  401MPD2    C5 5991   3.688   1.443   0.397  0.6336 -0.2379 -0.1654
  401MPD2     H 5992   3.927   1.398   0.687  0.6877 -0.0738 -0.3388
  401MPD2    H1 5993   3.733   1.245   0.343 -0.2032 -0.3194  0.2462
  401MPD2    H2 5994   3.658   1.645   0.476  0.4483  0.0651  0.4287
  401MPD2    H3 5995   3.626   1.450   0.309  1.0217  0.0425 -0.4190
  401MPD2     N 5996   3.902   1.192   0.554 -0.3772  0.1665 -0.1333
  401MPD2    H5 5997   3.959   1.201   0.638  0.2975  1.7441 -0.7642
  401MPD2    N1 5998   3.821   1.634   0.682  0.3113 -0.0499  0.4972
  401MPD2    H7 5999   3.904   1.629   0.740  0.0553 -1.0398  0.7743
  402TMC3    C1 6000   3.979   0.972   0.544 -0.0032 -0.6605  0.9027
  402TMC3    C2 6001   3.980   0.961   0.680 -0.2382  0.9561 -0.1640
  402TMC3    C3 6002   4.032   0.846   0.731  0.8489 -1.2619  1.0503
  402TMC3    C4 6003   4.003   0.864   0.465  0.1894  0.2152  0.3322
  402TMC3    C5 6004   4.045   0.753   0.527 -0.1432 -1.0590  0.7507
  402TMC3    C6 6005   4.066   0.737   0.660  0.3418 -0.1737  0.6998
  402TMC3     C 6006   3.913   1.079   0.473  0.4019 -0.2916 -0.3660
  402TMC3     O 6007   3.860   1.058   0.364  0.0305  0.5164 -0.0431
  402TMC3     H 6008   3.956   1.042   0.748 -1.9380  0.5966 -0.3444
  402TMC3    H1 6009   3.997   0.869   0.357 -1.4606  0.4057  0.4263
  402TMC3    H2 6010   4.107   0.643   0.696 -0.8719 -0.8819  0.2482
  402TMC3    C7 6011   4.132   0.670   0.442  0.3475 -0.1546  0.1611
  402TMC3    C8 6012   4.094   0.864   0.862  0.1348 -0.5540 -0.6091
  402TMC3    O1 6013   4.200   0.724   0.356 -0.5500  0.1942  0.1339
  402TMC3    O2 6014   4.203   0.810   0.879 -0.0112 -0.3339  0.1018
  403MPD2     C 6015   2.590   0.227  13.100 -0.0467 -0.1219  0.4828
  403MPD2    C1 6016   2.612   0.105  13.157 -0.3787 -0.0471  0.0912
  403MPD2    C2 6017   2.737   0.076  13.202  0.0318 -0.1714  0.6662
  403MPD2    C3 6018   2.846   0.166  13.213 -0.3081 -0.5647  0.1921
  403MPD2    C4 6019   2.817   0.294  13.159  0.1215  0.2809 -0.1204
  403MPD2    C5 6020   2.694   0.324  13.108  0.5573  0.0612 -0.6890
  403MPD2     H 6021   2.757   4.707  13.252  2.1107 -0.8459 -1.4375
  403MPD2    H1 6022   2.901   0.359  13.138  0.3462  0.5328  1.5011
  403MPD2    H2 6023   2.497   0.243  13.046 -0.8124 -1.0998  1.5133
  403MPD2    H3 6024   2.692   0.419  13.057  1.1744  1.1009  1.2410
  403MPD2     N 6025   2.963   0.117  13.272  0.3206 -0.7192 -0.3006
  403MPD2    H5 6026   2.963   0.018  13.294 -0.8975 -0.8254 -0.7667
  403MPD2    N1 6027   2.503   0.018  13.156 -0.2962 -0.6468  0.1064
  403MPD2    H7 6028   2.420   0.054  13.111 -0.0515 -0.6263 -0.3269
  404TMC3    C1 6029   2.370   4.552  13.212  0.6256  0.0215 -0.2413
  404TMC3    C2 6030   2.352   4.451  13.301 -0.5598 -0.1226 -0.7238
  404TMC3    C3 6031   2.322   4.328  13.254  0.2479 -0.6097  0.5162
  404TMC3    C4 6032   2.319   4.549  13.085 -0.2045  0.1681  0.1355
  404TMC3    C5 6033   2.281   4.423  13.041  0.3734 -0.3048 -0.2873
  404TMC3    C6 6034   2.291   4.309  13.119  0.0464 -0.3214 -0.9553
  404TMC3     C 6035   2.491   4.631  13.231 -0.2755 -0.5028 -0.4843
  404TMC3     O 6036   2.564   4.585  13.315 -0.6297  0.1641  0.1644
  404TMC3     H 6037   2.372   4.463  13.407  0.7208 -1.2957 -0.8230
  404TMC3    H1 6038   2.353   4.630  13.022 -1.2637 -1.7273 -2.8814
  404TMC3    H2 6039   2.279   4.206  13.087  1.9297 -0.5692 -0.8996
  404TMC3    C7 6040   2.262   4.411  12.896  0.0339 -0.1754  0.3147
  404TMC3    C8 6041   2.373   4.220  13.328 -0.1951 -0.2416 -0.0195
  404TMC3    O1 6042   2.262   4.517  12.834 -0.2787  0.1885  0.3023
  404TMC3    O2 6043   2.413   4.122  13.272  0.0576  0.2255 -0.3838
  405MPD2     C 6044   2.988   0.402  14.692  0.8284 -0.5165 -0.0971
  405MPD2    C1 6045   2.897   0.351  14.595  0.1454  0.2526 -0.0284
  405MPD2    C2 6046   2.850   0.431  14.489 -0.2339  0.5487 -0.2140
  405MPD2    C3 6047   2.891   0.567  14.488 -0.6595 -0.3452  0.5234
  405MPD2    C4 6048   2.990   0.612  14.577  0.8329  0.1452 -0.7952
  405MPD2    C5 6049   3.035   0.533  14.682  0.3181 -0.2997  0.2058
  405MPD2     H 6050   2.776   0.396  14.418  0.1222  0.7407 -0.6743
  405MPD2    H1 6051   3.038   0.708  14.569 -1.5464  1.3173 -0.9384
  405MPD2    H2 6052   3.027   0.332  14.766 -1.2268 -1.7017 -0.1190
  405MPD2    H3 6053   3.110   0.567  14.752  2.0769 -3.2720 -0.2342
  405MPD2     N 6054   2.845   0.639  14.376  0.5055 -0.6812 -1.0170
  405MPD2    H5 6055   2.775   0.593  14.319 -1.8779  0.4145  1.0190
  405MPD2    N1 6056   2.871   0.217  14.600  0.1078 -0.1363 -0.1969
  405MPD2    H7 6057   2.886   0.171  14.689 -1.9468 -1.2519 -0.4349
  406TMC3    C1 6058   2.672   0.928  14.096 -0.2401 -0.8563  0.2250
  406TMC3    C2 6059   2.653   0.833  13.998  0.2529  0.5105 -0.0625
  406TMC3    C3 6060   2.719   0.714  14.002 -0.0665 -0.2704 -0.1507
  406TMC3    C4 6061   2.761   0.910  14.203  0.6163 -0.4124  0.5883
  406TMC3    C5 6062   2.838   0.793  14.204  0.1820 -0.1116  0.0943
  406TMC3    C6 6063   2.811   0.695  14.108 -0.3232  0.2526 -0.2149
  406TMC3     C 6064   2.554   1.005  14.142 -0.2052  0.1344  0.4416
  406TMC3     O 6065   2.566   1.107  14.210  0.3816  0.9665 -0.1617
  406TMC3     H 6066   2.591   0.857  13.912  0.3467  1.7646  0.2252
  406TMC3    H1 6067   2.768   0.982  14.284  1.4291  0.4604 -0.2549
  406TMC3    H2 6068   2.880   0.612  14.101  1.0864  1.4452 -0.6511
  406TMC3    C7 6069   2.894   0.762  14.335 -0.7887 -0.2057 -1.6062
  406TMC3    C8 6070   2.688   0.601  13.913 -0.1163 -0.9699  0.1932
  406TMC3    O1 6071   2.948   0.852  14.400  0.4722 -0.0523 -0.0137
  406TMC3    O2 6072   2.624   0.621  13.811 -0.1662 -0.3785 -0.0346
  407MPD2     C 6073   0.979   1.196   9.519  0.6333 -0.5118  0.3196
  407MPD2    C1 6074   1.070   1.276   9.586  0.4050  0.6619  0.4619
  407MPD2    C2 6075   1.032   1.331   9.707 -0.2855 -0.6007 -0.2322
  407MPD2    C3 6076   0.902   1.333   9.747 -0.5068  0.7108 -0.4772
  407MPD2    C4 6077   0.810   1.266   9.676 -0.1998  1.0786  0.2784
  407MPD2    C5 6078   0.850   1.189   9.571 -0.2232 -0.6236 -0.1374
  407MPD2     H 6079   1.110   1.390   9.754  0.1206 -1.6427  0.3832
  407MPD2    H1 6080   0.707   1.260   9.709 -0.5994 -1.3096 -1.3757
  407MPD2    H2 6081   0.988   1.146   9.423  1.7671 -0.6426  0.4920
  407MPD2    H3 6082   0.789   1.131   9.501  0.2463 -0.9081 -0.3076
  407MPD2     N 6083   0.859   1.410   9.848  0.1004 -0.0811  0.0367
  407MPD2    H5 6084   0.762   1.441   9.845 -0.2313 -1.0481  0.6699
  407MPD2    N1 6085   1.204   1.282   9.538  0.4571  0.2878 -0.4502
  407MPD2    H7 6086   1.267   1.318   9.610  0.6079 -0.0723 -0.4027
  408TMC3    C1 6087   1.373   1.317   9.381 -0.3613  0.9617  0.0150
  408TMC3    C2 6088   1.473   1.341   9.474 -0.0712 -0.5254 -0.3609
  408TMC3    C3 6089   1.574   1.431   9.444 -0.9977  0.0547 -0.3698
  408TMC3    C4 6090   1.374   1.388   9.265  0.1804 -0.5296 -0.7698
  408TMC3    C5 6091   1.461   1.491   9.247  0.1796 -0.5951  0.4367
  408TMC3    C6 6092   1.565   1.510   9.333 -0.5453  0.1805 -0.0518
  408TMC3     C 6093   1.248   1.253   9.412  0.1225  0.0563 -0.2538
  408TMC3     O 6094   1.181   1.213   9.315  0.2673  0.0111  0.4565
  408TMC3     H 6095   1.470   1.293   9.571  0.8446  0.2123  0.0317
  408TMC3    H1 6096   1.285   1.381   9.203  0.8890 -1.7171 -1.6563
  408TMC3    H2 6097   1.651   1.567   9.299 -1.3229  2.2867  1.4636
  408TMC3    C7 6098   1.383   1.610   9.217  0.4182 -0.6486 -0.1102
  408TMC3    C8 6099   1.618   1.516   9.555  0.1312 -0.3437  0.2317
  408TMC3    O1 6100   1.386   1.690   9.312  0.0282  0.4888  0.1596
  408TMC3    O2 6101   1.687   1.467   9.641  0.0382  0.0339 -0.0503
  409MPD2     C 6102   0.584   2.697  16.582 -0.1140 -0.7051 -0.6069
  409MPD2    C1 6103   0.477   2.788  16.620  0.0722 -0.2354 -0.2983
  409MPD2    C2 6104   0.499   2.923  16.633 -0.0724  0.4375 -0.1221
  409MPD2    C3 6105   0.630   2.967  16.640  0.3634  0.0769 -0.1932
  409MPD2    C4 6106   0.735   2.877  16.611  0.1241  0.4032 -0.3927
  409MPD2    C5 6107   0.710   2.745  16.575  0.5364 -0.2780  0.1881
  409MPD2     H 6108   0.417   2.992  16.655  1.1467  1.8035  0.1501
  409MPD2    H1 6109   0.836   2.913  16.602 -0.5955  2.5369  0.1084
  409MPD2    H2 6110   0.564   2.593  16.561  0.2550 -0.8101 -0.4503
  409MPD2    H3 6111   0.782   2.666  16.553 -0.1331 -1.2457  1.4963
  409MPD2     N 6112   0.666   3.094  16.683 -0.4266 -0.0175 -0.0255
  409MPD2    H5 6113   0.766   3.112  16.694 -0.9298  2.5425  0.3387
  409MPD2    N1 6114   0.342   2.750  16.643  0.1487 -0.1268  0.6522
  409MPD2    H7 6115   0.277   2.828  16.652  0.5743  0.1183  1.6784
  410TMC3    C1 6116   0.649   3.328  16.706  0.0274  0.4465 -0.3072
  410TMC3    C2 6117   0.780   3.326  16.765  0.5255 -0.1782  0.5423
  410TMC3    C3 6118   0.832   3.450  16.779 -1.3612 -0.2420  0.2903
  410TMC3    C4 6119   0.575   3.440  16.664 -0.0653  0.1061  0.8171
  410TMC3    C5 6120   0.651   3.550  16.677 -0.2282  0.1680  0.1306
  410TMC3    C6 6121   0.767   3.565  16.738 -0.2724 -0.4174 -0.9895
  410TMC3     C 6122   0.576   3.200  16.705  0.7531 -0.8041 -0.5385
  410TMC3     O 6123   0.453   3.215  16.690  0.3921 -0.1220 -0.4930
  410TMC3     H 6124   0.805   3.242  16.828  1.0592 -0.9950 -0.7680
  410TMC3    H1 6125   0.470   3.444  16.640  0.3194 -0.3397 -0.9360
  410TMC3    H2 6126   0.809   3.664  16.747 -0.6718 -0.4135  0.8496
  410TMC3    C7 6127   0.598   3.671  16.622 -0.3322 -0.3585 -0.1996
  410TMC3    C8 6128   0.962   3.474  16.826 -0.2643 -0.4925 -0.3114
  410TMC3    O1 6129   0.591   3.766  16.700 -0.0061 -0.5198 -0.2510
  410TMC3    O2 6130   0.997   3.591  16.807 -0.3131 -0.5587 -0.2349
  411MPD2     C 6131   0.442   3.957  14.673  0.1307 -0.3327 -0.0279
  411MPD2    C1 6132   0.344   3.899  14.600 -0.1340  0.3834  0.5180
  411MPD2    C2 6133   0.354   3.771  14.558 -0.6127 -0.7384 -0.4502
  411MPD2    C3 6134   0.470   3.704  14.593 -0.3958 -0.1098 -0.1550
  411MPD2    C4 6135   0.577   3.764  14.658  0.3299  0.1038  0.6354
  411MPD2    C5 6136   0.558   3.897  14.679 -0.4862  0.1543 -0.4408
  411MPD2     H 6137   0.268   3.729  14.508 -1.5254 -0.4832  0.9092
  411MPD2    H1 6138   0.677   3.724  14.655  0.2237 -0.1354  0.2462
  411MPD2    H2 6139   0.439   4.057  14.714 -2.1396 -0.1746 -0.5843
  411MPD2    H3 6140   0.635   3.959  14.723 -1.0615  0.8383 -0.3974
  411MPD2     N 6141   0.482   3.567  14.562 -0.0632 -0.3827  0.6247
  411MPD2    H5 6142   0.572   3.526  14.584  0.8238  0.4439 -1.3790
  411MPD2    N1 6143   0.230   3.979  14.576  0.0810 -0.1084 -0.3397
  411MPD2    H7 6144   0.216   4.067  14.625  0.6956 -2.0562  3.3111
  412TMC3    C1 6145   0.437   3.344  14.494 -0.8083 -0.3848 -0.2288
  412TMC3    C2 6146   0.437   3.287  14.617 -0.4226 -0.1611 -0.2522
  412TMC3    C3 6147   0.427   3.153  14.638 -0.0218 -0.2372 -0.3604
  412TMC3    C4 6148   0.420   3.261  14.385  0.6230  0.2770  1.0250
  412TMC3    C5 6149   0.439   3.127  14.404 -0.2606 -0.0930 -0.0429
  412TMC3    C6 6150   0.447   3.074  14.530 -0.1185 -0.1330  0.0340
  412TMC3     C 6151   0.395   3.484  14.495 -0.2838 -0.8183 -0.3436
  412TMC3     O 6152   0.296   3.510  14.427 -0.1415  0.5744 -0.5290
  412TMC3     H 6153   0.420   3.365  14.691 -1.7752 -0.0121 -0.7058
  412TMC3    H1 6154   0.420   3.305  14.286 -0.9356  1.2698  1.4672
  412TMC3    H2 6155   0.437   2.966  14.540  1.0759 -0.1222  1.1608
  412TMC3    C7 6156   0.405   3.035  14.295  0.0349 -0.0769  0.0828
  412TMC3    C8 6157   0.298   3.119  14.696 -1.1273 -0.7538 -0.1721
  412TMC3    O1 6158   0.307   3.064  14.229 -0.3770  0.1854 -1.3178
  412TMC3    O2 6159   0.263   3.192  14.788  0.1257 -0.1139  0.1641
  413MPD2     C 6160   1.600   1.532  15.378 -0.4716  0.4480  0.1780
  413MPD2    C1 6161   1.533   1.411  15.368 -0.5714  0.9425 -1.0928
  413MPD2    C2 6162   1.606   1.298  15.328 -0.5836 -0.0917 -0.6720
  413MPD2    C3 6163   1.747   1.308  15.321 -0.1343  0.5533  0.4310
  413MPD2    C4 6164   1.806   1.429  15.326  0.6420 -0.1201  1.2653
  413MPD2    C5 6165   1.734   1.541  15.351 -0.4171  0.0328  0.5917
  413MPD2     H 6166   1.555   1.206  15.299  1.2915 -2.0346  2.1292
  413MPD2    H1 6167   1.912   1.445  15.314  0.1387  1.6355 -0.7467
  413MPD2    H2 6168   1.557   1.626  15.410  0.3992  0.9286 -0.0588
  413MPD2    H3 6169   1.793   1.632  15.363  0.8429 -0.8122  0.8468
  413MPD2     N 6170   1.821   1.189  15.292 -0.6359  0.1558  0.2638
  413MPD2    H5 6171   1.760   1.109  15.298  0.0983 -0.4531 -0.5172
  413MPD2    N1 6172   1.391   1.417  15.385 -0.6146 -0.3551  0.1052
  413MPD2    H7 6173   1.344   1.507  15.393 -2.3474 -1.2914  0.6072
  414TMC3    C1 6174   1.988   1.032  15.258  0.1733  0.3059  0.5500
  414TMC3    C2 6175   2.109   0.983  15.303  0.0595 -0.8154  0.3094
  414TMC3    C3 6176   2.129   0.852  15.313  0.3020  0.5872 -0.4396
  414TMC3    C4 6177   1.895   0.942  15.215  0.5505 -0.7096 -0.0187
  414TMC3    C5 6178   1.915   0.810  15.235 -0.2566  0.1061 -0.3704
  414TMC3    C6 6179   2.032   0.756  15.286  0.3543 -0.2246 -0.6518
  414TMC3     C 6180   1.952   1.173  15.270 -0.0080 -0.1566 -0.3610
  414TMC3     O 6181   2.045   1.251  15.271 -0.3870  0.9814  0.0687
  414TMC3     H 6182   2.187   1.058  15.316 -0.4201 -0.3257  0.3795
  414TMC3    H1 6183   1.800   0.977  15.178 -0.5948 -2.3754  1.3595
  414TMC3    H2 6184   2.038   0.648  15.293 -0.1890 -0.3575 -2.0398
  414TMC3    C7 6185   1.804   0.714  15.206 -0.3425  0.6130 -0.2971
  414TMC3    C8 6186   2.262   0.796  15.323 -0.4458 -0.8456  0.2228
  414TMC3    O1 6187   1.699   0.727  15.270  0.1646 -1.3029  0.2895
  414TMC3    O2 6188   2.276   0.682  15.278  0.1035 -0.1591  0.0795
  415TMC3    C1 6189   1.991   3.421  10.831  0.1061 -0.2492  0.4013
  415TMC3    C2 6190   2.026   3.547  10.800 -0.5330 -0.8870 -0.4058
  415TMC3    C3 6191   2.002   3.590  10.671 -0.0640 -0.0776  1.2516
  415TMC3    C4 6192   1.922   3.343  10.747 -0.4452 -0.4146 -0.0606
  415TMC3    C5 6193   1.904   3.382  10.618  0.1509  0.3727  0.3012
  415TMC3    C6 6194   1.940   3.509  10.578 -0.1950 -0.1004  0.2915
  415TMC3     C 6195   2.043   3.359  10.953  0.1398 -0.3847 -0.4279
  415TMC3     O 6196   2.065   3.238  10.949  0.2931 -0.2309 -0.5403
  415TMC3     H 6197   2.086   3.608  10.867 -0.4940 -1.0004 -0.3375
  415TMC3    H1 6198   1.883   3.247  10.778  1.2861 -0.5156  1.8338
  415TMC3    H2 6199   1.912   3.547  10.481 -1.4379  2.3504  1.6132
  415TMC3    C7 6200   1.871   3.292  10.513 -0.1975 -0.0953 -0.7015
  415TMC3    C8 6201   2.085   3.700  10.623 -0.6118 -0.0533  0.1812
  415TMC3    O1 6202   1.862   3.346  10.406  0.3467  0.4305  0.3947
  415TMC3    O2 6203   2.124   3.776  10.713  0.1297 -0.2935 -0.4923
  416MPD2     C 6204   4.366   2.985  11.745 -0.2470  0.8529 -0.2604
  416MPD2    C1 6205   4.264   2.907  11.699 -0.3292 -1.5162 -0.0122
  416MPD2    C2 6206   4.294   2.808  11.616 -0.7490  0.3547 -0.3623
  416MPD2    C3 6207   4.427   2.769  11.594 -0.0534  0.8019  0.0520
  416MPD2    C4 6208   4.528   2.844  11.648  0.4765  0.2470 -0.5552
  416MPD2    C5 6209   4.495   2.950  11.733  0.0303  0.0422  0.2435
  416MPD2     H 6210   4.212   2.747  11.580 -0.9465 -0.6867  1.8750
  416MPD2    H1 6211   4.630   2.807  11.638  0.5352  0.2427  0.0662
  416MPD2    H2 6212   4.350   3.066  11.814  1.5402  1.1177 -0.1386
  416MPD2    H3 6213   4.575   3.008  11.778 -0.0154  0.0425  0.3240
  416MPD2     N 6214   4.463   2.651  11.532 -0.3613 -0.2724  0.1301
  416MPD2    H5 6215   4.561   2.625  11.529 -0.1902  0.2118  1.6902
  416MPD2    N1 6216   4.128   2.945  11.733  0.9283 -0.0411 -0.1634
  416MPD2    H7 6217   4.119   3.031  11.788  2.9150  1.1933 -1.7520
  417TMC3    C1 6218   3.896   2.945  11.782 -0.4350  0.0049 -0.4696
  417TMC3    C2 6219   3.917   2.983  11.905 -0.5410 -1.0468  0.1207
  417TMC3    C3 6220   3.821   3.060  11.959  0.4544  0.4871  0.5947
  417TMC3    C4 6221   3.777   2.938  11.713 -0.1165  0.3104 -0.2713
  417TMC3    C5 6222   3.680   3.010  11.778 -0.0511  0.4852 -0.4915
  417TMC3    C6 6223   3.702   3.072  11.896  0.1142 -0.4992 -0.4829
  417TMC3     C 6224   4.006   2.879  11.712  0.3591  0.0266 -0.5868
  417TMC3     O 6225   3.993   2.763  11.676  0.2043 -0.0190  0.2069
  417TMC3     H 6226   4.009   2.970  11.962 -0.1710  1.1909  0.0182
  417TMC3    H1 6227   3.768   2.909  11.609 -3.6595  0.2356  0.0365
  417TMC3    H2 6228   3.624   3.122  11.952  0.2707 -0.2528 -0.4847
  417TMC3    C7 6229   3.575   3.063  11.696 -0.1203 -0.2867 -0.2211
  417TMC3    C8 6230   3.834   3.118  12.092 -0.2920 -0.0220 -0.1672
  417TMC3    O1 6231   3.588   3.038  11.573 -0.2287 -0.3493 -0.5795
  417TMC3    O2 6232   3.724   3.135  12.146 -0.2413 -0.5193 -0.2048
  418TMC3    C1 6233   3.145   4.428   0.608  0.6896 -0.3678  0.6728
  418TMC3    C2 6234   3.050   4.529   0.579 -0.5161  0.0428  0.0584
  418TMC3    C3 6235   2.921   4.523   0.629 -0.0637  0.1138  0.0408
  418TMC3    C4 6236   3.120   4.336   0.708  0.4123 -0.3110 -0.1594
  418TMC3    C5 6237   2.992   4.349   0.774  0.6651 -0.0280  0.5407
  418TMC3    C6 6238   2.895   4.430   0.729  0.6376 -0.5552  0.8091
  418TMC3     C 6239   3.262   4.423   0.528 -0.0737  0.3064 -0.8515
  418TMC3     O 6240   3.294   4.530   0.476 -0.0379 -1.1390  0.3687
  418TMC3     H 6241   3.078   4.596   0.499  0.7434  0.0157  0.4832
  418TMC3    H1 6242   3.185   4.254   0.738 -1.4772 -1.0464  1.9290
  418TMC3    H2 6243   2.798   4.433   0.779  0.5123 -3.3158  0.7744
  418TMC3    C7 6244   2.941   4.232   0.836 -0.3036 -0.1335 -0.0742
  418TMC3    C8 6245   2.815   4.529   0.534  0.1145 -0.2943  0.5282
  418TMC3    O1 6246   2.822   4.192   0.828  0.2738  0.1893  0.2004
  418TMC3    O2 6247   2.808   4.626   0.459  0.2317 -0.0841  0.1022
  419MPD2     C 6248   1.627   3.082  12.733  0.4372 -0.0263  0.7562
  419MPD2    C1 6249   1.545   3.079  12.845 -0.1274 -0.0054  0.0998
  419MPD2    C2 6250   1.539   3.188  12.931  0.3061 -0.0455  0.0602
  419MPD2    C3 6251   1.611   3.302  12.897  0.0516  0.2588  0.1708
  419MPD2    C4 6252   1.689   3.305  12.782 -1.1252  0.2725  0.1123
  419MPD2    C5 6253   1.707   3.187  12.714  0.3253 -0.1095  0.2138
  419MPD2     H 6254   1.479   3.186  13.022 -0.2252  0.9032 -0.2696
  419MPD2    H1 6255   1.759   3.387  12.774  1.2681 -1.8611 -0.6702
  419MPD2    H2 6256   1.630   2.991  12.674  0.0032 -0.3441  1.2171
  419MPD2    H3 6257   1.781   3.186  12.635  0.0407  0.2068 -0.0603
  419MPD2     N 6258   1.573   3.421  12.967  0.1076  0.3866  0.1571
  419MPD2    H5 6259   1.493   3.413  13.029 -0.1394 -0.0119 -0.2183
  419MPD2    N1 6260   1.453   2.975  12.869  0.4887  0.1769 -0.1156
  419MPD2    H7 6261   1.396   2.989  12.952 -1.0833  0.5224 -1.2562
  420TMC3    C1 6262   1.550   3.630  13.043 -0.1683 -0.0763  1.0890
  420TMC3    C2 6263   1.502   3.737  12.971  0.2862  0.7733  0.1340
  420TMC3    C3 6264   1.390   3.794  13.021  0.2992  0.5542  0.8846
  420TMC3    C4 6265   1.487   3.586  13.158 -0.3050  0.1847 -0.7451
  420TMC3    C5 6266   1.373   3.633  13.193  0.0089 -0.0380  0.0879
  420TMC3    C6 6267   1.315   3.738  13.120  0.0714 -0.0477  0.4858
  420TMC3     C 6268   1.630   3.540  12.964 -0.0376  0.8517  0.1676
  420TMC3     O 6269   1.714   3.586  12.890 -0.4622  0.1734  0.6099
  420TMC3     H 6270   1.561   3.785  12.894  1.5276 -2.3800 -0.8456
  420TMC3    H1 6271   1.532   3.509  13.220 -0.4397 -1.0317 -2.1518
  420TMC3    H2 6272   1.229   3.791  13.158 -1.8319 -0.9811 -2.5400
  420TMC3    C7 6273   1.310   3.562  13.300 -0.1171 -0.3225  0.6831
  420TMC3    C8 6274   1.330   3.882  12.931  0.1133  0.7583 -0.3301
  420TMC3    O1 6275   1.375   3.478  13.364 -0.0339 -1.3821  0.0778
  420TMC3    O2 6276   1.400   3.977  12.900  0.3063 -0.1617 -0.0033
  421TMC3    C1 6277   3.158   0.124  13.404  0.3530 -0.4537  0.3308
  421TMC3    C2 6278   3.181   0.188  13.514 -0.1547 -0.5681  0.2314
  421TMC3    C3 6279   3.189   0.115  13.628  1.0709 -0.5273 -0.5955
  421TMC3    C4 6280   3.132   4.714  13.399 -0.1107 -0.1006  0.3766
  421TMC3    C5 6281   3.146   4.640  13.516  0.2273 -0.1827 -0.0787
  421TMC3    C6 6282   3.173   4.700  13.637 -0.0687  0.2359  0.4468
  421TMC3     C 6283   3.066   0.193  13.316 -0.2036  0.0460  0.6647
  421TMC3     O 6284   3.082   0.313  13.313  0.3076 -0.1696  0.1664
  421TMC3     H 6285   3.197   0.295  13.512  0.1399 -0.5442  2.8696
  421TMC3    H1 6286   3.142   4.670  13.301  2.5147  0.7032  0.2836
  421TMC3    H2 6287   3.190   4.649  13.731 -0.5853 -0.9407 -0.1020
  421TMC3    C7 6288   3.201   4.505  13.514 -0.8924 -0.3153  0.5529
  421TMC3    C8 6289   3.230   0.189  13.744  0.0382  0.6705  0.3893
  421TMC3    O1 6290   3.252   4.467  13.618  0.2875  0.5916 -0.0922
  421TMC3    O2 6291   3.329   0.258  13.740 -0.8196 -0.1876  0.3533
  422TMC3    C1 6292   0.440   1.026  12.657 -0.0131 -0.2075  0.5511
  422TMC3    C2 6293   0.406   1.157  12.668  0.3170 -0.0914  0.2697
  422TMC3    C3 6294   0.295   1.189  12.729 -0.3336 -0.3222  0.4508
  422TMC3    C4 6295   0.358   0.929  12.703 -0.2297 -0.5186 -0.0945
  422TMC3    C5 6296   0.240   0.952  12.755  0.5256 -0.3303 -0.9030
  422TMC3    C6 6297   0.210   1.086  12.782  0.1181 -0.6274  0.2174
  422TMC3     C 6298   0.541   0.994  12.557  0.3938 -0.7347  0.9601
  422TMC3     O 6299   0.587   1.087  12.496 -0.2478 -0.3905 -0.0388
  422TMC3     H 6300   0.473   1.233  12.630  1.7765 -0.9316  1.1708
  422TMC3    H1 6301   0.379   0.823  12.695 -4.0996 -1.2305 -1.0525
  422TMC3    H2 6302   0.115   1.107  12.829  1.1526  2.0338  1.1253
  422TMC3    C7 6303   0.150   0.836  12.757 -0.3818 -0.6394 -0.7092
  422TMC3    C8 6304   0.250   1.322  12.733 -0.5293  0.4130  0.1982
  422TMC3    O1 6305   0.174   0.739  12.687 -0.1106 -0.3153 -0.3418
  422TMC3    O2 6306   0.330   1.412  12.723 -0.0819 -0.2076  0.1329
  423MPD2     C 6307   2.749   2.152   0.740 -0.5616 -0.4667  0.7565
  423MPD2    C1 6308   2.626   2.095   0.759  0.0618 -0.5881  0.2667
  423MPD2    C2 6309   2.558   2.033   0.659 -0.2526  0.4819  0.4340
  423MPD2    C3 6310   2.610   2.041   0.523  0.2077  0.2583 -0.4856
  423MPD2    C4 6311   2.737   2.098   0.508  0.4764 -0.6162  0.1892
  423MPD2    C5 6312   2.809   2.142   0.614 -0.6487 -0.3505 -0.5027
  423MPD2     H 6313   2.462   1.983   0.670  0.2848 -0.4103  1.1325
  423MPD2    H1 6314   2.777   2.099   0.407 -0.6783  2.3111 -0.2521
  423MPD2    H2 6315   2.816   2.187   0.818  0.9342 -0.2017 -0.6523
  423MPD2    H3 6316   2.905   2.186   0.591  0.0310 -1.3594  0.4916
  423MPD2     N 6317   2.536   2.003   0.406 -0.3610 -0.5195  0.1873
  423MPD2    H5 6318   2.577   2.027   0.316  3.4451 -4.9846  0.7458
  423MPD2    N1 6319   2.566   2.095   0.881  0.5532  0.1718 -0.0557
  423MPD2    H7 6320   2.480   2.042   0.890  1.2007 -0.6441  1.5463
  424TMC3    C1 6321   2.494   2.146   1.096  0.8894  1.0549 -0.2644
  424TMC3    C2 6322   2.484   2.018   1.141 -0.5641 -0.6911  0.0131
  424TMC3    C3 6323   2.424   1.997   1.255 -0.6725 -0.4032 -0.0557
  424TMC3    C4 6324   2.449   2.254   1.161 -0.0564  0.1551 -0.3904
  424TMC3    C5 6325   2.385   2.227   1.279  0.0991 -0.0604 -0.1618
  424TMC3    C6 6326   2.370   2.098   1.328 -0.5193 -0.1349 -0.1450
  424TMC3     C 6327   2.599   2.160   0.996  0.2826 -0.0435  0.2685
  424TMC3     O 6328   2.687   2.239   1.016  0.2117  0.3911  0.1537
  424TMC3     H 6329   2.520   1.933   1.085  1.0957 -0.7212  1.1297
  424TMC3    H1 6330   2.464   2.356   1.126 -2.0513  0.7972  0.6641
  424TMC3    H2 6331   2.348   2.062   1.428 -0.0066  1.7590  0.6439
  424TMC3    C7 6332   2.329   2.345   1.354 -0.3938 -0.4059  0.1066
  424TMC3    C8 6333   2.442   1.868   1.324 -0.6243  0.2567 -0.2533
  424TMC3    O1 6334   2.360   2.460   1.322 -0.0053  0.0706 -0.1731
  424TMC3    O2 6335   2.365   1.836   1.416 -0.1015 -0.1855  0.5783
  425MPD2     C 6336   0.283   1.854  16.843 -0.7950 -0.0556 -1.0744
  425MPD2    C1 6337   0.306   1.726  16.872 -0.4605  0.5521  0.7031
  425MPD2    C2 6338   0.244   1.680  16.986 -0.1941 -0.7044 -0.2580
  425MPD2    C3 6339   0.186   1.764  17.080  0.2721  0.1204  0.2508
  425MPD2    C4 6340   0.162   1.895  17.041  0.1355 -0.1009 -0.8961
  425MPD2    C5 6341   0.205   1.930  16.919  0.1140  0.2587  0.3417
  425MPD2     H 6342   0.266   1.580  17.020  2.4936  0.1470  0.4414
  425MPD2    H1 6343   0.112   1.968  17.103  0.6300 -1.0899  0.6547
  425MPD2    H2 6344   0.319   1.901  16.752  1.8062  0.3412  0.1603
  425MPD2    H3 6345   0.190   2.032  16.885  3.1587  0.6309  0.0842
  425MPD2     N 6346   0.169   1.709  17.208 -0.2941  0.5033  0.6358
  425MPD2    H5 6347   0.193   1.611  17.204 -2.9758 -0.1628  0.9268
  425MPD2    N1 6348   0.406   1.651  16.800 -0.4244  0.0788 -0.3814
  425MPD2    H7 6349   0.448   1.701  16.723  0.8478  2.0018  1.5471
  426TMC3    C1 6350   0.545   1.483  16.739 -0.0349 -0.2871  0.3785
  426TMC3    C2 6351   0.543   1.351  16.693  0.2671  0.5866 -0.2043
  426TMC3    C3 6352   0.661   1.291  16.663  0.6755 -0.6227 -0.0255
  426TMC3    C4 6353   0.665   1.548  16.756  0.7912 -0.5729 -0.1447
  426TMC3    C5 6354   0.780   1.482  16.727 -0.3456 -0.1223  0.5207
  426TMC3    C6 6355   0.781   1.358  16.675 -0.0907 -0.1224 -0.7854
  426TMC3     C 6356   0.423   1.514  16.811 -0.1682  0.0882  1.0321
  426TMC3     O 6357   0.352   1.431  16.863 -0.2166  0.0344  0.1089
  426TMC3     H 6358   0.455   1.294  16.664 -0.6543  1.1713  1.4690
  426TMC3    H1 6359   0.673   1.647  16.798  0.4357 -0.2024 -0.9419
  426TMC3    H2 6360   0.878   1.312  16.660 -0.6371 -0.9546 -1.7570
  426TMC3    C7 6361   0.893   1.493  16.815 -0.2319 -0.2245 -0.0429
  426TMC3    C8 6362   0.667   1.148  16.641  0.0597  0.3366  0.2583
  426TMC3    O1 6363   1.008   1.490  16.774  0.1217 -0.7665 -0.1134
  426TMC3    O2 6364   0.775   1.103  16.620  0.1412 -0.8436 -0.2244
  427MPD2     C 6365   3.465   2.869  14.744 -0.0079 -0.5386  0.2504
  427MPD2    C1 6366   3.522   2.947  14.842 -0.0908  0.7492 -0.5391
  427MPD2    C2 6367   3.488   3.082  14.855 -1.1330 -0.0914 -0.3770
  427MPD2    C3 6368   3.397   3.139  14.771  0.5116  0.3956  0.4210
  427MPD2    C4 6369   3.350   3.062  14.663 -0.3454  0.0486 -0.2914
  427MPD2    C5 6370   3.386   2.928  14.656 -0.8402  0.0313  0.3936
  427MPD2     H 6371   3.533   3.152  14.925 -1.0633  0.6382 -1.1596
  427MPD2    H1 6372   3.281   3.111  14.596 -2.7580  1.4862  3.1969
  427MPD2    H2 6373   3.482   2.763  14.734  1.0061 -0.2459 -1.2584
  427MPD2    H3 6374   3.343   2.879  14.569  0.6491  0.3841 -0.5291
  427MPD2     N 6375   3.347   3.268  14.778 -0.0217 -0.6704  0.3821
  427MPD2    H5 6376   3.299   3.293  14.693  0.4794  0.8444  0.5424
  427MPD2    N1 6377   3.617   2.899  14.933  0.1786 -0.2108 -0.2654
  427MPD2    H7 6378   3.659   2.962  15.001 -1.1638  2.5088 -1.9686
  428TMC3    C1 6379   3.773   2.754  15.014  0.9835 -0.1787  0.0921
  428TMC3    C2 6380   3.796   2.629  15.066  0.4193 -0.4011  0.5727
  428TMC3    C3 6381   3.924   2.589  15.088 -0.3039  0.0065  0.3175
  428TMC3    C4 6382   3.870   2.844  14.984 -0.2301 -0.3766 -0.5347
  428TMC3    C5 6383   4.002   2.797  14.988 -0.1268  0.5024 -0.0299
  428TMC3    C6 6384   4.025   2.666  15.036  0.3670 -0.3245  0.0273
  428TMC3     C 6385   3.653   2.767  14.938  0.1628  0.2256 -0.1127
  428TMC3     O 6386   3.600   2.663  14.898  0.3652  0.2489 -0.2670
  428TMC3     H 6387   3.707   2.580  15.105  0.0810  0.6342  1.1061
  428TMC3    H1 6388   3.853   2.944  14.946 -3.5822 -0.1377  1.5882
  428TMC3    H2 6389   4.129   2.637  15.046  0.8002  0.6616 -1.6036
  428TMC3    C7 6390   4.104   2.897  14.999  0.0322  0.3733 -0.3831
  428TMC3    C8 6391   3.955   2.507  15.204  0.0527 -0.4413  0.6326
  428TMC3    O1 6392   4.174   2.885  15.102 -0.0027  0.0865 -0.7020
  428TMC3    O2 6393   4.073   2.485  15.237  0.5201 -0.8710  0.0382
  429MPD2     C 6394   0.668   3.844  17.540  0.5063 -0.3047 -0.2729
  429MPD2    C1 6395   0.630   3.858  17.405 -0.1382 -0.2118  0.7756
  429MPD2    C2 6396   0.693   3.948  17.319 -0.0012  0.4578 -0.3618
  429MPD2    C3 6397   0.797   4.021  17.366  0.8038  0.5712  0.4283
  429MPD2    C4 6398   0.838   4.010  17.499 -0.1467 -0.5378 -0.0970
  429MPD2    C5 6399   0.770   3.920  17.582  0.0628 -0.2228  1.6076
  429MPD2     H 6400   0.662   3.949  17.215 -0.5167  2.2276 -0.1974
  429MPD2    H1 6401   0.926   4.049  17.547 -0.6762  0.4720  0.0650
  429MPD2    H2 6402   0.615   3.781  17.610  1.9026  1.4082  2.3434
  429MPD2    H3 6403   0.790   3.929  17.688  1.1290  2.2057  1.2121
  429MPD2     N 6404   0.868   4.099  17.275  0.2365 -0.4329 -1.1638
  429MPD2    H5 6405   0.850   4.098  17.175  0.6549  2.4317 -1.2816
  429MPD2    N1 6406   0.528   3.779  17.352  0.4270 -0.8313  0.2692
  429MPD2    H7 6407   0.498   3.793  17.256  0.1223 -0.7275  0.3801
  430TMC3    C1 6408   1.031   4.248  17.193  0.4046  0.2576  0.1684
  430TMC3    C2 6409   1.032   4.381  17.156  0.0126  0.0501 -0.0606
  430TMC3    C3 6410   1.061   4.417  17.026  0.1375 -0.0214 -0.0235
  430TMC3    C4 6411   1.066   4.150  17.103 -0.8069 -1.2838 -0.6711
  430TMC3    C5 6412   1.109   4.190  16.984  0.4012  0.1682 -0.1560
  430TMC3    C6 6413   1.110   4.322  16.943 -0.6876  0.4796  0.6843
  430TMC3     C 6414   0.954   4.202  17.313 -0.3784 -0.0486  0.5789
  430TMC3     O 6415   0.981   4.249  17.422  0.1794  0.0393  0.4975
  430TMC3     H 6416   0.980   4.447  17.224 -2.8592 -0.8819 -1.3339
  430TMC3    H1 6417   1.059   4.046  17.132 -0.7591 -1.1182 -0.0765
  430TMC3    H2 6418   1.137   4.350  16.842 -0.3013  0.5120  0.7969
  430TMC3    C7 6419   1.066   4.091  16.881 -0.6112  0.7097 -0.3895
  430TMC3    C8 6420   0.954   4.483  16.950  0.2859  0.4158  0.2850
  430TMC3    O1 6421   1.069   3.975  16.912 -0.3710 -0.1868 -0.3233
  430TMC3    O2 6422   0.930   4.430  16.842  0.9743  0.8617  0.2451
  431MPD2     C 6423   1.248   3.556  12.648 -0.5916 -0.1435  0.2428
  431MPD2    C1 6424   1.357   3.473  12.647  0.1389 -0.1136 -0.0120
  431MPD2    C2 6425   1.339   3.342  12.681  0.0113 -0.4308  0.6318
  431MPD2    C3 6426   1.210   3.296  12.722  0.2104 -0.5335 -0.2793
  431MPD2    C4 6427   1.104   3.386  12.718  0.2746  0.5036  0.5057
  431MPD2    C5 6428   1.124   3.514  12.679 -0.5004  0.5689 -0.1266
  431MPD2     H 6429   1.425   3.277  12.681  0.7446  0.5407 -1.3631
  431MPD2    H1 6430   1.004   3.355  12.749  0.7105 -0.5548  0.8447
  431MPD2    H2 6431   1.256   3.646  12.589 -3.3228 -0.3446 -0.4545
  431MPD2    H3 6432   1.032   3.572  12.678 -1.2437 -0.6625 -2.3718
  431MPD2     N 6433   1.200   3.164  12.765  0.7038  0.7337  0.2320
  431MPD2    H5 6434   1.285   3.108  12.763 -0.6063 -1.3465  2.2078
  431MPD2    N1 6435   1.488   3.522  12.616  0.4293  0.1719 -0.8532
  431MPD2    H7 6436   1.562   3.454  12.603  1.4203  1.1238 -0.1726
  432TMC3    C1 6437   1.100   2.951  12.796  0.2982 -0.0635 -0.2957
  432TMC3    C2 6438   1.063   2.857  12.702  0.2096  0.0550 -0.2690
  432TMC3    C3 6439   1.138   2.743  12.687 -0.1547 -0.6625  0.6596
  432TMC3    C4 6440   1.215   2.932  12.871  0.3182 -0.7370  0.3013
  432TMC3    C5 6441   1.292   2.820  12.833 -0.0437  0.0393  0.3778
  432TMC3    C6 6442   1.260   2.725  12.744 -0.2072  0.7951  0.7562
  432TMC3     C 6443   1.078   3.093  12.762  0.0581 -0.0145  0.5328
  432TMC3     O 6444   0.976   3.126  12.704 -0.4069  0.4128  0.4613
  432TMC3     H 6445   0.975   2.873  12.641  0.6861  4.2362  0.1216
  432TMC3    H1 6446   1.230   2.993  12.959  1.0552 -0.2174 -0.1800
  432TMC3    H2 6447   1.314   2.631  12.740 -0.2817  0.7932 -0.0304
  432TMC3    C7 6448   1.427   2.860  12.804 -0.2058 -0.8276  0.6210
  432TMC3    C8 6449   1.124   2.678  12.563 -0.1221 -0.0235  0.1356
  432TMC3    O1 6450   1.479   2.821  12.699 -0.0528  0.2438  0.7713
  432TMC3    O2 6451   1.019   2.690  12.503 -0.3403  0.6028  0.0644
  433MPD2     C 6452   0.224   2.333  10.802  0.1092  0.0866  0.6831
  433MPD2    C1 6453   0.226   2.224  10.882  0.6656  0.1474 -0.1899
  433MPD2    C2 6454   0.260   2.235  11.012  0.5307  0.0182 -0.2583
  433MPD2    C3 6455   0.306   2.358  11.063 -0.5226  0.1534 -0.5202
  433MPD2    C4 6456   0.307   2.471  10.982  0.4576  0.0563 -0.0295
  433MPD2    C5 6457   0.263   2.456  10.857 -0.0899  0.4663 -0.3457
  433MPD2     H 6458   0.273   2.147  11.074 -1.2265  1.0920  1.6350
  433MPD2    H1 6459   0.344   2.566  11.017 -2.8127  0.9832  0.9306
  433MPD2    H2 6460   0.201   2.324  10.697  0.4161  2.0188  0.4390
  433MPD2    H3 6461   0.259   2.541  10.789  1.3799  0.0080 -0.9907
  433MPD2     N 6462   0.354   2.367  11.199 -0.1695 -0.3885  0.6650
  433MPD2    H5 6463   0.342   2.277  11.243 -2.7661  0.3661  1.4732
  433MPD2    N1 6464   0.179   2.107  10.819  0.6350  0.3331 -0.3990
  433MPD2    H7 6465   0.147   2.107  10.723 -0.5184 -1.7722 -0.0030
  434TMC3    C1 6466   0.120   1.885  10.793  0.0692  0.0487  0.0311
  434TMC3    C2 6467   0.083   1.770  10.859 -0.8988 -0.0554 -0.3012
  434TMC3    C3 6468   0.130   1.652  10.813 -0.0122  0.3483 -1.0035
  434TMC3    C4 6469   0.192   1.878  10.678  0.6665 -0.0062 -0.1718
  434TMC3    C5 6470   0.241   1.759  10.634  0.0171 -0.3338 -0.7049
  434TMC3    C6 6471   0.207   1.645  10.703  0.2302  0.1110 -0.1650
  434TMC3     C 6472   0.154   1.988  10.885 -0.2287 -0.0138  0.2682
  434TMC3     O 6473   0.149   1.968  11.006 -0.1827 -0.4274  0.4270
  434TMC3     H 6474   0.038   1.780  10.957  1.0198  0.6162  0.5068
  434TMC3    H1 6475   0.219   1.962  10.615  0.6798  0.0774 -0.0535
  434TMC3    H2 6476   0.259   1.556  10.670  1.1068 -0.2206  2.1339
  434TMC3    C7 6477   0.255   1.759  10.492 -0.3702 -0.2627 -0.7864
  434TMC3    C8 6478   0.170   1.566  10.916  0.1870  0.1536 -0.0179
  434TMC3    O1 6479   0.285   1.868  10.446  0.3861  0.7019  0.3083
  434TMC3    O2 6480   0.167   1.611  11.029 -0.2889  0.1426  0.9975
  435MPD2     C 6481   1.835   2.184  15.256 -0.7197 -0.0331 -0.3889
  435MPD2    C1 6482   1.806   2.122  15.376  0.0311  0.1141 -0.1163
  435MPD2    C2 6483   1.904   2.070  15.447  0.3501 -0.0893 -0.5163
  435MPD2    C3 6484   2.041   2.081  15.407  0.2001  0.0778  0.3095
  435MPD2    C4 6485   2.059   2.129  15.284 -0.0678 -0.1547 -0.5265
  435MPD2    C5 6486   1.960   2.174  15.199 -0.2515  0.1451 -0.5230
  435MPD2     H 6487   1.883   2.036  15.548  3.0452  1.4931  0.5667
  435MPD2    H1 6488   2.159   2.117  15.244  0.9765  4.6546  0.6102
  435MPD2    H2 6489   1.755   2.227  15.196  1.2928  2.2708 -1.4484
  435MPD2    H3 6490   1.971   2.219  15.101  1.4173  0.4108 -0.2056
  435MPD2     N 6491   2.137   2.037  15.494 -0.3512  0.1946  0.3213
  435MPD2    H5 6492   2.100   1.977  15.567  0.2641 -3.9992 -2.8385
  435MPD2    N1 6493   1.679   2.117  15.434 -0.3727 -0.3129  0.1487
  435MPD2    H7 6494   1.677   2.086  15.531  0.0431  1.9232  0.8879
  436TMC3    C1 6495   1.410   1.998  15.660 -0.2300  0.6315  0.2474
  436TMC3    C2 6496   1.473   2.102  15.593  0.8955  0.9060  0.1041
  436TMC3    C3 6497   1.458   2.101  15.459  1.3064 -0.0895  0.2192
  436TMC3    C4 6498   1.338   1.906  15.596  0.4450  0.3180 -0.0539
  436TMC3    C5 6499   1.301   1.923  15.466  0.8505 -0.7334 -0.1716
  436TMC3    C6 6500   1.360   2.029  15.397  0.3676  0.5856  0.1673
  436TMC3     C 6501   1.373   2.024  15.792 -0.2683  0.0421 -0.0780
  436TMC3     O 6502   1.330   1.933  15.861 -0.3381  0.1869  0.5175
  436TMC3     H 6503   1.546   2.162  15.645 -0.0707  2.5327 -0.4155
  436TMC3    H1 6504   1.318   1.813  15.647  2.1710 -0.7928 -1.4255
  436TMC3    H2 6505   1.353   2.046  15.290  0.3665 -0.2013  0.0411
  436TMC3    C7 6506   1.257   1.813  15.390  0.2553  0.9395 -0.2986
  436TMC3    C8 6507   1.563   2.148  15.376 -0.6894 -0.9029 -0.4713
  436TMC3    O1 6508   1.276   1.704  15.435 -0.1080 -0.6514 -0.4080
  436TMC3    O2 6509   1.543   2.177  15.256  0.4707  0.0669 -0.5866
  437TMC3    C1 6510   0.911   4.253  12.813 -0.5715 -1.1473  0.2625
  437TMC3    C2 6511   0.792   4.311  12.838 -0.4942 -0.2955  0.5085
  437TMC3    C3 6512   0.730   4.358  12.726  0.3238  0.4065 -0.2713
  437TMC3    C4 6513   0.984   4.264  12.700 -0.2278  0.2586  0.0147
  437TMC3    C5 6514   0.924   4.331  12.595  0.0359  0.9353 -0.0380
  437TMC3    C6 6515   0.794   4.374  12.605 -0.2983 -0.4158  0.5008
  437TMC3     C 6516   0.982   4.208  12.927 -0.1568  0.9662  0.9669
  437TMC3     O 6517   1.095   4.245  12.926  0.2432 -1.0392 -0.2464
  437TMC3     H 6518   0.739   4.311  12.933  2.9640 -0.2887  2.4235
  437TMC3    H1 6519   1.091   4.250  12.695 -0.1916  0.6329 -0.2602
  437TMC3    H2 6520   0.752   4.425  12.519  0.7572  0.7622  0.6931
  437TMC3    C7 6521   1.001   4.366  12.476  0.3233  0.1862  0.7494
  437TMC3    C8 6522   0.587   4.391  12.738 -0.1991 -0.0251  0.6272
  437TMC3    O1 6523   0.940   4.379  12.368  0.2840  0.1270 -0.1479
  437TMC3    O2 6524   0.525   4.362  12.839  0.3271  0.0223  0.5805
  438MPD2     C 6525   3.112   0.253  16.453 -0.1733 -0.0344 -0.1722
  438MPD2    C1 6526   3.216   0.177  16.500  0.3376  0.6741 -0.2128
  438MPD2    C2 6527   3.190   0.081  16.604  0.3027 -0.2795  0.1210
  438MPD2    C3 6528   3.058   0.059  16.653 -0.3927 -0.0509  0.2992
  438MPD2    C4 6529   2.959   0.137  16.591  0.5589  0.5681  0.0776
  438MPD2    C5 6530   2.989   0.239  16.501  0.5229 -0.4664  0.2178
  438MPD2     H 6531   3.285   0.039  16.635  1.4411  1.7721 -0.6220
  438MPD2    H1 6532   2.854   0.137  16.617  0.2043  0.5583 -1.3676
  438MPD2    H2 6533   3.130   0.336  16.386 -1.6247 -0.3448 -0.9352
  438MPD2    H3 6534   2.920   0.307  16.453  2.7493  0.7592 -1.1699
  438MPD2     N 6535   3.023   4.682  16.745 -0.1153 -0.2580  0.4146
  438MPD2    H5 6536   2.926   4.680  16.775  0.6582  0.3263  2.9215
  438MPD2    N1 6537   3.348   0.201  16.458 -0.4461 -0.2609 -0.1774
  438MPD2    H7 6538   3.421   0.133  16.482  0.2046  0.9052  1.1705
  439TMC3    C1 6539   3.518   0.240  16.304 -0.7842 -0.7985  0.0412
  439TMC3    C2 6540   3.525   0.221  16.166 -0.6467 -0.0244 -0.1836
  439TMC3    C3 6541   3.644   0.168  16.119 -0.1565  0.2433  0.6780
  439TMC3    C4 6542   3.619   0.209  16.381 -0.0072  0.3240 -0.0900
  439TMC3    C5 6543   3.738   0.161  16.331  0.3448  0.3077 -0.3512
  439TMC3    C6 6544   3.747   0.133  16.203 -0.2824  0.4454  0.4646
  439TMC3     C 6545   3.389   0.280  16.355  0.2051  0.2976 -0.4168
  439TMC3     O 6546   3.334   0.370  16.293 -0.3004  0.0330 -0.2722
  439TMC3     H 6547   3.445   0.254  16.102 -3.1151 -2.0203  1.8623
  439TMC3    H1 6548   3.608   0.226  16.487  1.3325  0.6592 -0.0034
  439TMC3    H2 6549   3.830   0.090  16.149 -0.7287  1.1232 -0.7694
  439TMC3    C7 6550   3.808   0.071  16.429 -0.9613 -0.4057  0.9019
  439TMC3    C8 6551   3.638   0.064  16.012  0.7643  0.1208  0.3835
  439TMC3    O1 6552   3.815   0.105  16.548 -0.0709  0.5020  0.6813
  439TMC3    O2 6553   3.711   4.694  16.019  0.1473  0.2200 -0.4372
  440MPD2     C 6554   2.314   0.765  14.518 -0.2404 -0.0898  0.2435
  440MPD2    C1 6555   2.288   0.640  14.568 -0.1182 -0.3454 -0.6966
  440MPD2    C2 6556   2.394   0.569  14.620 -0.1844  0.2234 -0.4281
  440MPD2    C3 6557   2.522   0.626  14.640  0.2032 -0.0991  0.6460
  440MPD2    C4 6558   2.546   0.754  14.588  0.1542 -0.4772 -0.0306
  440MPD2    C5 6559   2.442   0.816  14.529 -0.5753  0.0697  0.1556
  440MPD2     H 6560   2.380   0.468  14.656 -0.4957  0.1013 -0.8815
  440MPD2    H1 6561   2.644   0.801  14.583 -0.3251  0.5704  0.5864
  440MPD2    H2 6562   2.237   0.828  14.474  1.3785  0.3100 -2.0244
  440MPD2    H3 6563   2.464   0.918  14.501  0.6188 -0.4612 -0.8506
  440MPD2     N 6564   2.624   0.560  14.714  0.2514  0.1266 -0.0084
  440MPD2    H5 6565   2.705   0.620  14.730  0.9908 -0.7231 -0.5976
  440MPD2    N1 6566   2.157   0.593  14.588 -0.2640  0.0852 -1.6019
  440MPD2    H7 6567   2.150   0.494  14.611  2.2170  0.2543 -0.0115
  441TMC3    C1 6568   2.725   0.408  14.869  0.4351 -0.2055  0.4545
  441TMC3    C2 6569   2.777   0.512  14.942 -0.0047 -0.3019  0.2063
  441TMC3    C3 6570   2.852   0.481  15.052 -0.4114 -0.1194  0.3011
  441TMC3    C4 6571   2.736   0.280  14.911 -0.1160 -0.2767  0.0711
  441TMC3    C5 6572   2.802   0.250  15.023 -0.1652  0.0155 -0.0603
  441TMC3    C6 6573   2.874   0.351  15.083  0.9328  0.5214 -0.3445
  441TMC3     C 6574   2.614   0.435  14.774 -0.4051  0.2500  0.3072
  441TMC3     O 6575   2.528   0.349  14.765  0.1776  0.2628 -0.2931
  441TMC3     H 6576   2.748   0.616  14.935 -0.2409 -0.2367  2.1291
  441TMC3    H1 6577   2.684   0.204  14.855  0.0549 -0.2295 -0.1525
  441TMC3    H2 6578   2.929   0.339  15.175  1.8564 -0.3835 -1.0141
  441TMC3    C7 6579   2.748   0.152  15.113 -0.1683 -0.1085 -0.2811
  441TMC3    C8 6580   2.852   0.571  15.167 -0.4334  0.5233  0.0611
  441TMC3    O1 6581   2.770   0.185  15.233  0.7087  0.2247  0.5772
  441TMC3    O2 6582   2.944   0.557  15.249 -0.3784  0.1186 -0.1591
  442MPD2     C 6583   0.428   1.404  16.287  1.1187  1.6028 -0.2736
  442MPD2    C1 6584   0.332   1.333  16.362 -0.1254  0.1679 -0.3057
  442MPD2    C2 6585   0.337   1.195  16.359 -0.4485 -0.0795 -0.6831
  442MPD2    C3 6586   0.438   1.140  16.282 -0.4541  0.1802  0.2869
  442MPD2    C4 6587   0.528   1.208  16.208  0.8434  0.0984  0.1700
  442MPD2    C5 6588   0.520   1.342  16.213  0.2777  0.2365 -0.3419
  442MPD2     H 6589   0.270   1.139  16.423 -1.8452 -0.9180 -2.8794
  442MPD2    H1 6590   0.598   1.160  16.142  1.3834  0.0107  0.8066
  442MPD2    H2 6591   0.430   1.512  16.284  0.6551  1.6900  2.4522
  442MPD2    H3 6592   0.586   1.405  16.155 -0.9429  0.3467 -1.6079
  442MPD2     N 6593   0.434   0.998  16.266  0.6371  0.5292 -0.2140
  442MPD2    H5 6594   0.519   0.961  16.226  0.8431  0.1734  0.5518
  442MPD2    N1 6595   0.224   1.402  16.423  0.2598  0.3520  0.1356
  442MPD2    H7 6596   0.154   1.345  16.469 -0.1793  1.2558  0.5784
  443TMC3    C1 6597   0.071   1.564  16.495 -0.4926  0.0737 -0.3706
  443TMC3    C2 6598   4.695   1.628  16.427 -0.0640 -0.1740  0.0348
  443TMC3    C3 6599   4.571   1.647  16.491  0.2687  0.6559  0.1755
  443TMC3    C4 6600   0.061   1.528  16.628  0.4773 -0.0302 -0.2294
  443TMC3    C5 6601   4.677   1.582  16.690  0.0056  0.4118 -0.2451
  443TMC3    C6 6602   4.567   1.639  16.628 -0.1833 -0.2612  0.2771
  443TMC3     C 6603   0.187   1.530  16.412  0.6590 -0.7625 -0.6508
  443TMC3     O 6604   0.244   1.619  16.352 -0.3176 -0.4742 -0.5117
  443TMC3     H 6605   4.707   1.643  16.321 -2.1918 -3.5549 -0.6838
  443TMC3    H1 6606   0.137   1.477  16.686 -0.2537  2.8947  3.2931
  443TMC3    H2 6607   4.479   1.659  16.686 -0.9954  0.3409 -1.1681
  443TMC3    C7 6608   4.670   1.563  16.831  0.6572 -0.1365  0.3249
  443TMC3    C8 6609   4.473   1.556  16.432 -0.3786 -0.2535 -0.4119
  443TMC3    O1 6610   4.723   1.459  16.867 -0.1981  0.3308  0.9283
  443TMC3    O2 6611   4.406   1.478  16.504 -0.0658 -0.3667  0.3811
  444MPD2     C 6612   0.567   0.671  16.931 -1.3232  0.7223  0.7930
  444MPD2    C1 6613   0.500   0.555  16.957 -0.7864  0.5226 -1.1738
  444MPD2    C2 6614   0.551   0.430  16.909  0.1442  0.7347  0.2668
  444MPD2    C3 6615   0.671   0.426  16.835 -0.2005  0.2611 -0.6320
  444MPD2    C4 6616   0.736   0.540  16.814  0.5416 -0.1662 -0.2906
  444MPD2    C5 6617   0.687   0.664  16.860  0.3634  0.3022 -0.7183
  444MPD2     H 6618   0.502   0.337  16.934  2.0956 -0.1197  0.9264
  444MPD2    H1 6619   0.834   0.544  16.767  0.6271 -1.1384 -0.1827
  444MPD2    H2 6620   0.536   0.770  16.964  0.3783  1.4527  0.2070
  444MPD2    H3 6621   0.747   0.748  16.830  0.3773  1.3830  2.3396
  444MPD2     N 6622   0.711   0.301  16.786  0.3901 -0.7572  0.0678
  444MPD2    H5 6623   0.663   0.219  16.819 -2.2782  0.3942 -0.9476
  444MPD2    N1 6624   0.377   0.549  17.032  0.3628 -0.4415 -0.4609
  444MPD2    H7 6625   0.350   0.455  17.059 -0.1257 -0.7540 -2.0227
  445TMC3    C1 6626   0.840   0.139  16.683 -0.4603 -0.7415  0.0595
  445TMC3    C2 6627   0.748   0.081  16.594 -0.4134  0.1245 -0.6517
  445TMC3    C3 6628   0.783   4.691  16.529 -0.2611 -0.2934  0.1252
  445TMC3    C4 6629   0.974   0.090  16.687 -0.2243  0.6267  0.6331
  445TMC3    C5 6630   1.002   4.699  16.623 -0.0181 -0.3489  0.3486
  445TMC3    C6 6631   0.913   4.642  16.537  0.6531 -0.4851 -0.0688
  445TMC3     C 6632   0.823   0.276  16.717  0.7860 -0.6908 -0.3083
  445TMC3     O 6633   0.924   0.345  16.705  0.3033 -0.0313  0.0246
  445TMC3     H 6634   0.661   0.139  16.566  0.0519  0.2264 -1.8677
  445TMC3    H1 6635   1.043   0.134  16.759  0.7468 -0.3000  0.2745
  445TMC3    H2 6636   0.931   4.551  16.480  0.0975 -1.9140  2.0580
  445TMC3    C7 6637   1.136   4.648  16.640 -0.0289 -0.0720  0.0854
  445TMC3    C8 6638   0.684   4.606  16.454 -0.1076 -0.4254  0.0446
  445TMC3    O1 6639   1.225   4.724  16.674 -0.2840  0.1657 -0.1848
  445TMC3    O2 6640   0.717   4.494  16.419 -0.1933  0.3104  0.0907
  446MPD2     C 6641   0.176   1.255  11.415  0.6549 -0.4862  0.5679
  446MPD2    C1 6642   0.116   1.311  11.304  0.0260  0.2606 -0.7847
  446MPD2    C2 6643   0.140   1.446  11.272 -0.2009 -0.1325  0.0140
  446MPD2    C3 6644   0.248   1.521  11.333  0.0254 -0.1632  0.3262
  446MPD2    C4 6645   0.312   1.455  11.436 -0.1458  0.4709 -0.4230
  446MPD2    C5 6646   0.274   1.329  11.481  0.3538 -0.2353  0.1597
  446MPD2     H 6647   0.087   1.484  11.185 -1.8076  0.1451  1.1360
  446MPD2    H1 6648   0.371   1.512  11.507 -0.8563  0.7125 -0.0179
  446MPD2    H2 6649   0.150   1.157  11.452 -0.0081  0.3064  2.1812
  446MPD2    H3 6650   0.313   1.293  11.575  1.3964 -0.5269 -0.3922
  446MPD2     N 6651   0.289   1.648  11.270 -0.0022  0.1933  0.4045
  446MPD2    H5 6652   0.234   1.673  11.189  0.2636  0.1806  0.2188
  446MPD2    N1 6653   0.010   1.246  11.229 -0.4041  0.6532 -0.5908
  446MPD2    H7 6654   4.700   1.300  11.150 -0.3860 -1.1839 -1.8579
  447TMC3    C1 6655   0.442   1.828  11.224 -0.6343  0.6431 -0.1259
  447TMC3    C2 6656   0.414   1.811  11.091 -0.0738 -0.0173  0.0593
  447TMC3    C3 6657   0.504   1.880  11.007 -0.2112 -0.0490  0.4380
  447TMC3    C4 6658   0.557   1.894  11.261  0.1548 -0.4399  0.3236
  447TMC3    C5 6659   0.646   1.956  11.177  0.6496 -0.5397  0.8467
  447TMC3    C6 6660   0.607   1.964  11.044 -0.1894  0.5508  0.5371
  447TMC3     C 6661   0.406   1.715  11.306  0.3700  0.9673  0.2845
  447TMC3     O 6662   0.488   1.679  11.389 -0.3246  1.0905  0.5161
  447TMC3     H 6663   0.333   1.759  11.042 -0.5032 -0.6977  1.4804
  447TMC3    H1 6664   0.582   1.882  11.366 -1.8142  0.2672  0.8842
  447TMC3    H2 6665   0.673   1.998  10.965  0.2000  0.3953  0.7961
  447TMC3    C7 6666   0.793   1.967  11.212 -0.1661 -0.3614 -0.6489
  447TMC3    C8 6667   0.524   1.819  10.878  0.3233 -0.0458  0.0206
  447TMC3    O1 6668   0.875   1.963  11.123 -0.0464 -0.1487  0.0260
  447TMC3    O2 6669   0.566   1.887  10.790 -0.0399 -0.2524 -0.1245
  448TMC3    C1 6670   3.332   1.735  16.499 -0.1666  1.1160 -0.2991
  448TMC3    C2 6671   3.311   1.647  16.395  0.2227  0.2553 -0.0887
  448TMC3    C3 6672   3.400   1.545  16.382 -0.3794 -0.8773  0.3576
  448TMC3    C4 6673   3.440   1.718  16.583 -0.7042  0.3195  0.1945
  448TMC3    C5 6674   3.529   1.623  16.557 -0.4935  0.2023  0.0866
  448TMC3    C6 6675   3.513   1.526  16.459 -0.1470 -0.1936  0.5711
  448TMC3     C 6676   3.239   1.848  16.528  0.1708 -0.4912  0.0500
  448TMC3     O 6677   3.280   1.928  16.607  1.1009 -0.5897 -0.0369
  448TMC3     H 6678   3.237   1.671  16.321  1.8684  1.2129 -1.4333
  448TMC3    H1 6679   3.455   1.797  16.655 -1.8972 -1.5654  2.4929
  448TMC3    H2 6680   3.574   1.438  16.444 -2.4447 -1.9504  1.3643
  448TMC3    C7 6681   3.633   1.588  16.655 -0.1390 -0.7955 -0.4110
  448TMC3    C8 6682   3.386   1.445  16.278 -0.1369  0.7506 -0.2248
  448TMC3    O1 6683   3.717   1.518  16.605  0.1597 -0.4022  0.9575
  448TMC3    O2 6684   3.490   1.390  16.236  0.2301  0.1535 -0.6593
  449MPD2     C 6685   0.164   4.655  13.819 -0.0855  0.3481  0.2456
  449MPD2    C1 6686   0.053   4.694  13.744 -0.1945  0.2599 -0.2191
  449MPD2    C2 6687   4.655   4.640  13.784  0.7106 -0.1818 -0.0636
  449MPD2    C3 6688   4.649   4.544  13.881 -0.3550  0.0761 -0.3087
  449MPD2    C4 6689   0.033   4.522  13.961  0.5315 -0.7059 -0.3348
  449MPD2    C5 6690   0.156   4.576  13.928 -0.4440  0.1330 -0.1011
  449MPD2     H 6691   4.565   4.673  13.733 -0.6420 -1.3761  1.5287
  449MPD2    H1 6692   0.019   4.468  14.054  1.0202 -1.2915 -0.5999
  449MPD2    H2 6693   0.259   4.705  13.805 -0.2055  0.6353  0.4424
  449MPD2    H3 6694   0.246   4.564  13.989  0.6888  0.9004 -1.6276
  449MPD2     N 6695   4.518   4.490  13.896  0.0673 -0.0698 -0.3848
  449MPD2    H5 6696   4.451   4.511  13.822 -0.0757 -0.5498 -0.3982
  449MPD2    N1 6697   0.039   0.075  13.654 -0.5598  0.0795  0.3249
  449MPD2    H7 6698   4.671   0.095  13.618 -1.4981 -1.6840  1.7594
  450TMC3    C1 6699   0.091   0.226  13.488  0.0071  0.0108  0.1282
  450TMC3    C2 6700   0.150   0.204  13.366  0.3049 -0.2222  0.4209
  450TMC3    C3 6701   0.062   0.201  13.258  0.0524 -0.7835  0.6534
  450TMC3    C4 6702   4.687   0.255  13.506 -0.0579  0.0775  0.2289
  450TMC3    C5 6703   4.606   0.252  13.397  0.5473  1.1067 -0.0216
  450TMC3    C6 6704   4.650   0.220  13.262  0.2180 -1.1590  0.5155
  450TMC3     C 6705   0.144   0.139  13.593 -0.2235 -0.1384  0.1886
  450TMC3     O 6706   0.253   0.085  13.580 -0.2273  0.1669  0.4774
  450TMC3     H 6707   0.256   0.188  13.352  0.2605  0.4897 -0.7440
  450TMC3    H1 6708   4.657   0.282  13.606 -1.7071 -0.9803  0.0233
  450TMC3    H2 6709   4.582   0.207  13.179 -0.0151  1.3641  0.3354
  450TMC3    C7 6710   4.489   0.176  13.438  0.5629  0.0440 -0.3274
  450TMC3    C8 6711   0.108   0.135  13.134 -0.3193 -0.3074 -0.2774
  450TMC3    O1 6712   4.499   0.131  13.554  0.4770  0.4110 -0.7448
  450TMC3    O2 6713   0.025   0.090  13.055 -0.1739  0.5401  0.2642
  451MPD2     C 6714   1.232   3.838   0.895  0.3940 -0.0055  0.0087
  451MPD2    C1 6715   1.169   3.825   1.023  0.1979  0.4587 -0.0889
  451MPD2    C2 6716   1.111   3.699   1.038 -1.0984 -0.1281 -0.6327
  451MPD2    C3 6717   1.111   3.598   0.945 -0.0543  0.2423  0.3253
  451MPD2    C4 6718   1.169   3.616   0.822  0.1590 -0.0745  0.3662
  451MPD2    C5 6719   1.231   3.742   0.802 -0.4753  0.5616  0.1051
  451MPD2     H 6720   1.071   3.674   1.136  0.3717  3.6544  0.9660
  451MPD2    H1 6721   1.166   3.542   0.742  0.6336  0.8516 -0.5099
  451MPD2    H2 6722   1.278   3.935   0.876 -0.1473  0.4008  0.7667
  451MPD2    H3 6723   1.269   3.773   0.705  0.0912 -0.8686 -0.1264
  451MPD2     N 6724   1.042   3.473   0.959  0.0881  0.1907  0.3086
  451MPD2    H5 6725   1.054   3.405   0.885  0.6242  2.1052 -1.3601
  451MPD2    N1 6726   1.170   3.926   1.120  0.0676  0.1965 -0.2487
  451MPD2    H7 6727   1.213   4.016   1.100 -1.0585  0.2909 -2.2158
  452TMC3    C1 6728   0.861   3.339   1.010  0.3886  0.1296  0.7861
  452TMC3    C2 6729   0.776   3.283   1.107  0.0030  0.2661 -0.1172
  452TMC3    C3 6730   0.704   3.172   1.073 -0.2477  0.2023  0.7337
  452TMC3    C4 6731   0.851   3.292   0.879  0.4855 -0.2916 -0.4837
  452TMC3    C5 6732   0.777   3.179   0.853 -0.4972  1.0146 -0.2152
  452TMC3    C6 6733   0.695   3.120   0.946 -0.2318 -0.7308 -0.2919
  452TMC3     C 6734   0.938   3.453   1.046  0.3447 -0.7426 -0.9939
  452TMC3     O 6735   0.886   3.534   1.120  0.2879  0.0668 -0.3813
  452TMC3     H 6736   0.779   3.319   1.209  0.3298 -0.5446  0.1630
  452TMC3    H1 6737   0.878   3.355   0.795  2.1989 -0.8430 -0.3620
  452TMC3    H2 6738   0.639   3.033   0.914  0.6969 -0.4784 -2.6194
  452TMC3    C7 6739   0.761   3.130   0.715  0.6577  0.0275  0.3023
  452TMC3    C8 6740   0.685   3.085   1.188 -0.5574 -0.4279 -0.6917
  452TMC3    O1 6741   0.654   3.069   0.696  0.4219 -0.2871  1.0052
  452TMC3    O2 6742   0.779   3.083   1.266  0.5310 -0.1783 -0.1887
  453TMC3    C1 6743   2.656   0.719  11.885 -0.4212  0.2170  0.7666
  453TMC3    C2 6744   2.602   0.593  11.886 -0.3585  0.7676 -0.3735
  453TMC3    C3 6745   2.480   0.581  11.827 -0.7626  0.4678  0.7824
  453TMC3    C4 6746   2.598   0.825  11.814  0.3768 -0.1181 -0.7433
  453TMC3    C5 6747   2.482   0.793  11.748  0.0125  0.1921  0.0172
  453TMC3    C6 6748   2.418   0.678  11.754 -0.0450 -0.2099 -0.2299
  453TMC3     C 6749   2.799   0.749  11.913  0.0124 -0.0878 -0.6892
  453TMC3     O 6750   2.835   0.863  11.938  0.7661 -0.3884 -0.3082
  453TMC3     H 6751   2.636   0.513  11.952  0.1259 -0.4119 -2.0397
  453TMC3    H1 6752   2.663   0.898  11.768  1.4854  0.1280  1.2446
  453TMC3    H2 6753   2.335   0.654  11.689 -1.5307 -0.2592  1.6683
  453TMC3    C7 6754   2.487   0.850  11.614 -0.5236 -0.2001  0.1909
  453TMC3    C8 6755   2.399   0.464  11.861 -0.6324 -0.2026  0.2369
  453TMC3    O1 6756   2.493   0.773  11.516  0.1726  0.1342  0.0169
  453TMC3    O2 6757   2.278   0.487  11.879  0.4001  0.0545  0.3072
  454MPD2     C 6758   1.438   0.139  16.295 -0.8018  0.1093  0.2981
  454MPD2    C1 6759   1.363   0.247  16.248  0.2450 -0.2132 -0.5674
  454MPD2    C2 6760   1.319   0.345  16.334 -0.4606  0.1108 -0.0408
  454MPD2    C3 6761   1.330   0.326  16.469 -0.2842  0.2522 -0.3039
  454MPD2    C4 6762   1.401   0.222  16.512 -0.5585 -0.4413  0.6199
  454MPD2    C5 6763   1.460   0.129  16.429  0.0040  0.6645 -0.4247
  454MPD2     H 6764   1.276   0.432  16.287  0.4021  0.4228 -0.2584
  454MPD2    H1 6765   1.413   0.211  16.619 -2.3424 -1.9639  0.6714
  454MPD2    H2 6766   1.473   0.061  16.229 -0.9110  0.5915 -0.3334
  454MPD2    H3 6767   1.519   0.052  16.478 -0.8453  1.1049  1.2900
  454MPD2     N 6768   1.283   0.422  16.563 -0.3907  0.5144 -0.7131
  454MPD2    H5 6769   1.317   0.414  16.658  2.6672  0.6208 -1.7711
  454MPD2    N1 6770   1.325   0.262  16.111  0.2476  0.3014 -0.0264
  454MPD2    H7 6771   1.281   0.349  16.085 -0.6153  0.4152  1.8676
  455TMC3    C1 6772   1.088   0.508  16.455  0.7790 -0.1147 -0.4119
  455TMC3    C2 6773   1.007   0.613  16.430  0.3842  0.4959 -0.4101
  455TMC3    C3 6774   0.893   0.593  16.364  0.4527 -1.2617  0.9306
  455TMC3    C4 6775   1.046   0.379  16.427 -0.7746 -0.3014 -0.0807
  455TMC3    C5 6776   0.931   0.361  16.363  0.3202 -0.4518 -0.8059
  455TMC3    C6 6777   0.843   0.465  16.329  0.3529  0.5633  0.5355
  455TMC3     C 6778   1.213   0.534  16.530 -0.6709 -0.7755  0.4447
  455TMC3     O 6779   1.212   0.631  16.604  0.3828  0.5706 -0.3789
  455TMC3     H 6780   1.030   0.702  16.488 -0.1474  0.7199 -0.5413
  455TMC3    H1 6781   1.091   0.296  16.480  0.1688  0.0015 -0.4025
  455TMC3    H2 6782   0.754   0.439  16.273 -0.4066  0.1621  1.9443
  455TMC3    C7 6783   0.918   0.234  16.286 -0.3137 -0.3417  0.4353
  455TMC3    C8 6784   0.795   0.692  16.391 -1.0612  0.1163  0.1571
  455TMC3    O1 6785   0.811   0.215  16.235  0.3713  0.1519  0.2657
  455TMC3    O2 6786   0.852   0.796  16.400  0.5736  0.1372  0.5128
  456MPD2     C 6787   3.795   0.202  15.639  0.2774  0.8516  0.8961
  456MPD2    C1 6788   3.866   0.228  15.752  0.3365  0.1292 -0.3178
  456MPD2    C2 6789   3.817   0.326  15.840  0.8838 -0.6551  0.1494
  456MPD2    C3 6790   3.697   0.391  15.820  0.1858 -0.0549 -0.3906
  456MPD2    C4 6791   3.626   0.361  15.705 -0.5239 -0.2107 -0.1969
  456MPD2    C5 6792   3.680   0.269  15.621 -0.1803 -0.3041  0.0041
  456MPD2     H 6793   3.865   0.347  15.934  0.1316 -0.4258  0.4770
  456MPD2    H1 6794   3.532   0.408  15.678  0.3408 -0.6504 -3.9898
  456MPD2    H2 6795   3.826   0.139  15.555  0.4263  0.8825  0.9274
  456MPD2    H3 6796   3.620   0.240  15.535  2.8432 -2.4354 -1.3546
  456MPD2     N 6797   3.661   0.491  15.911  0.1419 -0.3145  0.5967
  456MPD2    H5 6798   3.728   0.512  15.984 -1.5085 -0.6672  2.2236
  456MPD2    N1 6799   3.981   0.149  15.764  0.1215  0.1070  0.3574
  456MPD2    H7 6800   4.011   0.102  15.679  1.2384 -0.3149  0.9805
  457TMC3    C1 6801   3.515   0.618  16.044 -0.3864  0.1423 -0.2848
  457TMC3    C2 6802   3.428   0.728  16.046 -0.0083  0.0263  0.5302
  457TMC3    C3 6803   3.413   0.797  16.164 -0.2590  0.1671 -0.4846
  457TMC3    C4 6804   3.579   0.583  16.161  0.9963 -0.0208  0.2379
  457TMC3    C5 6805   3.551   0.653  16.274  0.3073 -0.0820  0.7513
  457TMC3    C6 6806   3.476   0.761  16.282 -0.1808  0.1741 -0.3315
  457TMC3     C 6807   3.545   0.562  15.912 -1.1779 -0.2862  0.2205
  457TMC3     O 6808   3.450   0.558  15.832  0.0717 -0.4403  0.1276
  457TMC3     H 6809   3.394   0.766  15.950  1.2560  2.3228  0.9709
  457TMC3    H1 6810   3.647   0.498  16.166  0.6100 -0.3438  0.0476
  457TMC3    H2 6811   3.455   0.820  16.371  0.8829 -0.7662  0.5500
  457TMC3    C7 6812   3.639   0.616  16.385 -0.1922 -0.0327  0.1576
  457TMC3    C8 6813   3.376   0.936  16.168  0.7843 -0.5608 -0.4218
  457TMC3    O1 6814   3.709   0.521  16.380 -0.1919  1.0573  0.1724
  457TMC3    O2 6815   3.439   1.003  16.248  0.1792 -0.2396  0.6506
  458MPD2     C 6816   1.436   4.447  12.222  0.2915 -0.9789 -0.1702
  458MPD2    C1 6817   1.471   4.435  12.350  0.1048  0.7630 -0.1410
  458MPD2    C2 6818   1.366   4.407  12.443  0.2491  0.1711 -0.1984
  458MPD2    C3 6819   1.235   4.405  12.396 -0.1585  0.0619  0.0160
  458MPD2    C4 6820   1.209   4.426  12.264  0.3968 -0.1315 -0.0527
  458MPD2    C5 6821   1.311   4.433  12.171  0.0464  0.5312  1.1490
  458MPD2     H 6822   1.381   4.385  12.548  1.2115 -1.8795 -0.7447
  458MPD2    H1 6823   1.109   4.402  12.229 -0.5228 -0.2896  2.7127
  458MPD2    H2 6824   1.521   4.457  12.155  0.7269  2.9665  0.9722
  458MPD2    H3 6825   1.297   4.440  12.064  3.4435 -2.1137  0.5814
  458MPD2     N 6826   1.139   4.383  12.495  0.0725 -0.0437 -0.4636
  458MPD2    H5 6827   1.179   4.388  12.588  1.2020 -0.7380 -0.9085
  458MPD2    N1 6828   1.603   4.435  12.397  0.3106  0.5018  0.5082
  458MPD2    H7 6829   1.669   4.479  12.334  1.0847 -0.5175  0.5973
  459TMC3    C1 6830   1.768   4.432  12.565  1.0395 -0.5545  0.0108
  459TMC3    C2 6831   1.827   4.546  12.505 -0.6360 -0.8488  0.6895
  459TMC3    C3 6832   1.920   4.617  12.587  0.2917 -0.2805 -0.3727
  459TMC3    C4 6833   1.798   4.402  12.697  0.3970  0.0655 -0.5243
  459TMC3    C5 6834   1.887   4.471  12.767  0.1023 -0.1949 -0.3698
  459TMC3    C6 6835   1.947   4.586  12.719 -0.1218  0.0240 -0.5656
  459TMC3     C 6836   1.642   4.388  12.520 -0.2902 -0.5263 -0.1192
  459TMC3     O 6837   1.581   4.312  12.595 -0.2344  0.2423  0.2203
  459TMC3     H 6838   1.808   4.577  12.403  3.4717 -1.2377 -0.1958
  459TMC3    H1 6839   1.744   4.315  12.734  0.7838  0.7175  1.6067
  459TMC3    H2 6840   2.026   4.639  12.771 -0.2413 -0.1304 -0.2259
  459TMC3    C7 6841   1.899   4.427  12.905 -0.8041 -0.2293  0.0405
  459TMC3    C8 6842   2.014   4.715  12.525 -0.2018 -0.0283  0.6319
  459TMC3    O1 6843   1.854   4.315  12.920  0.4605 -0.4993 -0.8002
  459TMC3    O2 6844   2.117   4.722  12.584  0.1677 -0.2778  0.2661
  460MPD2     C 6845   0.525   1.457  10.805 -0.4410 -0.5526 -0.2326
  460MPD2    C1 6846   0.536   1.589  10.781  0.2315  0.7667  0.6172
  460MPD2    C2 6847   0.557   1.626  10.646 -0.1016  0.4664 -0.0748
  460MPD2    C3 6848   0.575   1.534  10.548  0.7288  0.4118 -0.4286
  460MPD2    C4 6849   0.554   1.401  10.575 -0.2418  0.0560 -0.2822
  460MPD2    C5 6850   0.528   1.369  10.706 -0.0180  0.5463 -0.4614
  460MPD2     H 6851   0.566   1.732  10.624 -0.7331  0.5215 -0.0822
  460MPD2    H1 6852   0.569   1.314  10.512 -0.9140  0.4167 -0.9327
  460MPD2    H2 6853   0.510   1.434  10.910  3.0284 -2.1793 -0.0798
  460MPD2    H3 6854   0.519   1.265  10.734  0.2136  0.8336  0.6547
  460MPD2     N 6855   0.618   1.585  10.422  0.1161  0.7290 -0.3288
  460MPD2    H5 6856   0.603   1.684  10.407 -1.3116  0.5235 -0.2188
  460MPD2    N1 6857   0.515   1.682  10.888 -0.2872 -0.5141  0.0008
  460MPD2    H7 6858   0.499   1.648  10.982  0.0089 -0.4413  0.0769
  461TMC3    C1 6859   0.736   1.582  10.213 -0.3128 -0.2779  0.4251
  461TMC3    C2 6860   0.843   1.520  10.146  0.2768 -0.4130 -0.5778
  461TMC3    C3 6861   0.871   1.565  10.020 -0.9781 -0.5612  0.6141
  461TMC3    C4 6862   0.657   1.683  10.153 -0.0142  0.5811  0.8565
  461TMC3    C5 6863   0.694   1.726  10.029 -0.0726 -0.2597  0.8283
  461TMC3    C6 6864   0.802   1.665   9.964 -0.3791 -0.5748 -0.0523
  461TMC3     C 6865   0.682   1.506  10.326  0.4985  0.4370  0.8055
  461TMC3     O 6866   0.715   1.390  10.320 -0.3092 -0.2534 -0.2040
  461TMC3     H 6867   0.884   1.427  10.182 -2.1076 -1.3941 -0.3819
  461TMC3    H1 6868   0.563   1.714  10.197 -0.8910 -0.5951 -0.1583
  461TMC3    H2 6869   0.840   1.680   9.864  1.9363  1.2411  1.1120
  461TMC3    C7 6870   0.625   1.837   9.974  0.5853  0.1273 -0.7862
  461TMC3    C8 6871   0.942   1.460   9.947 -0.2674 -0.4024  0.1829
  461TMC3    O1 6872   0.650   1.858   9.860 -0.2083 -0.0798  0.0793
  461TMC3    O2 6873   1.046   1.405   9.985  0.3826  0.0880  0.0915
  462TMC3    C1 6874   0.514   2.977  17.123 -0.5900  0.5249  0.5158
  462TMC3    C2 6875   0.553   2.870  17.060  0.3767 -0.4435  0.2755
  462TMC3    C3 6876   0.515   2.752  17.110 -0.6625 -0.0358  0.5362
  462TMC3    C4 6877   0.450   2.970  17.247 -0.4080 -0.6437  0.4808
  462TMC3    C5 6878   0.410   2.848  17.296  0.5093 -0.1189 -0.0929
  462TMC3    C6 6879   0.440   2.736  17.222  0.9321 -0.2361  0.4234
  462TMC3     C 6880   0.579   3.101  17.085  0.5025 -0.6265  0.1216
  462TMC3     O 6881   0.686   3.100  17.023  0.5706  0.8409  0.2830
  462TMC3     H 6882   0.595   2.882  16.961 -2.2762 -0.2372 -0.8505
  462TMC3    H1 6883   0.432   3.062  17.302  0.1471 -0.2539  0.0148
  462TMC3    H2 6884   0.426   2.638  17.264  0.7880 -0.0534  0.7959
  462TMC3    C7 6885   0.327   2.837  17.416  0.0999 -0.2963 -0.0912
  462TMC3    C8 6886   0.554   2.634  17.033  0.9680  0.2645  0.7118
  462TMC3    O1 6887   0.274   2.732  17.443 -0.8678  0.0862 -0.2529
  462TMC3    O2 6888   0.478   2.538  17.032  0.6227 -0.4600 -0.6269
  463MPD2     C 6889   2.487   1.404   1.807 -0.3845  0.2424  0.2582
  463MPD2    C1 6890   2.433   1.522   1.758 -0.5499 -0.2739  0.1691
  463MPD2    C2 6891   2.516   1.624   1.730  0.2435 -0.2255  0.8690
  463MPD2    C3 6892   2.652   1.620   1.745  0.7050  0.7932 -0.1708
  463MPD2    C4 6893   2.707   1.500   1.795  0.0648  0.9292  0.4223
  463MPD2    C5 6894   2.619   1.398   1.817  0.0227  0.7840  0.4176
  463MPD2     H 6895   2.465   1.710   1.688 -0.9631  0.2992  3.4067
  463MPD2    H1 6896   2.812   1.476   1.808 -0.3824 -1.0608  0.3674
  463MPD2    H2 6897   2.423   1.321   1.833 -0.3029  0.8474  2.4471
  463MPD2    H3 6898   2.660   1.301   1.844 -1.1669  0.0254 -0.4699
  463MPD2     N 6899   2.735   1.726   1.702  0.7862  0.2198 -0.2217
  463MPD2    H5 6900   2.836   1.717   1.706  0.6716  0.2320  2.2216
  463MPD2    N1 6901   2.292   1.544   1.757 -0.3923  0.0209 -0.8444
  463MPD2    H7 6902   2.263   1.640   1.741 -1.4744 -0.1399  0.1344
  464TMC3    C1 6903   2.065   1.473   1.756  0.6518  0.6283  0.7238
  464TMC3    C2 6904   2.022   1.604   1.739 -0.3757  0.3852 -0.2105
  464TMC3    C3 6905   1.889   1.627   1.751 -0.3595  0.1860 -0.2214
  464TMC3    C4 6906   1.979   1.369   1.763  0.3214  0.1763 -0.6849
  464TMC3    C5 6907   1.850   1.395   1.769  0.0909 -0.2098  0.3767
  464TMC3    C6 6908   1.802   1.527   1.766 -0.1328  0.1532 -0.0734
  464TMC3     C 6909   2.204   1.440   1.754  0.4380  0.6751 -0.3760
  464TMC3     O 6910   2.233   1.319   1.763 -0.4232 -0.0130  0.1596
  464TMC3     H 6911   2.101   1.676   1.724 -1.8759  1.9139 -0.8208
  464TMC3    H1 6912   2.022   1.273   1.792 -1.6274  0.4375  3.1104
  464TMC3    H2 6913   1.696   1.537   1.786 -0.2808 -1.6286  0.0230
  464TMC3    C7 6914   1.748   1.294   1.798  0.2341  0.4775 -0.0183
  464TMC3    C8 6915   1.844   1.765   1.722 -0.9528 -0.0991 -0.5363
  464TMC3    O1 6916   1.781   1.199   1.869  0.1570 -0.2075  0.0804
  464TMC3    O2 6917   1.924   1.848   1.691 -0.1662 -0.5774 -0.6467
  465MPD2     C 6918   3.162   0.855  16.449 -0.5329  0.1656 -0.3480
  465MPD2    C1 6919   3.149   0.720  16.486 -0.6364  0.6179 -0.2708
  465MPD2    C2 6920   3.046   0.651  16.432  0.3197  0.3991  0.0478
  465MPD2    C3 6921   2.953   0.712  16.349 -0.9300  0.7465 -0.4196
  465MPD2    C4 6922   2.968   0.840  16.310 -0.3100 -0.7491  1.2269
  465MPD2    C5 6923   3.070   0.913  16.362  0.6645  0.2090 -0.1969
  465MPD2     H 6924   3.027   0.547  16.455 -2.0846  1.0191  0.8355
  465MPD2    H1 6925   2.907   0.888  16.235  0.1730 -1.8446  0.1270
  465MPD2    H2 6926   3.249   0.912  16.481  0.5437 -1.0163 -1.1969
  465MPD2    H3 6927   3.074   1.018  16.335 -2.2567 -0.2088 -2.2830
  465MPD2     N 6928   2.853   0.628  16.290  0.2388  0.4248 -0.3986
  465MPD2    H5 6929   2.837   0.536  16.329  0.7545 -0.3102 -1.9234
  465MPD2    N1 6930   3.227   0.650  16.582  0.4318  0.0720 -0.1608
  465MPD2    H7 6931   3.187   0.560  16.605  1.5670 -0.1261  1.0015
  466TMC3    C1 6932   2.529   0.406  16.260  0.3143  0.3406 -0.2383
  466TMC3    C2 6933   2.416   0.457  16.218 -0.0758  0.0836  0.1662
  466TMC3    C3 6934   2.411   0.585  16.156  0.5319 -0.0474  0.8904
  466TMC3    C4 6935   2.647   0.454  16.223 -0.7132  0.1516 -0.0943
  466TMC3    C5 6936   2.652   0.580  16.164 -0.2136  0.8089  0.3740
  466TMC3    C6 6937   2.530   0.642  16.128 -0.0015 -0.2600 -0.1914
  466TMC3     C 6938   2.531   0.314  16.375  0.0354  0.2391  0.6398
  466TMC3     O 6939   2.625   0.313  16.454 -0.2209  0.2876  0.6790
  466TMC3     H 6940   2.322   0.414  16.251 -0.0429  0.6959  1.0449
  466TMC3    H1 6941   2.740   0.403  16.247 -0.5357 -0.1579 -1.4398
  466TMC3    H2 6942   2.531   0.744  16.090  0.6256 -0.1429  0.1418
  466TMC3    C7 6943   2.765   0.666  16.191 -0.1019  0.2743 -0.3075
  466TMC3    C8 6944   2.341   0.675  16.239  0.4563  0.2220 -0.8056
  466TMC3    O1 6945   2.780   0.760  16.115  0.0077  0.0392  0.2745
  466TMC3    O2 6946   2.388   0.784  16.262 -0.8469 -0.1392 -0.2430
  467TMC3    C1 6947   3.645   3.336  13.563 -0.2254 -0.0882 -0.4270
  467TMC3    C2 6948   3.670   3.394  13.440 -0.7649  0.4587  0.2897
  467TMC3    C3 6949   3.573   3.466  13.385 -0.0563  0.1275  0.1545
  467TMC3    C4 6950   3.544   3.359  13.648  0.2895  0.1290 -0.0994
  467TMC3    C5 6951   3.456   3.448  13.598 -0.5347 -0.5967 -0.3333
  467TMC3    C6 6952   3.470   3.503  13.465 -0.1303 -0.4482  0.6084
  467TMC3     C 6953   3.762   3.281  13.634 -0.4537 -0.8150 -0.3543
  467TMC3     O 6954   3.754   3.172  13.690 -0.8656 -0.0435  0.4404
  467TMC3     H 6955   3.766   3.377  13.394 -0.2621  0.0498  1.4855
  467TMC3    H1 6956   3.535   3.319  13.748 -1.0743  0.9023  0.0813
  467TMC3    H2 6957   3.405   3.572  13.413  1.5284  0.1951 -0.6247
  467TMC3    C7 6958   3.354   3.495  13.688 -1.3033  0.3183  0.1778
  467TMC3    C8 6959   3.615   3.555  13.280 -0.1293  0.6881  0.4413
  467TMC3    O1 6960   3.347   3.434  13.795  0.4911 -0.5771 -0.8243
  467TMC3    O2 6961   3.734   3.569  13.270  0.4367 -0.3406  0.3584
  468MPD2     C 6962   2.365   1.958  10.783  0.6421  0.3833 -0.5378
  468MPD2    C1 6963   2.482   1.904  10.824  0.1801 -0.5432  0.6129
  468MPD2    C2 6964   2.506   1.767  10.802  0.3152 -0.3335  0.4913
  468MPD2    C3 6965   2.419   1.690  10.729 -0.3619 -0.4986 -0.0845
  468MPD2    C4 6966   2.309   1.752  10.675  0.0991 -0.6191  0.6814
  468MPD2    C5 6967   2.277   1.881  10.710 -0.1486  0.2213 -0.5413
  468MPD2     H 6968   2.593   1.723  10.849  0.2706  0.3381  1.1939
  468MPD2    H1 6969   2.234   1.691  10.626  2.6418 -0.2081 -3.6588
  468MPD2    H2 6970   2.337   2.062  10.797 -1.9714 -0.3540 -0.3110
  468MPD2    H3 6971   2.186   1.926  10.672  1.0270  2.8397 -0.2799
  468MPD2     N 6972   2.447   1.549  10.705 -0.0360  0.1104  0.5750
  468MPD2    H5 6973   2.377   1.499  10.651  0.8524  1.0928 -1.4789
  468MPD2    N1 6974   2.572   1.980  10.901 -0.1874  0.3057  0.0007
  468MPD2    H7 6975   2.659   1.931  10.921  0.7915  1.5555 -1.2030
  469TMC3    C1 6976   2.680   2.181  10.976 -0.2820 -0.4957  0.1963
  469TMC3    C2 6977   2.796   2.141  10.930 -0.5688 -0.6918 -0.1580
  469TMC3    C3 6978   2.900   2.157  11.014 -0.1392 -0.3183 -0.1995
  469TMC3    C4 6979   2.659   2.238  11.099  0.2927  0.1043  0.6923
  469TMC3    C5 6980   2.768   2.265  11.175 -0.4216  0.2617  0.1142
  469TMC3    C6 6981   2.890   2.219  11.134 -0.0566 -1.0308 -0.4971
  469TMC3     C 6982   2.558   2.110  10.935  0.9336 -0.5522 -0.3153
  469TMC3     O 6983   2.458   2.176  10.943 -0.0642  0.3073 -0.6213
  469TMC3     H 6984   2.804   2.084  10.838 -0.7264  0.6714 -1.0111
  469TMC3    H1 6985   2.556   2.254  11.131  0.1983 -0.3722  0.6321
  469TMC3    H2 6986   2.974   2.236  11.199  0.4142 -0.2085 -1.3202
  469TMC3    C7 6987   2.758   2.314  11.316 -0.7568  0.2077  0.2105
  469TMC3    C8 6988   3.018   2.086  10.974  0.1175  0.5279 -0.6546
  469TMC3    O1 6989   2.862   2.304  11.382  0.1341  0.0877 -0.4996
  469TMC3    O2 6990   3.023   2.063  10.853 -0.4641  0.3118 -0.3499
  470TMC3    C1 6991   0.428   3.105   0.315 -0.3138 -1.5375 -0.4414
  470TMC3    C2 6992   0.413   3.193   0.419 -0.9167 -0.1294 -0.4974
  470TMC3    C3 6993   0.334   3.141   0.521  0.6525  0.4155 -0.1518
  470TMC3    C4 6994   0.359   2.985   0.306 -0.1719 -0.0457 -0.0312
  470TMC3    C5 6995   0.275   2.942   0.406 -0.0690 -0.1628 -1.0026
  470TMC3    C6 6996   0.269   3.016   0.518 -0.4776 -0.3234 -0.6864
  470TMC3     C 6997   0.511   3.156   0.209 -0.2719  0.5606 -0.3265
  470TMC3     O 6998   0.545   3.270   0.213  0.3322 -0.5459  0.4809
  470TMC3     H 6999   0.462   3.289   0.415  2.4451 -1.8469 -0.7010
  470TMC3    H1 7000   0.336   2.937   0.212  2.0379 -0.2970 -0.4319
  470TMC3    H2 7001   0.224   2.974   0.607 -1.4882  0.6697 -0.7273
  470TMC3    C7 7002   0.263   2.793   0.408 -0.3366  0.0938  0.9518
  470TMC3    C8 7003   0.314   3.230   0.631 -0.2725 -0.4659  0.2208
  470TMC3    O1 7004   0.290   2.733   0.305  0.5244 -0.1869 -0.0202
  470TMC3    O2 7005   0.232   3.198   0.713  0.2259 -0.3185 -0.2536
  471MPD2     C 7006   0.512   0.016  16.896  0.2480 -0.5823  0.1287
  471MPD2    C1 7007   0.553   4.623  16.831  0.6287 -0.8600 -0.2990
  471MPD2    C2 7008   0.683   4.573  16.863 -0.0943  0.3376  0.0119
  471MPD2    C3 7009   0.754   4.627  16.973  0.2010 -0.6071  1.0550
  471MPD2    C4 7010   0.705   0.012  17.035 -0.1675  0.2383 -0.1544
  471MPD2    C5 7011   0.594   0.079  16.989  0.2733 -0.5399  0.8030
  471MPD2     H 7012   0.723   4.487  16.810 -1.8904 -1.1937  1.1204
  471MPD2    H1 7013   0.749   0.044  17.128  2.2578 -0.9765 -0.8827
  471MPD2    H2 7014   0.416   0.059  16.868  0.5427  0.9020  1.4339
  471MPD2    H3 7015   0.564   0.171  17.038  0.0621 -0.5905  0.7694
  471MPD2     N 7016   0.881   4.574  17.023  0.4080 -0.1182 -0.4525
  471MPD2    H5 7017   0.927   4.623  17.099  0.4376 -1.2069  0.2264
  471MPD2    N1 7018   0.468   4.550  16.743  0.2078  0.2142 -0.1301
  471MPD2    H7 7019   0.505   4.460  16.713  3.0039  0.8128  1.5111
  472TMC3    C1 7020   0.283   4.476  16.619 -0.3331 -0.5812 -0.2213
  472TMC3    C2 7021   0.151   4.471  16.586  0.4070  0.2686 -0.1487
  472TMC3    C3 7022   0.102   4.366  16.520  0.2793  0.0378  0.2092
  472TMC3    C4 7023   0.370   4.373  16.583  0.0114 -0.3577 -0.0506
  472TMC3    C5 7024   0.316   4.261  16.513 -0.3746  0.4905 -0.0567
  472TMC3    C6 7025   0.182   4.258  16.484 -0.0954  0.0174  0.7857
  472TMC3     C 7026   0.340   4.583  16.698  0.1028  0.3049  0.4082
  472TMC3     O 7027   0.274   4.683  16.726 -0.1474 -0.1908  0.2626
  472TMC3     H 7028   0.088   4.556  16.614 -1.6050 -1.3096  0.1251
  472TMC3    H1 7029   0.475   4.367  16.610  0.1805  0.0175 -0.6180
  472TMC3    H2 7030   0.149   4.173  16.426  0.7850  0.2051  0.0109
  472TMC3    C7 7031   0.391   4.137  16.513  0.2018 -0.4536 -0.1584
  472TMC3    C8 7032   4.706   4.387  16.443 -0.0844  0.6070 -0.6278
  472TMC3    O1 7033   0.434   4.103  16.622  0.2101 -0.1059  0.6662
  472TMC3    O2 7034   4.672   4.503  16.419 -0.1376 -0.0714  0.0941
  473MPD2     C 7035   0.043   1.260  13.771 -0.4027  0.0134  0.6323
  473MPD2    C1 7036   0.167   1.309  13.738 -0.0728  0.1776  0.1232
  473MPD2    C2 7037   0.246   1.376  13.836  0.0392  0.5416  0.4383
  473MPD2    C3 7038   0.212   1.372  13.967 -0.0545 -0.6458 -0.2401
  473MPD2    C4 7039   0.088   1.328  14.001 -0.7534  0.1350 -0.0577
  473MPD2    C5 7040   0.007   1.279  13.902  0.5554 -0.5780  0.0214
  473MPD2     H 7041   0.336   1.425  13.801  1.8814 -2.2743  1.2732
  473MPD2    H1 7042   0.060   1.348  14.103  2.6558  0.1358  0.8625
  473MPD2    H2 7043   4.693   1.224  13.701 -0.6213 -2.8793  2.3547
  473MPD2    H3 7044   4.628   1.258  13.926  0.9184 -0.1436  1.9732
  473MPD2     N 7045   0.276   1.438  14.078 -0.1890  1.1038  0.0447
  473MPD2    H5 7046   0.236   1.453  14.170 -2.0234 -0.5178 -0.4741
  473MPD2    N1 7047   0.215   1.310  13.606  0.5178 -0.3221 -0.1483
  473MPD2    H7 7048   0.296   1.367  13.588  1.7551 -1.9699  0.2575
  474TMC3    C1 7049   0.430   1.568  14.185  0.0743  0.2844  0.2981
  474TMC3    C2 7050   0.331   1.662  14.216 -0.8584 -0.6955 -0.6476
  474TMC3    C3 7051   0.361   1.794  14.231  0.6137  0.6456 -0.1665
  474TMC3    C4 7052   0.564   1.608  14.197 -0.0882 -0.0452  0.1467
  474TMC3    C5 7053   0.589   1.733  14.245  0.2082 -0.0223 -0.3614
  474TMC3    C6 7054   0.495   1.829  14.252 -0.0704  0.2043  0.8567
  474TMC3     C 7055   0.406   1.479  14.079  0.3393  0.3876 -0.3085
  474TMC3     O 7056   0.489   1.466  13.993  0.5397  0.1884  0.0875
  474TMC3     H 7057   0.229   1.628  14.207 -0.5834 -1.9300  1.0093
  474TMC3    H1 7058   0.641   1.537  14.169 -1.4193 -1.1304 -0.8058
  474TMC3    H2 7059   0.528   1.930  14.272  2.5771 -0.6940  1.0483
  474TMC3    C7 7060   0.720   1.773  14.294  0.4221 -0.0059 -0.1983
  474TMC3    C8 7061   0.253   1.890  14.197 -0.3874  0.1530 -0.1002
  474TMC3    O1 7062   0.816   1.754  14.216  0.6163  0.3648  0.7801
  474TMC3    O2 7063   0.138   1.847  14.197 -0.0678  0.0509 -0.2303
  475MPD2     C 7064   3.388   3.596  10.604 -0.0232  0.2744  0.3558
  475MPD2    C1 7065   3.466   3.707  10.599  0.1881  0.2097 -0.2912
  475MPD2    C2 7066   3.414   3.817  10.656  0.2039  0.5651  0.3619
  475MPD2    C3 7067   3.279   3.820  10.692 -0.4465  0.3475  0.3224
  475MPD2    C4 7068   3.201   3.708  10.670  0.3238 -0.1602 -0.7436
  475MPD2    C5 7069   3.257   3.591  10.633 -0.3851 -0.6015  0.1315
  475MPD2     H 7070   3.479   3.901  10.679  1.6108 -0.6144  0.6696
  475MPD2    H1 7071   3.095   3.719  10.688  0.3764  1.2302 -1.2711
  475MPD2    H2 7072   3.422   3.501  10.564  1.1111  0.5577  0.6323
  475MPD2    H3 7073   3.203   3.498  10.619 -2.5915  0.6897  0.0609
  475MPD2     N 7074   3.226   3.943  10.746  0.6287  0.6143 -0.0253
  475MPD2    H5 7075   3.278   4.027  10.724  2.5037 -1.0612 -2.0056
  475MPD2    N1 7076   3.603   3.687  10.561  0.1123 -0.5299 -0.6479
  475MPD2    H7 7077   3.635   3.591  10.556  0.5448 -0.4374  0.4735
  476TMC3    C1 7078   3.629   3.886  10.455  0.6080  0.0227 -0.0701
  476TMC3    C2 7079   3.541   3.847  10.355 -0.4694 -0.0772  0.7166
  476TMC3    C3 7080   3.448   3.939  10.313 -0.5617  0.2452 -0.4600
  476TMC3    C4 7081   3.631   4.010  10.508 -0.3544 -0.1568 -0.7411
  476TMC3    C5 7082   3.535   4.098  10.470 -0.2240 -0.5526  0.0636
  476TMC3    C6 7083   3.439   4.063  10.375 -0.4412 -0.4131  0.4565
  476TMC3     C 7084   3.692   3.786  10.529  0.3512 -0.2656 -0.1700
  476TMC3     O 7085   3.814   3.782  10.526 -0.1904 -0.1125  0.4482
  476TMC3     H 7086   3.540   3.748  10.312 -0.7019 -0.1630  0.9166
  476TMC3    H1 7087   3.704   4.033  10.585  0.2331  0.8589 -1.6072
  476TMC3    H2 7088   3.354   4.129  10.364  0.0132  0.2560  0.9879
  476TMC3    C7 7089   3.484   4.171  10.585 -0.1699 -0.2664  0.4784
  476TMC3    C8 7090   3.320   3.882  10.286  0.3910  0.1541 -0.2911
  476TMC3    O1 7091   3.375   4.134  10.626  0.0738 -0.1260 -0.1043
  476TMC3    O2 7092   3.330   3.786  10.211  0.1213  0.2884  1.0359
  477MPD2     C 7093   1.000   0.759  11.431 -0.1629  0.2481  0.3139
  477MPD2    C1 7094   1.008   0.867  11.521 -0.6579  0.2060 -1.1984
  477MPD2    C2 7095   1.078   0.852  11.643 -0.3756 -0.3612 -0.2214
  477MPD2    C3 7096   1.135   0.725  11.670 -0.2226  0.4034  0.0637
  477MPD2    C4 7097   1.129   0.626  11.576  0.6610 -0.2297  0.4503
  477MPD2    C5 7098   1.072   0.645  11.457  0.0653 -0.7007  0.3465
  477MPD2     H 7099   1.083   0.930  11.718 -0.1114 -1.3299  0.7655
  477MPD2    H1 7100   1.166   0.526  11.593 -1.6461 -0.5320  3.5585
  477MPD2    H2 7101   0.969   0.754  11.327 -4.3924 -3.4840  1.7800
  477MPD2    H3 7102   1.061   0.559  11.391 -2.6871  0.6580 -0.9456
  477MPD2     N 7103   1.195   0.691  11.799  0.2787 -0.0128  0.0446
  477MPD2    H5 7104   1.228   0.596  11.810 -2.1331 -0.5894  2.1629
  477MPD2    N1 7105   0.949   0.988  11.481  0.2830 -0.3211  0.0732
  477MPD2    H7 7106   0.897   0.985  11.394  0.6600 -1.1131 -0.1193
  478TMC3    C1 7107   0.850   1.204  11.500  1.2538 -0.5221 -0.6395
  478TMC3    C2 7108   0.815   1.302  11.591 -0.2234 -0.1474  0.5189
  478TMC3    C3 7109   0.703   1.376  11.563 -0.2983  0.6713 -0.1763
  478TMC3    C4 7110   0.784   1.185  11.384 -0.1611 -0.6356 -0.1435
  478TMC3    C5 7111   0.678   1.261  11.355  0.2319 -0.7535  0.4672
  478TMC3    C6 7112   0.645   1.371  11.433 -0.3523 -0.1282 -0.0234
  478TMC3     C 7113   0.952   1.111  11.545  0.3109  0.3971 -0.2428
  478TMC3     O 7114   1.018   1.131  11.645  0.3411  0.4843  0.7520
  478TMC3     H 7115   0.873   1.318  11.681  0.1305 -1.5159  0.5253
  478TMC3    H1 7116   0.810   1.105  11.315  3.7418 -0.9347  1.6688
  478TMC3    H2 7117   0.561   1.437  11.418  0.8841  1.4274 -0.0517
  478TMC3    C7 7118   0.593   1.201  11.256 -0.2258  0.0365 -0.0230
  478TMC3    C8 7119   0.662   1.472  11.673 -0.0159  0.4950 -0.4708
  478TMC3    O1 7120   0.622   1.086  11.214  0.2939  0.2802 -0.2227
  478TMC3    O2 7121   0.710   1.437  11.781  0.1113 -0.1444 -0.0558
  479MPD2     C 7122   4.181   3.180  14.785 -0.3645 -1.0860  0.1769
  479MPD2    C1 7123   4.183   3.113  14.904 -0.5969 -0.2529  0.4003
  479MPD2    C2 7124   4.252   3.165  15.017  0.0027  0.4235  0.1873
  479MPD2    C3 7125   4.315   3.290  15.014  0.1366  0.7864 -0.0996
  479MPD2    C4 7126   4.315   3.360  14.892  0.0768 -0.1415 -0.9483
  479MPD2    C5 7127   4.247   3.300  14.783 -0.7012  0.2250  0.2089
  479MPD2     H 7128   4.241   3.114  15.112 -0.5098  0.8154  0.3365
  479MPD2    H1 7129   4.360   3.458  14.877  2.4198 -1.2525 -1.1027
  479MPD2    H2 7130   4.138   3.135  14.696  0.4378 -0.1024 -0.7147
  479MPD2    H3 7131   4.249   3.354  14.689 -0.3747 -1.1587 -0.5892
  479MPD2     N 7132   4.372   3.357  15.124  0.2483  0.2228  0.2119
  479MPD2    H5 7133   4.424   3.443  15.113  2.0999 -1.0587 -1.0524
  479MPD2    N1 7134   4.106   2.997  14.907  0.0700  0.2032 -0.6406
  479MPD2    H7 7135   4.051   2.983  14.823 -0.1748 -0.5355 -0.3503
  480TMC3    C1 7136   4.505   3.476  15.553 -0.4385  0.3531 -0.1371
  480TMC3    C2 7137   4.465   3.600  15.535  0.5803 -0.4993  0.9663
  480TMC3    C3 7138   4.410   3.638  15.417 -0.1962  0.4268 -0.2441
  480TMC3    C4 7139   4.479   3.381  15.454 -0.6475 -0.0290  0.1299
  480TMC3    C5 7140   4.420   3.419  15.337  0.1083  0.7372  0.3342
  480TMC3    C6 7141   4.387   3.550  15.312  0.1155 -0.4569 -0.1334
  480TMC3     C 7142   4.566   3.427  15.671  0.8344  0.2449 -0.3611
  480TMC3     O 7143   4.529   3.317  15.710 -0.6193  0.8137  0.0146
  480TMC3     H 7144   4.459   3.676  15.612 -2.5054  1.5552 -1.2877
  480TMC3    H1 7145   4.512   3.279  15.466  1.9444  0.4773 -2.5179
  480TMC3    H2 7146   4.324   3.586  15.232  0.9217  0.4826 -0.3449
  480TMC3    C7 7147   4.372   3.316  15.252  0.2669  0.0720 -0.0731
  480TMC3    C8 7148   4.367   3.777  15.399 -0.2417  0.4098 -0.3290
  480TMC3    O1 7149   4.337   3.207  15.296 -0.0930 -0.4889 -0.0495
  480TMC3    O2 7150   4.318   3.832  15.495 -0.3343  0.3785 -0.4178
  481MPD2     C 7151   1.480   3.057  13.916  0.0675 -0.7516 -0.0547
  481MPD2    C1 7152   1.368   2.997  13.967  0.4158 -0.1661 -0.5196
  481MPD2    C2 7153   1.375   2.949  14.098 -0.7094 -0.7450 -0.8015
  481MPD2    C3 7154   1.494   2.957  14.168 -0.3001  0.3347 -0.0797
  481MPD2    C4 7155   1.608   3.011  14.111 -0.3477 -0.2402 -0.2086
  481MPD2    C5 7156   1.601   3.063  13.982 -0.4280 -0.1415  0.4149
  481MPD2     H 7157   1.290   2.902  14.146  0.8013  0.0651  2.6446
  481MPD2    H1 7158   1.705   3.013  14.160 -0.2230  1.0419 -0.5122
  481MPD2    H2 7159   1.479   3.090  13.813 -0.6050 -0.6484 -0.0194
  481MPD2    H3 7160   1.691   3.098  13.933 -0.4743 -0.9848 -0.2546
  481MPD2     N 7161   1.512   2.921  14.307  0.0276 -0.2229 -0.3988
  481MPD2    H5 7162   1.607   2.934  14.339  0.9136 -1.0380 -2.7013
  481MPD2    N1 7163   1.257   2.983  13.879  0.8932 -1.1651 -0.2012
  481MPD2    H7 7164   1.264   3.022  13.786  1.2737  1.0366  0.7601
  482TMC3    C1 7165   1.065   2.881  13.796  0.5196 -0.2719 -0.1057
  482TMC3    C2 7166   0.982   2.771  13.796  0.0798  0.7732 -0.9918
  482TMC3    C3 7167   0.895   2.762  13.692 -0.4504  0.6396 -0.5196
  482TMC3    C4 7168   1.044   2.984  13.706  0.0637  0.2087 -0.1371
  482TMC3    C5 7169   0.955   2.963  13.608 -0.6003 -0.3977 -0.9062
  482TMC3    C6 7170   0.886   2.850  13.591 -0.7450  0.2311  0.3515
  482TMC3     C 7171   1.161   2.891  13.905 -0.3404  0.0354 -0.5663
  482TMC3     O 7172   1.154   2.800  13.989  0.3376 -0.6635 -0.6449
  482TMC3     H 7173   0.972   2.709  13.884  2.3087  0.7051 -0.7748
  482TMC3    H1 7174   1.082   3.083  13.726  2.0344 -0.1438 -2.1488
  482TMC3    H2 7175   0.799   2.837  13.527  0.8237 -1.3750 -1.4460
  482TMC3    C7 7176   0.906   3.084  13.538 -0.1755 -0.6122  0.1826
  482TMC3    C8 7177   0.819   2.633  13.686 -0.1169  0.1655 -0.0538
  482TMC3    O1 7178   0.797   3.070  13.480 -0.3828 -0.3542  0.2589
  482TMC3    O2 7179   0.872   2.546  13.754  0.0118  0.1092  0.5125
  483TMC3    C1 7180   3.825   1.833   0.814  0.0571  0.3026  1.0222
  483TMC3    C2 7181   3.837   1.972   0.801 -1.0746  0.5916 -0.4748
  483TMC3    C3 7182   3.931   2.039   0.871 -0.1624  0.1445 -0.0779
  483TMC3    C4 7183   3.924   1.774   0.891  0.1982 -0.2279 -0.2370
  483TMC3    C5 7184   4.031   1.844   0.944  0.0483  0.2725 -0.7331
  483TMC3    C6 7185   4.034   1.980   0.937 -0.2637 -0.4525  0.0194
  483TMC3     C 7186   3.754   1.754   0.705 -0.1055 -0.1700 -0.0442
  483TMC3     O 7187   3.660   1.806   0.646 -0.2487 -0.0848 -0.1186
  483TMC3     H 7188   3.769   2.020   0.731 -1.7859  0.9180  0.4500
  483TMC3    H1 7189   3.918   1.667   0.907 -1.3869 -0.1891 -0.5686
  483TMC3    H2 7190   4.114   2.044   0.971  0.1514 -0.0061 -1.8008
  483TMC3    C7 7191   4.146   1.771   0.981 -1.2789 -0.0738 -0.4273
  483TMC3    C8 7192   3.954   2.174   0.823  0.3208 -0.5796  0.3355
  483TMC3    O1 7193   4.151   1.653   0.950 -0.0831 -0.1436 -0.3755
  483TMC3    O2 7194   3.925   2.191   0.706  0.0886 -0.7397  0.0463
  484MPD2     C 7195   1.952   0.243  12.249 -0.6191 -0.1679 -0.6746
  484MPD2    C1 7196   2.027   0.162  12.338  0.6862  0.7869 -0.2285
  484MPD2    C2 7197   2.162   0.171  12.337 -0.1723 -0.0910 -0.9132
  484MPD2    C3 7198   2.224   0.257  12.244  0.0077  0.1453  0.8450
  484MPD2    C4 7199   2.147   0.340  12.172 -0.6372 -0.6764 -0.2587
  484MPD2    C5 7200   2.015   0.333  12.167 -0.4261  0.2229  0.8758
  484MPD2     H 7201   2.221   0.107  12.401 -1.0568  0.9435  0.9464
  484MPD2    H1 7202   2.194   0.414  12.107 -0.4283  0.3802  1.0823
  484MPD2    H2 7203   1.845   0.238  12.264 -0.6643  0.8416 -0.6987
  484MPD2    H3 7204   1.964   0.403  12.103 -0.3192 -0.6295 -0.1328
  484MPD2     N 7205   2.366   0.272  12.234  0.2210  0.4524  0.2011
  484MPD2    H5 7206   2.413   0.344  12.181  0.0000  0.8398  0.5284
  484MPD2    N1 7207   1.959   0.069  12.417  0.0917  0.4173  0.0860
  484MPD2    H7 7208   1.858   0.069  12.417  0.0796 -1.5750 -1.3518
  485TMC3    C1 7209   2.580   0.192  12.286  0.1398 -0.1491  0.3384
  485TMC3    C2 7210   2.654   0.126  12.382  0.0430  0.0023  0.0136
  485TMC3    C3 7211   2.789   0.126  12.368 -0.1925 -0.3504  0.3234
  485TMC3    C4 7212   2.639   0.259  12.182 -1.0704  0.1907  0.0386
  485TMC3    C5 7213   2.771   0.260  12.176  0.3951  0.3495  0.0794
  485TMC3    C6 7214   2.851   0.201  12.272 -0.4684 -0.4211  0.0203
  485TMC3     C 7215   2.443   0.163  12.272 -0.1661 -0.5529  0.3308
  485TMC3     O 7216   2.414   0.047  12.303 -0.1410 -0.4870 -0.1802
  485TMC3     H 7217   2.614   0.073  12.468  0.1074  0.1738  0.1492
  485TMC3    H1 7218   2.587   0.302  12.098  2.0175 -1.7933 -2.8701
  485TMC3    H2 7219   2.959   0.201  12.270 -0.4389  0.6143  2.2080
  485TMC3    C7 7220   2.819   0.212  12.050 -0.5102  0.0301 -1.0831
  485TMC3    C8 7221   2.834   4.710  12.378  0.0572 -0.5708 -0.0143
  485TMC3    O1 7222   2.795   0.290  11.955 -0.1096  0.2556 -0.4259
  485TMC3    O2 7223   2.874   4.656  12.274  0.2076 -0.0345 -0.8611
  486MPD2     C 7224   4.346   3.589  13.238  0.2172 -0.3270 -0.2448
  486MPD2    C1 7225   4.314   3.518  13.128 -0.0960 -0.0612  0.0483
  486MPD2    C2 7226   4.276   3.587  13.012 -0.4614 -0.2717  0.9164
  486MPD2    C3 7227   4.271   3.726  13.010 -0.6339  0.0238  0.3498
  486MPD2    C4 7228   4.296   3.795  13.127 -0.1401 -0.1794 -0.0742
  486MPD2    C5 7229   4.325   3.722  13.244  0.0821  0.0106 -0.3111
  486MPD2     H 7230   4.255   3.536  12.919  3.0629 -0.9610  0.5080
  486MPD2    H1 7231   4.301   3.903  13.123  0.5866 -0.1353  2.4144
  486MPD2    H2 7232   4.364   3.540  13.333 -0.2653  2.6169  1.3690
  486MPD2    H3 7233   4.348   3.770  13.339  0.9036 -0.5202 -0.2427
  486MPD2     N 7234   4.227   3.787  12.885  0.9800 -0.1181  0.1444
  486MPD2    H5 7235   4.211   3.720  12.811 -1.6720  0.4795  0.1771
  486MPD2    N1 7236   4.315   3.376  13.137  0.0886 -0.1196 -0.6999
  486MPD2    H7 7237   4.338   3.338  13.228  0.9868  1.0120 -0.4528
  487TMC3    C1 7238   4.297   3.154  13.086  0.0113  0.1429  0.2550
  487TMC3    C2 7239   4.223   3.058  13.019  0.6452  0.5156 -0.2783
  487TMC3    C3 7240   4.232   2.929  13.061  0.0552 -0.7189  0.0240
  487TMC3    C4 7241   4.388   3.126  13.183  0.3566  0.3114  0.2456
  487TMC3    C5 7242   4.408   2.989  13.214  0.1502 -0.4240 -0.1946
  487TMC3    C6 7243   4.326   2.895  13.155  0.0095  0.0126 -0.1374
  487TMC3     C 7244   4.271   3.290  13.043  0.1277  0.7937 -0.0464
  487TMC3     O 7245   4.205   3.303  12.941  0.6506 -0.0939  0.1076
  487TMC3     H 7246   4.137   3.087  12.959  1.3614  0.6172 -1.2444
  487TMC3    H1 7247   4.458   3.200  13.220  0.6888  0.4083 -0.5677
  487TMC3    H2 7248   4.348   2.791  13.173 -0.1386  0.3945  2.2469
  487TMC3    C7 7249   4.404   2.971  13.357  0.5443 -0.3375 -0.3080
  487TMC3    C8 7250   4.111   2.850  13.082  0.4007  0.4155  0.0670
  487TMC3    O1 7251   4.482   3.026  13.433  0.0315  0.5594 -0.1484
  487TMC3    O2 7252   4.121   2.776  13.178  0.2072 -0.2666 -0.0686
  488MPD2     C 7253   4.542   0.537  16.878 -1.0708 -0.5680  0.4940
  488MPD2    C1 7254   4.536   0.666  16.825 -0.4347 -0.0147  0.0656
  488MPD2    C2 7255   4.521   0.761  16.926  0.0287  0.5016  0.0751
  488MPD2    C3 7256   4.520   0.731  17.061 -0.2751 -0.3044 -0.5252
  488MPD2    C4 7257   4.535   0.601  17.115  0.2579  0.1794 -0.1087
  488MPD2    C5 7258   4.539   0.505  17.017  0.6926 -0.3472 -0.5431
  488MPD2     H 7259   4.513   0.865  16.896 -1.2229 -0.1162 -1.7476
  488MPD2    H1 7260   4.529   0.572  17.219 -0.6438  2.2406  0.4250
  488MPD2    H2 7261   4.547   0.448  16.816 -0.2384 -0.2090  0.0557
  488MPD2    H3 7262   4.539   0.402  17.051  0.5866 -0.6952 -1.6038
  488MPD2     N 7263   4.512   0.839  17.147  0.4774  0.5818  0.6830
  488MPD2    H5 7264   4.508   0.932  17.106 -1.8318  0.0928 -0.2253
  488MPD2    N1 7265   4.554   0.696  16.692  0.0681 -0.0182 -0.0340
  488MPD2    H7 7266   4.561   0.796  16.682  2.7114 -0.2286 -0.1743
  489TMC3    C1 7267   4.506   0.966  17.348  0.6360  0.9527 -0.1960
  489TMC3    C2 7268   4.533   1.078  17.278  0.4056  0.0328  0.0333
  489TMC3    C3 7269   4.524   1.191  17.354 -0.3104  0.2593  0.0213
  489TMC3    C4 7270   4.448   0.971  17.472 -0.2174  0.4063  0.0854
  489TMC3    C5 7271   4.437   1.086  17.544 -0.5830  0.3709 -0.0153
  489TMC3    C6 7272   4.484   1.203  17.488  0.3957 -0.4083  0.1071
  489TMC3     C 7273   4.516   0.836  17.290 -0.6859 -0.0159  0.2071
  489TMC3     O 7274   4.501   0.746  17.369  0.6344 -0.1286 -0.4175
  489TMC3     H 7275   4.573   1.073  17.178 -3.0361 -1.0421 -1.2996
  489TMC3    H1 7276   4.414   0.881  17.521  1.6321 -1.0127 -1.2396
  489TMC3    H2 7277   4.495   1.299  17.536  0.2661 -0.0115 -0.6490
  489TMC3    C7 7278   4.380   1.077  17.671 -0.3239 -0.1881 -0.2083
  489TMC3    C8 7279   4.575   1.309  17.278  0.1888 -1.1671  0.4740
  489TMC3    O1 7280   4.375   0.972   0.034 -0.2911 -0.4443  0.1971
  489TMC3    O2 7281   4.660   1.288  17.191 -0.2677  0.0486  0.1889
  490MPD2     C 7282   0.483   0.466  17.357 -0.8139  0.4512  0.4089
  490MPD2    C1 7283   0.490   0.354  17.433  0.2859 -0.2174  0.2305
  490MPD2    C2 7284   0.548   0.369  17.559  0.1288 -0.4352 -0.4076
  490MPD2    C3 7285   0.606   0.490  17.599 -0.4902 -0.1649 -0.9027
  490MPD2    C4 7286   0.601   0.595  17.506  0.1573 -0.0895 -0.7732
  490MPD2    C5 7287   0.533   0.588  17.390  0.4142  0.6340 -0.1385
  490MPD2     H 7288   0.546   0.282  17.624  2.2567 -0.5211 -0.4702
  490MPD2    H1 7289   0.649   0.690  17.529 -1.1011  0.3974 -0.1490
  490MPD2    H2 7290   0.447   0.462  17.255  0.3135 -0.0924  0.0330
  490MPD2    H3 7291   0.527   0.669  17.319 -0.2257  0.6766 -0.0377
  490MPD2     N 7292   0.672   0.513   0.021 -0.0097 -0.2094 -0.1526
  490MPD2    H5 7293   0.714   0.604   0.036  0.2690 -0.3966  0.1934
  490MPD2    N1 7294   0.431   0.233  17.399  0.4128 -0.3003  0.1430
  490MPD2    H7 7295   0.424   0.165  17.473 -1.1568 -0.6048 -0.2914
  491TMC3    C1 7296   0.356   0.066  17.262  0.5717  0.3437 -0.9882
  491TMC3    C2 7297   0.425   4.685  17.325 -0.2605 -0.0081  0.5496
  491TMC3    C3 7298   0.405   4.555  17.289  0.0123 -0.8850  0.5139
  491TMC3    C4 7299   0.265   0.039  17.166 -0.0302  0.2309  0.6902
  491TMC3    C5 7300   0.244   4.632  17.140 -0.7182 -0.2967  0.0154
  491TMC3    C6 7301   0.302   4.528  17.208  0.1314  0.1599  0.4109
  491TMC3     C 7302   0.394   0.202  17.271 -0.4935 -0.4835 -0.0707
  491TMC3     O 7303   0.377   0.271  17.175  0.3109  0.8911  0.6885
  491TMC3     H 7304   0.505   4.711  17.394  0.9910 -0.3620 -0.7539
  491TMC3    H1 7305   0.217   0.119  17.112 -2.7076 -1.9162 -0.0794
  491TMC3    H2 7306   0.271   4.428  17.180 -1.5991  0.5242  1.0017
  491TMC3    C7 7307   0.154   4.590  17.028 -0.3930 -0.5243 -0.0222
  491TMC3    C8 7308   0.421   4.470  17.407 -0.0295  0.6193 -0.4068
  491TMC3    O1 7309   0.180   4.491  16.969  0.2299 -0.0957  0.5235
  491TMC3    O2 7310   0.432   4.528  17.514 -0.1943 -0.6656 -0.0726
  492MPD2     C 7311   0.265   3.939  11.306 -0.0767 -0.0027  0.2379
  492MPD2    C1 7312   0.347   4.039  11.356 -0.7936 -0.3612  0.4913
  492MPD2    C2 7313   0.305   4.094  11.477  0.2361 -0.1542 -0.0413
  492MPD2    C3 7314   0.190   4.063  11.542  0.3021 -0.1544  0.2923
  492MPD2    C4 7315   0.106   3.972  11.489  0.2652  0.1690  0.0951
  492MPD2    C5 7316   0.149   3.911  11.369 -0.6353 -0.6098  0.1406
  492MPD2     H 7317   0.379   4.153  11.529 -0.4414 -0.3206  1.1103
  492MPD2    H1 7318   0.020   3.940  11.546 -1.1244 -0.6699 -2.4855
  492MPD2    H2 7319   0.297   3.892  11.214  1.9633  0.7992  0.5537
  492MPD2    H3 7320   0.077   3.845  11.322 -2.1142  0.8432  0.3553
  492MPD2     N 7321   0.165   4.104  11.677 -0.1546 -0.0570 -0.3708
  492MPD2    H5 7322   0.081   4.069  11.722  0.8912 -0.3491  1.3426
  492MPD2    N1 7323   0.462   4.075  11.285  0.3951  0.1757 -0.2607
  492MPD2    H7 7324   0.491   4.018  11.206 -0.6344  0.6881 -1.0009
  493TMC3    C1 7325   0.624   4.237  11.207 -0.2397 -0.3516  0.2213
  493TMC3    C2 7326   0.725   4.316  11.240 -0.3432 -0.7028  0.4177
  493TMC3    C3 7327   0.822   4.349  11.153 -0.2807 -0.0755 -0.5013
  493TMC3    C4 7328   0.613   4.179  11.082 -0.0015 -0.4989  0.7932
  493TMC3    C5 7329   0.702   4.220  10.991 -1.1240 -0.1458 -0.0594
  493TMC3    C6 7330   0.810   4.305  11.022 -0.1314 -0.6155 -0.4605
  493TMC3     C 7331   0.536   4.196  11.315  0.0479 -0.0109  0.3208
  493TMC3     O 7332   0.516   4.275  11.407 -0.1005 -0.2494  0.3753
  493TMC3     H 7333   0.732   4.361  11.339  0.1410 -1.0797  0.5578
  493TMC3    H1 7334   0.524   4.130  11.043 -1.0046  0.0097  2.4235
  493TMC3    H2 7335   0.897   4.327  10.961  0.9427  0.9079  1.6139
  493TMC3    C7 7336   0.697   4.164  10.858  0.4639 -0.9075 -0.2319
  493TMC3    C8 7337   0.920   4.445  11.209 -0.3660  0.4566  0.6251
  493TMC3    O1 7338   0.609   4.078  10.843 -0.1422 -0.0834 -0.2035
  493TMC3    O2 7339   0.930   4.451  11.329 -0.5722 -0.0896  0.0333
  494TMC3    C1 7340   1.975   1.891   0.652 -0.0038 -0.3954  0.7758
  494TMC3    C2 7341   1.897   1.780   0.682 -0.1484  0.8354 -0.0751
  494TMC3    C3 7342   1.848   1.714   0.576  0.5559  1.1987  0.2179
  494TMC3    C4 7343   1.995   1.935   0.526 -0.5241 -0.0781  0.4140
  494TMC3    C5 7344   1.924   1.873   0.424  0.5554  0.4816 -0.4423
  494TMC3    C6 7345   1.855   1.760   0.446 -0.3023  0.4820 -0.2288
  494TMC3     C 7346   2.001   1.976   0.767 -0.2894  0.4403 -0.3743
  494TMC3     O 7347   1.935   1.953   0.866 -0.4010 -0.6543  0.6528
  494TMC3     H 7348   1.896   1.731   0.779 -0.3810  2.4783  0.7502
  494TMC3    H1 7349   2.049   2.028   0.512 -1.2176  0.4990  1.5441
  494TMC3    H2 7350   1.832   1.696   0.361 -1.8978  2.8684 -1.5756
  494TMC3    C7 7351   1.963   1.901   0.286 -0.0219  0.6808  0.0209
  494TMC3    C8 7352   1.804   1.577   0.599  0.3833 -0.2725 -0.4346
  494TMC3    O1 7353   1.951   1.807   0.208  0.1241  0.3491 -0.4501
  494TMC3    O2 7354   1.871   1.490   0.659 -0.5042  0.2205 -0.4568
  495TMC3    C1 7355   0.005   4.025  14.524 -0.2402  0.4945  0.4693
  495TMC3    C2 7356   4.636   4.026  14.424 -0.1240  0.3359 -0.2601
  495TMC3    C3 7357   4.506   4.015  14.455 -0.1558  1.0786  0.2322
  495TMC3    C4 7358   4.696   4.019  14.655  0.6563 -0.0253  0.1179
  495TMC3    C5 7359   4.561   4.018  14.682 -0.4549 -0.3887  0.1906
  495TMC3    C6 7360   4.463   4.019  14.580  0.6817  0.1287 -0.4761
  495TMC3     C 7361   0.125   3.949  14.489 -0.0280  0.1677 -0.3881
  495TMC3     O 7362   0.112   3.866  14.401 -0.4664  0.3555 -0.2007
  495TMC3     H 7363   4.674   4.013  14.323  0.7800 -1.9588  0.3827
  495TMC3    H1 7364   0.045   4.027  14.734  0.1152 -0.3648  0.6410
  495TMC3    H2 7365   4.358   4.002  14.602  0.6534  1.4554  0.4066
  495TMC3    C7 7366   4.519   3.983  14.815  0.1331  0.0793  0.5198
  495TMC3    C8 7367   4.435   3.930  14.362  0.0121 -0.9213  0.1931
  495TMC3    O1 7368   4.599   3.920  14.884  0.1107 -0.1627  0.0922
  495TMC3    O2 7369   4.316   3.937  14.361  0.2407 -0.1506 -0.1552
  496MPD2     C 7370   2.411   3.604  15.271  0.4783 -0.6196 -0.2209
  496MPD2    C1 7371   2.371   3.514  15.366  0.2909 -0.0734  0.1601
  496MPD2    C2 7372   2.296   3.556  15.472  0.4842 -0.5419 -0.6553
  496MPD2    C3 7373   2.271   3.695  15.485  0.3014 -0.1426 -0.3884
  496MPD2    C4 7374   2.323   3.786  15.398 -0.2962 -0.1699  0.0385
  496MPD2    C5 7375   2.389   3.740  15.291  0.6806  0.0022 -0.1851
  496MPD2     H 7376   2.268   3.486  15.550  1.5005  2.1027  2.0786
  496MPD2    H1 7377   2.307   3.891  15.420 -1.2675 -0.3108  0.0319
  496MPD2    H2 7378   2.463   3.576  15.180  0.5109  2.3764 -1.1360
  496MPD2    H3 7379   2.426   3.809  15.215  0.2024  2.1376  1.5265
  496MPD2     N 7380   2.191   3.734  15.603  0.3629 -0.4899 -0.7736
  496MPD2    H5 7381   2.152   3.657  15.656  0.9401  0.0228  0.3843
  496MPD2    N1 7382   2.397   3.377  15.332  0.7578 -0.8936  0.2587
  496MPD2    H7 7383   2.446   3.370  15.244 -0.2139 -1.0039 -0.2732
  497TMC3    C1 7384   2.038   3.868  15.726  0.4049  0.3552 -1.3141
  497TMC3    C2 7385   1.915   3.897  15.684 -0.4853 -0.2450 -0.2406
  497TMC3    C3 7386   1.804   3.839  15.738  0.3165  0.1765 -0.2309
  497TMC3    C4 7387   2.060   3.797  15.842  0.6890 -0.6905 -0.4071
  497TMC3    C5 7388   1.948   3.748  15.902 -0.1318 -0.0680  0.6092
  497TMC3    C6 7389   1.821   3.762  15.847 -0.7852  0.4257  0.1156
  497TMC3     C 7390   2.137   3.858  15.623  0.3067  0.1871 -0.1785
  497TMC3     O 7391   2.166   3.962  15.569 -0.2077  0.5225 -0.0818
  497TMC3     H 7392   1.899   3.955  15.593  1.2533 -0.1467 -0.4824
  497TMC3    H1 7393   2.159   3.760  15.863  1.5397  0.4785 -2.4165
  497TMC3    H2 7394   1.744   3.699  15.891 -0.5346  0.7303  0.9805
  497TMC3    C7 7395   1.963   3.666  16.026 -0.2839 -0.0619 -0.7113
  497TMC3    C8 7396   1.676   3.886  15.682  0.1070 -0.0405 -0.4904
  497TMC3    O1 7397   1.872   3.591  16.053 -0.0402 -0.1177  0.0590
  497TMC3    O2 7398   1.660   3.967  15.588  0.3718 -0.2461  0.1536
  498MPD2     C 7399   2.471   3.830  10.323  0.1637 -0.2158 -0.0525
  498MPD2    C1 7400   2.401   3.729  10.259 -0.7773  0.0886 -0.5124
  498MPD2    C2 7401   2.282   3.691  10.317  0.1692 -0.7291  0.0348
  498MPD2    C3 7402   2.241   3.744  10.436 -0.0082  0.0731 -0.6663
  498MPD2    C4 7403   2.313   3.843  10.497 -0.4526  0.0626  0.4054
  498MPD2    C5 7404   2.432   3.880  10.439 -0.8717 -0.2276 -0.1524
  498MPD2     H 7405   2.227   3.605  10.281 -0.9422 -0.1325  0.2903
  498MPD2    H1 7406   2.273   3.900  10.581 -1.3432  1.9011 -1.2755
  498MPD2    H2 7407   2.558   3.880  10.281  0.2177  0.6618  1.1138
  498MPD2    H3 7408   2.491   3.964  10.474  1.5555 -1.6732 -0.8035
  498MPD2     N 7409   2.132   3.679  10.501  0.1004 -0.2282 -0.4967
  498MPD2    H5 7410   2.102   3.591  10.461  0.6415 -0.2629 -0.8304
  498MPD2    N1 7411   2.437   3.673  10.137  0.4789  0.3035  0.0906
  498MPD2    H7 7412   2.369   3.611  10.094  2.4468 -1.2421 -0.8154
  499TMC3    C1 7413   2.535   3.645   9.927  0.7217 -0.3132  0.3302
  499TMC3    C2 7414   2.429   3.558   9.902 -0.2244  0.6793 -0.0341
  499TMC3    C3 7415   2.429   3.496   9.776  0.1783  0.4445 -0.2348
  499TMC3    C4 7416   2.630   3.675   9.827  0.1070 -0.1943  0.1315
  499TMC3    C5 7417   2.617   3.621   9.705 -0.9517  0.1312  0.1979
  499TMC3    C6 7418   2.518   3.531   9.679 -0.0229 -0.0933 -0.4019
  499TMC3     C 7419   2.544   3.708  10.055  0.6682  0.9192 -0.0322
  499TMC3     O 7420   2.625   3.798  10.072 -0.1509 -0.6133  1.1190
  499TMC3     H 7421   2.350   3.526   9.969  1.3481  0.1409  1.5894
  499TMC3    H1 7422   2.705   3.748   9.854 -0.1520  0.1686 -0.1264
  499TMC3    H2 7423   2.510   3.485   9.581  0.7589  2.5681 -1.7030
  499TMC3    C7 7424   2.731   3.618   9.617 -0.3663  1.0507  0.3466
  499TMC3    C8 7425   2.346   3.380   9.747  0.0395  0.5037  0.1509
  499TMC3    O1 7426   2.739   3.521   9.540 -0.4176 -1.1107  0.4565
  499TMC3    O2 7427   2.383   3.303   9.660  0.3036 -0.2589 -0.0537
  500MPD2     C 7428   4.608   0.828   9.657  0.1261  0.1160 -0.1371
  500MPD2    C1 7429   4.605   0.771   9.786 -0.1963  0.4114 -0.0505
  500MPD2    C2 7430   4.514   0.662   9.798  0.1780 -0.5563 -0.2047
  500MPD2    C3 7431   4.438   0.612   9.692 -0.2129 -0.3177  0.3244
  500MPD2    C4 7432   4.451   0.673   9.573 -0.1754  0.5531 -0.2075
  500MPD2    C5 7433   4.535   0.776   9.558  0.0584 -0.8401  0.3573
  500MPD2     H 7434   4.503   0.613   9.895 -1.9842 -1.1846 -0.7562
  500MPD2    H1 7435   4.388   0.644   9.490  0.8473  2.1757 -1.5533
  500MPD2    H2 7436   4.663   0.918   9.630  2.7713 -1.4804 -0.0143
  500MPD2    H3 7437   4.541   0.822   9.460  0.2435 -1.7070 -0.0309
  500MPD2     N 7438   4.358   0.498   9.695 -0.3984  0.1770 -0.0987
  500MPD2    H5 7439   4.300   0.476   9.615 -1.1278  2.6927 -0.2564
  500MPD2    N1 7440   4.674   0.820   9.897 -0.4662  0.3397 -0.5398
  500MPD2    H7 7441   4.663   0.767   9.982 -0.2839  0.6332 -0.3335
  501TMC3    C1 7442   0.094   0.950  10.025 -0.5582  1.0031  0.7437
  501TMC3    C2 7443   0.142   1.074  10.036 -0.5641  0.5939  0.0756
  501TMC3    C3 7444   0.263   1.080  10.096  0.4023  0.1017 -0.2785
  501TMC3    C4 7445   0.142   0.838  10.080 -0.6764 -0.6647 -0.0275
  501TMC3    C5 7446   0.256   0.847  10.151  0.1015 -0.5308 -0.7110
  501TMC3    C6 7447   0.316   0.973  10.160  0.7234  0.0792  0.3481
  501TMC3     C 7448   0.013   0.940   9.904  0.2184  1.1286  0.1984
  501TMC3     O 7449   0.015   1.033   9.824  0.4609 -0.6640 -0.2609
  501TMC3     H 7450   0.100   1.166   9.998  0.4166 -0.1011 -2.7193
  501TMC3    H1 7451   0.099   0.740  10.059 -1.1717 -0.6480  0.9144
  501TMC3    H2 7452   0.405   0.989  10.220 -0.3045  0.8184  1.6850
  501TMC3    C7 7453   0.292   0.763  10.262 -0.1712 -0.3626  0.0059
  501TMC3    C8 7454   0.290   1.205  10.160  0.1783 -0.5131 -0.2688
  501TMC3    O1 7455   0.409   0.760  10.278  0.3676 -0.1675  0.3985
  501TMC3    O2 7456   0.348   1.214  10.270  0.1476  0.2577 -0.2096
  502TMC3    C1 7457   3.957   3.887  14.832  0.3516  0.3873 -0.3524
  502TMC3    C2 7458   3.986   4.016  14.854 -0.3453 -0.3128  0.0147
  502TMC3    C3 7459   3.881   4.094  14.883  0.0274 -0.5176  0.8833
  502TMC3    C4 7460   3.828   3.847  14.829  0.1486  0.6070 -0.5383
  502TMC3    C5 7461   3.719   3.929  14.858 -0.3572 -0.2095  0.2444
  502TMC3    C6 7462   3.751   4.059  14.890  0.1099 -0.2918 -0.1538
  502TMC3     C 7463   4.028   3.798  14.919  0.2377 -0.7146 -0.3298
  502TMC3     O 7464   4.067   3.691  14.872  0.1380 -0.4521  0.8018
  502TMC3     H 7465   4.081   4.063  14.879 -1.4720  2.2012 -0.3650
  502TMC3    H1 7466   3.802   3.742  14.824 -0.7722  0.7219  2.0320
  502TMC3    H2 7467   3.674   4.124  14.932 -0.6710 -2.2233  1.3898
  502TMC3    C7 7468   3.613   3.861  14.945  0.8510 -0.6488  0.1668
  502TMC3    C8 7469   3.912   4.231  14.912  0.2074  0.1738  0.5990
  502TMC3    O1 7470   3.652   3.770  15.019  0.2961  0.0239  0.3632
  502TMC3    O2 7471   4.008   4.278  14.856  0.0269  0.4193  0.0312
  503MPD2     C 7472   1.671   0.756  16.952 -0.4033  0.9908  0.1411
  503MPD2    C1 7473   1.700   0.781  17.088  0.0194  0.0456 -0.4159
  503MPD2    C2 7474   1.791   0.697  17.156 -0.9355  0.5138 -0.3954
  503MPD2    C3 7475   1.855   0.603  17.082 -0.3494  0.0751  0.5976
  503MPD2    C4 7476   1.841   0.593  16.941  0.2906  0.1328  0.5146
  503MPD2    C5 7477   1.752   0.668  16.881 -1.0913  0.1864 -0.0088
  503MPD2     H 7478   1.815   0.711  17.260 -1.0817  1.3477 -0.4780
  503MPD2    H1 7479   1.908   0.530  16.883 -1.5441  1.1858 -2.7985
  503MPD2    H2 7480   1.588   0.799  16.898 -0.2430 -1.4443 -2.0147
  503MPD2    H3 7481   1.739   0.666  16.773 -0.7260 -0.0361 -0.0515
  503MPD2     N 7482   1.923   0.504  17.158 -0.0600  0.0280  0.2647
  503MPD2    H5 7483   1.906   0.515  17.258  2.4591 -0.4430  0.7363
  503MPD2    N1 7484   1.639   0.886  17.168  0.2635  0.5805 -0.4485
  503MPD2    H7 7485   1.679   0.912  17.257 -1.3314  1.3897  0.0310
  504TMC3    C1 7486   2.010   0.276  17.201  0.0995 -0.2214 -0.9368
  504TMC3    C2 7487   2.063   0.301  17.324  0.8757  0.5722  0.4258
  504TMC3    C3 7488   2.130   0.201  17.390 -0.0465  0.0909 -0.4981
  504TMC3    C4 7489   2.013   0.152  17.149  0.2776  0.2036  0.3990
  504TMC3    C5 7490   2.086   0.060  17.217 -0.3669 -0.0263  0.3906
  504TMC3    C6 7491   2.137   0.073  17.346 -0.0726 -0.1646 -0.3834
  504TMC3     C 7492   1.962   0.383  17.105 -0.9983  0.4188  0.2161
  504TMC3     O 7493   1.964   0.348  16.986 -0.1657  0.5526  0.1014
  504TMC3     H 7494   2.066   0.404  17.359  1.6257  0.8248 -0.4073
  504TMC3    H1 7495   1.976   0.130  17.050  0.9572 -0.9349  0.4068
  504TMC3    H2 7496   2.197   4.718  17.388 -0.7581 -0.1244  0.6859
  504TMC3    C7 7497   2.166   4.704  17.127  0.2974  0.0393  0.0012
  504TMC3    C8 7498   2.212   0.238  17.503 -0.2224  0.3189 -0.1179
  504TMC3    O1 7499   2.221   0.044  17.038 -0.1913 -0.4520  0.3668
  504TMC3    O2 7500   2.276   0.337  17.486 -0.6298  0.5440 -0.2459
  505MPD2     C 7501   1.668   2.491  11.007  0.1396  0.5633 -0.2403
  505MPD2    C1 7502   1.803   2.462  10.983 -0.0712 -0.3108 -0.0015
  505MPD2    C2 7503   1.897   2.496  11.079 -0.7256  0.2002 -0.2218
  505MPD2    C3 7504   1.862   2.557  11.196  0.3476  0.0537 -0.6328
  505MPD2    C4 7505   1.724   2.568  11.230 -0.0097  0.1189 -0.3065
  505MPD2    C5 7506   1.634   2.540  11.135 -0.7257  0.5472  0.2528
  505MPD2     H 7507   2.003   2.475  11.068 -0.3664  1.4575  0.7671
  505MPD2    H1 7508   1.692   2.586  11.332 -2.8456 -1.7331 -0.8775
  505MPD2    H2 7509   1.590   2.473  10.934 -0.4178  0.6748  0.3314
  505MPD2    H3 7510   1.528   2.554  11.153 -0.2777  4.3714 -0.0656
  505MPD2     N 7511   1.969   2.604  11.268  0.6168  0.0088  0.5021
  505MPD2    H5 7512   2.060   2.589  11.225  1.4296  1.4807  1.6915
  505MPD2    N1 7513   1.843   2.403  10.857  0.0607 -0.4858 -0.3078
  505MPD2    H7 7514   1.762   2.384  10.798  1.6631 -0.0463 -2.6368
  506TMC3    C1 7515   1.985   2.347  10.682 -0.0142 -0.3050 -0.0190
  506TMC3    C2 7516   1.943   2.447  10.601 -0.2042 -0.4756 -0.3087
  506TMC3    C3 7517   2.028   2.478  10.501 -0.3170 -0.1988 -1.2770
  506TMC3    C4 7518   2.118   2.294  10.669 -0.6592 -0.1367  0.4904
  506TMC3    C5 7519   2.202   2.329  10.569 -0.4135 -0.7343 -0.2843
  506TMC3    C6 7520   2.156   2.421  10.483 -0.2207  0.0360 -0.2118
  506TMC3     C 7521   1.974   2.386  10.821  0.1911  0.0710  0.8913
  506TMC3     O 7522   2.081   2.396  10.877 -0.5105 -0.2863 -0.2220
  506TMC3     H 7523   1.844   2.486  10.620 -0.2594 -0.7053 -0.1237
  506TMC3    H1 7524   2.144   2.217  10.741  2.7439  1.1545  0.6126
  506TMC3    H2 7525   2.219   2.473  10.412  0.7862 -1.9719 -0.7804
  506TMC3    C7 7526   2.338   2.365  10.611  0.4727  0.6213  0.1897
  506TMC3    C8 7527   1.984   2.576  10.405 -0.2869 -0.6326  0.0156
  506TMC3    O1 7528   2.425   2.397  10.528 -0.1769 -0.3335 -0.2738
  506TMC3    O2 7529   2.050   2.579  10.303  0.0921 -0.0133 -0.0091
  507TMC3    C1 7530   2.562   4.683  14.558  0.5608 -0.1268  0.3532
  507TMC3    C2 7531   2.545   4.624  14.437  0.0086  0.4604  0.0159
  507TMC3    C3 7532   2.649   4.635  14.343  0.3697  0.2193 -0.1119
  507TMC3    C4 7533   2.678   0.020  14.595 -0.5524 -0.3032  0.4273
  507TMC3    C5 7534   2.778   0.023  14.497  0.4791  0.3434  0.1641
  507TMC3    C6 7535   2.773   4.684  14.376  0.2549 -0.5414 -0.4050
  507TMC3     C 7536   2.451   4.708  14.659  0.6389 -0.0413 -0.0542
  507TMC3     O 7537   2.485   0.056  14.753 -0.0423  0.8774 -0.1728
  507TMC3     H 7538   2.450   4.580  14.405 -1.1356  1.2323  2.3327
  507TMC3    H1 7539   2.699   0.061  14.692 -1.8559 -1.7364  1.3205
  507TMC3    H2 7540   2.857   4.691  14.308  0.6236  1.1545  0.2099
  507TMC3    C7 7541   2.842   0.148  14.488  0.1111  0.2580  0.1328
  507TMC3    C8 7542   2.605   4.672  14.206  0.0173 -0.3080 -0.3073
  507TMC3    O1 7543   2.839   0.194  14.372  0.6298 -0.1156  0.3328
  507TMC3    O2 7544   2.504   4.621  14.158  0.5870 -0.3033 -0.4906
  508MPD2     C 7545   3.469   2.358  16.156  0.4088 -0.1732  0.2522
  508MPD2    C1 7546   3.571   2.449  16.137 -0.7407  0.5760 -0.0579
  508MPD2    C2 7547   3.595   2.501  16.008 -0.4004 -0.4448 -0.1032
  508MPD2    C3 7548   3.497   2.473  15.908 -0.3308  0.1824  0.2798
  508MPD2    C4 7549   3.391   2.389  15.930 -0.0391 -0.2915  0.4050
  508MPD2    C5 7550   3.379   2.333  16.053  0.5531  0.8001 -0.3700
  508MPD2     H 7551   3.667   2.579  15.989  2.0347 -2.4819  0.7249
  508MPD2    H1 7552   3.309   2.366  15.863  0.4738  0.6758 -0.5513
  508MPD2    H2 7553   3.466   2.305  16.250 -0.0383  0.6267  0.6877
  508MPD2    H3 7554   3.301   2.259  16.070  0.7120 -0.3060 -4.4658
  508MPD2     N 7555   3.519   2.542  15.778  0.2416  0.4439  0.2099
  508MPD2    H5 7556   3.592   2.612  15.775  0.0495  0.5334 -2.0319
  508MPD2    N1 7557   3.645   2.494  16.250 -0.7825 -0.0906 -0.4657
  508MPD2    H7 7558   3.602   2.469  16.339 -1.1347 -1.0952 -0.9077
  509TMC3    C1 7559   3.360   2.763  15.436  0.1891  0.1961 -0.2504
  509TMC3    C2 7560   3.477   2.839  15.437  0.8536  0.0691 -0.2907
  509TMC3    C3 7561   3.586   2.783  15.488  0.0576 -0.9097 -0.3134
  509TMC3    C4 7562   3.350   2.646  15.501  0.0407 -0.1589  1.3512
  509TMC3    C5 7563   3.461   2.601  15.563 -0.3564  0.0226 -0.0395
  509TMC3    C6 7564   3.584   2.658  15.546  0.3519 -0.1156  0.1678
  509TMC3     C 7565   3.236   2.836  15.424 -0.1701  0.4618  0.5587
  509TMC3     O 7566   3.141   2.778  15.467  0.2396  0.2907  0.0196
  509TMC3     H 7567   3.484   2.939  15.395 -1.4376 -0.6854 -2.5234
  509TMC3    H1 7568   3.258   2.590  15.514 -1.6382  2.3593  0.1989
  509TMC3    H2 7569   3.675   2.606  15.573  0.4100  0.0416  0.2731
  509TMC3    C7 7570   3.449   2.504  15.661 -0.2471 -1.0953  0.1105
  509TMC3    C8 7571   3.714   2.849  15.469  0.2368  0.6429  0.1520
  509TMC3    O1 7572   3.361   2.422  15.644  0.5167 -0.8109  0.4444
  509TMC3    O2 7573   3.808   2.773  15.448 -0.4939  0.2382  0.3524
  510MPD2     C 7574   1.493   4.098  14.507  0.0478 -0.0908 -0.1439
  510MPD2    C1 7575   1.555   3.976  14.540  0.2195  0.3343 -0.1049
  510MPD2    C2 7576   1.674   3.938  14.477 -0.0291 -0.0291  0.2050
  510MPD2    C3 7577   1.738   4.018  14.391  0.2101 -0.1009  0.6868
  510MPD2    C4 7578   1.680   4.141  14.362  0.1564  0.2762  0.1734
  510MPD2    C5 7579   1.558   4.180  14.420  0.5464  0.7976  0.4052
  510MPD2     H 7580   1.730   3.853  14.515 -0.9695 -0.1756  1.2852
  510MPD2    H1 7581   1.726   4.212  14.293  0.4455 -1.9694 -1.9229
  510MPD2    H2 7582   1.404   4.135  14.555  0.6867  1.0241  0.1858
  510MPD2    H3 7583   1.520   4.280  14.406 -1.9061 -0.3022 -0.8699
  510MPD2     N 7584   1.843   3.962  14.319  0.1508 -0.3845 -0.5649
  510MPD2    H5 7585   1.871   3.868  14.342 -0.6819 -0.4174  0.2876
  510MPD2    N1 7586   1.503   3.891  14.644 -0.1772 -0.4937 -0.0592
  510MPD2    H7 7587   1.411   3.914  14.680 -0.4519  0.6814 -1.5204
  511TMC3    C1 7588   1.474   3.724  14.809 -0.2847 -0.5637 -0.3209
  511TMC3    C2 7589   1.368   3.796  14.863 -0.0218 -0.5035  0.0339
  511TMC3    C3 7590   1.314   3.748  14.979  0.5349  0.5771 -0.4521
  511TMC3    C4 7591   1.536   3.625  14.878 -0.0518  0.4079  0.6918
  511TMC3    C5 7592   1.476   3.586  14.990  0.1700 -0.4455 -0.4063
  511TMC3    C6 7593   1.362   3.639  15.046 -0.0307  1.2916 -0.6713
  511TMC3     C 7594   1.554   3.781  14.705 -0.0951 -0.1837  0.2431
  511TMC3     O 7595   1.664   3.738  14.683  0.2011 -0.4894 -0.1108
  511TMC3     H 7596   1.326   3.886  14.821  0.0191  0.5776  2.2945
  511TMC3    H1 7597   1.630   3.586  14.841  0.2606  1.9331 -0.1523
  511TMC3    H2 7598   1.328   3.601  15.142  1.5566 -2.7723 -1.6929
  511TMC3    C7 7599   1.531   3.474  15.061  0.2332  0.0998  0.2590
  511TMC3    C8 7600   1.212   3.823  15.053  1.0348 -0.3226 -0.2771
  511TMC3    O1 7601   1.652   3.461  15.063  0.2863 -0.0229  0.2504
  511TMC3    O2 7602   1.187   3.941  15.021  0.2528  0.0685  0.3445
  512TMC3    C1 7603   0.062   3.371  13.457 -0.0926 -0.0624  0.5593
  512TMC3    C2 7604   0.184   3.353  13.515 -0.1520  0.4179 -0.0640
  512TMC3    C3 7605   0.251   3.234  13.501  0.1936 -0.3659  0.3984
  512TMC3    C4 7606   0.005   3.273  13.388 -0.1467 -0.0820 -0.3777
  512TMC3    C5 7607   0.075   3.153  13.369  0.1582  0.1684  0.2866
  512TMC3    C6 7608   0.200   3.133  13.424  0.7161 -0.1755  0.3436
  512TMC3     C 7609   4.692   3.478  13.499  0.2718  0.8281 -0.3029
  512TMC3     O 7610   4.577   3.439  13.511 -0.6121  0.3215  1.0407
  512TMC3     H 7611   0.205   3.419  13.599 -0.2729 -0.5267  0.7117
  512TMC3    H1 7612   4.628   3.293  13.353 -0.3963 -1.0636 -0.2070
  512TMC3    H2 7613   0.264   3.048  13.405  1.5223  0.4106  0.3962
  512TMC3    C7 7614   0.027   3.080  13.257  0.1201  1.0794 -0.1082
  512TMC3    C8 7615   0.376   3.218  13.564  0.1051 -0.3119 -0.3122
  512TMC3    O1 7616   4.693   3.148  13.174  0.0539  0.6231  0.3833
  512TMC3    O2 7617   0.414   3.105  13.578  0.2584  0.8550 -1.0550
  513MPD2     C 7618   1.845   3.196  13.362 -0.9364 -0.1380 -0.3959
  513MPD2    C1 7619   1.929   3.142  13.270 -0.2083 -0.7175 -0.3580
  513MPD2    C2 7620   2.062   3.181  13.273 -0.5868 -0.1394  0.3646
  513MPD2    C3 7621   2.108   3.273  13.364  0.2148 -0.5634  0.0011
  513MPD2    C4 7622   2.025   3.322  13.456 -0.3665 -0.1019  0.6025
  513MPD2    C5 7623   1.893   3.282  13.457  0.1521 -0.9062  0.0124
  513MPD2     H 7624   2.123   3.138  13.195 -0.0263 -0.1377  0.8050
  513MPD2    H1 7625   2.063   3.385  13.535  0.1977  1.2421 -0.7461
  513MPD2    H2 7626   1.738   3.180  13.358 -0.6197 -2.1492 -0.7359
  513MPD2    H3 7627   1.836   3.320  13.541 -0.1153 -0.3689 -0.4127
  513MPD2     N 7628   2.248   3.281  13.365  0.0378  0.2804 -0.2524
  513MPD2    H5 7629   2.288   3.223  13.292  0.8500 -0.9105  1.1371
  513MPD2    N1 7630   1.886   3.040  13.172  0.1420 -0.2424 -0.5217
  513MPD2    H7 7631   1.952   3.019  13.097 -0.9250  0.2080 -1.5982
  514TMC3    C1 7632   1.774   2.908  13.035  1.1788  0.5062  0.3146
  514TMC3    C2 7633   1.719   2.781  13.039 -0.4643  0.3064  0.2548
  514TMC3    C3 7634   1.785   2.690  12.959  0.3597 -0.3549 -0.3201
  514TMC3    C4 7635   1.882   2.940  12.947  0.2478  0.0669 -0.8947
  514TMC3    C5 7636   1.959   2.837  12.890  0.3963  0.1878 -0.1122
  514TMC3    C6 7637   1.903   2.710  12.889 -0.0748  0.0091 -0.0958
  514TMC3     C 7638   1.760   2.992  13.155 -0.2481 -0.2023 -0.7253
  514TMC3     O 7639   1.661   3.008  13.221  0.6828  0.4056 -0.0948
  514TMC3     H 7640   1.637   2.759  13.106 -0.7516  0.8797  0.0942
  514TMC3    H1 7641   1.917   3.042  12.940  2.4901 -0.6002  0.5064
  514TMC3    H2 7642   1.956   2.633  12.836  1.8283 -1.1916  3.5325
  514TMC3    C7 7643   2.098   2.844  12.935  0.2570  0.2804  0.6923
  514TMC3    C8 7644   1.696   2.596  12.899  0.4740 -0.5994  0.1345
  514TMC3    O1 7645   2.126   2.959  12.970  0.9995 -0.4359  0.2876
  514TMC3    O2 7646   1.585   2.607  12.946  0.3952  0.1981 -0.1884
  515MPD2     C 7647   0.186   0.538  14.652 -0.4082 -0.2137 -0.1346
  515MPD2    C1 7648   0.236   0.413  14.627  0.2171  0.0354 -0.3209
  515MPD2    C2 7649   0.334   0.350  14.703  0.1466 -0.5838  0.5575
  515MPD2    C3 7650   0.397   0.421  14.801  0.6286 -0.1436  0.0093
  515MPD2    C4 7651   0.352   0.550  14.825  0.3890 -0.2866 -0.0438
  515MPD2    C5 7652   0.245   0.603  14.760  0.1845  0.0020  0.3833
  515MPD2     H 7653   0.366   0.249  14.679 -2.2746 -1.0212 -0.8567
  515MPD2    H1 7654   0.416   0.600  14.898 -0.1253 -0.9209  0.8373
  515MPD2    H2 7655   0.116   0.587  14.586 -1.3193 -0.6549  0.4958
  515MPD2    H3 7656   0.228   0.710  14.772 -1.7703 -0.2444 -0.2442
  515MPD2     N 7657   0.494   0.366  14.885  0.2463  0.3476 -0.0324
  515MPD2    H5 7658   0.534   0.432  14.951 -3.0168 -0.2221  2.4850
  515MPD2    N1 7659   0.184   0.344  14.516  0.3858  0.3834  0.9790
  515MPD2    H7 7660   0.212   0.247  14.502  0.5410  0.2117  2.4797
  516TMC3    C1 7661   0.074   0.278  14.316 -0.0345  0.2253  0.2841
  516TMC3    C2 7662   0.025   0.314  14.191  0.1920  0.4100 -0.0048
  516TMC3    C3 7663   4.674   0.215  14.121 -0.1358  0.4520 -0.5565
  516TMC3    C4 7664   0.061   0.149  14.362  0.7040 -0.5118  0.3499
  516TMC3    C5 7665   4.716   0.054  14.292 -0.1520  0.0273  0.0581
  516TMC3    C6 7666   4.659   0.090  14.170 -0.3939 -0.3858 -0.0469
  516TMC3     C 7667   0.101   0.383  14.415  0.1872  0.3173  0.2005
  516TMC3     O 7668   0.053   0.491  14.388 -0.2124 -0.5762  0.4836
  516TMC3     H 7669   0.041   0.416  14.159  0.5243  0.4553  0.3021
  516TMC3    H1 7670   0.101   0.127  14.460 -1.6881  1.7773  1.8565
  516TMC3    H2 7671   4.606   0.014  14.113 -0.0252  0.2661 -1.2649
  516TMC3    C7 7672   4.658   4.685  14.370 -0.2848  0.4602  0.2080
  516TMC3    C8 7673   4.608   0.252  14.002  0.0324 -0.1557  0.2598
  516TMC3    O1 7674   4.718   4.644  14.465 -0.3240 -0.3885  0.0897
  516TMC3    O2 7675   4.530   0.177  13.948  0.1659  0.5773 -0.2092
  517MPD2     C 7676   0.173   1.935   0.338 -0.5774  0.0159 -0.4712
  517MPD2    C1 7677   0.113   1.953   0.215  0.2688  0.0324 -0.6631
  517MPD2    C2 7678   0.045   2.077   0.201 -0.1735  0.2513  0.6599
  517MPD2    C3 7679   0.034   2.170   0.309 -0.5047  0.4695 -0.1947
  517MPD2    C4 7680   0.076   2.129   0.430 -0.0531  0.6812 -0.0479
  517MPD2    C5 7681   0.143   2.016   0.448  0.4567  0.0240 -0.2421
  517MPD2     H 7682   4.705   2.083   0.114 -1.4562 -2.0452  1.4380
  517MPD2    H1 7683   0.056   2.185   0.520  1.8644 -0.2712  0.9746
  517MPD2    H2 7684   0.235   1.852   0.368  2.6456  2.1898 -1.0949
  517MPD2    H3 7685   0.174   1.995   0.550 -0.3775 -2.4726 -0.5047
  517MPD2     N 7686   4.695   2.294   0.284 -0.0231  0.0194 -0.7032
  517MPD2    H5 7687   4.671   2.296   0.185 -1.5136 -0.0609 -0.3387
  517MPD2    N1 7688   0.106   1.855   0.113 -0.2629  0.8114 -0.0756
  517MPD2    H7 7689   0.068   1.880   0.022  0.2513  1.3083 -0.1547
  518TMC3    C1 7690   0.153   1.684  17.674 -0.2757 -0.3527  0.1420
  518TMC3    C2 7691   0.179   1.548  17.671 -0.0443  0.6545  0.1267
  518TMC3    C3 7692   0.169   1.489  17.545  0.2762  0.0918  0.1683
  518TMC3    C4 7693   0.128   1.757  17.557 -0.0970  0.1902  0.6541
  518TMC3    C5 7694   0.137   1.690  17.439 -1.0058 -0.3596  0.1491
  518TMC3    C6 7695   0.149   1.556  17.428  0.1746  0.3605  0.4939
  518TMC3     C 7696   0.181   1.743   0.102 -0.6261  0.2580  0.1766
  518TMC3     O 7697   0.242   1.673   0.182  0.2280 -0.7162  0.5232
  518TMC3     H 7698   0.204   1.488   0.058  0.7535  1.1438  0.2353
  518TMC3    H1 7699   0.100   1.861  17.557  0.8515  0.4400 -1.1195
  518TMC3    H2 7700   0.143   1.500  17.335  1.2030 -1.0562  1.2915
  518TMC3    C7 7701   0.122   1.772  17.320 -0.6057 -0.1250 -0.1500
  518TMC3    C8 7702   0.150   1.346  17.532 -0.2998 -0.2523 -0.3265
  518TMC3    O1 7703   0.103   1.891  17.336 -0.0521 -0.7629  0.0667
  518TMC3    O2 7704   0.182   1.290  17.424 -0.1781  0.1429 -0.0526
  519MPD2     C 7705   1.374   0.345  14.179 -0.8620 -0.2791 -0.0613
  519MPD2    C1 7706   1.398   0.322  14.050  0.2765  0.2617 -0.8314
  519MPD2    C2 7707   1.457   0.204  14.009  0.0087 -0.2769 -0.5934
  519MPD2    C3 7708   1.495   0.113  14.108  0.0035  1.4237 -0.0830
  519MPD2    C4 7709   1.485   0.147  14.239  0.3251 -0.0190  0.6256
  519MPD2    C5 7710   1.413   0.253  14.276  0.2012 -0.1831  0.0477
  519MPD2     H 7711   1.490   0.181  13.908 -1.5850  0.4411 -1.2793
  519MPD2    H1 7712   1.521   0.086  14.321 -1.1234 -0.0684  1.2211
  519MPD2    H2 7713   1.336   0.444  14.200  0.2122 -0.0976  1.0914
  519MPD2    H3 7714   1.403   0.284  14.379  1.0688  0.2349  0.0109
  519MPD2     N 7715   1.563   4.722  14.070 -0.3230  0.2928  0.1397
  519MPD2    H5 7716   1.631   4.679  14.133  1.6670  0.1754 -2.0825
  519MPD2    N1 7717   1.334   0.409  13.958 -0.7309  0.2136 -0.0836
  519MPD2    H7 7718   1.287   0.492  13.992 -1.8888 -0.8669  0.9728
  520TMC3    C1 7719   1.626   4.554  13.905  0.0197 -0.4742 -0.6123
  520TMC3    C2 7720   1.582   4.512  13.781  0.1882 -0.2177 -0.4895
  520TMC3    C3 7721   1.663   4.544  13.675  0.0053 -0.3413  0.0315
  520TMC3    C4 7722   1.755   4.600  13.925 -0.0993  0.5243 -0.7153
  520TMC3    C5 7723   1.837   4.628  13.814  1.1852  0.7214 -0.3235
  520TMC3    C6 7724   1.793   4.600  13.690  0.4277  0.5859 -0.3224
  520TMC3     C 7725   1.536   4.652  13.949 -0.8563 -0.2839  0.3266
  520TMC3     O 7726   1.442   4.667  13.872 -0.5980  0.2153  0.1478
  520TMC3     H 7727   1.488   4.460  13.770 -0.6387  0.9694  0.9559
  520TMC3    H1 7728   1.791   4.617  14.026  0.1342 -0.1307 -0.6854
  520TMC3    H2 7729   1.853   4.629  13.604 -0.3650  0.4225 -0.9311
  520TMC3    C7 7730   1.978   4.593  13.844 -0.1771  0.2286 -0.0649
  520TMC3    C8 7731   1.593   4.578  13.554  0.2460 -0.0054 -0.0203
  520TMC3    O1 7732   2.008   4.590  13.961  0.8031 -0.3716 -0.1504
  520TMC3    O2 7733   1.672   4.607  13.463 -0.2251  0.6963  0.0630
  521MPD2     C 7734   2.483   2.808  16.555 -0.5210 -0.2715  0.3441
  521MPD2    C1 7735   2.439   2.902  16.639 -0.0040  0.4263 -0.1371
  521MPD2    C2 7736   2.526   2.998  16.694  0.1112 -0.1486  0.1871
  521MPD2    C3 7737   2.659   2.994  16.652 -0.7436 -0.0596 -0.7806
  521MPD2    C4 7738   2.704   2.898  16.561  0.3478  0.2533  0.2649
  521MPD2    C5 7739   2.618   2.798  16.522 -0.2046 -0.3236 -0.4593
  521MPD2     H 7740   2.497   3.075  16.765 -1.0457 -2.1594  1.8629
  521MPD2    H1 7741   2.806   2.885  16.529  0.1326 -1.7990  0.4133
  521MPD2    H2 7742   2.422   2.724  16.525  1.2316 -1.2415 -0.5520
  521MPD2    H3 7743   2.652   2.714  16.463 -2.0915  0.0625 -2.1164
  521MPD2     N 7744   2.735   3.105  16.688  0.0655  0.8492  0.0988
  521MPD2    H5 7745   2.682   3.181  16.730 -1.5701  0.0281 -0.4775
  521MPD2    N1 7746   2.307   2.891  16.686  0.3174  0.2047 -0.4304
  521MPD2    H7 7747   2.257   2.824  16.628  0.0895 -0.3810  0.4328
  522TMC3    C1 7748   2.943   3.248  16.699 -0.1310  0.1919 -0.1058
  522TMC3    C2 7749   3.082   3.258  16.706  0.0219  0.7091  0.0181
  522TMC3    C3 7750   3.132   3.389  16.703 -0.0956 -0.1206  0.5481
  522TMC3    C4 7751   2.866   3.358  16.664 -0.5500  0.3210  0.7607
  522TMC3    C5 7752   2.922   3.479  16.651  0.8613 -0.1807 -0.4726
  522TMC3    C6 7753   3.052   3.500  16.678 -0.1546  0.3685 -0.8417
  522TMC3     C 7754   2.876   3.114  16.670 -0.1737 -0.6020 -1.5025
  522TMC3     O 7755   2.958   3.028  16.651 -0.4161  0.0418 -0.0457
  522TMC3     H 7756   3.143   3.168  16.705 -0.5427  0.3341 -0.8006
  522TMC3    H1 7757   2.758   3.354  16.671 -0.4550  0.5920  2.5670
  522TMC3    H2 7758   3.089   3.600  16.696  0.1558  0.3066 -1.1296
  522TMC3    C7 7759   2.868   3.570  16.553 -0.0773  0.2484 -0.4326
  522TMC3    C8 7760   3.276   3.407  16.678 -0.4597  0.6820  0.4882
  522TMC3    O1 7761   2.934   3.670  16.529  0.2960  0.1401 -0.2295
  522TMC3    O2 7762   3.304   3.525  16.662  0.3533  0.0987 -0.2092
  523MPD2     C 7763   0.419   2.078  10.147  0.6311 -0.3230  0.2650
  523MPD2    C1 7764   0.474   2.026  10.034 -0.1136  0.8652 -0.3148
  523MPD2    C2 7765   0.467   2.086   9.909  0.4969  0.1788  0.6843
  523MPD2    C3 7766   0.393   2.198   9.896  0.5304 -0.6909 -0.3511
  523MPD2    C4 7767   0.325   2.246  10.004  0.1888  0.3604  0.4457
  523MPD2    C5 7768   0.346   2.190  10.129  0.8372  0.3357 -0.0432
  523MPD2     H 7769   0.530   2.061   9.824  0.2003  1.3408  0.1215
  523MPD2    H1 7770   0.253   2.327   9.995 -0.5233 -0.2814  0.3680
  523MPD2    H2 7771   0.437   2.034  10.245 -0.0316  2.0755  1.4506
  523MPD2    H3 7772   0.313   2.237  10.220 -0.1348 -1.1512  0.3655
  523MPD2     N 7773   0.375   2.272   9.780 -0.1734  0.0283  0.2998
  523MPD2    H5 7774   0.304   2.345   9.779 -1.2782 -1.0495  0.5050
  523MPD2    N1 7775   0.552   1.912  10.065 -0.2700  0.1772  0.0758
  523MPD2    H7 7776   0.560   1.883  10.162  1.2840 -1.4257 -0.5245
  524TMC3    C1 7777   0.373   2.338   9.559  0.4760 -0.2535 -0.0287
  524TMC3    C2 7778   0.371   2.281   9.439  0.4992  0.3014 -0.4035
  524TMC3    C3 7779   0.291   2.343   9.347  0.7515  0.4194  0.6509
  524TMC3    C4 7780   0.314   2.456   9.596 -0.1368  0.4412  0.3984
  524TMC3    C5 7781   0.246   2.518   9.504  0.1233 -0.2750 -0.1953
  524TMC3    C6 7782   0.241   2.469   9.375  0.4610  0.7857  0.1412
  524TMC3     C 7783   0.429   2.249   9.654 -0.3874  0.1173  0.1173
  524TMC3     O 7784   0.502   2.155   9.615  0.3767  0.3059  0.4951
  524TMC3     H 7785   0.412   2.181   9.431  0.5256  0.2859 -0.0568
  524TMC3    H1 7786   0.317   2.493   9.698 -1.1380  2.1702 -0.2003
  524TMC3    H2 7787   0.182   2.521   9.301  1.0238  0.0678 -0.8052
  524TMC3    C7 7788   0.208   2.653   9.528 -0.0124 -0.0467 -0.1651
  524TMC3    C8 7789   0.226   2.265   9.238  0.3689 -0.0396 -0.1003
  524TMC3    O1 7790   0.269   2.717   9.619  0.1255  0.0907  0.0887
  524TMC3    O2 7791   0.129   2.315   9.183 -0.2006 -0.1885  0.5593
  525MPD2     C 7792   2.976   4.332  14.349 -0.2464 -0.3240 -0.3534
  525MPD2    C1 7793   3.000   4.374  14.483  0.5682 -0.1307  0.2036
  525MPD2    C2 7794   3.069   4.498  14.490 -0.0784 -0.0397  0.0633
  525MPD2    C3 7795   3.097   4.571  14.377  0.6621 -0.4580  0.3542
  525MPD2    C4 7796   3.077   4.518  14.253  0.6413  0.0186 -0.2608
  525MPD2    C5 7797   3.021   4.398  14.241  0.0568 -0.0658  0.3862
  525MPD2     H 7798   3.100   4.540  14.585  1.0086 -1.2028  0.2133
  525MPD2    H1 7799   3.116   4.567  14.165  0.2704  0.9253  0.0776
  525MPD2    H2 7800   2.935   4.233  14.337 -0.2926 -0.6030  1.9714
  525MPD2    H3 7801   2.991   4.361  14.144  0.1008  0.9158 -0.0065
  525MPD2     N 7802   3.170   4.690  14.397  0.0470  0.5295 -0.3099
  525MPD2    H5 7803   3.180   4.715  14.495 -1.1833 -1.0527  0.2336
  525MPD2    N1 7804   2.992   4.296  14.599  0.1197  0.5225 -0.5348
  525MPD2    H7 7805   3.067   4.323  14.663 -0.0825  0.7754 -0.4034
  526TMC3    C1 7806   2.994   4.085  14.700 -0.3896 -0.4711  0.4834
  526TMC3    C2 7807   2.916   4.011  14.784  0.0992  0.4401  0.2258
  526TMC3    C3 7808   2.973   3.902  14.843 -0.4114  0.1037 -0.3480
  526TMC3    C4 7809   3.120   4.061  14.672  0.9957 -0.4562 -0.8727
  526TMC3    C5 7810   3.175   3.944  14.719  0.7174 -0.4722  0.7790
  526TMC3    C6 7811   3.105   3.860  14.812  0.2898  0.6218 -0.0022
  526TMC3     C 7812   2.928   4.173  14.607  0.6665 -0.4116  0.4841
  526TMC3     O 7813   2.833   4.132  14.540  0.0363  0.0761 -0.3951
  526TMC3     H 7814   2.816   4.046  14.809 -0.2237 -1.9127  2.1715
  526TMC3    H1 7815   3.167   4.118  14.592  0.8656  1.0213  0.0961
  526TMC3    H2 7816   3.147   3.777  14.866 -0.3817 -0.6972 -1.5037
  526TMC3    C7 7817   3.307   3.905  14.685  0.0907  0.3605 -0.3434
  526TMC3    C8 7818   2.938   3.869  14.982 -0.3374 -0.3696  0.0538
  526TMC3    O1 7819   3.343   3.786  14.684  0.0346  0.1749  0.8989
  526TMC3    O2 7820   3.036   3.835  15.051 -0.9046  0.4580 -0.2726
  527MPD2     C 7821   2.015   2.560   1.705  0.4869  0.1856 -0.5769
  527MPD2    C1 7822   2.010   2.420   1.718 -0.2461 -0.6235 -0.4624
  527MPD2    C2 7823   2.085   2.344   1.628 -0.2841  0.2023  0.8743
  527MPD2    C3 7824   2.161   2.402   1.527 -0.6136 -0.3628  0.2862
  527MPD2    C4 7825   2.157   2.539   1.517  0.7719  0.0186  0.0108
  527MPD2    C5 7826   2.094   2.613   1.611 -0.3567  0.8920 -0.2982
  527MPD2     H 7827   2.089   2.237   1.646 -0.4705  0.2523  1.2230
  527MPD2    H1 7828   2.211   2.596   1.443  1.2553  0.3529  0.6323
  527MPD2    H2 7829   1.981   2.638   1.772  1.1573  0.5586 -0.6652
  527MPD2    H3 7830   2.108   2.720   1.610 -1.6618  1.0512 -1.2130
  527MPD2     N 7831   2.238   2.315   1.448 -0.0548  0.4121 -0.7379
  527MPD2    H5 7832   2.247   2.216   1.470  1.2661 -0.0902 -3.4683
  527MPD2    N1 7833   1.934   2.355   1.822  0.5018  0.3154  0.3579
  527MPD2    H7 7834   1.932   2.254   1.816 -0.3130  0.2800  1.2814
  528TMC3    C1 7835   1.756   2.307   1.954  0.6873 -0.0450 -0.3994
  528TMC3    C2 7836   1.636   2.356   1.983  0.2794  0.3202 -0.3781
  528TMC3    C3 7837   1.550   2.259   2.033  0.5702 -0.8337 -0.5775
  528TMC3    C4 7838   1.812   2.185   1.986  0.0810 -0.0963 -0.6559
  528TMC3    C5 7839   1.721   2.089   2.027  0.9286  0.3662  0.1494
  528TMC3    C6 7840   1.587   2.126   2.033 -0.2619 -0.1698  0.3991
  528TMC3     C 7841   1.846   2.411   1.906  0.0846  0.3640  0.6583
  528TMC3     O 7842   1.819   2.529   1.920 -0.6169  0.3800 -0.2340
  528TMC3     H 7843   1.604   2.456   1.954  2.3837  1.1505  0.1590
  528TMC3    H1 7844   1.919   2.170   1.986  0.1662  0.4731  0.6504
  528TMC3    H2 7845   1.522   2.051   2.076 -1.3300  0.5388  0.0298
  528TMC3    C7 7846   1.764   1.953   2.059  0.1418  0.5209  0.1583
  528TMC3    C8 7847   1.410   2.296   2.021 -0.5089  0.0135 -0.8058
  528TMC3    O1 7848   1.678   1.887   2.118  0.2657  0.0348  0.3988
  528TMC3    O2 7849   1.389   2.417   2.009 -0.4548  0.4139  0.1701
  529MPD2     C 7850   3.437   0.961   0.083 -0.2303 -0.3217  0.4547
  529MPD2    C1 7851   3.548   1.031   0.125 -1.2344 -0.1850  0.3951
  529MPD2    C2 7852   3.562   1.167   0.095  0.2211 -0.0239 -0.1014
  529MPD2    C3 7853   3.458   1.230   0.025 -0.3986  0.2246 -0.9250
  529MPD2    C4 7854   3.347   1.150  17.688 -0.9829  0.4164  0.0100
  529MPD2    C5 7855   3.338   1.018   0.012  0.3668  0.1775 -0.1939
  529MPD2     H 7856   3.652   1.219   0.126  0.3576  1.2728 -2.6528
  529MPD2    H1 7857   3.265   1.202  17.640  0.3465  2.8073  0.3262
  529MPD2    H2 7858   3.419   0.855   0.091  2.4521 -0.8237 -0.2024
  529MPD2    H3 7859   3.258   0.965  17.662  0.0074  2.3013 -1.8810
  529MPD2     N 7860   3.466   1.366  17.697  0.2615  0.4163 -0.9174
  529MPD2    H5 7861   3.378   1.415  17.679 -0.9433 -0.6294  2.0748
  529MPD2    N1 7862   3.647   0.956   0.196  0.4044  1.1886 -0.4333
  529MPD2    H7 7863   3.709   1.007   0.258 -0.8067  1.9894  0.1080
  530TMC3    C1 7864   3.721   0.745   0.275 -0.1842  0.7135  0.8891
  530TMC3    C2 7865   3.679   0.778   0.401  0.6481 -0.4431 -0.9266
  530TMC3    C3 7866   3.689   0.683   0.499  0.4700 -0.1764 -0.2013
  530TMC3    C4 7867   3.770   0.623   0.239  0.8266 -0.2548  0.4309
  530TMC3    C5 7868   3.769   0.528   0.336 -0.1841 -0.1441 -0.0616
  530TMC3    C6 7869   3.729   0.554   0.467  0.0410 -1.0451  0.1066
  530TMC3     C 7870   3.665   0.823   0.168 -0.3873 -0.5635 -0.2308
  530TMC3     O 7871   3.633   0.758   0.072  0.1700  0.4501  0.3262
  530TMC3     H 7872   3.645   0.880   0.411  2.1185 -0.1374  0.9796
  530TMC3    H1 7873   3.810   0.598   0.141 -0.8304 -2.3635  0.2871
  530TMC3    H2 7874   3.750   0.481   0.545 -1.3907  1.1114  2.4871
  530TMC3    C7 7875   3.857   0.420   0.309  0.5831 -0.1647  0.2987
  530TMC3    C8 7876   3.678   0.733   0.633 -0.2503  0.3035 -0.4587
  530TMC3    O1 7877   3.932   0.418   0.212  0.5190  0.0451 -0.0857
  530TMC3    O2 7878   3.599   0.824   0.647 -0.3232 -0.2126  0.1547
  531MPD2     C 7879   2.547   2.689  13.120 -0.0114  0.2869 -0.3429
  531MPD2    C1 7880   2.483   2.809  13.134  0.8680  0.2964 -0.1936
  531MPD2    C2 7881   2.354   2.814  13.087  0.1629 -0.2194 -0.5766
  531MPD2    C3 7882   2.291   2.707  13.025 -0.6609  0.0625  0.6514
  531MPD2    C4 7883   2.358   2.585  13.026 -1.4331  0.3383 -0.7049
  531MPD2    C5 7884   2.486   2.576  13.064 -0.3974 -1.1476  0.7958
  531MPD2     H 7885   2.294   2.901  13.111 -1.3840 -1.0365 -1.5387
  531MPD2    H1 7886   2.307   2.501  12.981 -1.1977 -1.2338  2.0093
  531MPD2    H2 7887   2.646   2.676  13.162  0.2626  2.4429 -0.3181
  531MPD2    H3 7888   2.546   2.487  13.051  0.3656 -0.4960 -0.1706
  531MPD2     N 7889   2.167   2.726  12.953 -0.1407  0.0097 -0.4070
  531MPD2    H5 7890   2.133   2.647  12.898  1.3838 -0.0815 -1.2151
  531MPD2    N1 7891   2.543   2.931  13.194  0.0757 -0.3486  0.3326
  531MPD2    H7 7892   2.639   2.922  13.226  0.5236  2.6742 -0.1618
  532TMC3    C1 7893   2.555   3.142  13.297  0.4444  0.5492 -0.0838
  532TMC3    C2 7894   2.486   3.259  13.313  0.9688  0.1315  0.0753
  532TMC3    C3 7895   2.468   3.309  13.440 -0.0395  0.5415 -0.0906
  532TMC3    C4 7896   2.628   3.091  13.405  0.1139 -0.1738 -0.1294
  532TMC3    C5 7897   2.623   3.160  13.522  0.2754 -0.2416  0.1738
  532TMC3    C6 7898   2.539   3.265  13.550 -0.5439 -0.6389 -0.1738
  532TMC3     C 7899   2.479   3.052  13.215 -0.1098 -0.2094  0.1560
  532TMC3     O 7900   2.370   3.090  13.173  0.4666 -0.1320  0.1219
  532TMC3     H 7901   2.445   3.308  13.225  1.5798 -0.0982 -0.3400
  532TMC3    H1 7902   2.694   3.007  13.388  0.2529  0.2000 -1.4249
  532TMC3    H2 7903   2.524   3.287  13.655 -2.8321  0.2746 -0.6851
  532TMC3    C7 7904   2.706   3.121  13.636  0.3819  0.1059 -0.7341
  532TMC3    C8 7905   2.326   3.327  13.469 -0.2544 -0.6888  0.3696
  532TMC3    O1 7906   2.760   3.214  13.697  0.3315  0.1824 -0.1164
  532TMC3    O2 7907   2.299   3.388  13.571 -0.1208 -0.1845 -0.0161
  533TMC3    C1 7908   3.289   0.160  14.348 -0.4281  0.0160 -0.2304
  533TMC3    C2 7909   3.425   0.173  14.327  0.1187  0.0223  0.1538
  533TMC3    C3 7910   3.499   0.239  14.426 -1.0073 -0.0028 -0.0888
  533TMC3    C4 7911   3.227   0.214  14.453  0.3898  0.1832  0.2138
  533TMC3    C5 7912   3.302   0.284  14.546 -0.0709 -0.4738  0.1964
  533TMC3    C6 7913   3.437   0.293  14.536 -0.3308  0.3149 -0.0561
  533TMC3     C 7914   3.249   0.027  14.306  0.1491 -0.5909  1.0712
  533TMC3     O 7915   3.284   4.707  14.202 -0.7731 -0.2765  0.3451
  533TMC3     H 7916   3.476   0.118  14.248  0.2953 -0.2805  0.4796
  533TMC3    H1 7917   3.123   0.190  14.472  0.1275  3.2116  2.5230
  533TMC3    H2 7918   3.489   0.349  14.613 -0.0975 -0.2198  0.1767
  533TMC3    C7 7919   3.275   0.223  14.679  0.1460 -0.5744 -1.2568
  533TMC3    C8 7920   3.631   0.188  14.469  0.6132 -0.2439 -0.2780
  533TMC3    O1 7921   3.204   0.118  14.669  0.0356  0.6287 -0.4087
  533TMC3    O2 7922   3.640   0.150  14.585 -0.2176 -0.0471  0.4308
  534MPD2     C 7923   1.480   1.147   1.862  0.4694 -0.3674  0.3236
  534MPD2    C1 7924   1.500   1.250   1.765  0.2949  0.2059 -0.2202
  534MPD2    C2 7925   1.394   1.276   1.686 -0.8939 -0.2706  0.3698
  534MPD2    C3 7926   1.271   1.226   1.694  0.2309  0.5919  0.5156
  534MPD2    C4 7927   1.254   1.138   1.792  0.4627  0.2798  0.1782
  534MPD2    C5 7928   1.358   1.095   1.873  0.4701 -0.3229  0.5039
  534MPD2     H 7929   1.423   1.349   1.611  2.0358 -0.7410  1.0569
  534MPD2    H1 7930   1.154   1.114   1.824 -0.3180  1.6564 -1.2628
  534MPD2    H2 7931   1.568   1.115   1.918  0.8614 -1.4348 -0.9180
  534MPD2    H3 7932   1.335   1.020   1.949 -2.9724  0.6170  0.3901
  534MPD2     N 7933   1.168   1.261   1.607 -0.0214 -0.1943  0.2969
  534MPD2    H5 7934   1.090   1.196   1.612  0.2246 -0.7233 -2.9401
  534MPD2    N1 7935   1.621   1.319   1.740  0.7470  0.4886 -0.5138
  534MPD2    H7 7936   1.610   1.380   1.660  0.1155 -2.0484 -2.3508
  535TMC3    C1 7937   1.033   1.361   1.446 -0.6975 -0.3367  0.3252
  535TMC3    C2 7938   0.930   1.286   1.493 -0.2161  0.4000  0.5891
  535TMC3    C3 7939   0.826   1.268   1.404 -0.1968  0.1300  0.0149
  535TMC3    C4 7940   1.035   1.407   1.318  0.0418 -0.0821 -0.6015
  535TMC3    C5 7941   0.920   1.395   1.243 -0.3635  0.2569 -0.4735
  535TMC3    C6 7942   0.816   1.324   1.277 -0.4370 -0.2178  0.0356
  535TMC3     C 7943   1.163   1.352   1.506  0.1860  0.3817 -0.0480
  535TMC3     O 7944   1.245   1.431   1.471 -0.8542  0.2654 -0.0449
  535TMC3     H 7945   0.919   1.247   1.593  0.4069 -0.2060  0.4225
  535TMC3    H1 7946   1.129   1.449   1.282 -0.4310 -0.4169 -2.2176
  535TMC3    H2 7947   0.728   1.321   1.214  0.7216 -0.2896 -1.5990
  535TMC3    C7 7948   0.912   1.446   1.110  0.6209 -0.0577  0.5448
  535TMC3    C8 7949   0.702   1.190   1.435 -0.3609 -0.2400 -0.1321
  535TMC3    O1 7950   0.834   1.391   1.034 -0.2261  0.6270 -0.0213
  535TMC3    O2 7951   0.624   1.165   1.347 -0.4310 -0.7931  0.2172
  536MPD2     C 7952   4.081   4.449  16.212  0.4053  0.5458 -0.2958
  536MPD2    C1 7953   4.068   4.316  16.246 -0.6337  0.4188 -0.0002
  536MPD2    C2 7954   3.983   4.233  16.180 -0.1311 -0.7954  0.1520
  536MPD2    C3 7955   3.905   4.285  16.072  0.3351 -0.8398 -0.0080
  536MPD2    C4 7956   3.917   4.423  16.038 -0.0348  0.5479 -0.1587
  536MPD2    C5 7957   3.994   4.502  16.115  0.7142 -0.3287 -0.3602
  536MPD2     H 7958   3.979   4.128  16.208 -0.4082 -0.9410 -0.4307
  536MPD2    H1 7959   3.867   4.463  15.950  0.5683 -1.3134 -1.3327
  536MPD2    H2 7960   4.149   4.511  16.268  2.6945 -0.4972 -1.9150
  536MPD2    H3 7961   3.990   4.608  16.094 -0.3716 -0.6338 -1.7617
  536MPD2     N 7962   3.829   4.215  15.978 -0.3083  0.0501  0.5758
  536MPD2    H5 7963   3.779   4.270  15.909 -1.0167 -0.1628  0.9195
  536MPD2    N1 7964   4.142   4.271  16.355  0.6180 -0.4748 -0.2190
  536MPD2    H7 7965   4.185   4.347  16.406 -0.3959 -0.5754  0.7697
  537TMC3    C1 7966   4.245   4.140  16.532 -0.3453  0.0741  0.8095
  537TMC3    C2 7967   4.347   4.227  16.562  0.7442 -0.3223 -0.3977
  537TMC3    C3 7968   4.414   4.205  16.682  0.5772  0.6091  0.7266
  537TMC3    C4 7969   4.233   4.024  16.602  0.0871 -0.1958  0.7960
  537TMC3    C5 7970   4.309   4.002  16.718 -0.4689  0.3119  0.2508
  537TMC3    C6 7971   4.407   4.087  16.754 -0.8341  0.5104  0.5802
  537TMC3     C 7972   4.166   4.142  16.403  0.2326 -0.0184 -0.2430
  537TMC3     O 7973   4.119   4.033  16.366 -0.2541 -0.0814 -0.7699
  537TMC3     H 7974   4.368   4.320  16.511  0.9959  0.2654  0.7743
  537TMC3    H1 7975   4.158   3.948  16.582  0.4087 -0.8048  1.9262
  537TMC3    H2 7976   4.442   4.078  16.856  0.3319  0.3129  0.1574
  537TMC3    C7 7977   4.247   3.918  16.822  0.0576  0.3921 -0.3690
  537TMC3    C8 7978   4.516   4.297  16.723  0.3307  0.1137 -0.4515
  537TMC3    O1 7979   4.121   3.925  16.835 -0.3771 -0.3085 -0.5054
  537TMC3    O2 7980   4.602   4.250  16.797  0.0999  0.3396  0.0770
  538TMC3    C1 7981   0.845   2.377  11.197 -0.3303 -0.2997  0.6793
  538TMC3    C2 7982   0.878   2.279  11.103 -0.6354  0.1866  0.1497
  538TMC3    C3 7983   0.800   2.284  10.987  0.0508  0.4041  0.2955
  538TMC3    C4 7984   0.742   2.474  11.187  0.4153 -0.1999 -0.2181
  538TMC3    C5 7985   0.670   2.472  11.063 -0.3652 -0.4430  0.0503
  538TMC3    C6 7986   0.703   2.377  10.966  0.6134  0.8761  0.9778
  538TMC3     C 7987   0.903   2.365  11.326  0.5203 -0.5327 -0.4242
  538TMC3     O 7988   0.827   2.400  11.420  0.1952  0.0333  0.5469
  538TMC3     H 7989   0.952   2.205  11.129 -1.6750 -1.0644 -0.4477
  538TMC3    H1 7990   0.710   2.530  11.274 -0.7760  2.8767 -2.6628
  538TMC3    H2 7991   0.661   2.393  10.868  3.4282  0.8648 -0.2165
  538TMC3    C7 7992   0.619   2.602  11.014 -0.2715 -0.2484 -0.4976
  538TMC3    C8 7993   0.856   2.237  10.862 -0.3579  0.6258  0.0877
  538TMC3    O1 7994   0.585   2.608  10.895 -0.6092 -0.5471  0.3620
  538TMC3    O2 7995   0.771   2.201  10.780  0.3004 -0.5943 -0.4581
  539MPD2     C 7996   0.616   1.712  11.853  0.7814  0.0801 -0.0060
  539MPD2    C1 7997   0.603   1.725  11.717 -0.1377 -0.2598 -0.0402
  539MPD2    C2 7998   0.580   1.849  11.661  0.2295 -0.2775 -0.6956
  539MPD2    C3 7999   0.558   1.958  11.747  0.2585 -0.3010 -0.3262
  539MPD2    C4 8000   0.553   1.940  11.886  0.3894  0.5963 -0.5642
  539MPD2    C5 8001   0.598   1.819  11.934  1.0838 -0.3816 -0.6950
  539MPD2     H 8002   0.581   1.860  11.553 -1.4876 -0.1966 -0.7022
  539MPD2    H1 8003   0.528   2.022  11.952 -0.1854  0.5116 -0.6768
  539MPD2    H2 8004   0.651   1.622  11.903  0.3814  0.5354  1.0852
  539MPD2    H3 8005   0.610   1.802  12.041 -0.0982  0.7645 -0.3739
  539MPD2     N 8006   0.534   2.093  11.707 -0.3555  0.1625 -0.0105
  539MPD2    H5 8007   0.501   2.158  11.779 -0.1704  1.1652 -0.8318
  539MPD2    N1 8008   0.622   1.605  11.631  0.2338  0.4327  1.0650
  539MPD2    H7 8009   0.621   1.626  11.532 -1.6165 -0.1296  0.9625
  540TMC3    C1 8010   0.495   2.278  11.557 -0.1569  0.4988  0.0402
  540TMC3    C2 8011   0.456   2.312  11.429  0.3482 -0.2117  0.0237
  540TMC3    C3 8012   0.424   2.443  11.408  0.0477  0.0171  0.4952
  540TMC3    C4 8013   0.505   2.364  11.667 -0.7234  0.3786  0.3915
  540TMC3    C5 8014   0.462   2.492  11.636  0.5796 -0.1538 -0.7207
  540TMC3    C6 8015   0.424   2.536  11.508  0.6118 -0.4541 -0.2012
  540TMC3     C 8016   0.541   2.135  11.576 -0.2059  0.6216 -1.1036
  540TMC3     O 8017   0.590   2.068  11.482 -0.0420  0.0155 -0.2200
  540TMC3     H 8018   0.469   2.240  11.350  0.0949  0.8067 -0.9425
  540TMC3    H1 8019   0.556   2.339  11.760 -0.2652  0.4051  0.1478
  540TMC3    H2 8020   0.386   2.635  11.485  1.1453  0.0591  1.1562
  540TMC3    C7 8021   0.417   2.573  11.745 -0.2993  0.3626  0.0518
  540TMC3    C8 8022   0.378   2.480  11.278  0.2883 -0.0723 -0.3399
  540TMC3    O1 8023   0.421   2.519  11.854 -0.5142 -0.2724  0.3014
  540TMC3    O2 8024   0.366   2.596  11.249  0.1320 -0.2965  0.1855
  541MPD2     C 8025   3.939   3.022  13.442 -0.6290 -0.0682 -0.1238
  541MPD2    C1 8026   3.814   2.979  13.411 -0.0700 -0.1862  0.2841
  541MPD2    C2 8027   3.745   3.041  13.307  0.6498  0.2564 -0.3373
  541MPD2    C3 8028   3.808   3.128  13.224 -0.1008 -0.5187 -0.2102
  541MPD2    C4 8029   3.940   3.156  13.252 -0.7679 -0.8762 -0.6870
  541MPD2    C5 8030   3.993   3.117  13.369 -0.6713 -0.7183  1.4679
  541MPD2     H 8031   3.646   3.001  13.287  0.9703 -0.9238  0.4223
  541MPD2    H1 8032   4.006   3.215  13.189  1.3671 -2.0986  0.3957
  541MPD2    H2 8033   4.002   2.984  13.521  1.3574  1.5284 -0.9429
  541MPD2    H3 8034   4.093   3.143  13.399 -0.5293 -0.0416  0.3680
  541MPD2     N 8035   3.756   3.189  13.109 -0.0917  0.6247 -0.2543
  541MPD2    H5 8036   3.814   3.246  13.049 -0.5668  0.9432 -0.4070
  541MPD2    N1 8037   3.752   2.875  13.486  0.8304  0.5646  0.3951
  541MPD2    H7 8038   3.701   2.809  13.429  1.7554 -0.6077  0.9233
  542TMC3    C1 8039   3.593   3.230  12.956 -0.2319 -0.1262  0.0042
  542TMC3    C2 8040   3.677   3.213  12.850  0.2152 -0.3107 -0.7576
  542TMC3    C3 8041   3.623   3.239  12.722 -0.3138 -0.6862 -0.1141
  542TMC3    C4 8042   3.465   3.276  12.940 -0.6825  1.1123  0.1110
  542TMC3    C5 8043   3.414   3.278  12.815  0.2738 -0.0695 -0.0149
  542TMC3    C6 8044   3.494   3.264  12.704 -0.5343  0.8282  0.5208
  542TMC3     C 8045   3.626   3.199  13.093 -0.1832 -0.2730 -0.3506
  542TMC3     O 8046   3.537   3.182  13.180 -0.8541 -0.2655 -0.1950
  542TMC3     H 8047   3.777   3.172  12.865 -0.3611 -0.5315  2.3549
  542TMC3    H1 8048   3.398   3.279  13.025 -0.3468 -0.3741  0.4307
  542TMC3    H2 8049   3.451   3.275  12.605  1.9762 -1.3320 -0.8002
  542TMC3    C7 8050   3.274   3.247  12.815  0.0144 -0.2090 -0.0942
  542TMC3    C8 8051   3.700   3.215  12.605  0.4068 -0.4038 -0.3029
  542TMC3    O1 8052   3.210   3.275  12.915  0.0114  0.5170 -0.7985
  542TMC3    O2 8053   3.638   3.210  12.502  0.3761  0.1830 -0.5891
  543TMC3    C1 8054   3.062   4.525  16.915 -0.0176  0.3012  0.3096
  543TMC3    C2 8055   3.113   4.399  16.941 -0.2723  0.0505 -0.4361
  543TMC3    C3 8056   3.036   4.320  17.020  0.7848  0.0760 -0.5042
  543TMC3    C4 8057   2.939   4.572  16.960 -0.1049  0.0260  0.4498
  543TMC3    C5 8058   2.867   4.480  17.038  0.0795  0.2918  0.1427
  543TMC3    C6 8059   2.911   4.357  17.066 -0.2538  0.2580 -0.5714
  543TMC3     C 8060   3.115   4.601  16.808  0.0288 -0.0945 -0.2704
  543TMC3     O 8061   3.236   4.577  16.776 -0.2135 -0.2396  0.0469
  543TMC3     H 8062   3.211   4.365  16.910 -0.6915 -0.0874 -1.5886
  543TMC3    H1 8063   2.917   4.678  16.958  0.7538  0.1384 -3.4237
  543TMC3    H2 8064   2.849   4.291  17.125 -0.9060  1.2063 -0.1977
  543TMC3    C7 8065   2.771   4.553  17.119 -0.3993  0.2885  0.0922
  543TMC3    C8 8066   3.096   4.200  17.074 -0.0449  0.9348 -0.5756
  543TMC3    O1 8067   2.705   4.635  17.058 -0.1237  0.4992  0.9078
  543TMC3    O2 8068   3.014   4.119  17.114  0.4255  0.2140  0.2669
  544MPD2     C 8069   3.507   3.942  17.249 -0.4203 -0.4458 -0.3897
  544MPD2    C1 8070   3.374   3.901  17.247 -0.8520  0.4783  0.6637
  544MPD2    C2 8071   3.277   3.991  17.202 -0.1662 -0.2887 -0.5350
  544MPD2    C3 8072   3.317   4.109  17.147  0.2267 -0.4765 -0.2390
  544MPD2    C4 8073   3.452   4.130  17.131  0.6534 -0.5101  0.2665
  544MPD2    C5 8074   3.545   4.050  17.185  0.2826  0.5437  0.2000
  544MPD2     H 8075   3.173   3.972  17.224 -0.4992  0.4456 -1.4939
  544MPD2    H1 8076   3.486   4.207  17.064 -1.6900 -0.2971 -0.6453
  544MPD2    H2 8077   3.588   3.881  17.286  2.1903  3.6257  0.6501
  544MPD2    H3 8078   3.652   4.065  17.178  0.5815 -0.9820  1.2497
  544MPD2     N 8079   3.233   4.205  17.089  0.1345  0.7792  0.3955
  544MPD2    H5 8080   3.277   4.293  17.066  1.4826  0.0169  0.0660
  544MPD2    N1 8081   3.354   3.784  17.319  0.2500 -0.1421  0.0968
  544MPD2    H7 8082   3.438   3.761  17.371  0.0605  0.3764  0.6326
  545TMC3    C1 8083   3.255   3.576  17.377 -0.0822  0.5560  0.1459
  545TMC3    C2 8084   3.146   3.499  17.395 -0.2687 -0.3739  0.2719
  545TMC3    C3 8085   3.160   3.367  17.425  0.3669  0.5336  0.1942
  545TMC3    C4 8086   3.382   3.523  17.369 -0.9388  0.0989  0.0359
  545TMC3    C5 8087   3.394   3.389  17.391 -0.2264 -0.4402 -0.3743
  545TMC3    C6 8088   3.288   3.308  17.425 -0.2667  0.3553 -0.0490
  545TMC3     C 8089   3.241   3.711  17.333 -0.2414  0.0079  0.3531
  545TMC3     O 8090   3.126   3.737  17.296 -0.0151 -0.5110  0.0691
  545TMC3     H 8091   3.052   3.546  17.370 -0.1567 -2.1601 -3.5719
  545TMC3    H1 8092   3.472   3.572  17.335 -0.8561  0.7219  1.1694
  545TMC3    H2 8093   3.309   3.202  17.434 -0.4843  0.3434  0.3040
  545TMC3    C7 8094   3.516   3.323  17.352  0.2049 -0.4968  0.8498
  545TMC3    C8 8095   3.043   3.284  17.389  0.7499 -0.0438 -0.1272
  545TMC3    O1 8096   3.502   3.233  17.272 -0.3535  0.6829 -0.0905
  545TMC3    O2 8097   2.933   3.338  17.381  0.2500 -0.3214 -0.1044
  546MPD2     C 8098   4.652   4.530  17.418  0.0341 -0.2084  0.2802
  546MPD2    C1 8099   4.602   4.598  17.313 -0.3697  0.7196 -0.3001
  546MPD2    C2 8100   4.635   0.005  17.284  0.2060 -0.4427  0.6527
  546MPD2    C3 8101   4.722   0.064  17.371 -0.6383 -0.5166  0.1162
  546MPD2    C4 8102   0.051   4.718  17.473 -0.5693 -0.4778  0.2441
  546MPD2    C5 8103   0.013   4.591  17.504 -0.3441 -0.2484 -0.3483
  546MPD2     H 8104   4.592   0.064  17.204 -2.2244 -0.1073  2.2177
  546MPD2    H1 8105   0.126   0.036  17.539  0.0394 -2.6303  0.9462
  546MPD2    H2 8106   4.622   4.426  17.424 -0.3008 -0.1117  0.2803
  546MPD2    H3 8107   0.057   4.545  17.592  1.9443  0.6059 -1.0581
  546MPD2     N 8108   0.042   0.197  17.352 -0.1099  0.0261 -0.3511
  546MPD2    H5 8109   0.084   0.243  17.432 -0.9062  1.3148 -0.6806
  546MPD2    N1 8110   4.498   4.533  17.243  0.5826 -0.1110  0.2965
  546MPD2    H7 8111   4.506   4.431  17.246  1.1390 -0.0797 -0.2981
  547TMC3    C1 8112   4.316   4.496  17.084  0.5093 -0.3669 -0.6829
  547TMC3    C2 8113   4.250   4.542  16.978  0.3201 -0.9515 -0.0779
  547TMC3    C3 8114   4.131   4.480  16.952  1.0038 -0.1180  1.1194
  547TMC3    C4 8115   4.263   4.390  17.159 -0.3639 -0.1343  0.4044
  547TMC3    C5 8116   4.160   4.318  17.116 -0.1482  0.3101 -0.2577
  547TMC3    C6 8117   4.086   4.362  17.013 -0.7843  0.1849  0.5713
  547TMC3     C 8118   4.404   4.588  17.151 -0.1233  0.5245  0.6082
  547TMC3     O 8119   4.379   4.706  17.130  0.4683  0.1207  0.5479
  547TMC3     H 8120   4.298   4.630  16.937 -3.0978 -0.0116 -2.0438
  547TMC3    H1 8121   4.315   4.354  17.247  0.6332  0.3239 -0.0050
  547TMC3    H2 8122   3.985   4.329  16.991  0.6162 -2.8167 -1.3251
  547TMC3    C7 8123   4.110   4.221  17.217  0.0218  0.5072  0.1540
  547TMC3    C8 8124   4.052   4.532  16.841  0.1869  0.0027 -1.1390
  547TMC3    O1 8125   4.138   4.239  17.335  0.0780 -0.5709 -0.2356
  547TMC3    O2 8126   4.073   4.646  16.802 -0.4506 -0.6905 -0.0175
  548MPD2     C 8127   4.549   0.636  12.405 -0.5752  0.3601  0.1157
  548MPD2    C1 8128   4.482   0.520  12.398 -0.3306 -0.4556 -0.2953
  548MPD2    C2 8129   4.521   0.423  12.312 -0.0069 -0.2337 -0.3104
  548MPD2    C3 8130   4.627   0.446  12.228  0.1934  0.1809 -0.3690
  548MPD2    C4 8131   4.693   0.570  12.233 -0.3975  0.4041 -1.1662
  548MPD2    C5 8132   4.649   0.669  12.322 -0.3640 -0.2467 -0.2343
  548MPD2     H 8133   4.467   0.333  12.287  1.8841 -0.8681 -2.0393
  548MPD2    H1 8134   0.058   0.591  12.176  0.6704  0.6256  0.5980
  548MPD2    H2 8135   4.505   0.712  12.470  0.9082  1.6630 -0.3934
  548MPD2    H3 8136   4.688   0.769  12.307 -1.7226  0.2228 -0.6283
  548MPD2     N 8137   4.669   0.333  12.161  0.1902 -0.3801  0.2985
  548MPD2    H5 8138   4.608   0.255  12.180  0.4188 -0.3769  1.0270
  548MPD2    N1 8139   4.370   0.517  12.477  0.5856  0.2180 -0.6342
  548MPD2    H7 8140   4.332   0.601  12.519 -0.0664 -0.8122  0.8283
  549TMC3    C1 8141   4.215   0.404  12.612  0.0607  0.0323  0.0915
  549TMC3    C2 8142   4.159   0.528  12.643 -0.2259 -0.4085  0.3743
  549TMC3    C3 8143   4.031   0.527  12.704  0.6549 -0.2335 -1.0297
  549TMC3    C4 8144   4.142   0.283  12.639 -0.0298  0.1398  0.1813
  549TMC3    C5 8145   4.009   0.291  12.674 -0.0985  0.1252  0.6973
  549TMC3    C6 8146   3.958   0.412  12.713  0.3344 -0.3655 -0.5056
  549TMC3     C 8147   4.311   0.399  12.509 -0.2162  0.2477  0.4410
  549TMC3     O 8148   4.326   0.288  12.461  0.1210  0.1789 -0.1502
  549TMC3     H 8149   4.220   0.616  12.630 -1.6495  0.3926 -0.8937
  549TMC3    H1 8150   4.180   0.191  12.596  1.8899  1.4777 -0.9823
  549TMC3    H2 8151   3.860   0.412  12.759  1.1268  1.2652  1.2000
  549TMC3    C7 8152   3.915   0.186  12.629 -0.2367  0.5428  0.3575
  549TMC3    C8 8153   3.951   0.635  12.664 -0.0269 -0.5618  0.0158
  549TMC3    O1 8154   3.799   0.220  12.615  0.7001 -0.0241 -0.1518
  549TMC3    O2 8155   3.853   0.608  12.592  0.0957 -0.1453  0.5786
  550TMC3    C1 8156   2.870   2.802  12.717 -0.5279 -0.6569 -0.6019
  550TMC3    C2 8157   2.874   2.910  12.802 -0.8247  0.1552  0.1529
  550TMC3    C3 8158   2.758   2.932  12.871 -1.0117  0.2029  0.1350
  550TMC3    C4 8159   2.762   2.724  12.691 -0.1107  0.5432 -0.1489
  550TMC3    C5 8160   2.643   2.762  12.748 -0.5076 -0.3638 -0.0493
  550TMC3    C6 8161   2.646   2.867  12.834 -0.2511 -0.4980 -0.7071
  550TMC3     C 8162   2.999   2.774  12.659  0.0499 -0.2789 -0.0334
  550TMC3     O 8163   3.098   2.806  12.719  0.1177  0.8198  0.7260
  550TMC3     H 8164   2.962   2.973  12.812 -0.7158 -0.1860  1.3669
  550TMC3    H1 8165   2.764   2.647  12.615  1.1213  1.2112 -0.7877
  550TMC3    H2 8166   2.549   2.890  12.876  0.5399 -0.4228  1.0763
  550TMC3    C7 8167   2.513   2.736  12.686 -0.3632 -0.1021 -0.2388
  550TMC3    C8 8168   2.726   3.067  12.912 -0.2483 -0.0561  0.3554
  550TMC3    O1 8169   2.509   2.626  12.628 -0.5711 -0.4457  0.3498
  550TMC3    O2 8170   2.615   3.110  12.882 -0.1734 -0.1967 -0.1821
  551TMC3    C1 8171   0.647   0.621  13.261 -0.2336 -0.9584  0.1874
  551TMC3    C2 8172   0.753   0.653  13.186  0.1410  0.0944 -0.0406
  551TMC3    C3 8173   0.864   0.704  13.246  0.0993  0.1068  0.1478
  551TMC3    C4 8174   0.638   0.642  13.396 -0.5501  0.2761 -0.5829
  551TMC3    C5 8175   0.746   0.702  13.446 -0.5450 -0.6899 -0.1149
  551TMC3    C6 8176   0.869   0.730  13.381 -0.5487  0.6320  0.3718
  551TMC3     C 8177   0.536   0.562  13.186 -0.3349  0.0303  1.2956
  551TMC3     O 8178   0.558   0.542  13.068  0.2914 -0.3192  0.4824
  551TMC3     H 8179   0.761   0.644  13.078  0.5647 -0.1574  0.0136
  551TMC3    H1 8180   0.551   0.614  13.455  1.4146 -0.5963  1.9102
  551TMC3    H2 8181   0.956   0.765  13.435 -1.8982 -1.2150  3.7151
  551TMC3    C7 8182   0.737   0.757  13.580 -0.4820 -0.7965 -0.6484
  551TMC3    C8 8183   0.972   0.743  13.164 -0.5212  0.3500 -0.9092
  551TMC3    O1 8184   0.829   0.727  13.659  0.2767  0.4677  0.0580
  551TMC3    O2 8185   1.019   0.662  13.083  0.1147 -0.0295  0.2079
  552MPD2     C 8186   2.347   3.083  13.823  0.0922  0.4900  0.4744
  552MPD2    C1 8187   2.368   2.960  13.886 -0.3700 -0.3261  0.3788
  552MPD2    C2 8188   2.472   2.947  13.976  0.2861 -0.6669 -0.1713
  552MPD2    C3 8189   2.552   3.056  14.011  0.4030  0.4130 -0.9578
  552MPD2    C4 8190   2.521   3.179  13.951  0.6515 -0.0319 -0.3306
  552MPD2    C5 8191   2.421   3.194  13.866 -0.3449  0.1717 -0.4225
  552MPD2     H 8192   2.503   2.849  14.009  0.3187 -0.4327  0.5007
  552MPD2    H1 8193   2.570   3.271  13.982  2.1763 -0.7598 -0.6208
  552MPD2    H2 8194   2.263   3.101  13.757 -1.3990 -1.5898  1.7910
  552MPD2    H3 8195   2.399   3.292  13.823 -1.1781 -0.0354 -0.4626
  552MPD2     N 8196   2.662   3.052  14.097  0.1885  0.1652 -0.2253
  552MPD2    H5 8197   2.732   3.126  14.094 -1.1006  1.2800 -2.5992
  552MPD2    N1 8198   2.284   2.851  13.860  0.4050 -0.2887  0.4868
  552MPD2    H7 8199   2.305   2.765  13.911 -1.1535 -0.1264  1.3983
  553TMC3    C1 8200   2.112   2.719  13.776  0.0795 -0.4165  0.5930
  553TMC3    C2 8201   2.087   2.656  13.655 -0.7613 -0.7281  0.2435
  553TMC3    C3 8202   2.024   2.533  13.653 -0.2833  0.3415 -0.8770
  553TMC3    C4 8203   2.089   2.663  13.901  0.0009 -0.1492  0.0342
  553TMC3    C5 8204   2.014   2.548  13.895 -0.1403  0.0988  0.5321
  553TMC3    C6 8205   1.985   2.475  13.778 -0.2304  0.4637 -0.0302
  553TMC3     C 8206   2.190   2.842  13.764  0.7564 -0.2614  0.7524
  553TMC3     O 8207   2.190   2.911  13.658  0.3379 -0.0414  0.2581
  553TMC3     H 8208   2.115   2.703  13.561 -0.6546  1.0357  1.1667
  553TMC3    H1 8209   2.100   2.712  13.997  0.9761  1.6188 -0.9902
  553TMC3    H2 8210   1.937   2.378  13.787  0.0724  0.1697 -1.6302
  553TMC3    C7 8211   2.014   2.471  14.016 -0.4159  0.4346  0.5244
  553TMC3    C8 8212   2.079   2.450  13.545 -0.2389  0.5926  1.1054
  553TMC3    O1 8213   1.905   2.429  14.058  0.4059 -0.7718 -0.2952
  553TMC3    O2 8214   2.185   2.487  13.499 -0.2596 -0.1831  0.3669
  554TMC3    C1 8215   4.609   1.888  11.599  0.6485 -0.2944 -0.0678
  554TMC3    C2 8216   4.579   1.811  11.485 -0.5811  0.4873  0.4477
  554TMC3    C3 8217   4.666   1.829  11.380 -0.4222  0.0235 -0.0545
  554TMC3    C4 8218   4.715   1.972  11.606 -0.3965  0.6644 -0.7046
  554TMC3    C5 8219   0.073   1.985  11.493 -0.1612 -1.3044 -0.1178
  554TMC3    C6 8220   0.055   1.909  11.381  0.4492 -0.2035  0.5347
  554TMC3     C 8221   4.536   1.845  11.716 -0.2022  0.2963 -0.0870
  554TMC3     O 8222   4.429   1.781  11.704  0.3153  0.0005 -0.2179
  554TMC3     H 8223   4.490   1.751  11.473 -0.3030  0.4422 -1.3271
  554TMC3    H1 8224   0.005   2.038  11.691 -0.6715 -0.8980  0.5406
  554TMC3    H2 8225   0.109   1.912  11.288  0.5315  0.7304  0.6111
  554TMC3    C7 8226   0.137   2.117  11.458 -0.8210  0.7494 -0.4705
  554TMC3    C8 8227   4.623   1.798  11.250  0.1014  0.1039 -0.5039
  554TMC3    O1 8228   0.186   2.138  11.349  0.0169 -0.3928  0.9358
  554TMC3    O2 8229   4.624   1.883  11.164 -0.3561 -1.0683  0.4504
  555TMC3    C1 8230   3.097   1.290  15.030 -0.1523  0.5618  0.4786
  555TMC3    C2 8231   3.178   1.276  14.924 -0.2660  0.1177  0.5726
  555TMC3    C3 8232   3.290   1.199  14.943  0.4421  0.2835  0.4528
  555TMC3    C4 8233   3.133   1.238  15.152  0.3287  0.8830 -1.1571
  555TMC3    C5 8234   3.245   1.166  15.169 -0.4313 -0.3146  1.1255
  555TMC3    C6 8235   3.318   1.136  15.060  0.6948  0.4287 -0.2921
  555TMC3     C 8236   2.983   1.380  15.023 -0.1620  0.7426  1.0192
  555TMC3     O 8237   2.932   1.396  14.916  0.2989  0.3109 -0.6507
  555TMC3     H 8238   3.140   1.310  14.828 -1.6404 -2.6387  0.1530
  555TMC3    H1 8239   3.050   1.234  15.222  1.8208 -1.6018  0.4821
  555TMC3    H2 8240   3.390   1.056  15.059  1.1925  0.8736 -0.0074
  555TMC3    C7 8241   3.241   1.063  15.273 -0.4706  0.2266 -0.9098
  555TMC3    C8 8242   3.391   1.220  14.837  0.0671  0.2857  0.3753
  555TMC3    O1 8243   3.135   1.047  15.334 -0.0443 -0.0438  0.4723
  555TMC3    O2 8244   3.359   1.275  14.730 -0.4157 -0.1309  0.6090
  556MPD2     C 8245   1.780   3.021  11.296  0.1324 -0.1952 -0.6675
  556MPD2    C1 8246   1.665   2.940  11.291 -0.7261  0.6982  0.6328
  556MPD2    C2 8247   1.615   2.905  11.168  0.4351  0.2577 -0.2647
  556MPD2    C3 8248   1.670   2.946  11.048  0.5720  0.3565  0.1350
  556MPD2    C4 8249   1.784   3.020  11.050 -0.1520 -0.3804  0.1628
  556MPD2    C5 8250   1.828   3.059  11.173 -0.8830  0.0806 -0.6222
  556MPD2     H 8251   1.534   2.833  11.166  0.4504  0.2096  0.6089
  556MPD2    H1 8252   1.835   3.053  10.960 -0.6592  0.3203  0.1334
  556MPD2    H2 8253   1.810   3.059  11.393 -4.4234  0.3207  0.5335
  556MPD2    H3 8254   1.916   3.123  11.174 -1.1926  0.5121 -0.9540
  556MPD2     N 8255   1.596   2.913  10.926  0.4820 -0.2992  0.3200
  556MPD2    H5 8256   1.514   2.854  10.936 -0.5120  1.2388  1.1313
  556MPD2    N1 8257   1.602   2.908  11.413  0.2889  0.2380  0.1952
  556MPD2    H7 8258   1.635   2.957  11.496  0.8169  0.8051 -0.3485
  557TMC3    C1 8259   1.580   2.885  10.689 -0.9339 -0.0154  0.9761
  557TMC3    C2 8260   1.553   2.962  10.583  0.5597 -0.2870  0.7956
  557TMC3    C3 8261   1.462   2.913  10.492 -0.4796  0.1482  0.0989
  557TMC3    C4 8262   1.526   2.761  10.705  0.1661  0.2531 -1.0057
  557TMC3    C5 8263   1.445   2.712  10.609  0.8601  1.1987 -0.1074
  557TMC3    C6 8264   1.402   2.792  10.509  0.1940  0.3831 -0.2409
  557TMC3     C 8265   1.640   2.949  10.801  0.8065 -0.2484  0.5159
  557TMC3     O 8266   1.733   3.022  10.769 -0.1326  0.0238 -0.0342
  557TMC3     H 8267   1.578   3.067  10.575 -1.5483  0.1298 -0.0506
  557TMC3    H1 8268   1.555   2.694  10.785 -3.5875  0.4990  0.5958
  557TMC3    H2 8269   1.320   2.754  10.450 -1.7320  0.8663  2.1281
  557TMC3    C7 8270   1.348   2.611  10.657 -0.0648 -0.4209 -0.3467
  557TMC3    C8 8271   1.465   2.971  10.356  0.0502  0.0177  0.6181
  557TMC3    O1 8272   1.319   2.616  10.774 -0.1163  0.0382  0.2147
  557TMC3    O2 8273   1.513   3.084  10.336  0.2585  0.1269  0.2839
  558TMC3    C1 8274   4.298   0.272   9.776  0.6320 -0.6040 -0.2191
  558TMC3    C2 8275   4.297   0.190   9.886 -0.1725  0.2743  0.0031
  558TMC3    C3 8276   4.227   0.073   9.868  1.0990  0.0870 -0.9665
  558TMC3    C4 8277   4.256   0.245   9.651 -0.6062  0.5290  0.2001
  558TMC3    C5 8278   4.201   0.124   9.634  0.0680 -0.1541  0.9017
  558TMC3    C6 8279   4.186   0.034   9.740  0.2989 -0.4440  0.5963
  558TMC3     C 8280   4.372   0.399   9.795  0.8436  0.0724  0.3103
  558TMC3     O 8281   4.436   0.398   9.900  0.5615  0.0255 -0.5034
  558TMC3     H 8282   4.339   0.220   9.981 -0.3486 -1.7350  0.7108
  558TMC3    H1 8283   4.268   0.310   9.565 -0.7605 -1.6086 -1.4433
  558TMC3    H2 8284   4.136   4.663   9.730 -0.2809  0.0497 -1.3140
  558TMC3    C7 8285   4.139   0.095   9.501 -0.1540  0.3957 -0.3252
  558TMC3    C8 8286   4.209   4.701   9.976  0.6021 -0.4996  0.6123
  558TMC3    O1 8287   4.131   0.190   9.425  0.0099 -0.2326  0.0311
  558TMC3    O2 8288   4.203   4.583   9.944  0.1636  0.6449  0.0129
  559MPD2     C 8289   4.293   1.334  10.377 -0.2094 -0.1786 -0.1748
  559MPD2    C1 8290   4.208   1.258  10.453  0.2153 -0.5638  0.3275
  559MPD2    C2 8291   4.248   1.194  10.570 -0.6615  0.1750 -0.0256
  559MPD2    C3 8292   4.379   1.218  10.603 -0.6810  0.3553 -0.4717
  559MPD2    C4 8293   4.466   1.284  10.529 -0.0483 -0.3211 -0.3286
  559MPD2    C5 8294   4.427   1.340  10.409  0.0252 -0.3568  0.6310
  559MPD2     H 8295   4.176   1.151  10.638 -1.0798 -0.1056 -0.6469
  559MPD2    H1 8296   4.568   1.299  10.564  0.4324 -1.2425 -1.3100
  559MPD2    H2 8297   4.266   1.385  10.285 -1.3518  0.6108  0.5975
  559MPD2    H3 8298   4.504   1.387  10.350  1.5927 -2.6569  0.8515
  559MPD2     N 8299   4.413   1.161  10.728 -0.0543 -0.5797 -0.0503
  559MPD2    H5 8300   4.334   1.123  10.779 -0.3015  0.9642  0.6872
  559MPD2    N1 8301   4.073   1.269  10.423  0.1868  0.4556 -0.0948
  559MPD2    H7 8302   4.046   1.333  10.348  0.0763 -0.6569 -1.0030
  560TMC3    C1 8303   4.544   1.079  10.904  0.5621 -0.4787 -0.3031
  560TMC3    C2 8304   4.460   0.972  10.916  0.3713  0.4406 -0.1943
  560TMC3    C3 8305   4.461   0.908  11.033  0.2051  0.3463 -0.1415
  560TMC3    C4 8306   4.615   1.134  11.005  0.3939 -0.2350 -0.1816
  560TMC3    C5 8307   4.596   1.079  11.126 -0.2510  0.2668 -0.0355
  560TMC3    C6 8308   4.536   0.956  11.140 -0.3268  0.1397  0.3534
  560TMC3     C 8309   4.540   1.157  10.788  0.1470  1.2112  0.6158
  560TMC3     O 8310   4.636   1.230  10.770  0.2781  0.2212 -0.5066
  560TMC3     H 8311   4.404   0.933  10.831  0.3545  1.0305 -0.4545
  560TMC3    H1 8312   4.677   1.223  10.990  0.3861 -0.5560 -2.1119
  560TMC3    H2 8313   4.529   0.906  11.236  1.8512 -1.2453 -0.2125
  560TMC3    C7 8314   4.685   1.113  11.240 -0.1723 -0.4595  0.3922
  560TMC3    C8 8315   4.361   0.799  11.037 -0.4518  0.0010 -0.4020
  560TMC3    O1 8316   4.698   1.040  11.336 -0.2720  0.0558  0.1406
  560TMC3    O2 8317   4.316   0.753  10.931  0.3619 -0.1596 -0.2558
  561TMC3    C1 8318   2.363   0.440  11.423  0.0253 -0.9360  1.0086
  561TMC3    C2 8319   2.296   0.360  11.512 -0.1926 -0.7071 -0.2078
  561TMC3    C3 8320   2.184   0.413  11.574 -0.2284 -0.0852 -0.1616
  561TMC3    C4 8321   2.312   0.560  11.389  0.6306 -0.7046  0.9471
  561TMC3    C5 8322   2.198   0.607  11.440 -0.3825  0.0579  0.4193
  561TMC3    C6 8323   2.131   0.536  11.538 -0.4465 -0.3194 -0.1414
  561TMC3     C 8324   2.499   0.407  11.393 -0.7439 -0.0064  0.1674
  561TMC3     O 8325   2.527   0.289  11.372  0.2481  0.2604 -0.2363
  561TMC3     H 8326   2.324   0.258  11.537  0.5229 -1.0470 -2.4313
  561TMC3    H1 8327   2.370   0.620  11.320 -0.9591  0.7902  0.8782
  561TMC3    H2 8328   2.053   0.587  11.593 -1.3757  0.3244 -2.0371
  561TMC3    C7 8329   2.155   0.744  11.406 -0.3638  0.0277 -0.1466
  561TMC3    C8 8330   2.098   0.321  11.649 -0.3284 -0.3011 -0.3807
  561TMC3    O1 8331   2.071   0.788  11.486 -0.0507 -0.3340  0.0232
  561TMC3    O2 8332   2.143   0.208  11.666 -0.0768  0.6318  0.1855
  562TMC3    C1 8333   3.242   1.798  15.745  0.2133 -0.0578  0.3162
  562TMC3    C2 8334   3.123   1.851  15.707  0.2005 -0.4097  0.1392
  562TMC3    C3 8335   3.015   1.765  15.705 -0.1485  0.1297 -0.1749
  562TMC3    C4 8336   3.260   1.663  15.772  0.6176  0.2036  0.0914
  562TMC3    C5 8337   3.144   1.590  15.777 -0.4715  0.2898 -0.4492
  562TMC3    C6 8338   3.021   1.638  15.746 -0.3864  0.1425  0.3220
  562TMC3     C 8339   3.348   1.890  15.781  0.0674  0.0335 -0.0700
  562TMC3     O 8340   3.316   2.007  15.794 -0.7051 -0.1691  0.0856
  562TMC3     H 8341   3.112   1.959  15.698 -1.3978 -0.5843  0.1413
  562TMC3    H1 8342   3.355   1.624  15.809  0.5096 -2.1986 -2.2033
  562TMC3    H2 8343   2.934   1.574  15.747 -0.6588  0.4572 -2.1830
  562TMC3    C7 8344   3.155   1.441  15.779  0.0346  0.7244  0.8191
  562TMC3    C8 8345   2.886   1.820  15.733  0.0708  0.1972 -0.0836
  562TMC3    O1 8346   3.051   1.376  15.789 -0.3618  0.7620  1.1796
  562TMC3    O2 8347   2.818   1.752  15.810  0.0039  0.2973  0.0593
  563MPD2     C 8348   0.538   3.423  15.378 -0.2904 -0.1915 -0.5455
  563MPD2    C1 8349   0.594   3.461  15.499  0.2801  0.1371  0.8525
  563MPD2    C2 8350   0.727   3.446  15.522 -0.6593 -0.2396 -0.6108
  563MPD2    C3 8351   0.811   3.390  15.427  0.7679  0.3842 -0.5866
  563MPD2    C4 8352   0.760   3.358  15.304 -0.0000 -0.3356 -0.0532
  563MPD2    C5 8353   0.625   3.380  15.283 -0.2519  0.7332  0.1536
  563MPD2     H 8354   0.764   3.469  15.621 -1.1255 -0.8607 -0.2920
  563MPD2    H1 8355   0.822   3.340  15.217  2.3683  0.1870  1.5169
  563MPD2    H2 8356   0.433   3.433  15.355 -0.1223  0.4086 -1.0489
  563MPD2    H3 8357   0.582   3.381  15.184  0.0842 -2.1484 -0.0285
  563MPD2     N 8358   0.946   3.367  15.466 -0.2179 -0.1079 -0.1622
  563MPD2    H5 8359   0.976   3.395  15.558  0.5832  0.6592 -0.6632
  563MPD2    N1 8360   0.502   3.501  15.596  0.6376 -0.1486  0.6770
  563MPD2    H7 8361   0.406   3.495  15.566  0.5730 -0.1321  0.8795
  564TMC3    C1 8362   0.454   3.534  15.831  0.2242 -0.2988 -1.0531
  564TMC3    C2 8363   0.364   3.442  15.796  0.8509 -0.0557 -0.2184
  564TMC3    C3 8364   0.352   3.335  15.884 -0.1207  0.3397 -1.1094
  564TMC3    C4 8365   0.538   3.521  15.933 -0.3608  0.2586 -1.1736
  564TMC3    C5 8366   0.545   3.400  15.999 -0.6203 -0.3660 -0.9127
  564TMC3    C6 8367   0.451   3.309  15.973 -0.6687 -0.1510 -0.4926
  564TMC3     C 8368   0.536   3.567  15.715 -0.3810  0.0169 -0.2996
  564TMC3     O 8369   0.644   3.627  15.729 -0.5940  0.0667 -0.3182
  564TMC3     H 8370   0.290   3.466  15.721 -1.4422 -2.9479  1.0920
  564TMC3    H1 8371   0.619   3.590  15.950 -0.5859 -0.5309  3.1229
  564TMC3    H2 8372   0.472   3.219  16.029  1.2068  1.4335  1.3672
  564TMC3    C7 8373   0.684   3.346  15.990  0.9008  0.1919  0.1106
  564TMC3    C8 8374   0.324   3.217  15.813  0.4535 -0.6204  0.2664
  564TMC3    O1 8375   0.781   3.409  16.032  0.3722 -0.3033  0.1101
  564TMC3    O2 8376   0.295   3.121  15.889 -0.9523  0.1766  0.4018
  565TMC3    C1 8377   1.226   3.707  10.728 -0.1943  0.6737 -0.6303
  565TMC3    C2 8378   1.263   3.637  10.837 -0.0799 -0.2751 -0.1530
  565TMC3    C3 8379   1.198   3.520  10.866  0.0531  0.7009  0.1503
  565TMC3    C4 8380   1.121   3.673  10.641 -0.1194 -0.5193 -0.7098
  565TMC3    C5 8381   1.068   3.551  10.663 -0.1782 -0.4379  0.1510
  565TMC3    C6 8382   1.111   3.468  10.769  0.0098  0.0957  0.4449
  565TMC3     C 8383   1.300   3.825  10.696 -0.2189 -0.2366  0.1853
  565TMC3     O 8384   1.313   3.852  10.577 -0.4446 -0.3176  0.0747
  565TMC3     H 8385   1.349   3.652  10.902 -0.0246 -3.1070  0.4348
  565TMC3    H1 8386   1.113   3.713  10.540  1.1062  2.6401  0.4546
  565TMC3    H2 8387   1.054   3.379  10.789  0.3410  0.0437  1.1494
  565TMC3    C7 8388   0.993   3.486  10.555  0.8929 -0.0753 -0.4672
  565TMC3    C8 8389   1.249   3.439  10.977  0.7729  0.1425  0.4421
  565TMC3    O1 8390   0.995   3.363  10.563  0.5654  0.2182 -0.1091
  565TMC3    O2 8391   1.334   3.492  11.056 -0.1773 -0.4925 -0.0634
  566MPD2     C 8392   3.121   0.707  14.012 -0.1286  0.0552 -0.7600
  566MPD2    C1 8393   3.108   0.840  14.045  0.4033 -0.4783 -0.0043
  566MPD2    C2 8394   3.034   0.923  13.958 -0.4143 -0.2318  0.5468
  566MPD2    C3 8395   2.984   0.872  13.835  0.2110  0.7597 -0.4672
  566MPD2    C4 8396   3.003   0.738  13.803 -0.7269 -0.3191 -0.1105
  566MPD2    C5 8397   3.071   0.666  13.893 -0.1917  0.1753 -0.0310
  566MPD2     H 8398   2.997   1.019  13.992  0.6707 -0.0542  1.2225
  566MPD2    H1 8399   2.958   0.690  13.717  0.1915 -0.6313 -0.4084
  566MPD2    H2 8400   3.163   0.637  14.083 -0.6993  0.5248  0.0490
  566MPD2    H3 8401   3.087   0.561  13.868 -1.1833  0.0158 -0.0013
  566MPD2     N 8402   2.907   0.955  13.752  0.6991 -0.7323 -0.5363
  566MPD2    H5 8403   2.860   0.896  13.684 -0.7311  0.6304 -0.7302
  566MPD2    N1 8404   3.158   0.883  14.168  0.3771  0.1772 -0.8338
  566MPD2    H7 8405   3.194   0.823  14.242  2.9275  1.0128 -1.3998
  567TMC3    C1 8406   3.230   1.034  14.328  0.3091 -0.9005 -0.1927
  567TMC3    C2 8407   3.291   1.161  14.332  0.6432 -0.2370  0.1217
  567TMC3    C3 8408   3.405   1.176  14.409 -0.5256 -0.3092 -0.6678
  567TMC3    C4 8409   3.255   0.932  14.410 -0.6033  0.5927  0.6310
  567TMC3    C5 8410   3.367   0.952  14.485  0.2832  0.0513  0.6144
  567TMC3    C6 8411   3.444   1.066  14.485 -0.8766  0.2767  0.3416
  567TMC3     C 8412   3.157   1.013  14.205  0.5447  0.1420  0.6648
  567TMC3     O 8413   3.128   1.114  14.137  0.2264 -0.1206  0.0740
  567TMC3     H 8414   3.241   1.246  14.286  1.4305  0.6307  0.8622
  567TMC3    H1 8415   3.199   0.839  14.413  1.6869 -0.7632  1.2697
  567TMC3    H2 8416   3.515   1.076  14.567 -0.9013 -0.6104  0.4717
  567TMC3    C7 8417   3.359   0.893  14.617 -0.1990 -0.7508  0.0837
  567TMC3    C8 8418   3.503   1.266  14.359  0.1586 -0.0500 -0.2356
  567TMC3    O1 8419   3.464   0.878  14.677  0.3732  0.3866  0.1655
  567TMC3    O2 8420   3.464   1.377  14.325  0.1918  0.1444 -0.1344
  568MPD2     C 8421   0.479   1.850  16.147  0.0189  0.3509 -0.7635
  568MPD2    C1 8422   0.592   1.933  16.183 -0.7857 -0.1576  0.8624
  568MPD2    C2 8423   0.612   2.055  16.120  0.4905 -0.0941  0.3166
  568MPD2    C3 8424   0.519   2.103  16.030  0.8518  0.7507 -0.4943
  568MPD2    C4 8425   0.414   2.015  15.987 -0.4157 -0.4223  0.2368
  568MPD2    C5 8426   0.396   1.894  16.049  0.5223  0.0750 -0.1139
  568MPD2     H 8427   0.684   2.126  16.160  2.1970 -2.1189  0.8504
  568MPD2    H1 8428   0.343   2.041  15.908 -1.9754 -3.5396  0.6206
  568MPD2    H2 8429   0.457   1.756  16.197  0.8072  1.2379  1.2785
  568MPD2    H3 8430   0.309   1.829  16.039  0.2035  0.4717  0.0653
  568MPD2     N 8431   0.539   2.236  15.992 -0.2156 -0.3608  0.5629
  568MPD2    H5 8432   0.618   2.280  16.039  1.0124 -0.9295 -0.9660
  568MPD2    N1 8433   0.676   1.881  16.285 -0.0433  0.4683  0.3857
  568MPD2    H7 8434   0.642   1.803  16.341 -0.3824  0.3362 -0.0068
  569TMC3    C1 8435   0.531   2.433  15.882 -0.4697 -0.1554 -0.1757
  569TMC3    C2 8436   0.562   2.493  15.997 -0.1654  0.0876  0.0238
  569TMC3    C3 8437   0.627   2.605  15.997 -0.2616  0.0180  0.9390
  569TMC3    C4 8438   0.582   2.472  15.763  0.5880 -0.5361 -0.2058
  569TMC3    C5 8439   0.665   2.583  15.767 -0.1326  0.2005 -0.3466
  569TMC3    C6 8440   0.682   2.651  15.881 -0.3138  0.0659 -0.0965
  569TMC3     C 8441   0.487   2.291  15.882  0.1352  0.3435 -0.5077
  569TMC3     O 8442   0.442   2.238  15.784  0.0196  0.2782 -0.0734
  569TMC3     H 8443   0.505   2.460  16.083 -0.8567  0.5997 -0.2383
  569TMC3    H1 8444   0.561   2.410  15.676  0.2034  0.3575 -0.7500
  569TMC3    H2 8445   0.742   2.741  15.877 -0.0807 -0.0607  0.4487
  569TMC3    C7 8446   0.640   2.676  15.655 -0.4319 -0.5104 -0.1451
  569TMC3    C8 8447   0.563   2.702  16.082 -0.5199  0.0952  0.0760
  569TMC3    O1 8448   0.673   2.643  15.542  0.0587  0.7233 -0.1927
  569TMC3    O2 8449   0.451   2.676  16.130 -0.6451 -0.5809  0.4448
  570TMC3    C1 8450   4.570   0.676  16.460 -0.3272  0.0444 -0.0480
  570TMC3    C2 8451   4.606   0.613  16.345 -0.2005  0.8042 -0.4177
  570TMC3    C3 8452   4.644   0.687  16.228  0.3584  0.0958 -0.3982
  570TMC3    C4 8453   4.547   0.814  16.456  0.6692  0.4351 -0.1639
  570TMC3    C5 8454   4.580   0.884  16.340  0.3218  0.0012  0.3494
  570TMC3    C6 8455   4.635   0.826  16.232 -0.2209 -0.2778 -0.0999
  570TMC3     C 8456   4.564   0.608  16.586  0.8984  0.3426 -0.4718
  570TMC3     O 8457   4.577   0.485  16.592 -0.6781  0.0904  0.5826
  570TMC3     H 8458   4.612   0.505  16.345  0.4117  0.8394 -1.7794
  570TMC3    H1 8459   4.493   0.867  16.534  0.8159 -2.5790  1.9786
  570TMC3    H2 8460   4.657   0.874  16.137  0.8466 -0.5814 -0.0137
  570TMC3    C7 8461   4.546   1.028  16.337  0.1829  0.1530  0.3643
  570TMC3    C8 8462   4.711   0.615  16.116  0.3315  0.7396  0.6329
  570TMC3    O1 8463   4.542   1.095  16.433  0.1285 -0.1356 -0.2536
  570TMC3    O2 8464   4.690   0.498  16.102 -0.0831  0.3188  0.1864
  571MPD2     C 8465   2.630   2.410  17.660  0.6113 -0.0261  0.5887
  571MPD2    C1 8466   2.748   2.376  17.606  0.4723  0.3234  0.2696
  571MPD2    C2 8467   2.848   2.465  17.586  0.1988  0.8968  0.4559
  571MPD2    C3 8468   2.828   2.599  17.614 -0.3777  0.4383 -1.1505
  571MPD2    C4 8469   2.710   2.640  17.666 -0.1017 -0.1662 -0.0438
  571MPD2    C5 8470   2.612   2.547  17.686 -0.7131 -0.7163 -0.2720
  571MPD2     H 8471   2.950   2.438  17.558  0.1610  0.5651  0.6332
  571MPD2    H1 8472   2.703   2.740   0.007 -0.2931 -0.5279  0.8035
  571MPD2    H2 8473   2.550   2.344  17.691  2.1345 -1.4564  1.4765
  571MPD2    H3 8474   2.519   2.580   0.030  1.5642 -0.2582  4.1444
  571MPD2     N 8475   2.922   2.704  17.607  0.1833  0.0072  0.4428
  571MPD2    H5 8476   2.897   2.786  17.661 -1.9443  0.9626 -1.9677
  571MPD2    N1 8477   2.761   2.234  17.578  0.2877 -0.0622  0.3671
  571MPD2    H7 8478   2.687   2.170  17.605  0.6167 -0.0648  1.2910
  572TMC3    C1 8479   3.135   2.799  17.606 -0.2488  0.6284  0.1488
  572TMC3    C2 8480   3.266   2.761  17.635 -0.2445 -0.0149 -0.5318
  572TMC3    C3 8481   3.339   2.849   0.011 -0.3791  0.3069  0.4608
  572TMC3    C4 8482   3.079   2.916  17.645 -0.0065 -1.0037  0.2325
  572TMC3    C5 8483   3.165   3.004  17.699 -0.3889 -0.9267 -0.6768
  572TMC3    C6 8484   3.290   2.970   0.046  0.2946  0.5942  0.7266
  572TMC3     C 8485   3.054   2.690  17.566 -0.2789  0.0473  0.2124
  572TMC3     O 8486   3.101   2.599  17.495  0.3725 -0.3630 -0.0363
  572TMC3     H 8487   3.292   2.656  17.636 -0.7223 -0.1301 -0.3036
  572TMC3    H1 8488   2.981   2.944  17.609  0.0567  0.2629  1.0285
  572TMC3    H2 8489   3.348   3.043   0.100 -0.4319  1.3831  0.4339
  572TMC3    C7 8490   3.112   3.138   0.026 -1.0899  0.3081  0.1777
  572TMC3    C8 8491   3.473   2.813   0.054  0.0637 -0.0913 -0.2546
  572TMC3    O1 8492   2.990   3.156   0.010  0.4072 -0.0110 -0.2149
  572TMC3    O2 8493   3.522   2.719  17.692  0.4289 -0.1500 -0.0571
  573MPD2     C 8494   3.845   3.561   0.522  0.4902  0.2821  0.2749
  573MPD2    C1 8495   3.952   3.478   0.553 -0.7211  0.0804  0.0177
  573MPD2    C2 8496   4.040   3.440   0.456 -0.0449 -0.7822  0.1186
  573MPD2    C3 8497   4.039   3.505   0.332 -0.0825  0.0389  0.4386
  573MPD2    C4 8498   3.937   3.591   0.299 -0.0275 -0.4412  0.2405
  573MPD2    C5 8499   3.846   3.609   0.397 -0.5725 -0.3828  0.0420
  573MPD2     H 8500   4.112   3.360   0.472  0.5331 -0.3792 -0.5204
  573MPD2    H1 8501   3.913   3.634   0.202 -0.0543 -2.2878 -0.5705
  573MPD2    H2 8502   3.761   3.584   0.587 -0.2103  0.0210 -0.5306
  573MPD2    H3 8503   3.769   3.682   0.373  1.1689  1.2512 -0.5317
  573MPD2     N 8504   4.128   3.475   0.230 -0.3098  0.7587  0.6033
  573MPD2    H5 8505   4.100   3.500   0.135 -0.1867  1.8916  0.8601
  573MPD2    N1 8506   3.960   3.410   0.678  0.1098  0.2048 -0.1279
  573MPD2    H7 8507   3.883   3.444   0.735  0.1113  2.0287 -1.1889
  574TMC3    C1 8508   4.313   3.391   0.126  0.2971 -0.7691  0.2646
  574TMC3    C2 8509   4.234   3.367   0.014  0.1807 -0.3334 -0.6925
  574TMC3    C3 8510   4.294   3.396  17.592  1.2097 -0.2840  0.5245
  574TMC3    C4 8511   4.439   3.438   0.121  0.5966 -1.1375 -1.0409
  574TMC3    C5 8512   4.500   3.421  17.699  0.0707  0.3692  0.2667
  574TMC3    C6 8513   4.425   3.418  17.584  0.3807 -0.1036 -0.5935
  574TMC3     C 8514   4.246   3.414   0.251  0.9137  0.9222  0.1038
  574TMC3     O 8515   4.319   3.423   0.346 -0.2134 -0.2365 -0.3256
  574TMC3     H 8516   4.138   3.319   0.024  0.6214 -0.9584  0.5356
  574TMC3    H1 8517   4.494   3.452   0.213  0.3273  0.8367 -1.1653
  574TMC3    H2 8518   4.465   3.424  17.483 -1.4259 -0.9195 -1.3504
  574TMC3    C7 8519   4.642   3.454  17.680 -0.1590 -0.3798  0.0509
  574TMC3    C8 8520   4.231   3.351  17.469 -0.3137 -0.0449  0.2122
  574TMC3    O1 8521   4.694   3.427  17.573  0.4486 -0.2251  0.3143
  574TMC3    O2 8522   4.300   3.303  17.384 -0.4884  0.0807 -0.0786
  575TMC3    C1 8523   1.358   3.496  11.836  0.3372  0.5455  0.2658
  575TMC3    C2 8524   1.426   3.401  11.912  0.3185  0.6093  0.3300
  575TMC3    C3 8525   1.461   3.283  11.844  0.5166  0.5180  0.6543
  575TMC3    C4 8526   1.317   3.463  11.713 -0.1700 -0.6155  0.2684
  575TMC3    C5 8527   1.345   3.343  11.651  0.5156  0.5067 -0.4774
  575TMC3    C6 8528   1.422   3.251  11.717  0.0308 -0.2027 -0.0075
  575TMC3     C 8529   1.308   3.617  11.895  0.0688 -0.3927  0.2576
  575TMC3     O 8530   1.261   3.699  11.818 -0.4697  0.4714  0.1447
  575TMC3     H 8531   1.465   3.422  12.011 -0.3288  1.9267  0.3127
  575TMC3    H1 8532   1.262   3.532  11.650 -0.8596  0.0410  1.6001
  575TMC3    H2 8533   1.456   3.158  11.673 -1.7578 -0.1567 -1.4757
  575TMC3    C7 8534   1.329   3.344  11.505  0.1261  0.8904 -0.2926
  575TMC3    C8 8535   1.506   3.166  11.926  0.7732  0.4426 -0.1657
  575TMC3    O1 8536   1.312   3.457  11.456 -0.4727 -0.3220 -0.1015
  575TMC3    O2 8537   1.575   3.081  11.868  0.2859 -0.2098 -0.1137
  576MPD2     C 8538   0.980   0.552  12.610  0.3021 -0.0293  0.1919
  576MPD2    C1 8539   1.004   0.661  12.533  0.1688  0.2493 -0.2700
  576MPD2    C2 8540   0.968   0.785  12.584 -1.0448  0.4715 -0.1350
  576MPD2    C3 8541   0.899   0.809  12.699 -0.1202  0.0122 -0.2448
  576MPD2    C4 8542   0.872   0.700  12.772 -0.1342  0.1480 -0.1268
  576MPD2    C5 8543   0.912   0.572  12.729  0.5165 -0.0829  0.4395
  576MPD2     H 8544   1.006   0.869  12.529  0.4841  0.3382  0.7125
  576MPD2    H1 8545   0.828   0.703  12.871  0.6438  1.6131  0.1710
  576MPD2    H2 8546   0.988   0.449  12.578 -1.4611  0.0250 -0.4225
  576MPD2    H3 8547   0.886   0.483  12.785  0.6801 -1.3129 -1.4458
  576MPD2     N 8548   0.867   0.939  12.737  0.0758  0.8353  0.2082
  576MPD2    H5 8549   0.909   1.017  12.686 -0.5190  0.1782 -1.2897
  576MPD2    N1 8550   1.062   0.655  12.402 -0.0373 -0.2898  0.1178
  576MPD2    H7 8551   1.039   0.734  12.342  1.2170  0.0801  0.1295
  577TMC3    C1 8552   1.182   0.564  12.215 -0.3012 -0.4341  0.0207
  577TMC3    C2 8553   1.289   0.482  12.192 -0.1429  0.3728 -0.0644
  577TMC3    C3 8554   1.385   0.517  12.099 -0.1926  0.5348 -0.0912
  577TMC3    C4 8555   1.151   0.667  12.128 -0.1973  0.8097 -0.0107
  577TMC3    C5 8556   1.240   0.692  12.022  0.3209 -0.6280  0.4841
  577TMC3    C6 8557   1.349   0.613  12.009  0.6963 -0.2614 -1.0357
  577TMC3     C 8558   1.128   0.552  12.347  0.4425  0.3657 -0.0447
  577TMC3     O 8559   1.153   0.445  12.401  0.2399 -0.5506 -0.0890
  577TMC3     H 8560   1.319   0.405  12.263 -0.8968 -2.0499 -2.3507
  577TMC3    H1 8561   1.065   0.729  12.149 -1.8764 -2.0825  1.6853
  577TMC3    H2 8562   1.422   0.648  11.937  0.7625 -0.9264 -1.2943
  577TMC3    C7 8563   1.195   0.772  11.911  0.2734  0.5019 -0.1695
  577TMC3    C8 8564   1.496   0.420  12.091 -0.0408 -0.0410  0.1265
  577TMC3    O1 8565   1.129   0.877  11.932 -0.4262 -0.3216  0.2007
  577TMC3    O2 8566   1.511   0.345  12.184  0.0391 -0.2238 -0.1377
  578MPD2     C 8567   3.930   0.994   1.170 -0.2024  0.1368 -0.2826
  578MPD2    C1 8568   4.034   0.939   1.094 -0.1177 -0.4573 -0.1695
  578MPD2    C2 8569   4.160   0.923   1.149 -0.3060  0.6974 -0.2040
  578MPD2    C3 8570   4.188   0.941   1.281 -0.3113 -0.8756  0.3092
  578MPD2    C4 8571   4.084   0.984   1.365 -0.5604 -0.4717 -0.2595
  578MPD2    C5 8572   3.961   1.019   1.302 -0.4929  0.4460  0.2865
  578MPD2     H 8573   4.251   0.897   1.097 -0.0827  0.8578  0.1113
  578MPD2    H1 8574   4.090   0.983   1.473 -0.8871  0.1590 -0.2391
  578MPD2    H2 8575   3.828   1.009   1.134  1.1878  3.0482 -3.0529
  578MPD2    H3 8576   3.879   1.038   1.370 -0.1347  1.5579  0.4070
  578MPD2     N 8577   4.317   0.908   1.334  0.2095  0.4568  0.2357
  578MPD2    H5 8578   4.383   0.863   1.271 -1.6761 -0.3888 -1.1543
  578MPD2    N1 8579   4.008   0.920   0.952 -0.0336 -0.0683  0.1846
  578MPD2    H7 8580   3.915   0.946   0.919  1.2175  1.1374 -2.3960
  579TMC3    C1 8581   4.496   0.902   1.474 -0.4871  0.4416  0.6410
  579TMC3    C2 8582   4.581   0.975   1.550 -0.1607  0.3550 -0.0128
  579TMC3    C3 8583   4.717   0.938   1.535 -0.5044  0.1856  0.7225
  579TMC3    C4 8584   4.531   0.788   1.399  0.0401 -0.0634 -0.0380
  579TMC3    C5 8585   4.664   0.762   1.393 -0.2576  0.0407  0.3401
  579TMC3    C6 8586   0.028   0.824   1.467  0.7407 -0.8000 -0.5697
  579TMC3     C 8587   4.361   0.950   1.457  0.2365 -0.4012  0.0099
  579TMC3     O 8588   4.324   1.044   1.526  0.4013  0.0749  0.3695
  579TMC3     H 8589   4.550   1.059   1.611 -0.9625 -0.9609  1.4017
  579TMC3    H1 8590   4.461   0.710   1.372 -2.1526  1.9944 -0.3549
  579TMC3    H2 8591   0.126   0.782   1.484  0.9288  0.3340  1.0573
  579TMC3    C7 8592   4.700   0.620   1.373  0.7149  0.1127  0.2571
  579TMC3    C8 8593   0.088   0.994   1.629  0.6195  0.0513 -0.7435
  579TMC3    O1 8594   0.054   0.573   1.454  0.3015 -0.4054 -0.1879
  579TMC3    O2 8595   0.057   0.983   1.748 -0.9439  0.3538  0.1027
  580TMC3    C1 8596   3.545   4.394  11.821 -0.1177 -0.4951  0.1094
  580TMC3    C2 8597   3.539   4.317  11.708  0.1941  0.2838 -0.2037
  580TMC3    C3 8598   3.497   4.188  11.708 -0.4996 -0.0773  0.1474
  580TMC3    C4 8599   3.519   4.332  11.941 -0.4381 -0.4172 -0.4269
  580TMC3    C5 8600   3.482   4.202  11.947  0.3928 -0.1584 -0.6448
  580TMC3    C6 8601   3.463   4.125  11.830  0.2796 -0.3874 -0.2073
  580TMC3     C 8602   3.656   4.478  11.825  0.1022 -0.3584 -0.4239
  580TMC3     O 8603   3.661   4.564  11.740  0.0380 -0.1424  0.3270
  580TMC3     H 8604   3.555   4.367  11.614 -0.2436  0.2974 -0.2725
  580TMC3    H1 8605   3.508   4.398  12.026 -0.6760  0.2474 -0.9708
  580TMC3    H2 8606   3.457   4.017  11.838 -0.1479 -0.3099  0.5193
  580TMC3    C7 8607   3.518   4.138  12.075  0.1513  0.1233 -0.1885
  580TMC3    C8 8608   3.516   4.110  11.587 -0.0495 -0.2350  0.1479
  580TMC3    O1 8609   3.582   4.216  12.142 -0.2695  0.0326  0.8966
  580TMC3    O2 8610   3.448   4.012  11.583 -0.1933  0.3547  0.2432
  581MPD2     C 8611   1.757   4.150  14.949  0.3644  0.2124 -0.4085
  581MPD2    C1 8612   1.747   4.266  15.014  0.4713  0.2715  0.8636
  581MPD2    C2 8613   1.634   4.355  15.000 -0.1009  0.4594  0.1427
  581MPD2    C3 8614   1.534   4.313  14.915  0.2558  0.0293  0.0181
  581MPD2    C4 8615   1.541   4.191  14.850 -0.1992  0.6821 -0.1450
  581MPD2    C5 8616   1.656   4.121  14.863 -0.3530 -0.3707 -0.1652
  581MPD2     H 8617   1.640   4.455  15.042  1.5517 -0.1463  1.3423
  581MPD2    H1 8618   1.464   4.147  14.787  0.7285 -2.1674  0.6997
  581MPD2    H2 8619   1.841   4.086  14.973  1.2540  1.1441 -1.0538
  581MPD2    H3 8620   1.662   4.030  14.806  0.3755 -0.5642  0.2144
  581MPD2     N 8621   1.417   4.388  14.914 -0.0187 -0.0519  1.0863
  581MPD2    H5 8622   1.415   4.470  14.975  3.5431  0.5495  0.3506
  581MPD2    N1 8623   1.853   4.290  15.103 -0.2643 -0.1178  0.0335
  581MPD2    H7 8624   1.928   4.223  15.116 -0.9523 -0.6770  1.1824
  582TMC3    C1 8625   2.005   4.401  15.232  0.2451 -0.2135 -0.5581
  582TMC3    C2 8626   2.017   4.441  15.362 -0.1164  0.0131  0.1904
  582TMC3    C3 8627   2.133   4.421  15.429 -0.1072 -0.3286  0.2301
  582TMC3    C4 8628   2.103   4.333  15.162  0.0506 -0.4355  0.3630
  582TMC3    C5 8629   2.204   4.293  15.243 -0.0912 -0.0145 -0.4810
  582TMC3    C6 8630   2.223   4.335  15.368  0.0214 -0.6279 -0.1701
  582TMC3     C 8631   1.882   4.407  15.164 -0.6471  0.2814  0.0788
  582TMC3     O 8632   1.826   4.513  15.176  0.3274  0.1449  0.1021
  582TMC3     H 8633   1.930   4.480  15.416 -1.3920 -1.4365 -0.8120
  582TMC3    H1 8634   2.095   4.315  15.055 -1.5878  1.8563  0.0970
  582TMC3    H2 8635   2.318   4.304  15.410 -0.2885 -0.7075  0.4749
  582TMC3    C7 8636   2.215   4.152  15.219  0.5740  0.1002 -0.0183
  582TMC3    C8 8637   2.142   4.468  15.565 -0.2295  0.3633  0.2249
  582TMC3    O1 8638   2.271   4.108  15.118 -0.0376  0.6483  0.7269
  582TMC3    O2 8639   2.043   4.508  15.626 -0.2002  0.4466  0.1996
  583MPD2     C 8640   1.852   1.087  16.899 -0.9119  0.3619 -0.1384
  583MPD2    C1 8641   1.837   1.201  16.828  0.1413 -0.6950  0.7347
  583MPD2    C2 8642   1.840   1.321  16.893 -0.5308  0.4312  0.4609
  583MPD2    C3 8643   1.872   1.328  17.024 -0.2145  0.4908 -0.3929
  583MPD2    C4 8644   1.884   1.216  17.097 -0.6972  0.3862 -0.7439
  583MPD2    C5 8645   1.872   1.092  17.034 -0.2610 -0.3730  0.6182
  583MPD2     H 8646   1.828   1.414  16.838  1.2116  0.6594  0.4787
  583MPD2    H1 8647   1.923   1.220  17.198 -0.8511  0.1558 -0.6771
  583MPD2    H2 8648   1.852   0.991  16.849 -1.6310 -1.1271  2.7893
  583MPD2    H3 8649   1.869   0.999  17.089  1.5945 -1.0094 -0.3943
  583MPD2     N 8650   1.891   1.458  17.068  0.0709  0.5149  0.2200
  583MPD2    H5 8651   1.854   1.532  17.009 -0.8460  0.4324  0.6843
  583MPD2    N1 8652   1.829   1.207  16.681  0.2402 -0.2788 -0.1898
  583MPD2    H7 8653   1.847   1.297  16.638 -3.2700  1.2812  1.6276
  584TMC3    C1 8654   1.947   1.640  17.205 -0.5011 -0.0496 -0.2175
  584TMC3    C2 8655   1.869   1.717  17.119  0.3017  1.0463  0.1721
  584TMC3    C3 8656   1.872   1.849  17.143 -0.0729 -0.7130  0.4349
  584TMC3    C4 8657   2.018   1.688  17.313  0.7917  0.3680  0.6182
  584TMC3    C5 8658   2.015   1.818  17.329 -0.1232  0.4726  0.5038
  584TMC3    C6 8659   1.941   1.909  17.248  0.1257 -0.6026  0.3661
  584TMC3     C 8660   1.954   1.499  17.181 -0.2056 -0.3244  0.1352
  584TMC3     O 8661   2.018   1.432  17.256 -0.0974  0.5793 -0.1849
  584TMC3     H 8662   1.802   1.675  17.045  0.7133  2.1219 -0.8111
  584TMC3    H1 8663   2.075   1.618  17.374 -1.4854 -0.7367  1.5033
  584TMC3    H2 8664   1.919   2.012  17.273  0.8095 -0.5274  0.6470
  584TMC3    C7 8665   2.040   1.864  17.469  0.1534 -0.5241 -0.0257
  584TMC3    C8 8666   1.804   1.936  17.062 -0.2879  0.2525 -0.0172
  584TMC3    O1 8667   2.038   1.777  17.551 -0.0768  0.0336  0.2034
  584TMC3    O2 8668   1.696   1.899  17.019  1.0008 -0.2697  0.3988
  585MPD2     C 8669   0.562   1.209   0.504 -0.2729  0.2936  0.6818
  585MPD2    C1 8670   0.667   1.202   0.414  0.1435  0.1566  0.6017
  585MPD2    C2 8671   0.722   1.075   0.393  0.4031 -0.0356 -0.1681
  585MPD2    C3 8672   0.667   0.960   0.453 -0.0232  0.1929 -0.4240
  585MPD2    C4 8673   0.553   0.976   0.529 -0.5802  0.0472 -0.1248
  585MPD2    C5 8674   0.503   1.098   0.556 -0.6931  0.3435 -0.6255
  585MPD2     H 8675   0.804   1.063   0.323 -0.2318 -2.1720 -0.5429
  585MPD2    H1 8676   0.513   0.888   0.579  0.5403  0.0533  0.7889
  585MPD2    H2 8677   0.513   1.301   0.532  1.0771  0.9667  0.8034
  585MPD2    H3 8678   0.426   1.120   0.630  1.4939  2.7013  0.9725
  585MPD2     N 8679   0.719   0.827   0.433 -0.5399  0.1313 -0.2903
  585MPD2    H5 8680   0.668   0.745   0.465 -0.5789  0.2506 -0.0496
  585MPD2    N1 8681   0.721   1.322   0.359  0.4360 -0.3267  0.3612
  585MPD2    H7 8682   0.679   1.410   0.386  0.9425 -0.5532  1.9090
  586TMC3    C1 8683   0.866   0.671   0.326 -0.0401 -0.3283  0.9483
  586TMC3    C2 8684   1.003   0.640   0.303 -0.5198  0.2599  0.3381
  586TMC3    C3 8685   1.026   0.526   0.239 -1.0234 -0.8115  0.4915
  586TMC3    C4 8686   0.768   0.602   0.267 -0.0086  0.5147 -0.2557
  586TMC3    C5 8687   0.792   0.479   0.218  0.5192 -0.2981 -0.2999
  586TMC3    C6 8688   0.924   0.443   0.200  0.0501 -0.4360  0.3123
  586TMC3     C 8689   0.839   0.808   0.370  0.2690  0.4142  0.6060
  586TMC3     O 8690   0.934   0.883   0.359 -0.0532 -0.4181 -0.6532
  586TMC3     H 8691   1.090   0.697   0.335  0.1860 -0.9337  0.5352
  586TMC3    H1 8692   0.664   0.629   0.276 -0.0144  0.9769 -1.7769
  586TMC3    H2 8693   0.948   0.354   0.143 -3.1596  0.4625 -2.4665
  586TMC3    C7 8694   0.698   0.419   0.124 -0.4541 -0.6111  0.1389
  586TMC3    C8 8695   1.143   0.502   0.156 -0.0166 -0.6391 -0.9431
  586TMC3    O1 8696   0.692   0.296   0.122  0.1271  0.0354 -0.0805
  586TMC3    O2 8697   1.180   0.390   0.128 -0.3060 -0.1213  0.1680
  587TMC3    C1 8698   3.550   3.623  16.983  0.1492  0.6564 -0.6988
  587TMC3    C2 8699   3.541   3.757  16.967  0.6750  0.4588  0.0416
  587TMC3    C3 8700   3.638   3.814  16.900 -0.8837 -0.2822 -0.3223
  587TMC3    C4 8701   3.663   3.552  16.953 -0.6571  0.0694  0.2308
  587TMC3    C5 8702   3.759   3.612  16.878 -0.0768  0.6465 -0.3604
  587TMC3    C6 8703   3.744   3.746  16.845 -0.1715 -0.5893 -0.2897
  587TMC3     C 8704   3.434   3.546  17.040 -0.0523  0.5262 -0.1480
  587TMC3     O 8705   3.458   3.430  17.070  0.3511 -0.0754 -0.4969
  587TMC3     H 8706   3.471   3.829  17.007 -1.1706 -0.9658 -0.5914
  587TMC3    H1 8707   3.666   3.445  16.971 -2.3210 -0.4367 -2.5084
  587TMC3    H2 8708   3.812   3.798  16.778 -0.6098 -1.0810 -1.1079
  587TMC3    C7 8709   3.858   3.526  16.825 -0.2695 -0.0119 -0.0606
  587TMC3    C8 8710   3.620   3.950  16.849 -0.3218  0.0870  0.0474
  587TMC3    O1 8711   3.878   3.424  16.882  0.0579 -0.2208 -0.6379
  587TMC3    O2 8712   3.727   4.009  16.837  0.4068 -0.2339  0.1057
  588TMC3    C1 8713   1.365   1.346   9.992 -0.6491  0.1561 -0.3093
  588TMC3    C2 8714   1.335   1.213   9.979 -0.3665  0.0873  0.1821
  588TMC3    C3 8715   1.276   1.142  10.081 -0.3370  0.5291  0.2566
  588TMC3    C4 8716   1.325   1.412  10.104 -0.0442  0.2424 -0.4828
  588TMC3    C5 8717   1.263   1.330  10.202 -0.1676 -0.0927 -0.3530
  588TMC3    C6 8718   1.231   1.199  10.193  0.4993  0.6395 -0.4270
  588TMC3     C 8719   1.364   1.427   9.864 -0.4320 -0.0528 -0.2024
  588TMC3     O 8720   1.368   1.368   9.758  0.0494 -0.0013  0.2854
  588TMC3     H 8721   1.369   1.162   9.890 -0.2962  1.1085 -0.3766
  588TMC3    H1 8722   1.362   1.513  10.118 -1.0622  0.8679 -2.2869
  588TMC3    H2 8723   1.176   1.144  10.269  1.7655  1.5544  1.1664
  588TMC3    C7 8724   1.193   1.394  10.306 -0.0335  0.4238  0.4486
  588TMC3    C8 8725   1.242   1.006  10.042  0.3179 -0.3037 -0.2680
  588TMC3    O1 8726   1.178   1.346  10.420  0.5186  0.1473 -0.0874
  588TMC3    O2 8727   1.237   0.981   9.924 -0.1083  0.0235 -0.2988
  589TMC3    C1 8728   4.611   3.795   1.170 -0.0749 -0.0871 -0.5006
  589TMC3    C2 8729   4.672   3.848   1.281  0.3849 -0.5300  0.5933
  589TMC3    C3 8730   0.082   3.819   1.300  0.1646  0.4884 -0.3252
  589TMC3    C4 8731   4.688   3.715   1.081  1.1658 -0.2000 -0.4515
  589TMC3    C5 8732   0.086   3.684   1.109 -0.6482  0.0051 -0.3272
  589TMC3    C6 8733   0.151   3.731   1.221  0.0629 -0.9633  0.1827
  589TMC3     C 8734   4.488   3.852   1.137  0.1697  0.3883 -0.0709
  589TMC3     O 8735   4.455   3.847   1.020 -0.1717 -0.5257 -0.3055
  589TMC3     H 8736   4.630   3.929   1.340  0.3331 -1.2227  1.5190
  589TMC3    H1 8737   4.635   3.665   1.000 -1.0849  2.1492 -0.4572
  589TMC3    H2 8738   0.253   3.699   1.239  0.0727 -1.2500 -0.3895
  589TMC3    C7 8739   0.149   3.586   1.022 -0.3021  0.6385  0.2805
  589TMC3    C8 8740   0.140   3.887   1.414  0.3365  0.3330 -0.0329
  589TMC3    O1 8741   0.075   3.510   0.961 -1.0417  0.0229 -0.3103
  589TMC3    O2 8742   0.071   3.929   1.509  0.0752 -0.6884 -0.1175
  590MPD2     C 8743   4.362   2.751  16.784 -0.0143  0.7786 -0.4035
  590MPD2    C1 8744   4.319   2.759  16.651  0.2405  0.7331 -0.1198
  590MPD2    C2 8745   4.424   2.792  16.563 -0.0133  0.0810 -0.3446
  590MPD2    C3 8746   4.556   2.788  16.599  0.2880 -0.3661 -0.3646
  590MPD2    C4 8747   4.588   2.779  16.731  0.1633  0.1754 -0.1208
  590MPD2    C5 8748   4.488   2.764  16.824 -0.6131 -0.2742 -0.2471
  590MPD2     H 8749   4.394   2.829  16.466 -0.4464  1.0944  0.1798
  590MPD2    H1 8750   4.686   2.804  16.770  0.4778 -0.3248 -0.6032
  590MPD2    H2 8751   4.292   2.733  16.865 -0.1411  0.4301 -0.5918
  590MPD2    H3 8752   4.513   2.769  16.929  2.1116 -0.8124 -0.8756
  590MPD2     N 8753   4.650   2.819  16.498 -0.0308  0.2416  0.2324
  590MPD2    H5 8754   4.615   2.807  16.404  0.3548 -0.2368  0.1540
  590MPD2    N1 8755   4.179   2.766  16.615 -0.1736  0.6671 -0.3715
  590MPD2    H7 8756   4.111   2.752  16.689  0.3405  1.5304  0.2577
  591TMC3    C1 8757   0.116   2.918  16.393 -0.8942 -0.9924  0.3780
  591TMC3    C2 8758   0.103   2.824  16.295  0.6184 -0.1547  0.1573
  591TMC3    C3 8759   0.125   2.869  16.167  0.3361 -0.6041 -0.9423
  591TMC3    C4 8760   0.131   3.051  16.372 -0.2995 -0.0828 -0.2237
  591TMC3    C5 8761   0.151   3.091  16.242  0.2264 -0.6645 -0.2202
  591TMC3    C6 8762   0.141   3.003  16.138  0.1379 -0.3219 -0.5480
  591TMC3     C 8763   0.048   2.883  16.514 -0.1069 -0.8172  0.0903
  591TMC3     O 8764   0.102   2.928  16.612  0.9320  0.1450 -0.3154
  591TMC3     H 8765   0.094   2.719  16.317  0.2557 -0.0441  0.5413
  591TMC3    H1 8766   0.145   3.119  16.455 -0.5902  0.8522 -0.9403
  591TMC3    H2 8767   0.131   3.036  16.036  2.0234 -1.2162 -1.0327
  591TMC3    C7 8768   0.159   3.237  16.215 -0.1113  0.0643 -0.0038
  591TMC3    C8 8769   0.098   2.772  16.058  0.1412 -0.2222  0.0943
  591TMC3    O1 8770   0.239   3.301  16.280  0.0145  0.3023 -0.2810
  591TMC3    O2 8771   0.058   2.661  16.093 -0.2571 -0.3454 -0.1263
  592MPD2     C 8772   4.667   4.213  11.335  0.0418 -0.6876 -0.0617
  592MPD2    C1 8773   4.667   4.277  11.455 -0.3418  0.0475 -0.5461
  592MPD2    C2 8774   4.586   4.248  11.561  1.1096 -0.4270  0.5611
  592MPD2    C3 8775   4.517   4.129  11.546  0.3284 -0.8056  0.1320
  592MPD2    C4 8776   4.527   4.053  11.435  0.3171  0.1202 -0.1245
  592MPD2    C5 8777   4.598   4.097  11.326  0.3346 -0.0566  0.3146
  592MPD2     H 8778   4.585   4.313  11.647 -0.4689  2.7347 -1.8479
  592MPD2    H1 8779   4.482   3.956  11.422  1.8524 -0.4225 -1.4002
  592MPD2    H2 8780   4.722   4.252  11.250  0.9263 -0.9023  0.4131
  592MPD2    H3 8781   4.600   4.039  11.234  1.1974 -0.6166  0.6801
  592MPD2     N 8782   4.428   4.096  11.653  0.3849  0.2095 -0.0464
  592MPD2    H5 8783   4.409   4.157  11.732  2.1284 -0.9203  1.2689
  592MPD2    N1 8784   0.043   4.373  11.463 -0.3481  0.2554 -0.0135
  592MPD2    H7 8785   0.108   4.367  11.385 -1.4818  0.4438 -0.9642
  593TMC3    C1 8786   0.206   4.531  11.556  0.7644  0.1462 -0.3015
  593TMC3    C2 8787   0.234   4.627  11.652 -0.1335  0.3033 -0.3697
  593TMC3    C3 8788   0.336   4.709  11.617 -0.0338  0.2704 -0.1989
  593TMC3    C4 8789   0.267   4.528  11.433 -0.3767  0.3226 -0.0145
  593TMC3    C5 8790   0.379   4.606  11.415  0.6433 -0.4401 -0.1877
  593TMC3    C6 8791   0.407   4.706  11.503  0.1732  0.2839 -0.3877
  593TMC3     C 8792   0.083   4.450  11.577  0.5399  0.3852  0.4290
  593TMC3     O 8793   0.032   4.450  11.687  0.0535 -0.0859 -0.2322
  593TMC3     H 8794   0.193   4.628  11.752 -0.3712  1.5072 -0.4781
  593TMC3    H1 8795   0.244   4.445  11.368 -1.3857  0.5756  0.0182
  593TMC3    H2 8796   0.490   0.049  11.488  1.0036  0.1884  3.7411
  593TMC3    C7 8797   0.435   4.631  11.284 -0.2506  0.5651  1.2076
  593TMC3    C8 8798   0.361   0.087  11.721 -0.0749  0.2930 -0.3692
  593TMC3    O1 8799   0.522   4.723  11.281 -0.2467 -0.0427  0.3008
  593TMC3    O2 8800   0.267   0.152  11.773  0.2633  0.5073  0.5555
  594MPD2     C 8801   3.307   3.063  13.954 -0.7664  0.1909 -0.9135
  594MPD2    C1 8802   3.298   3.090  14.091  0.3065 -0.4014  0.7293
  594MPD2    C2 8803   3.406   3.147  14.158  0.5169  0.2092 -0.2714
  594MPD2    C3 8804   3.517   3.183  14.083 -0.1501 -0.5864  0.4681
  594MPD2    C4 8805   3.514   3.166  13.948 -0.0742 -0.3996 -1.0611
  594MPD2    C5 8806   3.414   3.107  13.883  0.2163  0.2377  0.2315
  594MPD2     H 8807   3.396   3.162  14.265 -1.3435 -1.0991 -0.2640
  594MPD2    H1 8808   3.599   3.193  13.887  0.6884 -0.1474  0.1030
  594MPD2    H2 8809   3.222   3.029  13.895  1.1056 -1.2886 -2.7540
  594MPD2    H3 8810   3.408   3.112  13.775 -1.7473 -0.9411  0.2906
  594MPD2     N 8811   3.623   3.242  14.149  0.5188  0.0782 -0.2816
  594MPD2    H5 8812   3.612   3.267  14.246  0.3637 -0.4991 -0.1515
  594MPD2    N1 8813   3.179   3.048  14.153  0.0167 -0.0369 -0.3675
  594MPD2    H7 8814   3.112   2.987  14.107  0.8002 -0.8169 -0.4841
  595TMC3    C1 8815   3.963   3.556  14.192  0.4724  0.1837  0.3858
  595TMC3    C2 8816   3.922   3.441  14.137 -0.2466  0.0633 -0.2051
  595TMC3    C3 8817   3.805   3.385  14.182 -0.1107  0.2841  0.3054
  595TMC3    C4 8818   3.885   3.639  14.270 -0.2108  0.3683 -0.4931
  595TMC3    C5 8819   3.760   3.592  14.292  0.4592 -0.4300  0.4489
  595TMC3    C6 8820   3.718   3.466  14.256  0.0774  0.4266  0.2895
  595TMC3     C 8821   4.087   3.609  14.143 -0.3694  0.2242  0.4408
  595TMC3     O 8822   4.087   3.726  14.126 -0.3411  0.6111  0.4287
  595TMC3     H 8823   3.989   3.389  14.069 -0.1367  1.4072 -1.1078
  595TMC3    H1 8824   3.926   3.729  14.315 -0.1132 -0.5052  1.1896
  595TMC3    H2 8825   3.614   3.436  14.259 -0.0615  0.6274 -2.2966
  595TMC3    C7 8826   3.675   3.682  14.371  0.1452  0.1092  0.4054
  595TMC3    C8 8827   3.748   3.276  14.100  0.0536  0.0333  1.1600
  595TMC3    O1 8828   3.573   3.632  14.426  0.4537  0.1571  0.2101
  595TMC3    O2 8829   3.801   3.250  13.995 -0.4686  0.1025  0.1427
  596MPD2     C 8830   2.646   1.265  16.394  0.9016 -0.5963 -0.2109
  596MPD2    C1 8831   2.520   1.330  16.379  0.0270  0.2084 -0.0521
  596MPD2    C2 8832   2.466   1.312  16.248 -0.1679 -0.6811 -0.5671
  596MPD2    C3 8833   2.510   1.219  16.153  0.5197 -0.1378 -1.1943
  596MPD2    C4 8834   2.620   1.142  16.188 -0.8613 -0.5899  0.3418
  596MPD2    C5 8835   2.691   1.171  16.299 -0.1171  0.4884 -0.1886
  596MPD2     H 8836   2.375   1.368  16.233 -0.2505 -0.3036  1.3486
  596MPD2    H1 8837   2.657   1.061  16.127 -0.5956  1.5771 -2.3626
  596MPD2    H2 8838   2.710   1.282  16.479 -0.5149  0.9520  0.5454
  596MPD2    H3 8839   2.779   1.110  16.314 -1.5327 -0.8945  2.4245
  596MPD2     N 8840   2.437   1.195  16.032 -0.8156 -0.3105 -0.0879
  596MPD2    H5 8841   2.456   1.112  15.977 -0.9897  0.9382 -2.0091
  596MPD2    N1 8842   2.461   1.420  16.475  0.8922 -0.2164  0.6062
  596MPD2    H7 8843   2.375   1.467  16.447 -0.3227 -3.2951 -0.7804
  597TMC3    C1 8844   2.493   1.590  16.649 -0.2603  0.7738  0.5741
  597TMC3    C2 8845   2.433   1.683  16.573  0.9465  0.5835 -0.1583
  597TMC3    C3 8846   2.413   1.810  16.622  0.2327  0.0077  0.0935
  597TMC3    C4 8847   2.514   1.612  16.783 -0.6888 -0.5208 -0.4574
  597TMC3    C5 8848   2.503   1.732  16.836  0.2066 -1.0172  0.1098
  597TMC3    C6 8849   2.441   1.837  16.760 -0.3913 -0.9711 -0.1157
  597TMC3     C 8850   2.525   1.455  16.594 -0.7655 -0.2627 -0.4775
  597TMC3     O 8851   2.592   1.381  16.668  0.4210  0.1018  0.3654
  597TMC3     H 8852   2.415   1.661  16.468  2.1517  0.2251 -0.2959
  597TMC3    H1 8853   2.545   1.530  16.846 -3.5755 -0.2290  1.3487
  597TMC3    H2 8854   2.422   1.937  16.799  0.2850 -1.1418  0.6647
  597TMC3    C7 8855   2.509   1.743  16.986 -0.7449 -0.3219 -0.0940
  597TMC3    C8 8856   2.383   1.919  16.531 -0.0894 -0.7571 -0.0146
  597TMC3    O1 8857   2.507   1.648  17.065 -0.7946 -0.3184 -0.0464
  597TMC3    O2 8858   2.351   1.885  16.420 -0.1343  0.5437 -0.6398
  598TMC3    C1 8859   1.071   2.624  15.528 -0.0744 -0.0262  0.0029
  598TMC3    C2 8860   0.972   2.636  15.437  0.1624  0.0280 -0.2562
  598TMC3    C3 8861   0.987   2.740  15.347 -0.0860 -0.0181  0.5232
  598TMC3    C4 8862   1.181   2.710  15.532  0.5772 -0.2263 -0.6700
  598TMC3    C5 8863   1.182   2.817  15.448  0.0292 -0.0862  0.5623
  598TMC3    C6 8864   1.095   2.831  15.344 -1.1537 -0.1258  0.2560
  598TMC3     C 8865   1.085   2.494  15.588  0.0098 -0.8053  0.3247
  598TMC3     O 8866   1.185   2.487  15.655  0.2648  0.0014 -0.3315
  598TMC3     H 8867   0.900   2.557  15.417 -0.6019  1.4354 -3.0843
  598TMC3    H1 8868   1.247   2.701  15.617  0.5221 -3.6281 -0.9830
  598TMC3    H2 8869   1.080   2.914  15.276  0.5510 -0.6774 -0.8076
  598TMC3    C7 8870   1.298   2.897  15.448  0.0781 -0.1552 -0.2035
  598TMC3    C8 8871   0.892   2.742  15.237 -0.0518  0.1432  0.7806
  598TMC3    O1 8872   1.392   2.858  15.516 -0.2286  0.2948 -0.1250
  598TMC3    O2 8873   0.933   2.778  15.130 -0.5753  0.1093  0.0852
  599MPD2     C 8874   0.618   0.225  15.652 -1.0392  0.6044 -0.2575
  599MPD2    C1 8875   0.705   0.275  15.747 -0.5007 -0.0355 -0.6935
  599MPD2    C2 8876   0.657   0.361  15.848  0.8463  0.2835  0.0771
  599MPD2    C3 8877   0.522   0.387  15.858  0.1739 -0.8290  0.5831
  599MPD2    C4 8878   0.441   0.335  15.764 -0.5502 -0.4306 -0.3449
  599MPD2    C5 8879   0.486   0.267  15.653  0.0653  0.1811 -0.0042
  599MPD2     H 8880   0.728   0.405  15.918  0.6915  0.0544  0.3806
  599MPD2    H1 8881   0.336   0.354  15.748 -1.0554 -2.3312  0.6700
  599MPD2    H2 8882   0.664   0.183  15.563  2.4848 -0.9005  2.2708
  599MPD2    H3 8883   0.414   0.237  15.578  0.1223  1.5561 -0.6149
  599MPD2     N 8884   0.453   0.460  15.957  0.4010  0.7136 -0.2570
  599MPD2    H5 8885   0.352   0.452  15.957  0.6239 -2.2036  0.1673
  599MPD2    N1 8886   0.845   0.232  15.735 -0.0439  0.2142 -0.1560
  599MPD2    H7 8887   0.866   0.172  15.656 -0.7053 -2.4674  1.7406
  600TMC3    C1 8888   0.427   0.599  16.141 -0.5820  0.3002 -0.3340
  600TMC3    C2 8889   0.345   0.510  16.191 -0.1654  0.1865  0.6064
  600TMC3    C3 8890   0.263   0.552  16.292 -0.5453 -0.0816 -0.8056
  600TMC3    C4 8891   0.434   0.736  16.170 -0.2408 -0.0125  0.0728
  600TMC3    C5 8892   0.344   0.773  16.267 -0.2944 -0.3428 -0.2607
  600TMC3    C6 8893   0.255   0.687  16.335 -0.3379  0.1730  0.3688
  600TMC3     C 8894   0.519   0.542  16.044 -0.0938 -0.4078 -0.3366
  600TMC3     O 8895   0.638   0.559  16.065  0.5492 -0.2615 -0.3885
  600TMC3     H 8896   0.367   0.405  16.176  1.0544  0.6841 -1.1606
  600TMC3    H1 8897   0.498   0.794  16.105 -1.4701  3.2070  1.7319
  600TMC3    H2 8898   0.190   0.715  16.417 -0.4093  0.7449  0.1141
  600TMC3    C7 8899   0.324   0.915  16.302 -0.5147  0.2069 -0.4263
  600TMC3    C8 8900   0.179   0.452  16.367 -0.0567  0.5005  0.2169
  600TMC3    O1 8901   0.211   0.939  16.339  0.4378  0.7155  0.4396
  600TMC3    O2 8902   0.135   0.481  16.474  0.0438 -0.6734 -0.0779
  601MPD2     C 8903   3.139   3.649   0.030  0.1654  0.2084  0.3721
  601MPD2    C1 8904   3.027   3.562   0.031  0.5126 -0.1085 -0.3208
  601MPD2    C2 8905   3.050   3.429   0.038 -0.7642 -0.2719  0.0388
  601MPD2    C3 8906   3.173   3.369   0.055  0.5518 -0.3743 -0.5509
  601MPD2    C4 8907   3.275   3.459   0.061  0.5270  0.9395  0.4924
  601MPD2    C5 8908   3.259   3.595   0.051 -0.6253 -0.1346  0.2393
  601MPD2     H 8909   2.957   3.374   0.031 -1.1407  0.0926  2.2561
  601MPD2    H1 8910   3.379   3.428   0.064  1.1700  3.2446  1.6288
  601MPD2    H2 8911   3.136   3.755   0.012  2.8767  0.2576  0.1983
  601MPD2    H3 8912   3.345   3.661   0.058 -1.0383  0.1484  2.4391
  601MPD2     N 8913   3.204   3.232   0.050  0.2052  0.1829 -0.0157
  601MPD2    H5 8914   3.301   3.202   0.055  0.2607  0.2062 -0.9322
  601MPD2    N1 8915   2.890   3.605   0.035 -0.1247  0.5982 -0.3653
  601MPD2    H7 8916   2.814   3.544   0.010  1.6753 -1.1757 -1.5178
  602TMC3    C1 8917   2.718   3.785   0.035  0.0124  0.1092 -0.1250
  602TMC3    C2 8918   2.699   3.914   0.029 -0.1355  0.4738  0.1046
  602TMC3    C3 8919   2.612   3.957  17.630  0.4147  0.3462  0.6797
  602TMC3    C4 8920   2.640   3.691  17.674 -0.2994 -0.7324 -0.0568
  602TMC3    C5 8921   2.545   3.738  17.584 -0.1064  0.6389 -0.0069
  602TMC3    C6 8922   2.530   3.878  17.558  0.1911  0.3509  0.0758
  602TMC3     C 8923   2.856   3.739   0.067 -0.2461  0.0894 -0.2875
  602TMC3     O 8924   2.925   3.830   0.108  0.0427 -0.1995 -0.1300
  602TMC3     H 8925   2.741   3.988   0.096 -0.4391  0.9485 -0.2281
  602TMC3    H1 8926   2.658   3.586  17.692  3.1824  0.0726  1.1639
  602TMC3    H2 8927   2.490   3.918  17.466 -0.5240  0.3161  0.3682
  602TMC3    C7 8928   2.437   3.658  17.535  0.3757 -0.3410 -0.1492
  602TMC3    C8 8929   2.582   4.100  17.635  0.0604 -0.1025  0.2061
  602TMC3    O1 8930   2.476   3.542  17.518  0.3543 -0.5834  0.1255
  602TMC3    O2 8931   2.667   4.178  17.676  0.4590  0.2759 -0.0033
  603TMC3    C1 8932   0.900   3.097  11.160 -0.0581  0.5043  0.2911
  603TMC3    C2 8933   0.965   3.099  11.281  0.0400 -0.1233  0.1451
  603TMC3    C3 8934   0.958   3.216  11.353  0.2625 -0.0585  0.2687
  603TMC3    C4 8935   0.822   3.203  11.106  0.3051  0.3343 -0.2253
  603TMC3    C5 8936   0.821   3.317  11.193 -0.2165  0.3435  0.2306
  603TMC3    C6 8937   0.905   3.331  11.298  0.0428 -0.0105  1.0846
  603TMC3     C 8938   0.895   2.963  11.107 -1.0305  0.1145 -0.0546
  603TMC3     O 8939   0.916   2.862  11.173  0.3453 -0.1550 -0.2721
  603TMC3     H 8940   1.022   3.015  11.319 -0.0272  0.3355  1.2630
  603TMC3    H1 8941   0.754   3.165  11.030 -1.6377  0.2725  1.5401
  603TMC3    H2 8942   0.880   3.416  11.360 -1.1513  0.4579 -0.0366
  603TMC3    C7 8943   0.703   3.397  11.189 -0.2771 -0.2125 -0.0225
  603TMC3    C8 8944   0.995   3.205  11.492  0.0915  0.6461  0.2476
  603TMC3    O1 8945   0.683   3.498  11.255 -0.7791  0.3992 -0.0068
  603TMC3    O2 8946   1.020   3.097  11.540 -0.8097 -0.5619  0.2435
  604MPD2     C 8947   1.369   2.282  16.230 -0.3493 -0.2595 -0.5899
  604MPD2    C1 8948   1.394   2.372  16.131 -0.6947  0.2087 -0.0029
  604MPD2    C2 8949   1.423   2.325  16.005 -0.0842  0.4890  0.0434
  604MPD2    C3 8950   1.405   2.188  15.971  0.0543 -0.6637  0.5401
  604MPD2    C4 8951   1.368   2.102  16.079 -0.4213 -0.2261  0.4381
  604MPD2    C5 8952   1.365   2.148  16.207  0.9261 -0.0032 -0.5812
  604MPD2     H 8953   1.451   2.403  15.935 -1.4604  2.2694  1.4933
  604MPD2    H1 8954   1.358   1.995  16.063 -0.6189 -0.2223  0.5313
  604MPD2    H2 8955   1.356   2.318  16.331  0.9330 -0.5668 -0.3167
  604MPD2    H3 8956   1.333   2.077  16.282 -0.9597  1.3915 -0.0547
  604MPD2     N 8957   1.410   2.148  15.834 -0.9573 -0.1861  0.6236
  604MPD2    H5 8958   1.448   2.220  15.775  0.1352 -1.6903 -0.5159
  604MPD2    N1 8959   1.385   2.508  16.168 -0.3191  0.0995 -0.0555
  604MPD2    H7 8960   1.361   2.530  16.264  1.3500  1.5751  0.0320
  605TMC3    C1 8961   1.334   2.731  16.161  0.2690 -0.1916  0.3104
  605TMC3    C2 8962   1.406   2.766  16.273 -0.5444  0.3406  0.0065
  605TMC3    C3 8963   1.384   2.887  16.332  0.0362  0.4349  0.2856
  605TMC3    C4 8964   1.241   2.814  16.104 -0.0258 -0.5206  0.6815
  605TMC3    C5 8965   1.215   2.931  16.165 -0.3835 -0.1640  0.3517
  605TMC3    C6 8966   1.285   2.968  16.271 -0.3607  0.1773  0.1742
  605TMC3     C 8967   1.366   2.615  16.083  1.1012 -0.1063  0.5550
  605TMC3     O 8968   1.352   2.620  15.965  0.1493  0.3633 -0.0092
  605TMC3     H 8969   1.496   2.713  16.301 -1.9372 -2.4501 -0.8083
  605TMC3    H1 8970   1.187   2.777  16.018 -0.4433  1.0985  0.2634
  605TMC3    H2 8971   1.275   3.070  16.308 -1.0588 -0.5704  2.0660
  605TMC3    C7 8972   1.119   3.024  16.101 -0.0141  0.3273 -0.5667
  605TMC3    C8 8973   1.503   2.957  16.320  0.2214 -0.4230 -0.3321
  605TMC3    O1 8974   1.062   3.106  16.175  0.2642  0.1290 -0.4383
  605TMC3    O2 8975   1.539   2.996  16.211 -0.5407  0.3273 -0.0445
  606TMC3    C1 8976   3.085   1.026  16.775 -0.7927 -0.5110  0.0550
  606TMC3    C2 8977   3.139   1.147  16.809  0.4461 -0.3623  0.1883
  606TMC3    C3 8978   3.252   1.142  16.892  0.4605 -0.5750  0.3174
  606TMC3    C4 8979   3.131   0.908  16.824 -0.3681 -0.0256  0.2700
  606TMC3    C5 8980   3.238   0.912  16.905 -0.3558  0.2496  1.1069
  606TMC3    C6 8981   3.301   1.031  16.938  0.4585  0.1158  0.7116
  606TMC3     C 8982   2.967   1.030  16.691 -0.3055 -0.4393  0.5131
  606TMC3     O 8983   2.929   1.139  16.649 -0.4075  0.0011  0.6509
  606TMC3     H 8984   3.087   1.241  16.794  2.7187  1.0662  1.1935
  606TMC3    H1 8985   3.112   0.818  16.767 -0.1366 -0.2912  0.6170
  606TMC3    H2 8986   3.388   1.025  17.002  0.5591  1.9065  0.7417
  606TMC3    C7 8987   3.259   0.805  17.005 -0.1694 -0.3736  0.9141
  606TMC3    C8 8988   3.294   1.263  16.970 -0.1092 -0.5896 -0.1451
  606TMC3    O1 8989   3.347   0.820  17.088 -0.0652  0.0550  0.1661
  606TMC3    O2 8990   3.361   1.248  17.067 -0.0315 -0.0461 -0.1073
  607MPD2     C 8991   4.456   3.930  12.293 -0.4432  1.1264 -0.5256
  607MPD2    C1 8992   4.574   3.982  12.332  0.1023 -0.5190 -0.0907
  607MPD2    C2 8993   4.609   3.967  12.464  0.1155 -0.0984  0.3948
  607MPD2    C3 8994   4.530   3.895  12.551 -0.3649  0.3546  0.1218
  607MPD2    C4 8995   4.401   3.851  12.513  0.3478 -0.2294  0.1497
  607MPD2    C5 8996   4.374   3.858  12.379 -0.4187 -0.4893  0.2310
  607MPD2     H 8997   4.708   4.000  12.490  0.9028 -3.7488  2.1010
  607MPD2    H1 8998   4.338   3.801  12.586 -3.1336 -1.2612 -3.5509
  607MPD2    H2 8999   4.425   3.941  12.190 -0.5205 -1.3036 -0.7664
  607MPD2    H3 9000   4.280   3.814  12.346 -0.6287 -1.1870  1.7426
  607MPD2     N 9001   4.595   3.872  12.675  0.0664 -0.1690  0.1257
  607MPD2    H5 9002   4.684   3.917  12.693  0.6643 -1.6926  0.9851
  607MPD2    N1 9003   4.663   4.046  12.241  0.3163  0.3105 -0.2984
  607MPD2    H7 9004   0.029   4.072  12.278 -0.5669 -0.4731  2.3926
  608TMC3    C1 9005   0.042   4.133  12.065 -0.0588 -0.0302  0.3388
  608TMC3    C2 9006   0.115   4.201  12.152 -0.1288  0.1987  0.3639
  608TMC3    C3 9007   0.240   4.236  12.115 -0.1465  0.2643 -0.1601
  608TMC3    C4 9008   0.080   4.120  11.936  0.0421 -0.0242  0.1586
  608TMC3    C5 9009   0.193   4.184  11.895  0.0801  0.5331  0.2678
  608TMC3    C6 9010   0.284   4.238  11.986  0.1268 -0.2989  0.1615
  608TMC3     C 9011   4.641   4.071  12.109 -0.0131 -0.1152 -0.0751
  608TMC3     O 9012   4.549   4.054  12.029 -0.1772 -0.5427  0.5224
  608TMC3     H 9013   0.076   4.237  12.246  2.3730  1.8333  0.7966
  608TMC3    H1 9014   0.015   4.060  11.873 -0.7352  0.9282  0.0391
  608TMC3    H2 9015   0.380   4.276  11.954  0.0119 -0.2060 -0.0706
  608TMC3    C7 9016   0.239   4.188  11.756 -0.2178  0.8736  0.1126
  608TMC3    C8 9017   0.348   4.232  12.207  0.0024  0.0494 -0.6202
  608TMC3    O1 9018   0.348   4.244  11.724 -0.6841 -0.8975 -0.5765
  608TMC3    O2 9019   0.463   4.266  12.175  0.4724  0.4848  0.3650
  609TMC3    C1 9020   3.469   1.732   9.100 -0.5660 -0.1013 -0.4967
  609TMC3    C2 9021   3.482   1.608   9.165  0.2855 -0.2839  0.4653
  609TMC3    C3 9022   3.599   1.566   9.220  0.6543  0.0520  0.3560
  609TMC3    C4 9023   3.580   1.815   9.104  0.2612 -0.5215 -0.4527
  609TMC3    C5 9024   3.691   1.777   9.172 -0.3712 -0.1635  0.1944
  609TMC3    C6 9025   3.710   1.649   9.223 -0.2417 -0.1046 -0.1670
  609TMC3     C 9026   3.343   1.790   9.103 -0.4676  0.1695  0.1389
  609TMC3     O 9027   3.268   1.765   9.197 -0.1101 -0.3043 -0.0258
  609TMC3     H 9028   3.395   1.546   9.182  0.4895 -0.5556  0.5117
  609TMC3    H1 9029   3.564   1.915   9.065  0.0320 -0.0385  0.8707
  609TMC3    H2 9030   3.800   1.613   9.271  1.2497  0.6705 -2.3463
  609TMC3    C7 9031   3.820   1.847   9.153  0.2372 -0.5374  0.0569
  609TMC3    C8 9032   3.599   1.451   9.308 -0.7701 -0.1407  0.1060
  609TMC3    O1 9033   3.915   1.786   9.199  0.3827 -0.1206  0.1832
  609TMC3    O2 9034   3.643   1.473   9.418 -1.1402  0.3422  0.4380
  610TMC3    C1 9035   1.382   4.042  12.083 -0.0805 -0.2289  0.4556
  610TMC3    C2 9036   1.471   3.942  12.068  0.1937 -0.4350 -0.6969
  610TMC3    C3 9037   1.530   3.885  12.173 -0.4177 -0.6183  0.0552
  610TMC3    C4 9038   1.344   4.089  12.211  0.3196  0.6498  0.7915
  610TMC3    C5 9039   1.414   4.024  12.315  0.1655 -0.1518 -1.1561
  610TMC3    C6 9040   1.512   3.932  12.301 -0.1000  0.2163 -0.7083
  610TMC3     C 9041   1.314   4.089  11.972  0.3989 -0.7147  0.3184
  610TMC3     O 9042   1.352   4.048  11.863 -0.0079 -0.2129  0.9389
  610TMC3     H 9043   1.457   3.885  11.978  0.9587 -1.5770 -0.0970
  610TMC3    H1 9044   1.275   4.168  12.238 -1.1051 -0.4106  0.2525
  610TMC3    H2 9045   1.527   3.867  12.387 -0.5150 -1.7668 -2.1279
  610TMC3    C7 9046   1.372   4.042  12.454 -0.5635  0.0894  0.8545
  610TMC3    C8 9047   1.611   3.762  12.153 -0.1336  0.0468  0.1738
  610TMC3    O1 9048   1.462   4.048  12.536  0.3163 -0.4218  0.3809
  610TMC3    O2 9049   1.630   3.685  12.246 -0.0493 -0.9969  0.3902
  611MPD2     C 9050   3.992   3.468  10.447  0.2760 -0.1188 -0.0856
  611MPD2    C1 9051   4.070   3.367  10.399 -0.9687  0.1630 -0.9362
  611MPD2    C2 9052   4.213   3.383  10.400 -0.1145 -0.2089  0.1477
  611MPD2    C3 9053   4.265   3.494  10.466 -0.9613  0.9642  0.9379
  611MPD2    C4 9054   4.183   3.589  10.517 -0.0365 -0.4344  0.2656
  611MPD2    C5 9055   4.049   3.573  10.503 -0.4514 -0.0191  0.2597
  611MPD2     H 9056   4.286   3.308  10.371  0.3938  0.4904 -0.3716
  611MPD2    H1 9057   4.221   3.679  10.565 -0.5730 -0.9233  1.5929
  611MPD2    H2 9058   3.887   3.446  10.462  0.3752 -0.8959 -0.5394
  611MPD2    H3 9059   3.998   3.652  10.556 -1.9480 -0.1628 -0.9637
  611MPD2     N 9060   4.402   3.507  10.490 -0.7899 -0.3052  0.4074
  611MPD2    H5 9061   4.436   3.588  10.541  3.2076  0.4930 -3.5090
  611MPD2    N1 9062   4.002   3.244  10.364 -0.5729  0.3028 -0.5265
  611MPD2    H7 9063   3.903   3.225  10.377 -0.3995 -0.9066 -0.9421
  612TMC3    C1 9064   4.624   3.471  10.462 -1.1868  0.4364  0.0602
  612TMC3    C2 9065   4.653   3.448  10.594 -0.2589 -0.4961 -0.3958
  612TMC3    C3 9066   0.059   3.454  10.631  0.7882  0.0524 -0.0397
  612TMC3    C4 9067   4.721   3.482  10.366  1.1980 -0.1489 -0.3126
  612TMC3    C5 9068   0.125   3.488  10.405  0.5130 -0.2728 -0.1752
  612TMC3    C6 9069   0.160   3.479  10.542 -0.5292 -0.3434  0.3317
  612TMC3     C 9070   4.492   3.430  10.412  0.2310  0.2169 -0.3415
  612TMC3     O 9071   4.491   3.384  10.301  0.3745 -0.6622  0.6547
  612TMC3     H 9072   4.587   3.398  10.663  0.1689 -2.1784 -1.1931
  612TMC3    H1 9073   4.696   3.480  10.261 -0.2627 -0.3577  0.0437
  612TMC3    H2 9074   0.259   3.478  10.585 -0.2744 -1.1513 -0.2788
  612TMC3    C7 9075   0.230   3.538  10.323  0.4328 -0.2794 -0.2679
  612TMC3    C8 9076   0.088   3.442  10.777 -0.7584  1.2608 -0.0687
  612TMC3    O1 9077   0.344   3.548  10.362  0.0691 -0.3540 -0.0724
  612TMC3    O2 9078   4.721   3.476  10.854 -0.1568  0.6435 -0.0701
  613MPD2     C 9079   4.419   1.291  15.453 -0.0145  0.3533  0.1158
  613MPD2    C1 9080   4.384   1.158  15.428  0.5681  0.5619 -0.4833
  613MPD2    C2 9081   4.322   1.083  15.528 -0.1005 -0.9000  0.1344
  613MPD2    C3 9082   4.283   1.149  15.647 -0.1101  0.2916 -0.1574
  613MPD2    C4 9083   4.302   1.283  15.666  0.3770 -0.4955 -0.0112
  613MPD2    C5 9084   4.370   1.351  15.570 -0.7497 -0.4487 -0.3420
  613MPD2     H 9085   4.298   0.980  15.507  0.4427 -1.2001  0.9826
  613MPD2    H1 9086   4.251   1.339  15.744 -0.0008  1.3991 -1.6180
  613MPD2    H2 9087   4.481   1.356  15.393 -1.7147  0.6266 -1.3423
  613MPD2    H3 9088   4.397   1.456  15.574 -3.1686  0.1951 -0.4563
  613MPD2     N 9089   4.206   1.069  15.731 -0.3819 -0.2632  0.0560
  613MPD2    H5 9090   4.207   0.971  15.705  2.9406 -0.2461  0.1373
  613MPD2    N1 9091   4.417   1.082  15.313 -0.4800 -0.6287  0.4095
  613MPD2    H7 9092   4.393   0.984  15.298  2.2746 -1.2742  0.3525
  614TMC3    C1 9093   4.422   1.057  15.079  0.5491 -0.3867  0.4542
  614TMC3    C2 9094   4.395   0.931  15.112 -0.3020 -0.5046  0.0438
  614TMC3    C3 9095   4.282   0.861  15.065 -0.1513  0.9457 -0.3970
  614TMC3    C4 9096   4.329   1.125  15.004  0.8072 -0.2913  0.1946
  614TMC3    C5 9097   4.214   1.060  14.956 -0.1553  0.4694  0.3232
  614TMC3    C6 9098   4.182   0.931  14.994 -0.0109  0.1314  0.3907
  614TMC3     C 9099   4.463   1.138  15.197 -0.0164  0.3520  0.6276
  614TMC3     O 9100   4.476   1.257  15.176  0.0817 -0.2832  0.7025
  614TMC3     H 9101   4.478   0.875  15.153 -1.2583 -2.1083 -0.2152
  614TMC3    H1 9102   4.340   1.230  14.981  0.1183 -0.4364 -0.7673
  614TMC3    H2 9103   4.095   0.878  14.957  1.4820 -0.4813 -2.2184
  614TMC3    C7 9104   4.111   1.139  14.883  0.0917  0.5850 -0.2260
  614TMC3    C8 9105   4.228   0.791  15.180 -0.2790 -0.0190 -0.2316
  614TMC3    O1 9106   4.154   1.236  14.818 -0.2392 -0.0387 -0.2486
  614TMC3    O2 9107   4.270   0.837  15.287 -0.3593  1.0792  0.5147
  615MPD2     C 9108   2.805   3.176  16.304 -0.1447  0.2082 -0.0087
  615MPD2    C1 9109   2.942   3.190  16.320  0.2570  0.2485  0.0081
  615MPD2    C2 9110   3.029   3.073  16.314  0.1742  0.0062  0.1745
  615MPD2    C3 9111   2.978   2.950  16.277  0.6625  0.2872  0.2160
  615MPD2    C4 9112   2.843   2.945  16.252 -0.6578 -0.3264  0.4192
  615MPD2    C5 9113   2.759   3.052  16.271 -0.0187  0.2535 -0.4961
  615MPD2     H 9114   3.136   3.088  16.318  0.1696 -0.4394  1.9412
  615MPD2    H1 9115   2.794   2.857  16.209 -1.1594  0.5110 -0.7237
  615MPD2    H2 9116   2.728   3.252  16.312  1.0764  1.4898 -0.2681
  615MPD2    H3 9117   2.651   3.048  16.262 -0.1676 -1.8481  2.6302
  615MPD2     N 9118   3.067   2.850  16.236  0.4065  0.3244 -0.1544
  615MPD2    H5 9119   3.164   2.875  16.247  0.9798 -2.1406  0.4413
  615MPD2    N1 9120   2.988   3.321  16.331  0.3391  0.6189  0.7512
  615MPD2    H7 9121   2.912   3.387  16.317  0.0351  0.2580  0.7117
  616TMC3    C1 9122   3.132   3.504  16.290 -0.4315  0.2523 -0.1175
  616TMC3    C2 9123   3.245   3.574  16.335  0.6215 -0.3077 -0.2198
  616TMC3    C3 9124   3.260   3.710  16.308 -0.6123  0.2055 -0.2682
  616TMC3    C4 9125   3.037   3.578  16.222 -0.3584  0.2916  0.3005
  616TMC3    C5 9126   3.065   3.711  16.197  0.3399 -0.7182 -0.4743
  616TMC3    C6 9127   3.161   3.780  16.252  0.3236  0.2024  0.2207
  616TMC3     C 9128   3.114   3.366  16.340 -0.6666  0.1607 -0.1664
  616TMC3     O 9129   3.211   3.303  16.370 -0.3268 -0.4469  0.5457
  616TMC3     H 9130   3.315   3.516  16.395 -1.1515 -4.7313 -2.4293
  616TMC3    H1 9131   2.949   3.528  16.185  0.1279  0.1455 -0.6844
  616TMC3    H2 9132   3.180   3.883  16.223  0.9935  0.5560  1.9768
  616TMC3    C7 9133   3.006   3.775  16.080  0.0827 -0.5404 -0.0550
  616TMC3    C8 9134   3.365   3.785  16.370  0.5078 -0.4567 -0.2137
  616TMC3    O1 9135   2.993   3.708  15.980 -0.2000 -0.2966 -0.6301
  616TMC3    O2 9136   3.331   3.902  16.396  0.4133 -0.2561  0.1519
  617MPD2     C 9137   1.306   0.860  13.550  0.8661  0.8172 -0.2886
  617MPD2    C1 9138   1.368   0.797  13.653 -0.0499 -0.0479  0.7168
  617MPD2    C2 9139   1.303   0.788  13.768 -0.1825  0.2267 -0.0103
  617MPD2    C3 9140   1.168   0.816  13.776  0.2638  0.3952 -0.3742
  617MPD2    C4 9141   1.104   0.881  13.675  0.0791  0.7087  0.4626
  617MPD2    C5 9142   1.169   0.896  13.560  0.0487 -0.2043 -0.9560
  617MPD2     H 9143   1.354   0.752  13.857  1.1460  1.0447 -0.4358
  617MPD2    H1 9144   0.999   0.907  13.682  0.1022  0.0627  3.4260
  617MPD2    H2 9145   1.366   0.898  13.468 -0.0540 -0.0839 -1.3792
  617MPD2    H3 9146   1.111   0.947  13.484  1.4890  1.2546 -1.0773
  617MPD2     N 9147   1.093   0.796  13.894 -0.4696  0.1747  0.3237
  617MPD2    H5 9148   1.000   0.834  13.904 -0.9883 -1.5899  2.1481
  617MPD2    N1 9149   1.509   0.773  13.627 -0.2358  0.2025  0.7011
  617MPD2    H7 9150   1.548   0.802  13.538 -0.4950  3.6505  1.6931
  618TMC3    C1 9151   1.730   0.731  13.683 -0.1145  0.3297 -0.1823
  618TMC3    C2 9152   1.826   0.638  13.724 -0.3506  0.5458 -0.3853
  618TMC3    C3 9153   1.956   0.666  13.696 -0.1855  0.0716  0.0494
  618TMC3    C4 9154   1.763   0.840  13.609 -0.4924 -0.0038  0.3574
  618TMC3    C5 9155   1.892   0.855  13.578  0.0338  1.1414  0.2615
  618TMC3    C6 9156   1.993   0.780  13.635 -0.4319  0.3498 -0.4702
  618TMC3     C 9157   1.590   0.710  13.715  0.1850 -0.3153 -0.0882
  618TMC3     O 9158   1.566   0.660  13.825 -0.3664 -0.3386 -0.5756
  618TMC3     H 9159   1.795   0.556  13.788 -0.2852  1.7216  1.1473
  618TMC3    H1 9160   1.692   0.914  13.575 -0.3477 -0.3466 -0.6744
  618TMC3    H2 9161   2.096   0.811  13.630 -0.2112 -0.4562 -0.8895
  618TMC3    C7 9162   1.919   0.979  13.508 -1.1846 -0.4254 -0.5308
  618TMC3    C8 9163   2.048   0.556  13.690  0.9620  0.7257 -0.2355
  618TMC3    O1 9164   1.857   1.074  13.554  0.2931  0.0621  0.5988
  618TMC3    O2 9165   2.011   0.455  13.746  0.2749 -0.2807  0.6706
  619MPD2     C 9166   2.472   1.898  14.231 -0.1507 -0.4888  0.1204
  619MPD2    C1 9167   2.451   1.959  14.111 -0.3819  0.1336  0.3544
  619MPD2    C2 9168   2.326   1.960  14.058  0.1040  0.0216  0.1502
  619MPD2    C3 9169   2.217   1.908  14.125 -0.6329 -0.3413 -0.0785
  619MPD2    C4 9170   2.243   1.828  14.237 -0.5548 -0.8237 -0.2424
  619MPD2    C5 9171   2.366   1.831  14.291 -0.4978  0.2437 -0.3819
  619MPD2     H 9172   2.310   2.014  13.965 -1.5822  1.3370  1.2025
  619MPD2    H1 9173   2.170   1.773  14.294 -1.7001  0.9236 -0.0270
  619MPD2    H2 9174   2.570   1.891  14.279 -1.5162 -0.0970  2.9928
  619MPD2    H3 9175   2.386   1.768  14.376  0.2081  0.5730 -0.2993
  619MPD2     N 9176   2.083   1.922  14.084 -0.0263 -0.1800 -0.5687
  619MPD2    H5 9177   2.011   1.882  14.144  0.1016  1.4840  0.6915
  619MPD2    N1 9178   2.544   2.025  14.032 -0.4360  0.3805 -0.2685
  619MPD2    H7 9179   2.511   2.081  13.953 -0.3708  1.8702  0.7658
  620TMC3    C1 9180   2.725   2.110  13.943 -0.4056 -0.0481  0.1980
  620TMC3    C2 9181   2.660   2.095  13.827  0.4033 -0.0279 -0.2438
  620TMC3    C3 9182   2.665   2.197  13.731  0.8588  0.4698  0.2521
  620TMC3    C4 9183   2.787   2.227  13.972 -0.4343  0.0814  0.7152
  620TMC3    C5 9184   2.796   2.326  13.876 -0.4422 -0.6361  0.8779
  620TMC3    C6 9185   2.731   2.316  13.755  0.5627 -0.2798  0.5173
  620TMC3     C 9186   2.676   2.039  14.050  0.1577  0.9481  0.8667
  620TMC3     O 9187   2.745   2.006  14.149 -0.0361  0.0629  0.1049
  620TMC3     H 9188   2.610   2.003  13.799 -0.6040  1.1971 -2.4396
  620TMC3    H1 9189   2.832   2.235  14.070 -1.1863  0.6135  1.0234
  620TMC3    H2 9190   2.722   2.399  13.686  2.3017  0.8517  1.6528
  620TMC3    C7 9191   2.849   2.460  13.916 -0.1900 -0.5809 -0.0122
  620TMC3    C8 9192   2.552   2.213  13.638 -0.3859  0.6164 -0.6511
  620TMC3    O1 9193   2.939   2.473  14.001  0.2580  0.0475 -0.1417
  620TMC3    O2 9194   2.530   2.330  13.610  0.0230  0.0127 -0.0617
  621MPD2     C 9195   3.306   1.672  10.564  0.6463 -0.5503  0.1808
  621MPD2    C1 9196   3.361   1.628  10.448  0.0631 -0.1994 -0.2270
  621MPD2    C2 9197   3.462   1.704  10.385  0.7437  0.7500  0.8138
  621MPD2    C3 9198   3.490   1.829  10.441  0.0896 -0.3994  0.1286
  621MPD2    C4 9199   3.435   1.875  10.552  0.3967  0.1519 -0.1801
  621MPD2    C5 9200   3.343   1.792  10.611 -0.4624  0.0394  0.1968
  621MPD2     H 9201   3.517   1.676  10.296  2.6863 -1.3889  2.6720
  621MPD2    H1 9202   3.458   1.971  10.597  3.0102  0.4784 -2.2575
  621MPD2    H2 9203   3.234   1.617  10.624  0.9435  1.7713  2.6988
  621MPD2    H3 9204   3.300   1.809  10.708  0.4942 -1.8108  0.9469
  621MPD2     N 9205   3.577   1.917  10.371  0.3373 -0.4165  1.0821
  621MPD2    H5 9206   3.576   2.012  10.407 -0.2600  0.0133 -0.0562
  621MPD2    N1 9207   3.293   1.524  10.380  0.0059  0.0416 -0.0815
  621MPD2    H7 9208   3.215   1.484  10.433  1.2217  0.4403  2.0212
  622TMC3    C1 9209   3.230   1.369  10.218  0.0401 -0.8252  0.5320
  622TMC3    C2 9210   3.095   1.395  10.247 -0.6046 -0.6716  0.3829
  622TMC3    C3 9211   3.004   1.305  10.193  0.1725 -0.1253 -0.3615
  622TMC3    C4 9212   3.272   1.278  10.124 -0.6182 -0.6422  0.2044
  622TMC3    C5 9213   3.174   1.212  10.055 -0.4211 -0.4945 -0.2391
  622TMC3    C6 9214   3.040   1.220  10.093 -0.0450 -0.2847 -0.3386
  622TMC3     C 9215   3.331   1.467  10.262 -0.2485 -0.4570  0.4310
  622TMC3     O 9216   3.433   1.475  10.196  0.3702  0.2049 -0.3953
  622TMC3     H 9217   3.062   1.489  10.289  1.8054  0.4986 -0.2892
  622TMC3    H1 9218   3.372   1.292  10.084  0.7253 -2.3203  2.9039
  622TMC3    H2 9219   2.976   1.141  10.054 -0.2325 -1.4320  2.2925
  622TMC3    C7 9220   3.205   1.201   9.917 -0.0328 -0.1289  0.4923
  622TMC3    C8 9221   2.865   1.312  10.221  0.1096  0.4703 -1.0711
  622TMC3    O1 9222   3.321   1.172   9.886 -0.5503 -0.2461 -0.0256
  622TMC3    O2 9223   2.793   1.248  10.146 -0.2121 -0.3210 -0.0832
  623MPD2     C 9224   1.737   3.577  15.439 -0.0493  0.0439 -0.4986
  623MPD2    C1 9225   1.676   3.497  15.530 -0.7459 -0.0270  0.0274
  623MPD2    C2 9226   1.744   3.445  15.634  0.2107 -0.0184  0.3954
  623MPD2    C3 9227   1.877   3.465  15.647 -0.0219  0.2271 -0.6770
  623MPD2    C4 9228   1.941   3.539  15.548  0.0513  0.3531  0.0977
  623MPD2    C5 9229   1.868   3.601  15.451  0.5816  0.3874 -0.3636
  623MPD2     H 9230   1.695   3.394  15.717 -0.2317  2.5305  1.7195
  623MPD2    H1 9231   2.049   3.530  15.540  0.0833 -0.5821  1.3945
  623MPD2    H2 9232   1.686   3.630  15.360  1.5047  2.8217  0.3913
  623MPD2    H3 9233   1.923   3.652  15.373  3.0125 -0.9840  0.4333
  623MPD2     N 9234   1.942   3.410  15.759  0.0478 -0.4601  0.4168
  623MPD2    H5 9235   1.886   3.351  15.819  0.6329 -1.6389 -0.1896
  623MPD2    N1 9236   1.539   3.470  15.538  0.2966  0.1175  0.6422
  623MPD2    H7 9237   1.505   3.393  15.595  1.2334 -0.0476  0.9723
  624TMC3    C1 9238   2.289   3.319  16.068  0.7510 -0.1383 -1.1822
  624TMC3    C2 9239   2.222   3.204  16.109 -0.1679  0.0669 -0.2906
  624TMC3    C3 9240   2.104   3.170  16.049  0.2785 -0.3097  0.2758
  624TMC3    C4 9241   2.227   3.403  15.976  0.0572  0.0861  0.2469
  624TMC3    C5 9242   2.118   3.353  15.904  0.0093  1.0441 -0.3376
  624TMC3    C6 9243   2.057   3.235  15.942 -0.3614  0.5214  0.5686
  624TMC3     C 9244   2.392   3.360  16.146 -0.1944  0.1138  0.1354
  624TMC3     O 9245   2.454   3.278  16.215  0.4558 -0.3103 -0.1368
  624TMC3     H 9246   2.265   3.133  16.180  0.5506  0.3245 -0.4760
  624TMC3    H1 9247   2.263   3.502  15.953 -3.0747  0.8119 -1.5294
  624TMC3    H2 9248   1.966   3.199  15.895 -0.0313 -0.6585  0.8372
  624TMC3    C7 9249   2.071   3.433  15.793  0.5044 -0.3319  0.1587
  624TMC3    C8 9250   1.994   3.122  16.135  0.1282 -0.1865  0.0850
  624TMC3    O1 9251   2.151   3.518  15.757 -0.6456 -0.4305  0.4017
  624TMC3    O2 9252   1.884   3.118  16.077  0.1693 -1.1017 -0.2081
  625MPD2     C 9253   2.185   3.894   0.608  1.1122 -0.1644  0.1680
  625MPD2    C1 9254   2.306   3.958   0.630  0.1453  0.3759  0.6310
  625MPD2    C2 9255   2.407   3.880   0.671 -0.0342 -0.5241 -0.2668
  625MPD2    C3 9256   2.395   3.742   0.679  0.3683 -0.2125  0.0571
  625MPD2    C4 9257   2.275   3.680   0.641 -0.1295 -0.4997 -0.0316
  625MPD2    C5 9258   2.167   3.759   0.620  0.1094 -0.3382 -0.5198
  625MPD2     H 9259   2.498   3.933   0.697  0.7323 -1.9981  0.1101
  625MPD2    H1 9260   2.259   3.573   0.626 -0.6346 -0.1801 -1.8000
  625MPD2    H2 9261   2.092   3.941   0.576  1.6107  0.6431 -0.0795
  625MPD2    H3 9262   2.069   3.720   0.597 -0.0297 -1.6341  2.2449
  625MPD2     N 9263   2.511   3.672   0.727  0.2009 -0.5769  0.6164
  625MPD2    H5 9264   2.593   3.726   0.755 -0.3155  0.6781 -0.2653
  625MPD2    N1 9265   2.329   4.094   0.619  0.3657  1.0190 -0.9792
  625MPD2    H7 9266   2.415   4.129   0.660  2.5398 -0.6201 -4.0442
  626TMC3    C1 9267   2.290   4.316   0.572  0.4486  0.3009 -0.5673
  626TMC3    C2 9268   2.224   4.398   0.489 -0.2457  0.4500  0.4724
  626TMC3    C3 9269   2.261   4.528   0.488 -0.1984  0.1101 -0.9647
  626TMC3    C4 9270   2.373   4.356   0.670  0.7444 -0.3349  0.4900
  626TMC3    C5 9271   2.397   4.488   0.672 -0.6927  0.7516  0.1973
  626TMC3    C6 9272   2.356   4.581   0.580 -0.0795  0.2264 -0.3566
  626TMC3     C 9273   2.241   4.182   0.558  0.6024  0.3631  0.2320
  626TMC3     O 9274   2.146   4.155   0.484 -0.5324 -0.1366  0.4405
  626TMC3     H 9275   2.159   4.366   0.408 -2.8121  4.1460  1.0381
  626TMC3    H1 9276   2.405   4.289   0.750  3.8644 -0.4822 -0.8812
  626TMC3    H2 9277   2.383   4.685   0.587 -1.2765  0.5710 -0.8377
  626TMC3    C7 9278   2.463   4.538   0.787  0.5007 -0.5587 -0.3062
  626TMC3    C8 9279   2.241   4.612   0.369 -0.3003  0.1765  0.0002
  626TMC3    O1 9280   2.559   4.476   0.838  0.0870  0.1875 -0.0391
  626TMC3    O2 9281   2.160   4.569   0.286 -0.0828 -0.5352 -0.2626
  627MPD2     C 9282   0.635   4.379  14.536  1.1583  0.3737 -0.4818
  627MPD2    C1 9283   0.763   4.319  14.548  0.0712  0.1549  0.1850
  627MPD2    C2 9284   0.786   4.200  14.481  0.3708 -0.0609 -0.0255
  627MPD2    C3 9285   0.689   4.130  14.415 -0.2563  0.7480  0.2686
  627MPD2    C4 9286   0.563   4.184  14.417  0.8821 -0.8843  0.8612
  627MPD2    C5 9287   0.536   4.307  14.470 -1.0491  0.1733  0.8300
  627MPD2     H 9288   0.884   4.153  14.482  0.5867  0.3856 -0.4062
  627MPD2    H1 9289   0.482   4.116  14.392 -0.7743  0.9387  1.3300
  627MPD2    H2 9290   0.607   4.474  14.580  0.5913 -0.7920  1.7035
  627MPD2    H3 9291   0.441   4.358  14.464 -0.7504  0.5753 -0.6364
  627MPD2     N 9292   0.727   4.003  14.365  0.1805  0.1801 -0.1395
  627MPD2    H5 9293   0.821   3.979  14.397 -0.5025  0.6801  2.2423
  627MPD2    N1 9294   0.872   4.392  14.607 -0.5902  0.0296  0.2464
  627MPD2    H7 9295   0.966   4.356  14.591 -0.0298  1.0024  1.3205
  628TMC3    C1 9296   0.992   4.538  14.746  0.0821  1.0435 -0.9996
  628TMC3    C2 9297   1.074   4.434  14.782  0.0199  0.2374  0.3592
  628TMC3    C3 9298   1.193   4.459  14.845 -0.5792  0.8041 -0.1955
  628TMC3    C4 9299   1.032   4.664  14.772 -0.1464  0.2068  0.3029
  628TMC3    C5 9300   1.153   4.688  14.825 -0.6107 -0.0016 -0.2210
  628TMC3    C6 9301   1.236   4.586  14.864  0.3183  0.2971 -0.9365
  628TMC3     C 9302   0.865   4.510  14.677  0.3688 -0.1386 -0.0695
  628TMC3     O 9303   0.779   4.595  14.679 -0.2490 -0.0651  0.0414
  628TMC3     H 9304   1.044   4.330  14.786 -2.5627  1.0244  1.2269
  628TMC3    H1 9305   0.969   0.018  14.732  0.4090 -0.2928 -1.5508
  628TMC3    H2 9306   1.320   4.616  14.925  0.4129  1.2219 -1.5150
  628TMC3    C7 9307   1.190   0.101  14.856 -0.1308  0.2298 -0.2469
  628TMC3    C8 9308   1.291   4.350  14.852 -0.5209 -0.3299  0.2313
  628TMC3    O1 9309   1.236   0.134  14.964 -0.6572 -0.5036 -0.4396
  628TMC3    O2 9310   1.259   4.245  14.794  0.1740 -0.0504 -0.3569
  629MPD2     C 9311   3.839   3.921  16.477 -0.2340  0.1818  0.2587
  629MPD2    C1 9312   3.844   3.803  16.412 -0.2872 -0.3896 -0.4217
  629MPD2    C2 9313   3.731   3.730  16.378 -0.5646  0.2756  0.4325
  629MPD2    C3 9314   3.606   3.782  16.414  0.1428 -0.5629 -0.1182
  629MPD2    C4 9315   3.605   3.894  16.498  0.3602  0.1232 -0.9047
  629MPD2    C5 9316   3.717   3.960  16.520  0.4788  0.7119  0.1594
  629MPD2     H 9317   3.743   3.642  16.316 -0.9190  0.1691  0.5197
  629MPD2    H1 9318   3.512   3.935  16.535  0.2255 -0.9530 -0.0466
  629MPD2    H2 9319   3.932   3.974  16.494  0.4871 -1.4152  1.2805
  629MPD2    H3 9320   3.711   4.054  16.573  0.2166  1.5043 -1.2757
  629MPD2     N 9321   3.487   3.719  16.370  0.1361 -0.2847  0.3257
  629MPD2    H5 9322   3.484   3.634  16.314 -0.6835  0.0390 -0.1187
  629MPD2    N1 9323   3.975   3.766  16.375 -0.2007  0.1554 -0.2200
  629MPD2    H7 9324   4.048   3.835  16.391 -0.9960  1.5416 -2.5064
  630TMC3    C1 9325   4.150   3.649  16.281  0.5634  0.1303 -0.2034
  630TMC3    C2 9326   4.215   3.764  16.236 -0.2518 -0.4409 -0.2389
  630TMC3    C3 9327   4.339   3.752  16.178  0.6945 -0.0030 -0.1759
  630TMC3    C4 9328   4.211   3.522  16.272  0.0040  0.1139 -0.0754
  630TMC3    C5 9329   4.346   3.530  16.228 -0.2257  0.4134  0.7447
  630TMC3    C6 9330   4.404   3.638  16.178 -0.6050  0.1432  0.3075
  630TMC3     C 9331   4.009   3.648  16.314 -0.5173 -0.1566  0.1853
  630TMC3     O 9332   3.957   3.538  16.323 -0.3427  0.6316 -0.5104
  630TMC3     H 9333   4.176   3.864  16.232 -0.8468 -0.6221  1.2808
  630TMC3    H1 9334   4.177   3.438  16.332 -1.0054  1.4099  1.1727
  630TMC3    H2 9335   4.508   3.632  16.146 -0.7547 -1.5194  0.0908
  630TMC3    C7 9336   4.434   3.429  16.283  0.6541  0.7731  0.2219
  630TMC3    C8 9337   4.422   3.864  16.202  0.3629  0.1120  0.2169
  630TMC3    O1 9338   4.379   3.326  16.322  0.6890  0.2857  0.2382
  630TMC3    O2 9339   4.536   3.837  16.241  0.4599  0.4723 -0.9097
  631MPD2     C 9340   2.449   2.678  15.760  0.3896  0.6179 -0.9128
  631MPD2    C1 9341   2.553   2.721  15.675  0.2758  0.2315 -0.5424
  631MPD2    C2 9342   2.687   2.686  15.702  0.1861  0.5670  0.0613
  631MPD2    C3 9343   2.710   2.601  15.814 -0.1353 -0.0284  0.9597
  631MPD2    C4 9344   2.604   2.555  15.886 -0.5295  0.1815  0.2176
  631MPD2    C5 9345   2.473   2.590  15.865 -0.0284  0.6538 -0.2009
  631MPD2     H 9346   2.768   2.731  15.648 -0.3823  0.4598 -0.8793
  631MPD2    H1 9347   2.631   2.508  15.980 -0.2544  1.3503  0.7192
  631MPD2    H2 9348   2.342   2.693  15.746  0.1533  0.0969  0.3113
  631MPD2    H3 9349   2.391   2.562  15.932 -0.2475 -0.0465 -0.7619
  631MPD2     N 9350   2.838   2.580  15.865  0.1123 -0.2179 -0.4563
  631MPD2    H5 9351   2.852   2.548  15.960  0.7088 -0.1678 -0.5247
  631MPD2    N1 9352   2.523   2.818  15.579 -0.5006 -0.3911 -0.4135
  631MPD2    H7 9353   2.424   2.831  15.566 -0.5229 -1.4262 -1.2545
  632TMC3    C1 9354   2.533   2.942  15.365  0.2556  0.2077  0.0469
  632TMC3    C2 9355   2.457   3.041  15.418 -0.2292 -0.2494  0.1183
  632TMC3    C3 9356   2.415   3.143  15.337  0.0044 -0.0793  0.1910
  632TMC3    C4 9357   2.578   2.944  15.235 -0.2718 -0.2188  0.1595
  632TMC3    C5 9358   2.525   3.042  15.151  0.2134 -0.0534  0.2922
  632TMC3    C6 9359   2.451   3.146  15.206 -0.3137  0.4071 -0.2993
  632TMC3     C 9360   2.598   2.855  15.464 -0.4278 -0.6436  0.2504
  632TMC3     O 9361   2.716   2.829  15.434 -0.4532  0.3279  0.2670
  632TMC3     H 9362   2.424   3.035  15.521  0.1455 -1.1764  0.1839
  632TMC3    H1 9363   2.655   2.880  15.193  2.5452  2.1220  1.7715
  632TMC3    H2 9364   2.419   3.219  15.132  1.5069  2.1062  0.5687
  632TMC3    C7 9365   2.586   3.075  15.022 -0.2381 -0.3626 -0.7872
  632TMC3    C8 9366   2.365   3.264  15.403  0.5457 -1.3124  0.2480
  632TMC3    O1 9367   2.533   3.150  14.946 -0.7930 -0.4288 -0.7162
  632TMC3    O2 9368   2.299   3.250  15.502  0.1951 -0.5814  0.1318
  633MPD2     C 9369   2.202   0.968  17.343  0.7688  0.3429  0.4444
  633MPD2    C1 9370   2.198   0.912  17.220 -0.6747 -0.1642  0.4094
  633MPD2    C2 9371   2.224   0.777  17.207 -0.1434 -0.2079  0.0549
  633MPD2    C3 9372   2.260   0.700  17.318  0.0377  0.0505 -0.1285
  633MPD2    C4 9373   2.269   0.761  17.440  0.0720 -0.5652  0.6063
  633MPD2    C5 9374   2.233   0.896  17.455 -0.2827  0.7363 -0.1652
  633MPD2     H 9375   2.214   0.741  17.105 -0.2034  1.6155 -0.5736
  633MPD2    H1 9376   2.321   0.702  17.515  1.5642 -0.1803 -0.1319
  633MPD2    H2 9377   2.187   1.075  17.353 -1.9706  0.2441 -2.3753
  633MPD2    H3 9378   2.255   0.953  17.544  2.0611 -2.0740  1.0149
  633MPD2     N 9379   2.309   0.565  17.309  0.0911 -0.0687  0.1542
  633MPD2    H5 9380   2.347   0.526  17.394 -0.0890  0.3816  0.4407
  633MPD2    N1 9381   2.179   0.989  17.102 -0.0246 -0.3666 -0.1914
  633MPD2    H7 9382   2.145   0.939  17.021  0.0487  0.9888 -1.0602
  634TMC3    C1 9383   2.195   1.173  16.950  0.0815  0.1090  0.4924
  634TMC3    C2 9384   2.223   1.081  16.850  0.5539  0.1828  0.6711
  634TMC3    C3 9385   2.236   1.126  16.726 -0.4655  0.1954  0.0792
  634TMC3    C4 9386   2.187   1.306  16.926  0.2636  1.0487  0.4865
  634TMC3    C5 9387   2.207   1.348  16.801  0.3320  0.1901  0.3331
  634TMC3    C6 9388   2.225   1.260  16.703 -0.8456  0.6862 -0.0048
  634TMC3     C 9389   2.211   1.126  17.086  0.1263  0.7906  0.0544
  634TMC3     O 9390   2.260   1.204  17.168 -0.6435  0.4196 -0.1254
  634TMC3     H 9391   2.257   0.979  16.864 -0.1455 -0.0776  0.4730
  634TMC3    H1 9392   2.164   1.365  17.014  1.8038  2.7637 -0.2661
  634TMC3    H2 9393   2.213   1.299  16.602  1.0798  0.5585 -0.2764
  634TMC3    C7 9394   2.168   1.479  16.747 -0.1065  0.4165  0.3150
  634TMC3    C8 9395   2.208   1.041  16.611  0.3305  0.2118  0.0525
  634TMC3    O1 9396   2.144   1.495  16.627 -0.0395  0.0990  0.0826
  634TMC3    O2 9397   2.245   1.069  16.496  0.6177  0.9688 -0.4638
  635TMC3    C1 9398   2.856   2.036  17.508  0.3788  0.5377  0.0846
  635TMC3    C2 9399   2.901   1.962  17.395  0.3020  0.0625 -0.2970
  635TMC3    C3 9400   2.859   1.831  17.388 -0.5139 -0.7914  1.1768
  635TMC3    C4 9401   2.793   1.979  17.622  0.2567 -0.0577  0.2485
  635TMC3    C5 9402   2.771   1.845  17.604  0.7332  0.1254 -0.3499
  635TMC3    C6 9403   2.783   1.770  17.491 -0.2048  0.1559 -0.0255
  635TMC3     C 9404   2.873   2.183  17.514 -0.3727  0.2827 -0.6615
  635TMC3     O 9405   2.952   2.240  17.439 -0.2711 -0.1232  0.0741
  635TMC3     H 9406   2.963   2.015  17.323  1.8871  0.7615  1.5899
  635TMC3    H1 9407   2.789   2.031   0.017  1.2567 -0.0753  0.3010
  635TMC3    H2 9408   2.765   1.663  17.491 -1.6045  0.4107 -2.6189
  635TMC3    C7 9409   2.714   1.775   0.004 -0.1139  0.4351  0.3731
  635TMC3    C8 9410   2.892   1.744  17.274  0.0023 -0.4590  0.4876
  635TMC3    O1 9411   2.639   1.681  17.686 -0.0172 -0.0547 -0.1162
  635TMC3    O2 9412   2.893   1.624  17.290 -0.0592  0.3028 -0.2971
  636MPD2     C 9413   3.234   1.160  15.760  0.1923  0.3693 -0.4390
  636MPD2    C1 9414   3.320   1.251  15.799 -0.3748  0.0045 -0.0671
  636MPD2    C2 9415   3.452   1.218  15.831 -0.4705 -0.0868 -0.4910
  636MPD2    C3 9416   3.496   1.084  15.803 -0.2350  0.0795  0.2001
  636MPD2    C4 9417   3.403   0.993  15.767 -0.3955  0.8140  0.0249
  636MPD2    C5 9418   3.274   1.030  15.744  0.7785  0.1655  0.0574
  636MPD2     H 9419   3.524   1.290  15.868 -0.4994  0.4644 -1.5153
  636MPD2    H1 9420   3.424   0.889  15.745  1.9542  0.8314  2.2353
  636MPD2    H2 9421   3.129   1.179  15.740  0.2095  0.0307 -0.8701
  636MPD2    H3 9422   3.205   0.953  15.710  1.5505 -0.4107 -0.1996
  636MPD2     N 9423   3.631   1.054  15.845 -0.5247  1.3086  0.1763
  636MPD2    H5 9424   3.691   1.135  15.852  1.9901 -0.7419  2.2013
  636MPD2    N1 9425   3.277   1.389  15.811  0.2132 -0.3287  0.2398
  636MPD2    H7 9426   3.345   1.459  15.839  0.0077  0.6638 -1.7850
  637TMC3    C1 9427   3.827   0.915  15.858  0.3152  0.3170  0.7979
  637TMC3    C2 9428   3.913   1.021  15.882 -0.0013  0.6896 -0.0770
  637TMC3    C3 9429   4.049   0.997  15.879  0.0255  0.3849 -0.1526
  637TMC3    C4 9430   3.877   0.790  15.831 -0.0482 -0.2783 -0.5646
  637TMC3    C5 9431   4.016   0.770  15.824  0.1150  0.1047 -0.2744
  637TMC3    C6 9432   4.098   0.872  15.853  0.8335 -0.1827  0.5248
  637TMC3     C 9433   3.688   0.924  15.849 -0.1576 -0.1424 -0.4904
  637TMC3     O 9434   3.639   0.822  15.805  0.0357 -0.8440  0.1281
  637TMC3     H 9435   3.875   1.122  15.888  0.2030  0.7729 -0.1927
  637TMC3    H1 9436   3.812   0.707  15.804 -0.5049  1.2950 -4.3033
  637TMC3    H2 9437   4.206   0.865  15.852  0.7945 -0.6124 -1.4384
  637TMC3    C7 9438   4.063   0.728  15.694  0.3025 -0.3133 -0.2461
  637TMC3    C8 9439   4.128   1.105  15.839  0.3390  0.2058  0.2531
  637TMC3    O1 9440   4.157   0.793  15.646 -0.6430  0.4989  0.1935
  637TMC3    O2 9441   4.093   1.217  15.871  0.4128  0.0195 -0.2390
  638MPD2     C 9442   3.283   0.374  15.007  0.7828  1.0630 -0.3371
  638MPD2    C1 9443   3.263   0.278  14.911  0.5946 -0.3764  0.3211
  638MPD2    C2 9444   3.203   0.162  14.949 -0.3843 -0.1177 -0.1775
  638MPD2    C3 9445   3.159   0.141  15.078 -0.1549  0.3135 -0.4137
  638MPD2    C4 9446   3.180   0.234  15.173 -0.1111  0.2377  0.3306
  638MPD2    C5 9447   3.235   0.350  15.131 -0.7583  0.2339  0.1612
  638MPD2     H 9448   3.181   0.076  14.887 -0.0032 -2.0475  2.3576
  638MPD2    H1 9449   3.138   0.223  15.272  1.5482 -1.4374  0.8539
  638MPD2    H2 9450   3.326   0.473  14.995  2.8075  0.0522 -1.3175
  638MPD2    H3 9451   3.252   0.425  15.207 -0.9823  0.3099  0.1364
  638MPD2     N 9452   3.101   0.019  15.108 -0.0108  0.1837 -0.1984
  638MPD2    H5 9453   3.111   4.672  15.036 -1.9154 -3.0949  2.8153
  638MPD2    N1 9454   3.304   0.304  14.777  0.5871 -0.4030  0.2528
  638MPD2    H7 9455   3.336   0.399  14.761  1.5043 -0.5588  1.1759
  639TMC3    C1 9456   2.996   4.572  15.197 -0.1762  0.3694 -0.9294
  639TMC3    C2 9457   2.921   4.561  15.082 -0.3968  0.0837 -0.1193
  639TMC3    C3 9458   2.891   4.433  15.042 -0.1288 -0.2077  0.1627
  639TMC3    C4 9459   3.033   4.457  15.269  0.0766 -0.0772 -0.2508
  639TMC3    C5 9460   2.981   4.339  15.230  0.3511 -0.4582  0.5078
  639TMC3    C6 9461   2.911   4.319  15.112 -0.3138 -0.0208 -0.0611
  639TMC3     C 9462   3.053   4.699  15.230  0.0477 -0.2921  0.9176
  639TMC3     O 9463   3.063   0.012  15.346  0.0486  0.2916  0.0558
  639TMC3     H 9464   2.886   4.646  15.025 -0.0088 -0.6897 -1.4985
  639TMC3    H1 9465   3.101   4.463  15.354 -0.3313 -1.5151  0.1761
  639TMC3    H2 9466   2.878   4.221  15.078 -1.0761  0.5397 -0.9367
  639TMC3    C7 9467   3.071   4.230  15.261 -0.2955 -0.2346 -0.0931
  639TMC3    C8 9468   2.802   4.435  14.931  0.2322  0.3273 -0.0035
  639TMC3    O1 9469   3.072   4.208  15.380 -0.3922  0.0189 -0.4596
  639TMC3    O2 9470   2.831   4.502  14.843  0.5982  0.7177 -0.4590
  640MPD2     C 9471   3.476   3.131   9.924  0.0114  0.5034  0.2970
  640MPD2    C1 9472   3.391   3.028   9.937  0.2460  0.3635  0.2767
  640MPD2    C2 9473   3.269   3.045   9.998  0.3384  0.3347  0.0983
  640MPD2    C3 9474   3.235   3.165  10.058  0.8773 -0.1065  0.5113
  640MPD2    C4 9475   3.323   3.265  10.039  0.2856 -0.3085 -0.0885
  640MPD2    C5 9476   3.438   3.248   9.975  0.2059 -0.4840 -0.4673
  640MPD2     H 9477   3.192   2.969   9.993  1.1002 -0.5959  2.9554
  640MPD2    H1 9478   3.304   3.361  10.086  2.2560 -0.3476  0.7951
  640MPD2    H2 9479   3.564   3.129   9.861  0.9255 -1.4091  1.6163
  640MPD2    H3 9480   3.497   3.339   9.964  0.2600 -0.3468  0.9349
  640MPD2     N 9481   3.118   3.194  10.124  0.2251  0.9451 -0.4666
  640MPD2    H5 9482   3.103   3.279  10.177  1.1490  1.7292 -1.4689
  640MPD2    N1 9483   3.435   2.907   9.876 -0.0877  0.2618  0.0142
  640MPD2    H7 9484   3.525   2.909   9.829 -0.3638 -1.3330 -0.6061
  641TMC3    C1 9485   3.447   2.677   9.833  0.1903  0.5273  0.8354
  641TMC3    C2 9486   3.559   2.698   9.753  0.6653  0.1312  0.9501
  641TMC3    C3 9487   3.607   2.584   9.697 -0.4357  0.1528  0.1948
  641TMC3    C4 9488   3.409   2.546   9.864  0.7767 -0.3199  0.0708
  641TMC3    C5 9489   3.467   2.441   9.808 -1.0243  0.2635  0.3251
  641TMC3    C6 9490   3.562   2.454   9.707  0.0723  0.2821 -0.3356
  641TMC3     C 9491   3.366   2.789   9.877 -0.1648 -0.6603  0.6846
  641TMC3     O 9492   3.262   2.757   9.933 -0.3506  1.0620 -0.1861
  641TMC3     H 9493   3.604   2.792   9.722  2.7582 -0.9148  0.8044
  641TMC3    H1 9494   3.334   2.539   9.941 -0.2174  1.3271 -0.7467
  641TMC3    H2 9495   3.602   2.368   9.655 -0.8820  1.3409 -2.8171
  641TMC3    C7 9496   3.436   2.300   9.855 -0.0676 -0.1406  0.1126
  641TMC3    C8 9497   3.739   2.595   9.630 -0.6758 -0.9805 -0.3196
  641TMC3    O1 9498   3.346   2.299   9.936  0.3347 -0.5964 -1.1512
  641TMC3    O2 9499   3.767   2.507   9.545 -0.1703 -0.5048  0.5390
  642TMC3    C1 9500   0.102   0.188  12.080  0.2397 -0.1936 -0.5317
  642TMC3    C2 9501   0.234   0.168  12.111  0.1359  0.1592  0.2510
  642TMC3    C3 9502   0.284   0.048  12.130  0.3475  0.0699 -0.0282
  642TMC3    C4 9503   0.017   0.083  12.090  0.5955  0.1402  0.1713
  642TMC3    C5 9504   0.072   4.679  12.101 -0.2394 -0.3072 -0.3608
  642TMC3    C6 9505   0.211   4.659  12.110  0.5441 -0.3769 -0.5723
  642TMC3     C 9506   0.062   0.330  12.093 -0.3981 -0.3190 -0.0307
  642TMC3     O 9507   0.148   0.414  12.059  0.1704 -0.3665 -0.1282
  642TMC3     H 9508   0.284   0.261  12.133  3.1795 -1.1014 -1.3103
  642TMC3    H1 9509   4.635   0.092  12.079  0.6000 -1.0634 -0.7947
  642TMC3    H2 9510   0.265   4.566  12.114 -1.2706 -1.3518  1.2624
  642TMC3    C7 9511   4.700   4.569  12.116  0.2787 -0.2252  0.2805
  642TMC3    C8 9512   0.415   0.043  12.196 -0.6479  0.5404  0.5806
  642TMC3    O1 9513   0.022   4.465  12.065 -0.7646  0.1401  0.3219
  642TMC3    O2 9514   0.473   4.658  12.187 -0.0286  0.2246 -0.1605
  643TMC3    C1 9515   4.033   4.246   0.045 -0.2732  0.5679  0.0541
  643TMC3    C2 9516   3.939   4.309  17.663 -0.5292 -0.0238 -0.4030
  643TMC3    C3 9517   3.850   4.227  17.592 -0.1884  0.1533  0.2001
  643TMC3    C4 9518   4.055   4.112   0.037 -0.1985  0.2254 -0.6108
  643TMC3    C5 9519   3.965   4.041  17.663 -0.2166  0.4116  0.4791
  643TMC3    C6 9520   3.864   4.099  17.598 -0.2688  0.2526  0.1811
  643TMC3     C 9521   4.123   4.337   0.116  0.8652  0.0376  0.0739
  643TMC3     O 9522   4.119   4.456   0.088 -0.2023  0.5424  0.0151
  643TMC3     H 9523   3.927   4.416  17.658  1.0761  0.0378 -2.6405
  643TMC3    H1 9524   4.127   4.064   0.103  1.1499  3.0442 -0.0357
  643TMC3    H2 9525   3.791   4.040  17.543 -0.8204  2.8318 -1.8346
  643TMC3    C7 9526   3.973   3.896  17.655 -0.0087 -0.1759  0.2259
  643TMC3    C8 9527   3.791   4.277  17.472 -0.1685 -1.0061 -0.5995
  643TMC3    O1 9528   3.995   3.846   0.063  0.6700  0.1079 -0.2277
  643TMC3    O2 9529   3.690   4.221  17.440 -0.6785  0.1016 -0.2680
  644MPD2     C 9530   3.471   2.746   9.394  0.0011  0.1636 -0.0072
  644MPD2    C1 9531   3.554   2.856   9.417 -0.0268  0.6247  0.0475
  644MPD2    C2 9532   3.499   2.966   9.490  0.0104  0.1602  0.0293
  644MPD2    C3 9533   3.369   2.969   9.530 -0.6716  0.0912  0.4638
  644MPD2    C4 9534   3.297   2.854   9.522  0.5547  0.5798  0.7224
  644MPD2    C5 9535   3.354   2.742   9.462 -0.0588  0.0060  0.6187
  644MPD2     H 9536   3.558   3.055   9.507 -0.5765  0.5770 -0.1200
  644MPD2    H1 9537   3.194   2.851   9.556  0.3425  3.1308  0.3479
  644MPD2    H2 9538   3.512   2.655   9.351  0.7495 -0.2390  1.5800
  644MPD2    H3 9539   3.293   2.654   9.447  0.9885 -0.1093 -2.9520
  644MPD2     N 9540   3.323   3.089   9.584 -0.2142  0.2214 -0.0914
  644MPD2    H5 9541   3.393   3.163   9.585  0.3806 -0.3396  0.1215
  644MPD2    N1 9542   3.693   2.847   9.380 -0.1501 -0.1229  0.4477
  644MPD2    H7 9543   3.716   2.777   9.310 -1.1282 -0.7647  0.7812
  645TMC3    C1 9544   3.167   3.240   9.691 -0.3381  0.3816  0.3821
  645TMC3    C2 9545   3.246   3.346   9.664 -0.0207  0.5987  0.0927
  645TMC3    C3 9546   3.206   3.466   9.722 -0.5510 -0.1693  0.2710
  645TMC3    C4 9547   3.047   3.266   9.751  0.4024 -0.0184  0.4167
  645TMC3    C5 9548   3.006   3.386   9.797 -0.3650  0.7331  0.7129
  645TMC3    C6 9549   3.091   3.493   9.788  0.2103  0.0197  0.4318
  645TMC3     C 9550   3.197   3.108   9.638  0.2274 -0.0627 -0.1673
  645TMC3     O 9551   3.115   3.025   9.669  0.4656 -0.4362 -0.8360
  645TMC3     H 9552   3.340   3.334   9.612  0.3549 -1.7119  1.2929
  645TMC3    H1 9553   2.970   3.189   9.758  3.2522 -2.7927  1.3942
  645TMC3    H2 9554   3.064   3.586   9.837  0.3689 -0.8464  2.1720
  645TMC3    C7 9555   2.905   3.402   9.903 -0.2248  0.2371  0.5594
  645TMC3    C8 9556   3.313   3.566   9.713 -0.3147  0.8528 -0.2556
  645TMC3    O1 9557   2.889   3.514   9.951  0.1338  0.3561  0.4261
  645TMC3    O2 9558   3.423   3.534   9.669 -0.4147  0.0135  0.0311
  646MPD2     C 9559   3.212   3.718  14.328 -0.5932  0.4051  0.2410
  646MPD2    C1 9560   3.114   3.721  14.420 -0.1800 -0.0963  0.9127
  646MPD2    C2 9561   3.008   3.810  14.403 -0.4421  0.6403 -0.0937
  646MPD2    C3 9562   2.995   3.885  14.288 -0.6042 -0.1879 -0.5142
  646MPD2    C4 9563   3.090   3.868  14.187 -0.9594  0.3288  0.0907
  646MPD2    C5 9564   3.198   3.783  14.212  0.3713 -0.2864 -0.0457
  646MPD2     H 9565   2.930   3.809  14.478  1.8313 -1.9927  2.2391
  646MPD2    H1 9566   3.101   3.927  14.097 -0.1793 -2.3165 -1.5653
  646MPD2    H2 9567   3.301   3.658  14.341 -0.2804  0.4565 -1.6347
  646MPD2    H3 9568   3.268   3.766  14.131  0.1987 -0.7781 -0.0907
  646MPD2     N 9569   2.882   3.977  14.268 -0.1864 -0.2307  0.1896
  646MPD2    H5 9570   2.819   3.981  14.347  1.3237 -0.2318  1.3929
  646MPD2    N1 9571   3.132   3.638  14.532  0.0787 -0.4728  0.0511
  646MPD2    H7 9572   3.222   3.591  14.531 -0.2557 -1.0800 -2.2501
  647TMC3    C1 9573   3.088   3.524  14.737  0.8412 -0.2617  0.0962
  647TMC3    C2 9574   3.015   3.525  14.849  0.1365  0.0811  0.0727
  647TMC3    C3 9575   3.066   3.513  14.977 -0.3514 -0.3031  0.6822
  647TMC3    C4 9576   3.219   3.489  14.753  0.0788  0.1943  0.2566
  647TMC3    C5 9577   3.267   3.457  14.877  0.2049  0.0771 -0.4430
  647TMC3    C6 9578   3.202   3.490  14.994  0.2247 -0.4190 -0.2121
  647TMC3     C 9579   3.041   3.611  14.632  0.3766  0.3111  0.2553
  647TMC3     O 9580   2.924   3.643  14.643  0.0741 -0.3342  0.5656
  647TMC3     H 9581   2.908   3.542  14.847 -0.1817 -1.9298  1.1881
  647TMC3    H1 9582   3.284   3.484  14.666 -0.2186 -1.6994  0.1428
  647TMC3    H2 9583   3.244   3.474  15.093 -1.1404  1.3241  0.6469
  647TMC3    C7 9584   3.362   3.347  14.887  0.6874 -0.1331 -0.2282
  647TMC3    C8 9585   2.994   3.436  15.072 -0.8420  0.6532 -0.2644
  647TMC3    O1 9586   3.382   3.310  15.001  0.1251 -0.1493  0.2318
  647TMC3    O2 9587   2.881   3.473  15.102  0.5064  0.0458 -0.2613
  648TMC3    C1 9588   2.254   1.226  15.883  0.2700  0.4961  0.4528
  648TMC3    C2 9589   2.251   1.094  15.863  0.0650 -0.5519 -0.4779
  648TMC3    C3 9590   2.175   1.046  15.759 -0.2418 -0.5573  0.0376
  648TMC3    C4 9591   2.179   1.316  15.810 -0.1520 -0.2592  0.4072
  648TMC3    C5 9592   2.101   1.262  15.715 -0.2691  0.5383  0.3527
  648TMC3    C6 9593   2.089   1.129  15.692 -0.5519  0.1493 -0.2866
  648TMC3     C 9594   2.337   1.280  15.987 -0.3742  0.5898  0.0042
  648TMC3     O 9595   2.324   1.401  16.000  0.2618 -0.4149 -0.4342
  648TMC3     H 9596   2.304   1.021  15.923  0.6535 -0.3875 -0.7971
  648TMC3    H1 9597   2.191   1.423  15.825  1.5048 -0.4320  0.3266
  648TMC3    H2 9598   2.024   1.086  15.615 -0.8629  0.0172  0.0490
  648TMC3    C7 9599   1.973   1.316  15.702 -0.1308  0.7084  0.5942
  648TMC3    C8 9600   2.184   0.904  15.715 -0.8095  0.1783 -0.2889
  648TMC3    O1 9601   1.909   1.286  15.599 -0.0844 -0.2442  0.1424
  648TMC3    O2 9602   2.086   0.861  15.662  0.4294 -0.0531 -0.0015
  649TMC3    C1 9603   1.209   2.028  12.874  0.1931 -0.4098  0.2570
  649TMC3    C2 9604   1.347   2.043  12.881  0.4597  0.0043  0.2723
  649TMC3    C3 9605   1.407   1.981  12.987 -1.3241 -0.6925  0.2515
  649TMC3    C4 9606   1.130   1.975  12.974  0.2707 -0.5675 -0.1977
  649TMC3    C5 9607   1.197   1.914  13.073 -0.4649  0.1114  0.2182
  649TMC3    C6 9608   1.332   1.916  13.082 -0.0479 -0.4299  0.4622
  649TMC3     C 9609   1.140   2.093  12.772  0.2076 -0.1769  0.6320
  649TMC3     O 9610   1.018   2.103  12.790 -0.7252 -0.4707 -0.7091
  649TMC3     H 9611   1.403   2.109  12.816  1.5187  1.0452  2.2333
  649TMC3    H1 9612   1.022   1.971  12.964  0.1067  0.5531  1.0704
  649TMC3    H2 9613   1.384   1.866  13.164  0.5011 -0.0242  0.3598
  649TMC3    C7 9614   1.117   1.857  13.186  0.1167  0.7043  0.3503
  649TMC3    C8 9615   1.525   2.041  13.034 -0.2007  0.1993 -0.2379
  649TMC3    O1 9616   1.023   1.921  13.229  0.1147 -0.1360 -0.4662
  649TMC3    O2 9617   1.530   2.066  13.154 -0.1207 -0.2935 -0.0491
  650TMC3    C1 9618   4.159   3.958  12.725  0.3942  0.5246 -0.3899
  650TMC3    C2 9619   4.170   4.090  12.690 -0.6760  0.3059 -0.3475
  650TMC3    C3 9620   4.068   4.137  12.612 -0.8088  0.2936 -0.3019
  650TMC3    C4 9621   4.055   3.872  12.683 -0.5997  0.2414  0.3517
  650TMC3    C5 9622   3.965   3.923  12.590  0.3881 -0.4242 -0.6946
  650TMC3    C6 9623   3.971   4.057  12.557 -0.0197  0.9842  0.0139
  650TMC3     C 9624   4.217   3.923  12.864  0.0368 -0.0818 -0.0938
  650TMC3     O 9625   4.252   4.009  12.942 -0.4465 -0.4914  0.0238
  650TMC3     H 9626   4.234   4.156  12.747 -1.6968  1.6805 -0.7773
  650TMC3    H1 9627   4.044   3.771  12.719  2.2188 -0.3129 -0.3241
  650TMC3    H2 9628   3.909   4.100  12.479 -0.8831  1.8564  1.1647
  650TMC3    C7 9629   3.848   3.839  12.549  0.3149 -0.1473 -0.4474
  650TMC3    C8 9630   4.060   4.280  12.595 -0.1580  0.0205 -0.3114
  650TMC3    O1 9631   3.831   3.728  12.596  0.4561 -0.8971 -0.2877
  650TMC3    O2 9632   4.128   4.355  12.667 -0.2966 -0.0424 -0.2577
  651MPD2     C 9633   3.003   0.978  10.402 -1.1685 -0.3965  0.6899
  651MPD2    C1 9634   3.003   1.089  10.480 -0.2836 -0.0706  0.4573
  651MPD2    C2 9635   3.121   1.154  10.496  0.6954 -0.1097  0.4345
  651MPD2    C3 9636   3.240   1.111  10.429 -0.3493 -0.2438 -0.7892
  651MPD2    C4 9637   3.230   0.993  10.352 -0.8209 -0.1421  0.3081
  651MPD2    C5 9638   3.118   0.923  10.345 -0.3836  0.7163 -0.3447
  651MPD2     H 9639   3.125   1.236  10.567 -0.5768  1.8057 -1.7319
  651MPD2    H1 9640   3.313   0.952  10.295 -0.0630 -0.6026  1.7406
  651MPD2    H2 9641   2.917   0.915  10.382 -2.3255  1.0596  1.0994
  651MPD2    H3 9642   3.122   0.841  10.274  0.2250 -0.8479  1.5211
  651MPD2     N 9643   3.358   1.179  10.453 -0.4827 -0.4663 -0.2467
  651MPD2    H5 9644   3.344   1.255  10.519 -0.8755 -0.7952  0.0403
  651MPD2    N1 9645   2.897   1.135  10.555  0.3034 -0.2301 -0.3837
  651MPD2    H7 9646   2.917   1.217  10.612  0.1261 -0.1269 -0.4720
  652TMC3    C1 9647   3.835   1.267  10.454  0.4158  0.2755  0.7706
  652TMC3    C2 9648   3.730   1.182  10.436 -1.1974  0.2682 -0.0251
  652TMC3    C3 9649   3.604   1.223  10.462  0.0932 -0.0756 -0.7091
  652TMC3    C4 9650   3.816   1.387  10.511 -0.0244 -0.1199 -0.4446
  652TMC3    C5 9651   3.686   1.428  10.539 -0.5422 -0.0397  0.1314
  652TMC3    C6 9652   3.581   1.352  10.504 -0.0199  0.2199 -0.4240
  652TMC3     C 9653   3.965   1.203  10.477 -0.0986 -1.0111  0.2133
  652TMC3     O 9654   3.959   1.111  10.552 -0.1047 -0.1112  0.0308
  652TMC3     H 9655   3.748   1.080  10.403 -1.3076  0.2483 -0.0243
  652TMC3    H1 9656   3.902   1.445  10.543  0.8543 -2.6732  1.8537
  652TMC3    H2 9657   3.487   1.405  10.509 -1.1012 -1.7809  0.6395
  652TMC3    C7 9658   3.667   1.515  10.649 -0.4454  0.4216 -0.2034
  652TMC3    C8 9659   3.486   1.145  10.408  0.1546  0.0349 -0.7457
  652TMC3    O1 9660   3.585   1.478  10.733  0.7205 -0.7068  0.2779
  652TMC3    O2 9661   3.516   1.054  10.333  0.2166 -0.4632 -0.2806
  653MPD2     C 9662   2.135   1.337   0.051  0.0783 -0.0938  0.5762
  653MPD2    C1 9663   2.079   1.453  17.694  0.9745  0.1980  0.6638
  653MPD2    C2 9664   1.974   1.445  17.610 -0.0995 -0.4152 -0.4146
  653MPD2    C3 9665   1.922   1.321  17.584 -0.4822  0.1820  0.4419
  653MPD2    C4 9666   1.978   1.203  17.645  0.2334 -0.9152  0.2613
  653MPD2    C5 9667   2.087   1.219   0.030 -0.1864 -0.2767 -0.3073
  653MPD2     H 9668   1.927   1.535  17.571 -1.1441 -0.6826  0.2196
  653MPD2    H1 9669   1.944   1.101  17.627  0.4934 -0.9290 -0.1334
  653MPD2    H2 9670   2.226   1.336   0.109  0.4538 -2.2027 -0.0746
  653MPD2    H3 9671   2.142   1.132   0.065 -0.1247  1.0813  2.9356
  653MPD2     N 9672   1.810   1.324  17.495 -0.5788 -0.0283  0.1170
  653MPD2    H5 9673   1.794   1.409  17.443  0.6777 -1.2290 -2.2486
  653MPD2    N1 9674   2.124   1.582   0.029  0.3836  0.1447 -0.4648
  653MPD2    H7 9675   2.081   1.657  17.675 -0.5014 -0.2830 -0.3538
  654TMC3    C1 9676   1.641   1.227  17.355 -0.2360 -0.3484 -0.1802
  654TMC3    C2 9677   1.624   1.339  17.281 -0.0350 -0.4653  0.1370
  654TMC3    C3 9678   1.538   1.335  17.173  0.6633  0.1508  0.6911
  654TMC3    C4 9679   1.606   1.104  17.313 -0.2109 -0.5101  0.2403
  654TMC3    C5 9680   1.538   1.098  17.190  0.3132  0.7233 -0.2051
  654TMC3    C6 9681   1.489   1.211  17.122  0.1114  0.0688 -0.4797
  654TMC3     C 9682   1.736   1.215  17.462 -0.1261 -0.3288 -0.3775
  654TMC3     O 9683   1.748   1.100  17.509 -0.8734 -0.2897  0.1700
  654TMC3     H 9684   1.669   1.435  17.303  1.3010 -1.5944  2.3187
  654TMC3    H1 9685   1.603   1.019  17.381  1.3221 -0.4924  0.3206
  654TMC3    H2 9686   1.428   1.204  17.033 -0.9929  1.5516  0.1630
  654TMC3    C7 9687   1.560   0.978  17.111  0.2081  0.1948 -0.2808
  654TMC3    C8 9688   1.534   1.464  17.093  0.1460 -0.1586 -0.9371
  654TMC3    O1 9689   1.508   0.979  16.999  0.2429  0.3112  0.1109
  654TMC3    O2 9690   1.590   1.563  17.129 -0.1131 -0.3800 -0.3290
  655MPD2     C 9691   2.769   1.480  15.557  0.3313  0.4923  0.2967
  655MPD2    C1 9692   2.651   1.499  15.490  0.9395 -0.9752  0.2779
  655MPD2    C2 9693   2.623   1.426  15.379  0.0973 -0.8819  0.5670
  655MPD2    C3 9694   2.708   1.327  15.344  0.5488  0.0024 -0.1088
  655MPD2    C4 9695   2.816   1.293  15.424 -0.3784  0.9130  0.1357
  655MPD2    C5 9696   2.850   1.373  15.524 -0.4573  0.0745 -0.5257
  655MPD2     H 9697   2.532   1.460  15.330  0.9286 -1.0800 -1.1123
  655MPD2    H1 9698   2.879   1.210  15.393 -0.9449  0.6727 -0.3573
  655MPD2    H2 9699   2.796   1.538  15.644 -0.7598  0.1174  0.8811
  655MPD2    H3 9700   2.937   1.349  15.583 -2.8741  0.3983  3.1675
  655MPD2     N 9701   2.673   1.230  15.249  0.2023  0.1949 -0.5776
  655MPD2    H5 9702   2.736   1.156  15.222 -0.4843 -0.7537  0.4629
  655MPD2    N1 9703   2.559   1.598  15.521  0.8061  0.3339  0.0106
  655MPD2    H7 9704   2.484   1.622  15.458 -0.3079 -0.3225  1.0904
  656TMC3    C1 9705   2.447   1.754  15.661 -0.4630  0.0961 -0.3960
  656TMC3    C2 9706   2.390   1.774  15.780  0.2810  0.1229 -0.6795
  656TMC3    C3 9707   2.311   1.876  15.812 -0.0178 -0.4400 -1.0351
  656TMC3    C4 9708   2.428   1.851  15.557 -0.4635  0.4359 -0.0130
  656TMC3    C5 9709   2.334   1.948  15.588 -0.6643  0.0735 -0.2037
  656TMC3    C6 9710   2.269   1.960  15.711 -0.3688  0.8273 -0.4579
  656TMC3     C 9711   2.553   1.652  15.648  0.3054  0.8556  0.4869
  656TMC3     O 9712   2.589   1.592  15.747 -0.3004 -0.2109  0.2975
  656TMC3     H 9713   2.410   1.713  15.867 -1.9664 -1.8429 -1.5621
  656TMC3    H1 9714   2.469   1.837  15.458  0.7271 -1.2259  0.7099
  656TMC3    H2 9715   2.195   2.035  15.734 -0.4414  0.7548 -0.4552
  656TMC3    C7 9716   2.273   2.029  15.481 -0.2510 -0.4337  0.1076
  656TMC3    C8 9717   2.250   1.890  15.941 -0.4157 -0.2902 -0.4767
  656TMC3    O1 9718   2.346   2.078  15.399  0.2749  0.5520 -0.1417
  656TMC3    O2 9719   2.242   2.002  15.994 -0.0902  0.3601 -0.2787
  657TMC3    C1 9720   1.924   0.601  14.579 -0.0481  0.2257  0.5944
  657TMC3    C2 9721   1.934   0.463  14.582  0.7848  0.4854 -1.6967
  657TMC3    C3 9722   1.851   0.390  14.661  0.8911 -0.4150  0.1481
  657TMC3    C4 9723   1.826   0.655  14.650  0.2510  0.3019  0.4747
  657TMC3    C5 9724   1.737   0.581  14.720 -0.5736 -0.6830  0.0271
  657TMC3    C6 9725   1.750   0.444  14.732  0.5198 -0.0988  0.2894
  657TMC3     C 9726   2.048   0.674  14.570  0.0997  0.6996 -0.1075
  657TMC3     O 9727   2.038   0.797  14.569 -0.6913 -0.2869  0.2751
  657TMC3     H 9728   2.006   0.414  14.518  4.1436  1.8401  1.0251
  657TMC3    H1 9729   1.842   0.761  14.662 -1.3589  0.4039  1.7356
  657TMC3    H2 9730   1.686   0.392  14.802  1.7570 -1.6386  0.2766
  657TMC3    C7 9731   1.648   0.650  14.816 -0.8293 -0.0519  0.6459
  657TMC3    C8 9732   1.836   0.251  14.627  0.4025 -0.5336  0.3572
  657TMC3    O1 9733   1.592   0.583  14.900  0.3034  0.9018 -0.2701
  657TMC3    O2 9734   1.940   0.185  14.616  0.2925 -0.6947  0.1802
  658MPD2     C 9735   3.087   0.813  15.043  0.6323  0.1685  0.3546
  658MPD2    C1 9736   3.003   0.849  14.944 -0.1427  0.2885 -0.1384
  658MPD2    C2 9737   3.049   0.864  14.817 -0.2115  0.0145 -0.6226
  658MPD2    C3 9738   3.183   0.847  14.795 -0.3902 -0.2255 -0.7432
  658MPD2    C4 9739   3.276   0.810  14.892  0.7663  0.1246 -0.7747
  658MPD2    C5 9740   3.223   0.807  15.022 -0.3273  0.9654 -0.2069
  658MPD2     H 9741   2.992   0.901  14.733 -0.6144  0.9089  0.0342
  658MPD2    H1 9742   3.381   0.791  14.874  0.8964 -0.7469  0.8582
  658MPD2    H2 9743   3.058   0.794  15.145 -0.2430 -2.9144 -0.4807
  658MPD2    H3 9744   3.288   0.781  15.104  1.7390  0.1569 -2.1126
  658MPD2     N 9745   3.225   0.883  14.660 -1.1464  0.0155  0.2408
  658MPD2    H5 9746   3.150   0.907  14.597  0.0111  3.5005  0.1734
  658MPD2    N1 9747   2.870   0.889  14.983  0.5962  0.8387 -0.5507
  658MPD2    H7 9748   2.854   0.911  15.081 -0.3766  1.2726 -0.8051
  659TMC3    C1 9749   2.645   0.961  14.955 -0.2033  0.7190  0.0553
  659TMC3    C2 9750   2.665   1.077  15.026  0.0862 -0.2071  0.5733
  659TMC3    C3 9751   2.545   1.132  15.069 -0.2231  0.0037  0.1396
  659TMC3    C4 9752   2.532   0.883  14.946  0.5455 -0.0390  0.5067
  659TMC3    C5 9753   2.421   0.935  15.000 -0.5777 -0.1505 -0.6992
  659TMC3    C6 9754   2.420   1.064  15.056 -0.2735 -0.1993 -0.1366
  659TMC3     C 9755   2.766   0.906  14.896 -0.1851 -0.3175 -0.2121
  659TMC3     O 9756   2.754   0.841  14.793 -0.5745 -0.1081  0.5634
  659TMC3     H 9757   2.759   1.129  15.038  0.3500 -0.4126 -0.6632
  659TMC3    H1 9758   2.533   0.795  14.883  0.3316 -0.9863  1.8194
  659TMC3    H2 9759   2.330   1.107  15.099  0.1451 -0.0922  0.6482
  659TMC3    C7 9760   2.286   0.882  14.979 -0.3168  0.9829  0.0891
  659TMC3    C8 9761   2.550   1.235  15.178 -0.5665 -0.0684 -0.9463
  659TMC3    O1 9762   2.194   0.952  15.011 -0.6849  0.8854  0.0765
  659TMC3    O2 9763   2.444   1.292  15.199  0.2210 -0.0301  0.2038
  660MPD2     C 9764   1.558   4.717  12.639 -0.1052 -0.6669 -0.6413
  660MPD2    C1 9765   1.425   4.697  12.601 -0.2742  0.4763  0.1667
  660MPD2    C2 9766   1.326   4.642  12.688  0.4279 -0.0452  0.7823
  660MPD2    C3 9767   1.367   4.594  12.813  0.4439  0.2701 -0.3680
  660MPD2    C4 9768   1.500   4.599  12.844  0.0568 -0.6694 -0.7806
  660MPD2    C5 9769   1.593   4.661  12.761  0.0922  0.7585 -0.3586
  660MPD2     H 9770   1.221   4.641  12.661  0.2901  0.2284  1.3162
  660MPD2    H1 9771   1.507   4.582  12.951  0.6377 -1.3794 -0.9290
  660MPD2    H2 9772   1.631   0.046  12.580  1.3231 -1.2702  0.5971
  660MPD2    H3 9773   1.695   4.673  12.795 -0.8372  2.1367  1.9229
  660MPD2     N 9774   1.278   4.553  12.916 -0.0694 -0.1780  0.1413
  660MPD2    H5 9775   1.318   4.536  13.008  1.2906  2.2588 -0.0126
  660MPD2    N1 9776   1.385   0.035  12.479  0.7695  0.7999  0.2637
  660MPD2    H7 9777   1.464   0.073  12.427  1.3968 -0.4049  0.3452
  661TMC3    C1 9778   1.248   0.111  12.297  0.4733  0.1816  0.4025
  661TMC3    C2 9779   1.329   0.055  12.200 -0.0711  0.1255 -0.0025
  661TMC3    C3 9780   1.293   0.065  12.069  0.3063 -0.2126 -0.0085
  661TMC3    C4 9781   1.127   0.161  12.265  0.1539  0.3772  0.3310
  661TMC3    C5 9782   1.095   0.157  12.134  1.0294  0.2290 -0.1647
  661TMC3    C6 9783   1.176   0.117  12.028 -0.7193 -0.9583 -0.1058
  661TMC3     C 9784   1.254   0.067  12.436 -0.2022 -0.1954  0.5293
  661TMC3     O 9785   1.150   0.063  12.498  0.0256 -0.5181 -0.0307
  661TMC3     H 9786   1.421   0.007  12.231 -0.0385  0.3681  0.2744
  661TMC3    H1 9787   1.057   0.191  12.342 -0.9863  0.6865 -0.8404
  661TMC3    H2 9788   1.153   0.129  11.923  1.0616 -0.9678 -0.4994
  661TMC3    C7 9789   0.971   0.229  12.108 -0.5742 -0.0557 -1.0450
  661TMC3    C8 9790   1.374   4.720  11.980  0.1826  0.4019  0.1212
  661TMC3    O1 9791   0.958   0.335  12.170 -0.0370 -0.1904 -0.3011
  661TMC3    O2 9792   1.491   4.709  12.015 -0.3490 -0.3249  0.7290
  662MPD2     C 9793   1.461   0.652  17.489  0.0170 -1.1520 -0.1446
  662MPD2    C1 9794   1.447   0.530  17.550 -0.1388 -1.2578  0.1505
  662MPD2    C2 9795   1.363   0.514  17.656  0.4405 -1.0223  0.8542
  662MPD2    C3 9796   1.298   0.622   0.003  0.5801 -0.3172 -0.3522
  662MPD2    C4 9797   1.327   0.747  17.652  0.0763  0.7590  0.0064
  662MPD2    C5 9798   1.405   0.764  17.548  0.5582  0.8385 -0.4370
  662MPD2     H 9799   1.357   0.420   0.010 -1.2535 -1.0401  0.6385
  662MPD2    H1 9800   1.282   0.835  17.695  1.2645  0.8881  0.9907
  662MPD2    H2 9801   1.516   0.670  17.397 -0.5822  1.8320  0.1012
  662MPD2    H3 9802   1.428   0.865  17.518 -1.6407  0.7726 -2.3563
  662MPD2     N 9803   1.202   0.622   0.108 -0.7429  0.2482  0.0374
  662MPD2    H5 9804   1.136   0.698   0.122  0.4692  1.2502  0.2233
  662MPD2    N1 9805   1.519   0.413  17.518  0.0207 -0.2106  0.2086
  662MPD2    H7 9806   1.489   0.333  17.573  2.6135 -0.0113  1.8869
  663TMC3    C1 9807   1.670   0.276  17.417  0.5351  0.0891 -0.0528
  663TMC3    C2 9808   1.728   0.243  17.538  0.5887  0.3210  0.4943
  663TMC3    C3 9809   1.804   0.127  17.529  0.3817 -0.1112  0.5090
  663TMC3    C4 9810   1.665   0.208  17.304  0.0546 -0.1821 -0.3808
  663TMC3    C5 9811   1.726   0.086  17.309  0.0969 -0.2402  0.2720
  663TMC3    C6 9812   1.777   0.034  17.428  0.5285  0.4380  0.9784
  663TMC3     C 9813   1.621   0.413  17.427 -0.0629  0.0721  0.1028
  663TMC3     O 9814   1.663   0.495  17.345 -0.3231 -0.2063 -0.2045
  663TMC3     H 9815   1.754   0.320  17.609 -0.0714  0.4459  0.5975
  663TMC3    H1 9816   1.615   0.266  17.227  0.0890  0.2084 -0.1103
  663TMC3    H2 9817   1.823   4.661  17.434  0.5418  0.3168 -1.0924
  663TMC3    C7 9818   1.683   0.003  17.198  0.4050  0.4891 -0.3827
  663TMC3    C8 9819   1.846   0.072  17.655  0.2995  0.2918 -0.3357
  663TMC3    O1 9820   1.687   0.053  17.085  0.1697 -0.2636 -0.0442
  663TMC3    O2 9821   1.950   0.009  17.670  0.3746 -0.3676 -0.1455
  664MPD2     C 9822   4.047   2.944  17.269  0.0507 -0.4664  0.0933
  664MPD2    C1 9823   4.177   2.975  17.313  0.6589  0.8136  0.6905
  664MPD2    C2 9824   4.203   2.964  17.446 -0.6287 -0.1070 -0.2752
  664MPD2    C3 9825   4.108   2.925  17.537  1.0103 -0.2599  0.1290
  664MPD2    C4 9826   3.989   2.887  17.493 -0.0843  0.2475 -0.3386
  664MPD2    C5 9827   3.959   2.900  17.355 -0.2508 -0.0468  0.2593
  664MPD2     H 9828   4.290   3.010  17.492  0.0971 -1.1067 -0.6541
  664MPD2    H1 9829   3.921   2.849  17.569  0.8127  0.4994  0.5989
  664MPD2    H2 9830   4.021   2.951  17.164  0.1508 -1.3537  0.0114
  664MPD2    H3 9831   3.857   2.880  17.323  0.3215 -3.8650  0.7786
  664MPD2     N 9832   4.131   2.935  17.674  0.3863  0.2135 -0.3953
  664MPD2    H5 9833   4.228   2.949   0.001 -0.3921  0.1946  2.3483
  664MPD2    N1 9834   4.278   3.034  17.237  0.8160  0.2822  0.5285
  664MPD2    H7 9835   4.363   3.062  17.286  1.4586  2.2606 -1.7196
  665TMC3    C1 9836   4.095   2.967   0.208  0.3855  0.6210  0.0868
  665TMC3    C2 9837   4.025   2.927   0.319 -0.3038  0.0683 -0.4955
  665TMC3    C3 9838   4.077   2.963   0.439  0.1419 -0.8993 -0.1488
  665TMC3    C4 9839   4.212   3.032   0.206 -0.4011  0.4367 -0.2750
  665TMC3    C5 9840   4.271   3.039   0.332  0.1511 -0.0275  0.5679
  665TMC3    C6 9841   4.201   3.018   0.447 -0.1917 -0.0324  0.5857
  665TMC3     C 9842   4.039   2.928   0.078 -0.1842 -0.7971  0.4404
  665TMC3     O 9843   3.919   2.909   0.078  0.3598  0.2707  0.4429
  665TMC3     H 9844   3.925   2.885   0.316 -1.5195  3.1475 -2.5962
  665TMC3    H1 9845   4.257   3.076   0.117 -0.3956  2.6432  0.8088
  665TMC3    H2 9846   4.243   3.018   0.547 -0.3458 -2.1146  0.6451
  665TMC3    C7 9847   4.402   3.093   0.339  0.5902  0.7040 -0.2274
  665TMC3    C8 9848   4.012   2.926   0.564  0.8162 -0.6244  0.1048
  665TMC3    O1 9849   4.478   3.077   0.242  0.2865 -0.0359 -0.2985
  665TMC3    O2 9850   4.062   2.841   0.634 -0.0943  0.6043  0.5707
  666TMC3    C1 9851   3.725   2.000  10.219 -0.0939  0.4319 -0.1755
  666TMC3    C2 9852   3.861   2.005  10.224 -0.2238 -0.3760  0.0033
  666TMC3    C3 9853   3.916   2.126  10.198 -0.1456  0.5763 -0.1654
  666TMC3    C4 9854   3.646   2.107  10.177  0.2779 -0.4438  0.5605
  666TMC3    C5 9855   3.708   2.226  10.152  0.1315 -0.5946  0.2420
  666TMC3    C6 9856   3.843   2.237  10.160 -0.0780  0.0513 -0.5074
  666TMC3     C 9857   3.663   1.885  10.269 -0.2260  0.6677 -0.4799
  666TMC3     O 9858   3.715   1.777  10.243  0.1890  0.1356  0.1832
  666TMC3     H 9859   3.916   1.919  10.259  4.4028  2.5281 -0.1499
  666TMC3    H1 9860   3.539   2.096  10.183  0.1687  1.0057  1.2041
  666TMC3    H2 9861   3.899   2.330  10.152 -0.0952 -0.0040 -1.3004
  666TMC3    C7 9862   3.623   2.344  10.162  0.7363 -0.2314  0.9831
  666TMC3    C8 9863   4.036   2.146  10.271  0.0165 -0.0767  0.1612
  666TMC3    O1 9864   3.530   2.340  10.240  0.0036  0.0309  0.5295
  666TMC3    O2 9865   4.067   2.053  10.346  0.3132 -0.1749  0.3460
  667MPD2     C 9866   0.899   3.161  14.886  0.1650 -0.2096  0.4752
  667MPD2    C1 9867   0.788   3.233  14.921 -0.0581  0.0499  0.1170
  667MPD2    C2 9868   0.666   3.170  14.944  0.4868  0.2688 -0.4355
  667MPD2    C3 9869   0.652   3.038  14.926  0.0242  0.3379  0.2504
  667MPD2    C4 9870   0.755   2.965  14.880  0.5181 -0.6670 -0.1241
  667MPD2    C5 9871   0.876   3.030  14.852  0.1003  0.0150 -0.1661
  667MPD2     H 9872   0.575   3.229  14.953  0.2019 -0.5485  1.9732
  667MPD2    H1 9873   0.740   2.858  14.873  1.7884 -0.8453 -0.2130
  667MPD2    H2 9874   1.000   3.201  14.883 -0.3080  0.9140 -0.3049
  667MPD2    H3 9875   0.957   2.980  14.798 -1.1226 -1.9410 -0.1755
  667MPD2     N 9876   0.529   2.970  14.946 -0.2616 -0.5618 -0.6490
  667MPD2    H5 9877   0.517   2.873  14.920 -2.1101 -0.2899 -0.8085
  667MPD2    N1 9878   0.787   3.373  14.935 -0.1791  0.1006 -0.0510
  667MPD2    H7 9879   0.699   3.418  14.958  0.3524  1.2671 -0.3200
  668TMC3    C1 9880   0.854   3.591  14.886  0.0717  0.4573  0.2200
  668TMC3    C2 9881   0.920   3.674  14.797 -0.4065  0.5228 -0.6694
  668TMC3    C3 9882   0.888   3.802  14.805  0.3420 -0.7977  0.0981
  668TMC3    C4 9883   0.772   3.635  14.983 -0.0714 -0.2680  0.2405
  668TMC3    C5 9884   0.759   3.776  14.999 -0.1092  0.0519  0.0161
  668TMC3    C6 9885   0.829   3.858  14.913 -0.3198  0.3504  0.0844
  668TMC3     C 9886   0.887   3.451  14.882 -0.2369 -0.2425  0.1190
  668TMC3     O 9887   1.000   3.427  14.836 -0.0723  0.0788  0.1258
  668TMC3     H 9888   0.991   3.629  14.728 -0.6216  0.1936 -0.6768
  668TMC3    H1 9889   0.729   3.573  15.061 -3.7192 -0.8468 -2.2580
  668TMC3    H2 9890   0.795   3.961  14.913 -0.4368  0.3090  0.5683
  668TMC3    C7 9891   0.675   3.836  15.100  0.4672  0.8442 -0.6036
  668TMC3    C8 9892   0.934   3.899  14.702 -0.2654 -0.6277  0.1722
  668TMC3    O1 9893   0.674   3.959  15.113  0.1112 -0.4933  0.5256
  668TMC3    O2 9894   0.880   4.008  14.714 -0.6729  0.3845  0.6671
  669TMC3    C1 9895   2.913   2.844  14.458 -0.1669 -0.3622  0.3992
  669TMC3    C2 9896   2.803   2.862  14.379  0.6714 -0.5076 -0.4989
  669TMC3    C3 9897   2.804   2.946  14.272  0.8379  0.2858 -0.1292
  669TMC3    C4 9898   3.025   2.918  14.437 -0.4384  0.4291 -0.2436
  669TMC3    C5 9899   3.022   3.004  14.327  0.8805  0.7861  0.4026
  669TMC3    C6 9900   2.916   3.015  14.237 -0.1325  0.0101 -0.1156
  669TMC3     C 9901   2.888   2.791  14.591  0.3685  0.3539 -0.0159
  669TMC3     O 9902   2.777   2.736  14.604  0.3744 -0.0954  0.2240
  669TMC3     H 9903   2.707   2.812  14.392  0.3625 -0.0508 -1.0013
  669TMC3    H1 9904   3.110   2.915  14.503 -1.4168  0.0268  1.0048
  669TMC3    H2 9905   2.920   3.089  14.157  0.0975 -2.1747 -2.1319
  669TMC3    C7 9906   3.149   3.066  14.288  0.3563  0.4552 -0.4208
  669TMC3    C8 9907   2.690   2.944  14.183 -0.2574 -0.6538 -0.0123
  669TMC3    O1 9908   3.224   3.095  14.380  0.6493  0.3634  0.2049
  669TMC3    O2 9909   2.609   2.853  14.209 -0.1797 -0.3534 -0.0539
  670MPD2     C 9910   1.397   0.241  13.037 -0.4831  0.2293  1.1106
  670MPD2    C1 9911   1.469   0.267  13.149 -0.2498  0.4772  0.1361
  670MPD2    C2 9912   1.414   0.319  13.260  0.2166  0.6884  0.2191
  670MPD2    C3 9913   1.279   0.338  13.267  0.0818 -0.2948 -0.0651
  670MPD2    C4 9914   1.204   0.317  13.156 -0.3793 -0.1538  0.7433
  670MPD2    C5 9915   1.268   0.271  13.041 -0.6974 -0.5783  0.0390
  670MPD2     H 9916   1.479   0.340  13.345  1.0281  0.7542 -0.4216
  670MPD2    H1 9917   1.097   0.335  13.152  0.0107  2.0021  0.1716
  670MPD2    H2 9918   1.442   0.196  12.949 -4.1116  1.5929 -1.4049
  670MPD2    H3 9919   1.203   0.232  12.963 -0.8252  1.7578 -1.0143
  670MPD2     N 9920   1.231   0.388  13.390 -0.0680 -0.0863  0.2183
  670MPD2    H5 9921   1.280   0.362  13.475 -0.4148  3.6216  1.5287
  670MPD2    N1 9922   1.602   0.239  13.163  0.3735  0.3410 -0.4529
  670MPD2    H7 9923   1.653   0.253  13.249 -2.1188 -3.1619  1.6455
  671TMC3    C1 9924   1.104   0.481  13.549  0.3982  0.5563  0.5436
  671TMC3    C2 9925   1.221   0.471  13.622 -0.0624  0.8577 -0.1783
  671TMC3    C3 9926   1.214   0.460  13.757  0.3144  0.7393 -0.6806
  671TMC3    C4 9927   0.986   0.452  13.610 -0.0938 -0.0280  0.0349
  671TMC3    C5 9928   0.984   0.407  13.738 -0.4733 -0.3587  0.4055
  671TMC3    C6 9929   1.096   0.423  13.819  0.1422 -0.7866 -0.8760
  671TMC3     C 9930   1.105   0.439  13.413  0.5243  0.2240 -0.4244
  671TMC3     O 9931   1.018   0.471  13.334  0.8391  0.0715  0.2758
  671TMC3     H 9932   1.314   0.513  13.588  1.4165 -1.7838  0.6158
  671TMC3    H1 9933   0.901   0.425  13.549  0.0891  1.8359 -1.0663
  671TMC3    H2 9934   1.089   0.412  13.926  0.6767 -0.5304 -0.8170
  671TMC3    C7 9935   0.925   0.278  13.780  0.1066 -0.1722  0.3623
  671TMC3    C8 9936   1.336   0.409  13.815  0.2740 -0.2128  0.0947
  671TMC3    O1 9937   0.833   0.241  13.706  0.0210  0.3565 -0.1963
  671TMC3    O2 9938   1.401   0.337  13.743  0.7253  0.5225 -0.1342
  672MPD2     C 9939   1.665   0.719   1.318  0.5030  0.6708 -0.4761
  672MPD2    C1 9940   1.766   0.765   1.235 -0.8791  0.6719 -0.0982
  672MPD2    C2 9941   1.887   0.808   1.288  0.6898 -0.1456 -0.8084
  672MPD2    C3 9942   1.909   0.801   1.427 -0.7889 -0.2971  0.4479
  672MPD2    C4 9943   1.812   0.752   1.513  0.4782  0.1024  0.9051
  672MPD2    C5 9944   1.695   0.713   1.456 -0.1520  0.1617  0.9641
  672MPD2     H 9945   1.970   0.828   1.221  0.8394 -3.2383 -1.5594
  672MPD2    H1 9946   1.825   0.739   1.620  0.3005  0.7758  1.0103
  672MPD2    H2 9947   1.569   0.689   1.280  0.5593  0.1749 -0.2304
  672MPD2    H3 9948   1.626   0.662   1.521 -1.2227 -0.3602 -0.5744
  672MPD2     N 9949   2.025   0.864   1.474  0.5092 -0.8428  0.1470
  672MPD2    H5 9950   2.042   0.862   1.574 -1.0615 -0.9592  0.4139
  672MPD2    N1 9951   1.747   0.780   1.093 -0.6208 -0.0957 -0.0851
  672MPD2    H7 9952   1.826   0.783   1.030 -0.8002 -1.9891 -0.4045
  673TMC3    C1 9953   1.627   0.788   0.890 -0.7893 -0.2011  0.1103
  673TMC3    C2 9954   1.736   0.734   0.829 -0.3614 -0.0280  0.2581
  673TMC3    C3 9955   1.773   0.774   0.702 -0.2980  0.8010 -0.9022
  673TMC3    C4 9956   1.542   0.879   0.833  0.4950 -0.9074 -0.7642
  673TMC3    C5 9957   1.579   0.917   0.705 -0.0373 -0.6774 -0.3917
  673TMC3    C6 9958   1.689   0.864   0.635 -0.4404  0.0191  0.8761
  673TMC3     C 9959   1.623   0.785   1.036  0.0063 -0.1693  0.0049
  673TMC3     O 9960   1.513   0.800   1.088 -0.0767 -0.4879 -0.2376
  673TMC3     H 9961   1.782   0.645   0.871  0.6629 -0.3512 -1.5525
  673TMC3    H1 9962   1.460   0.921   0.891  0.7625 -0.7758 -0.4828
  673TMC3    H2 9963   1.725   0.920   0.549 -2.2301 -0.6901 -0.3198
  673TMC3    C7 9964   1.503   1.020   0.633  1.0137  0.6317  0.0069
  673TMC3    C8 9965   1.860   0.697   0.617  0.1617  0.6474 -0.3012
  673TMC3    O1 9966   1.378   1.024   0.648  0.2494  0.1044  0.1198
  673TMC3    O2 9967   1.823   0.705   0.499 -0.2859  0.3351 -0.0924
  674MPD2     C 9968   1.562   1.177   0.088 -0.1847  0.2636  0.1977
  674MPD2    C1 9969   1.451   1.107   0.140  0.4264  0.1394 -0.4032
  674MPD2    C2 9970   1.334   1.188   0.156 -0.4713 -0.0637  0.1371
  674MPD2    C3 9971   1.340   1.320   0.122 -0.3121 -0.5964  0.2790
  674MPD2    C4 9972   1.450   1.384   0.069 -0.0411 -0.0817 -0.5142
  674MPD2    C5 9973   1.559   1.306   0.052 -0.1054  0.2782 -0.5609
  674MPD2     H 9974   1.243   1.144   0.194 -0.0869  1.2986  2.6356
  674MPD2    H1 9975   1.461   1.489   0.043 -0.6852  0.4603  1.4217
  674MPD2    H2 9976   1.659   1.128   0.090 -0.6490 -0.6280  1.3212
  674MPD2    H3 9977   1.652   1.349   0.018  0.5821  0.1810  1.2121
  674MPD2     N 9978   1.218   1.390   0.131 -0.4021 -0.3727  0.1693
  674MPD2    H5 9979   1.134   1.336   0.150  1.0089 -2.0604  1.5676
  674MPD2    N1 9980   1.462   0.975   0.198 -0.0493 -0.1211  0.1443
  674MPD2    H7 9981   1.550   0.927   0.185 -1.3100 -2.0800 -1.2449
  675TMC3    C1 9982   1.407   0.768   0.313 -0.6232 -0.5713 -0.0191
  675TMC3    C2 9983   1.358   0.729   0.430  0.3841  0.2644 -0.5374
  675TMC3    C3 9984   1.389   0.602   0.471 -0.0185 -0.0001  0.1196
  675TMC3    C4 9985   1.500   0.696   0.240  0.4521  0.3965  0.4240
  675TMC3    C5 9986   1.544   0.578   0.307  0.1585  0.4163  0.2724
  675TMC3    C6 9987   1.491   0.537   0.418 -0.5448 -0.2040 -0.1501
  675TMC3     C 9988   1.368   0.903   0.268 -0.2846 -0.0266  0.1867
  675TMC3     O 9989   1.256   0.938   0.309 -0.3684 -0.7125 -0.6010
  675TMC3     H 9990   1.279   0.785   0.478 -0.6505 -1.6580 -0.0069
  675TMC3    H1 9991   1.544   0.748   0.156  1.0605 -1.0304 -0.1268
  675TMC3    H2 9992   1.528   0.446   0.465 -0.2347  0.4117  0.7984
  675TMC3    C7 9993   1.668   0.516   0.268  0.2417  0.1431  0.0914
  675TMC3    C8 9994   1.339   0.559   0.604  0.9345 -0.3115 -1.4799
  675TMC3    O1 9995   1.725   0.450   0.353  0.0516  0.3743 -0.5188
  675TMC3    O2 9996   1.229   0.601   0.639  0.8560 -0.2658  0.3134
  676MPD2     C 9997   3.665   3.474  11.181  0.1244  0.2346  0.0614
  676MPD2    C1 9998   3.692   3.414  11.297 -0.3414  0.0669 -0.5130
  676MPD2    C2 9999   3.781   3.313  11.317 -0.3050 -0.5809  1.0852
  676MPD2    C310000   3.836   3.256  11.202  0.2341 -0.0956 -0.4562
  676MPD2    C410001   3.806   3.318  11.081 -0.4324 -0.0508  0.4431
  676MPD2    C510002   3.723   3.424  11.070  0.7419  0.7502  0.4342
  676MPD2     H10003   3.807   3.292  11.420  0.9921 -1.3649  0.6064
  676MPD2    H110004   3.859   3.280  10.995  0.7058  0.5660  0.8696
  676MPD2    H210005   3.596   3.559  11.176  1.4510  1.1297 -3.3929
  676MPD2    H310006   3.707   3.461  10.969  1.0319 -0.6330 -0.1264
  676MPD2     N10007   3.921   3.142  11.203 -0.0758  0.3332  0.3546
  676MPD2    H510008   3.979   3.132  11.120 -1.0117 -2.2938  0.0439
  676MPD2    N110009   3.637   3.460  11.415  0.2830 -0.4930 -0.0435
  676MPD2    H710010   3.661   3.415  11.502 -3.7470 -0.1205  1.2746
  677TMC3    C110011   3.538   3.591  11.577 -0.7391  0.0207 -0.5792
  677TMC3    C210012   3.540   3.488  11.656  0.0858  0.1768  0.2525
  677TMC3    C310013   3.524   3.511  11.789  0.2012  1.1211  0.2707
  677TMC3    C410014   3.561   3.720  11.615 -0.2756 -0.4674 -0.4280
  677TMC3    C510015   3.560   3.748  11.744 -0.9356  1.1925  0.0837
  677TMC3    C610016   3.537   3.642  11.835 -0.2890  0.5528  0.2008
  677TMC3     C10017   3.550   3.566  11.433  0.2159  0.3757 -0.4100
  677TMC3     O10018   3.503   3.654  11.357 -0.5006 -0.0972  0.1300
  677TMC3     H10019   3.557   3.385  11.627 -1.2867 -0.0199  0.1618
  677TMC3    H110020   3.575   3.790  11.533 -1.8016  0.2456 -0.0658
  677TMC3    H210021   3.534   3.669  11.940 -0.7466 -1.5792  0.7253
  677TMC3    C710022   3.661   3.841  11.792 -0.4044  0.4288 -0.3521
  677TMC3    C810023   3.614   3.424  11.860  0.5059 -0.7344  0.1808
  677TMC3    O110024   3.667   3.862  11.911  0.1430 -0.0647 -0.1807
  677TMC3    O210025   3.706   3.386  11.789  0.0443  0.2317 -0.2447
  678MPD2     C10026   0.542   4.116   1.627 -0.1893 -0.3818  0.5740
  678MPD2    C110027   0.593   4.049   1.519 -0.4440 -0.0552 -0.5227
  678MPD2    C210028   0.500   3.970   1.451  0.2434 -0.0102  0.1742
  678MPD2    C310029   0.366   3.957   1.487  0.3266  0.3794  0.3652
  678MPD2    C410030   0.326   4.029   1.599 -0.3615 -0.7209 -0.4416
  678MPD2    C510031   0.412   4.102   1.679  0.7035  0.1031  0.4148
  678MPD2     H10032   0.538   3.922   1.361  1.9926  1.3019  0.2057
  678MPD2    H110033   0.228   4.042   1.643  0.4194 -0.7636  1.3271
  678MPD2    H210034   0.611   4.172   1.689 -0.8336  1.2566 -0.1700
  678MPD2    H310035   0.376   4.161   1.763  1.6737  0.5359  0.5230
  678MPD2     N10036   0.273   3.900   1.398 -0.2047  0.4494  0.5232
  678MPD2    H510037   0.303   3.872   1.305 -1.0769 -1.0619  0.6894
  678MPD2    N110038   0.724   4.065   1.469  0.3624 -0.0653  0.3727
  678MPD2    H710039   0.746   4.002   1.393  0.6839 -1.0786  1.3035
  679TMC3    C110040   1.095   4.039   1.315  0.6154  0.2327  0.1000
  679TMC3    C210041   0.976   4.039   1.388  0.4469  0.5408 -0.2812
  679TMC3    C310042   0.928   4.162   1.423  0.2550  0.6248 -0.5292
  679TMC3    C410043   1.155   4.158   1.274  0.0631 -0.3574 -0.4741
  679TMC3    C510044   1.095   4.274   1.311  0.0502  0.1912 -0.0314
  679TMC3    C610045   0.972   4.280   1.378  0.5080 -0.8829 -0.3837
  679TMC3     C10046   1.115   3.917   1.243  0.3259 -0.9114 -0.0723
  679TMC3     O10047   1.084   3.818   1.310 -0.4346 -0.0309  0.3001
  679TMC3     H10048   0.935   3.951   1.437 -1.4236  0.6138 -1.7015
  679TMC3    H110049   1.232   4.165   1.198 -0.4549  2.0166 -0.7717
  679TMC3    H210050   0.927   4.375   1.403 -0.9557 -1.1106 -2.1338
  679TMC3    C710051   1.153   4.387   1.262  0.5732 -0.1657  0.1690
  679TMC3    C810052   0.806   4.169   1.500  0.3455  0.5156  0.0412
  679TMC3    O110053   1.073   4.454   1.197 -0.0983 -0.5138 -0.0493
  679TMC3    O210054   0.790   4.266   1.572  0.0065  0.2118  0.0556
  680MPD2     C10055   0.431   2.313  13.576 -0.1880  0.1884  0.2469
  680MPD2    C110056   0.553   2.286  13.631 -0.0001 -0.1089  0.3732
  680MPD2    C210057   0.640   2.391  13.644  0.1944  0.2600 -0.5089
  680MPD2    C310058   0.612   2.519  13.608 -0.2840  0.6690 -0.1148
  680MPD2    C410059   0.493   2.538  13.548  0.3489 -0.2532 -0.9194
  680MPD2    C510060   0.402   2.437  13.527  0.0021  0.5768  0.3777
  680MPD2     H10061   0.736   2.364  13.688  0.4633 -0.2175 -1.3855
  680MPD2    H110062   0.458   2.633  13.510  1.2834  0.7808  0.8096
  680MPD2    H210063   0.359   2.235  13.554 -0.4699  1.4227 -3.1229
  680MPD2    H310064   0.306   2.448  13.479  0.1033 -1.3610 -0.2529
  680MPD2     N10065   0.698   2.633  13.623  0.0525 -0.0039 -0.0611
  680MPD2    H510066   0.651   2.717  13.593  0.1128 -0.0033 -0.1544
  680MPD2    N110067   0.598   2.154  13.678 -0.0753  0.0203 -0.1536
  680MPD2    H710068   0.696   2.149  13.705 -0.2366 -3.8681 -0.2626
  681TMC3    C110069   0.596   1.955  13.782  0.4780  0.2653 -0.4371
  681TMC3    C210070   0.591   2.014  13.905 -0.2328  0.5188  0.1546
  681TMC3    C310071   0.697   2.007  13.989 -0.6590  0.1072  0.5795
  681TMC3    C410072   0.716   1.902  13.738 -0.4595 -1.3080  0.7781
  681TMC3    C510073   0.817   1.892  13.822 -0.2377  0.2492 -0.4208
  681TMC3    C610074   0.807   1.941  13.947  0.6135  0.5765  0.1351
  681TMC3     C10075   0.527   2.037  13.688  0.3464 -0.5637  0.1475
  681TMC3     O10076   0.407   2.028  13.680 -0.3909 -0.2105 -0.0640
  681TMC3     H10077   0.500   2.068  13.929 -1.1069 -0.4308 -1.0520
  681TMC3    H110078   0.703   1.844  13.647  0.6558  0.1932 -0.3430
  681TMC3    H210079   0.891   1.935  14.016  0.3830 -0.1979  0.3551
  681TMC3    C710080   0.940   1.821  13.784  0.8107 -1.0667  0.2091
  681TMC3    C810081   0.677   2.072  14.116  0.9124 -0.7225  0.2908
  681TMC3    O110082   1.029   1.819  13.864 -0.4447  0.3050  0.1912
  681TMC3    O210083   0.562   2.104  14.144 -0.1035 -0.6003 -0.1642
  682MPD2     C10084   2.964   3.414  10.676  0.4019  0.3365 -0.1043
  682MPD2    C110085   2.958   3.299  10.750  0.4022  0.2862 -0.0401
  682MPD2    C210086   2.901   3.298  10.876  0.1871 -0.3959 -0.2263
  682MPD2    C310087   2.854   3.419  10.926  0.4730 -0.1038  1.1456
  682MPD2    C410088   2.855   3.530  10.848  0.2801  0.9775  0.2982
  682MPD2    C510089   2.906   3.527  10.719 -0.2268 -0.3628 -0.1164
  682MPD2     H10090   2.887   3.204  10.928 -0.4440 -1.2475 -1.9300
  682MPD2    H110091   2.808   3.621  10.884 -1.5109  0.4515 -0.7184
  682MPD2    H210092   3.001   3.426  10.575  0.0250 -1.2217 -0.4262
  682MPD2    H310093   2.911   3.612  10.652  0.0089 -0.2804  0.0073
  682MPD2     N10094   2.799   3.431  11.052  0.0242 -0.1620  0.0509
  682MPD2    H510095   2.781   3.525  11.085 -0.9180  0.0838 -1.1849
  682MPD2    N110096   3.037   3.184  10.719  0.8109  0.5759 -0.0550
  682MPD2    H710097   3.038   3.124  10.800  0.3080  1.2199  0.4296
  683TMC3    C110098   2.687   3.533  11.420 -0.0393 -0.8183 -0.6687
  683TMC3    C210099   2.585   3.453  11.477 -1.0860  0.2235  0.3405
  683TMC3    C310100   2.561   3.335  11.423 -0.5214 -0.2490 -0.4889
  683TMC3    C410101   2.749   3.494  11.305 -0.3005 -0.2330 -0.2276
  683TMC3    C510102   2.720   3.367  11.257 -0.0314  0.1223  0.5199
  683TMC3    C610103   2.634   3.283  11.316  0.0937 -0.3486 -0.0823
  683TMC3     C10104   2.753   3.627  11.509 -0.4102  0.3148  0.4341
  683TMC3     O10105   2.705   3.651  11.622  0.1012 -0.0020  0.1664
  683TMC3     H10106   2.517   3.499  11.547  2.1064  1.1062  2.8694
  683TMC3    H110107   2.829   3.543  11.251 -1.3603  0.8760 -0.7823
  683TMC3    H210108   2.601   3.191  11.269 -0.1005 -0.1517 -0.3300
  683TMC3    C710109   2.779   3.328  11.136  0.3516  0.4091  1.0579
  683TMC3    C810110   2.475   3.239  11.498 -0.8974  0.0522  0.1949
  683TMC3    O110111   2.780   3.208  11.115  0.5438  0.3129  0.3217
  683TMC3    O210112   2.400   3.279  11.583 -0.4274 -0.3377  0.1793
  684MPD2     C10113   1.363   3.265  16.078  0.1991  0.4999 -0.4495
  684MPD2    C110114   1.279   3.363  16.023  0.6245  0.8625 -0.7706
  684MPD2    C210115   1.276   3.487  16.081 -0.2336  0.1925  0.7635
  684MPD2    C310116   1.344   3.513  16.197 -0.6552  0.1081  0.2307
  684MPD2    C410117   1.430   3.420  16.247  0.1986  0.2669 -0.2776
  684MPD2    C510118   1.436   3.301  16.187  0.1577 -0.1480 -0.2496
  684MPD2     H10119   1.211   3.559  16.032  2.7952  0.6295 -2.6168
  684MPD2    H110120   1.502   3.428  16.329  0.4753 -3.2339 -0.1818
  684MPD2    H210121   1.383   3.174  16.021  2.9289  1.0489 -0.3735
  684MPD2    H310122   1.520   3.236  16.209  0.2088  0.7604  2.2435
  684MPD2     N10123   1.361   3.642  16.254  0.3058  0.3023 -0.0786
  684MPD2    H510124   1.428   3.656  16.329  0.2869 -2.9595  0.5296
  684MPD2    N110125   1.230   3.350  15.889 -0.8656 -0.0238  0.0107
  684MPD2    H710126   1.168   3.420  15.850  2.0535  1.6275 -1.6741
  685TMC3    C110127   1.243   3.322  15.672 -0.3305 -0.0456  0.5909
  685TMC3    C210128   1.170   3.257  15.579 -0.4271  0.4829 -0.1795
  685TMC3    C310129   1.158   3.314  15.452 -0.7790  0.4069 -0.3143
  685TMC3    C410130   1.303   3.434  15.642 -0.8870  0.7579  0.4903
  685TMC3    C510131   1.310   3.483  15.516 -0.1510  0.0470 -0.0938
  685TMC3    C610132   1.225   3.432  15.425  0.4697  0.2503 -0.1275
  685TMC3     C10133   1.275   3.264  15.794  0.3917 -0.1383 -0.5195
  685TMC3     O10134   1.332   3.158  15.783 -0.0762  0.4347 -0.0294
  685TMC3     H10135   1.125   3.162  15.607 -0.4338  0.3611 -0.6023
  685TMC3    H110136   1.369   3.489  15.709 -1.2634  0.3526  1.1781
  685TMC3    H210137   1.210   3.483  15.330 -1.1598  0.1595  0.0732
  685TMC3    C710138   1.439   3.528  15.459 -0.2774 -0.5518  0.9408
  685TMC3    C810139   1.034   3.312  15.379 -0.1840 -0.2443 -0.0513
  685TMC3    O110140   1.452   3.598  15.356  0.0892 -0.2014 -0.0421
  685TMC3    O210141   1.040   3.309  15.257 -0.3859 -0.6497 -0.2221
  686MPD2     C10142   2.771   3.156  15.733  0.1181 -0.1203  0.6413
  686MPD2    C110143   2.737   3.059  15.826 -0.1135  0.1511 -0.2886
  686MPD2    C210144   2.833   2.972  15.866  0.1364 -0.5054 -0.1423
  686MPD2    C310145   2.961   2.993  15.815 -0.0023  0.4750 -0.3120
  686MPD2    C410146   2.994   3.099  15.729  0.3050 -0.2164 -0.2269
  686MPD2    C510147   2.894   3.178  15.685 -0.3376  0.2483  0.0675
  686MPD2     H10148   2.816   2.887  15.931  2.5786 -1.1789 -0.4095
  686MPD2    H110149   3.087   3.109  15.674 -0.2863  1.1112 -0.9940
  686MPD2    H210150   2.705   3.235  15.700 -2.9662 -1.9884  2.3117
  686MPD2    H310151   2.923   3.248  15.608 -0.6529  0.3415  0.0341
  686MPD2     N10152   3.054   2.914  15.882 -0.4417 -0.1162  0.4279
  686MPD2    H510153   3.025   2.853  15.958 -1.0155 -1.0234 -0.5210
  686MPD2    N110154   2.603   3.040  15.856 -0.3228 -0.0275  0.2664
  686MPD2    H710155   2.530   3.079  15.797  0.0953  2.0242  1.1302
  687TMC3    C110156   3.224   2.769  15.899 -0.1830  0.3673  0.0841
  687TMC3    C210157   3.161   2.670  15.828  0.9938  0.2273  0.4989
  687TMC3    C310158   3.068   2.590  15.883  0.8291 -0.2930 -0.3093
  687TMC3    C410159   3.193   2.775  16.032  0.2873 -0.3521  0.3003
  687TMC3    C510160   3.114   2.684  16.088  0.3780  0.0500  0.0128
  687TMC3    C610161   3.054   2.586  16.015  0.2852 -0.2880  0.1227
  687TMC3     C10162   3.182   2.895  15.843 -0.0267 -0.0922  0.9608
  687TMC3     O10163   3.253   2.961  15.773  0.0730 -0.6947 -0.1662
  687TMC3     H10164   3.155   2.693  15.722 -1.3763  0.6036  0.7210
  687TMC3    H110165   3.250   2.844  16.092  2.7684 -0.8039 -1.5209
  687TMC3    H210166   2.987   2.515  16.061 -0.2956 -1.5656 -2.7188
  687TMC3    C710167   3.037   2.725  16.200 -0.3065  0.7263  0.1675
  687TMC3    C810168   2.954   2.575  15.793 -0.4355 -0.4488 -0.1677
  687TMC3    O110169   2.927   2.674  16.204 -0.2155  0.1675  0.6056
  687TMC3    O210170   2.963   2.594  15.673 -0.0269  0.0707 -0.0560
  688MPD2     C10171   2.506   2.104  17.351 -0.0509 -0.0263 -0.5030
  688MPD2    C110172   2.474   1.968  17.366 -0.0438  0.2131  0.0000
  688MPD2    C210173   2.487   1.888  17.255 -0.1501 -0.0382 -0.3092
  688MPD2    C310174   2.532   1.943  17.132  0.6717 -0.1240  0.0409
  688MPD2    C410175   2.572   2.074  17.123 -0.0189 -0.4761 -0.0322
  688MPD2    C510176   2.555   2.153  17.239  0.0923 -0.7656  0.5787
  688MPD2     H10177   2.460   1.783  17.246  0.6413 -0.1141 -1.8642
  688MPD2    H110178   2.596   2.123  17.029 -1.2606 -1.1369 -0.6928
  688MPD2    H210179   2.502   2.177  17.432  0.6520 -0.8198  0.2549
  688MPD2    H310180   2.585   2.257  17.239 -1.1685 -0.4053  0.2201
  688MPD2     N10181   2.520   1.876  17.007 -0.3772  0.3474  0.3678
  688MPD2    H510182   2.529   1.940  16.929  1.6198  0.9056  1.0699
  688MPD2    N110183   2.431   1.917  17.489  0.0047  0.1762  0.3047
  688MPD2    H710184   2.399   1.821  17.490  0.1786  0.1049 -0.8105
  689TMC3    C110185   2.383   1.911   0.035 -0.2724 -0.0949 -0.4623
  689TMC3    C210186   2.427   1.952   0.157 -0.0726  0.4961 -0.6845
  689TMC3    C310187   2.383   1.887   0.266 -0.6053 -0.3093  0.6383
  689TMC3    C410188   2.298   1.801   0.024  0.3585  0.3353  0.6841
  689TMC3    C510189   2.250   1.744   0.137 -0.6860  0.0236 -0.1661
  689TMC3    C610190   2.294   1.779   0.263 -0.6959 -0.1101  0.5173
  689TMC3     C10191   2.441   1.979  17.612  0.9519 -0.1490  0.3344
  689TMC3     O10192   2.496   2.085  17.633 -0.7600 -0.0692  0.0396
  689TMC3     H10193   2.480   2.045   0.173 -1.8695  1.4427 -0.2400
  689TMC3    H110194   2.252   1.769  17.632  1.3576 -0.4635  0.4598
  689TMC3    H210195   2.248   1.733   0.350  0.1464 -1.9013  0.0224
  689TMC3    C710196   2.218   1.608   0.128 -0.2449 -0.3014 -0.6519
  689TMC3    C810197   2.429   1.919   0.401  0.0074 -0.0626 -0.1551
  689TMC3    O110198   2.280   1.525   0.199 -0.1273  0.0526 -0.5216
  689TMC3    O210199   2.364   1.878   0.497  1.1483 -0.2757 -0.1853
  690MPD2     C10200   4.154   4.151  15.814 -0.3234 -0.5760  0.3621
  690MPD2    C110201   4.200   4.065  15.719 -0.4502 -0.7586  0.2663
  690MPD2    C210202   4.252   4.116  15.601  0.4457  0.3406  0.3383
  690MPD2    C310203   4.266   4.253  15.575 -0.4066 -0.2461  0.2730
  690MPD2    C410204   4.228   4.338  15.680  0.1608 -0.5209 -0.2861
  690MPD2    C510205   4.174   4.284  15.798  0.1269 -1.4890 -0.0919
  690MPD2     H10206   4.292   4.050  15.525  1.0858  0.5993  0.4533
  690MPD2    H110207   4.231   4.446  15.665  0.5635 -0.2893  1.4247
  690MPD2    H210208   4.097   4.128  15.902 -1.6001 -1.8352 -0.7940
  690MPD2    H310209   4.136   4.353  15.872  1.6451 -0.6939 -0.0708
  690MPD2     N10210   4.315   4.286  15.443  0.0930 -0.1709  0.6720
  690MPD2    H510211   4.357   4.211  15.390 -0.1886 -0.1839  0.4690
  690MPD2    N110212   4.178   3.926  15.731  0.3979  0.4118  0.0439
  690MPD2    H710213   4.209   3.872  15.651  2.1354  0.1042  0.9273
  691TMC3    C110214   4.104   3.724  15.852 -0.9384  0.8016  0.3274
  691TMC3    C210215   4.011   3.692  15.946  0.4883 -0.2289 -0.2539
  691TMC3    C310216   3.968   3.560  15.950  0.5741 -0.0564  0.0759
  691TMC3    C410217   4.146   3.631  15.760 -0.3500 -0.0528 -0.5429
  691TMC3    C510218   4.094   3.507  15.761 -1.0486  0.4720  0.7119
  691TMC3    C610219   3.999   3.470  15.853  0.1791 -0.0375  0.1882
  691TMC3     C10220   4.141   3.866  15.852  0.5804  0.0614 -0.4382
  691TMC3     O10221   4.159   3.913  15.966 -0.0417 -0.0988 -0.3518
  691TMC3     H10222   3.976   3.768  16.015  3.2559  0.3301  0.5007
  691TMC3    H110223   4.212   3.650  15.676  1.8750 -1.3432  0.8951
  691TMC3    H210224   3.975   3.367  15.875 -1.0340  0.4696  1.2306
  691TMC3    C710225   4.101   3.423  15.647  0.0515  0.1586  0.4377
  691TMC3    C810226   3.842   3.524  16.018  0.4927  0.3276 -0.0511
  691TMC3    O110227   4.197   3.425  15.571 -0.6341  0.6928  0.2184
  691TMC3    O210228   3.835   3.404  16.045  0.2077  0.0713 -0.2446
  692TMC3    C110229   1.076   0.232  15.795  0.3980  1.0538  0.1624
  692TMC3    C210230   1.180   0.278  15.878  0.2433  0.4493 -0.0175
  692TMC3    C310231   1.296   0.207  15.887 -0.7613  0.4950 -0.4779
  692TMC3    C410232   1.100   0.137  15.696 -1.0490  0.5932 -0.3396
  692TMC3    C510233   1.223   0.074  15.705  0.5618 -0.1923 -0.0189
  692TMC3    C610234   1.312   0.105  15.800  0.0322  0.0532  0.5251
  692TMC3     C10235   0.946   0.291  15.816  0.5981  0.5099 -0.3558
  692TMC3     O10236   0.944   0.384  15.892  0.0013  0.3055  0.3671
  692TMC3     H10237   1.152   0.342  15.962 -0.1978  0.4652 -0.1798
  692TMC3    H110238   1.027   0.103  15.623 -0.0974  0.1890 -1.0952
  692TMC3    H210239   1.416   0.081  15.784 -0.3399 -0.7048 -0.7335
  692TMC3    C710240   1.227   4.659  15.673  0.5249 -0.0020 -0.3159
  692TMC3    C810241   1.344   0.165  16.013 -0.6681  0.9363 -0.3603
  692TMC3    O110242   1.160   4.624  15.574 -0.3341 -0.9297  0.0962
  692TMC3    O210243   1.384   0.052  16.014 -0.5049 -0.5329 -0.4010
  693MPD2     C10244   0.413   3.064  11.058  0.1786  0.4831  0.2641
  693MPD2    C110245   0.382   2.952  10.989 -0.0722 -0.2778  0.0785
  693MPD2    C210246   0.448   2.831  11.004 -0.0652  0.5794 -0.5609
  693MPD2    C310247   0.551   2.825  11.090  0.7925  0.3036 -0.0679
  693MPD2    C410248   0.572   2.923  11.183  0.0255  0.2581 -0.0583
  693MPD2    C510249   0.507   3.045  11.159 -0.1340  0.2981  0.3075
  693MPD2     H10250   0.411   2.740  10.960 -0.9953 -0.6059  2.6418
  693MPD2    H110251   0.650   2.916  11.258 -1.8585 -2.3340  1.6451
  693MPD2    H210252   0.348   3.151  11.061 -1.1617 -0.5060 -0.2607
  693MPD2    H310253   0.522   3.129  11.225  2.4035 -0.0532  0.2042
  693MPD2     N10254   0.618   2.695  11.109 -0.1627  0.5214  0.0115
  693MPD2    H510255   0.676   2.695  11.193  0.3518 -1.3306 -0.3275
  693MPD2    N110256   0.274   2.966  10.907  0.6197  0.7446 -0.5155
  693MPD2    H710257   0.217   3.047  10.929  1.1539  0.6621  1.1843
  694TMC3    C110258   0.096   2.829  10.845  0.5341 -0.2452 -0.5602
  694TMC3    C210259   0.065   2.725  10.753 -0.6890 -0.1851  0.4732
  694TMC3    C310260   0.005   2.611  10.801  0.3380 -0.0177  0.1829
  694TMC3    C410261   0.068   2.819  10.978  0.2687  0.4165  0.0569
  694TMC3    C510262   0.006   2.699  11.021 -0.4161  0.4545  0.4435
  694TMC3    C610263   4.689   2.600  10.932 -0.3903 -0.1324  0.4847
  694TMC3     C10264   0.234   2.877  10.817  0.3695 -0.0982 -0.3994
  694TMC3     O10265   0.300   2.801  10.749 -0.5308  0.4962  0.1360
  694TMC3     H10266   0.080   2.742  10.647 -0.6757 -1.2064  0.3171
  694TMC3    H110267   0.108   2.893  11.046 -0.1511 -0.0058  0.7597
  694TMC3    H210268   4.639   2.511  10.966 -0.1875 -0.1547  0.7193
  694TMC3    C710269   4.722   2.684  11.164  0.6553 -0.0929  0.0276
  694TMC3    C810270   4.688   2.506  10.716 -0.4768  0.2741  0.2633
  694TMC3    O110271   0.015   2.782  11.235  0.4501 -0.5723 -0.5492
  694TMC3    O210272   4.600   2.429  10.758 -0.3784 -0.0469  0.1433
  695MPD2     C10273   1.409   4.686  13.360  0.5589 -0.9570  0.6899
  695MPD2    C110274   1.373   4.655  13.488  0.0676  0.4143  0.3788
  695MPD2    C210275   1.243   4.683  13.528  0.7317  0.2532  0.2408
  695MPD2    C310276   1.144   4.722  13.440 -0.3221 -0.5946  0.2863
  695MPD2    C410277   1.184   0.028  13.311 -0.2920  0.0869  0.5281
  695MPD2    C510278   1.312   0.001  13.272  0.0496 -0.0504 -0.7248
  695MPD2     H10279   1.210   4.658  13.628 -1.1542  1.0020 -0.2061
  695MPD2    H110280   1.102   0.043  13.241 -0.2639  0.0369  0.4843
  695MPD2    H210281   1.507   4.684  13.315 -0.2062 -2.4551 -0.9298
  695MPD2    H310282   1.323   0.017  13.165 -0.8141 -1.7676 -1.0769
  695MPD2     N10283   1.012   0.010  13.495 -0.0428 -0.0580  0.1059
  695MPD2    H510284   1.003   4.700  13.590 -0.4145  1.0766  0.4879
  695MPD2    N110285   1.464   4.605  13.579  0.2355 -0.5041 -0.1338
  695MPD2    H710286   1.423   4.588  13.671  1.7281  0.7842  0.7687
  696TMC3    C110287   0.782   0.003  13.474 -0.5538  0.1392  0.3105
  696TMC3    C210288   0.783   4.652  13.589 -0.0039 -0.9612 -0.7149
  696TMC3    C310289   0.670   4.650  13.664  0.1444  1.0898 -0.1959
  696TMC3    C410290   0.676   0.080  13.444  0.0132 -0.7864 -0.2002
  696TMC3    C510291   0.571   0.100  13.525  0.3551  0.6971 -0.2065
  696TMC3    C610292   0.566   0.016  13.636  0.4697 -0.1199  1.4670
  696TMC3     C10293   0.907   0.058  13.423 -0.2236 -0.7680 -0.4091
  696TMC3     O10294   0.901   0.122  13.319 -0.5633  0.0016 -0.2963
  696TMC3     H10295   0.847   4.565  13.586  0.2170 -0.7869 -1.1576
  696TMC3    H110296   0.679   0.160  13.371 -0.6413  0.7057  1.4100
  696TMC3    H210297   0.483   0.017  13.705 -1.4517  2.2314 -0.8646
  696TMC3    C710298   0.528   0.237  13.538  0.3817 -0.0058 -0.1008
  696TMC3    C810299   0.643   4.553  13.764 -0.3469  0.0167  0.0497
  696TMC3    O110300   0.503   0.303  13.437 -0.2428  0.4074  0.1995
  696TMC3    O210301   0.535   4.499  13.747  0.1052 -0.2776 -0.4857
  697MPD2     C10302   0.399   1.766  15.654 -0.5272  0.5904 -0.0769
  697MPD2    C110303   0.479   1.703  15.566  0.2552 -0.0367 -1.0511
  697MPD2    C210304   0.544   1.782  15.476 -0.0148  0.1534 -0.2009
  697MPD2    C310305   0.505   1.908  15.451  0.3621 -0.0404  0.3576
  697MPD2    C410306   0.403   1.961  15.519  0.2990  0.1153 -0.0176
  697MPD2    C510307   0.355   1.888  15.627 -0.3543 -0.0830  0.3126
  697MPD2     H10308   0.632   1.748  15.421 -0.7071 -0.8400 -0.7028
  697MPD2    H110309   0.366   2.061  15.505 -0.8317 -0.3474 -0.3061
  697MPD2    H210310   0.347   1.713  15.733 -0.2878 -0.4612 -0.6238
  697MPD2    H310311   0.287   1.937  15.696 -2.0430 -2.9789  0.6751
  697MPD2     N10312   0.573   1.991  15.347  0.7967  1.0588  0.2517
  697MPD2    H510313   0.662   1.956  15.314  0.0967 -0.7099  0.2358
  697MPD2    N110314   0.509   1.564  15.566 -0.3771 -0.0216 -0.3610
  697MPD2    H710315   0.600   1.538  15.529  0.0271  0.4920  0.2610
  698TMC3    C110316   0.631   2.170  15.210  0.2180  0.2477 -0.5870
  698TMC3    C210317   0.688   2.286  15.223  0.2809  1.1614  0.5164
  698TMC3    C310318   0.783   2.330  15.132  0.1242 -0.2015 -0.3639
  698TMC3    C410319   0.660   2.079  15.114  0.2444 -0.4521  0.0044
  698TMC3    C510320   0.745   2.127  15.012  0.5108 -0.6028 -0.0753
  698TMC3    C610321   0.804   2.255  15.022 -0.7085  0.9186  0.1163
  698TMC3     C10322   0.554   2.124  15.322 -0.2978 -0.0112  0.0613
  698TMC3     O10323   0.481   2.207  15.375  0.0801  0.3093 -0.2040
  698TMC3     H10324   0.670   2.353  15.307  0.7097  0.9116  0.8114
  698TMC3    H110325   0.604   1.987  15.101  0.4605 -0.4669 -0.8489
  698TMC3    H210326   0.888   2.283  14.960  2.5631  0.5012  4.3483
  698TMC3    C710327   0.734   2.067  14.885  0.4205  0.3936 -0.0736
  698TMC3    C810328   0.907   2.366  15.198  0.1546  0.9059  0.1838
  698TMC3    O110329   0.635   2.001  14.867  0.2046  0.7566  0.3355
  698TMC3    O210330   0.922   2.340  15.315  0.9034  0.5770 -0.6111
  699TMC3    C110331   1.065   4.566  13.030  0.1814  0.0700 -0.1279
  699TMC3    C210332   1.089   4.474  13.132  0.3328 -0.6602  0.3367
  699TMC3    C310333   0.994   4.450  13.228  0.6520  0.7208  0.4738
  699TMC3    C410334   0.938   4.620  13.015 -0.3530 -0.1922  0.1877
  699TMC3    C510335   0.841   4.584  13.102  0.5775 -0.1010 -0.3970
  699TMC3    C610336   0.864   4.501  13.210 -0.6436  0.0819 -0.0230
  699TMC3     C10337   1.138   4.558  12.907  0.0340 -0.6004  0.7447
  699TMC3     O10338   1.076   4.556  12.801  0.4001 -0.1024  0.6058
  699TMC3     H10339   1.179   4.413  13.127 -0.1799 -1.3512 -0.3621
  699TMC3    H110340   0.919   4.684  12.930  1.7840  1.5473  1.0143
  699TMC3    H210341   0.791   4.494  13.290  0.6342  2.7797  1.3613
  699TMC3    C710342   0.710   4.642  13.095 -0.1004  0.3931  0.0960
  699TMC3    C810343   1.017   4.381  13.352  0.2929  0.0832 -0.5527
  699TMC3    O110344   0.638   4.621  13.191  0.1838  0.2476 -0.6011
  699TMC3    O210345   0.914   4.366  13.419 -0.2801 -0.0840  0.4235
  700TMC3    C110346   0.201   2.617  16.777 -0.0905 -0.1476 -0.1369
  700TMC3    C210347   0.185   2.495  16.835 -0.3281 -0.5519 -0.1756
  700TMC3    C310348   0.166   2.481  16.969  0.4521  0.1910  0.3523
  700TMC3    C410349   0.181   2.731  16.851  0.5681 -0.7845 -0.5428
  700TMC3    C510350   0.139   2.718  16.980  0.1244  0.5313  0.3012
  700TMC3    C610351   0.143   2.594  17.049 -0.8376 -0.3958  0.1515
  700TMC3     C10352   0.318   2.624  16.686  0.6144  0.7019 -0.8233
  700TMC3     O10353   0.371   2.512  16.671 -0.0779  0.4622 -0.2817
  700TMC3     H10354   0.177   2.412  16.766  0.2852 -0.2641 -0.5926
  700TMC3    H110355   0.164   2.831  16.812  0.7902  0.2813  2.1273
  700TMC3    H210356   0.126   2.572  17.153 -1.1872  1.4595  0.4916
  700TMC3    C710357   0.131   2.843  17.059 -0.1073 -0.4094  0.5068
  700TMC3    C810358   0.234   2.369  17.034  0.1900 -0.2439 -0.6755
  700TMC3    O110359   0.215   2.930  17.032 -0.0228  0.3773 -0.5030
  700TMC3    O210360   0.195   2.351  17.145 -0.4296 -0.3269  0.3174
  701TMC3    C110361   4.618   0.927  15.771  0.1929  0.6578 -0.5448
  701TMC3    C210362   4.637   0.879  15.644 -0.6115  0.3868 -0.2126
  701TMC3    C310363   4.693   0.963  15.550 -0.1289  0.1941  0.1748
  701TMC3    C410364   4.660   1.054  15.809 -0.1185  0.4188 -0.4075
  701TMC3    C510365   4.697   1.136  15.708  0.5493  0.8267 -0.9551
  701TMC3    C610366   4.721   1.093  15.579 -0.4104 -0.2702 -0.3057
  701TMC3     C10367   4.528   0.863  15.870 -0.1304  0.5703  0.9877
  701TMC3     O10368   4.502   0.915  15.975  0.3675  0.1218 -0.1952
  701TMC3     H10369   4.612   0.777  15.616 -0.0335  0.0114  0.6355
  701TMC3    H110370   4.619   1.088  15.903 -0.9579  0.1154 -0.6677
  701TMC3    H210371   0.033   1.150  15.494  0.1308  0.1702  0.2149
  701TMC3    C710372   4.715   1.276  15.722 -0.8782  0.3170 -0.4327
  701TMC3    C810373   4.722   0.919  15.414 -0.1467  0.3456 -0.4564
  701TMC3    O110374   4.723   1.337  15.615 -0.6502 -0.3226  0.5015
  701TMC3    O210375   0.073   0.990  15.350 -0.1831 -0.2597  0.5225
  702MPD2     C10376   4.420   2.801  10.788 -0.0273  0.4897 -0.3981
  702MPD2    C110377   4.282   2.769  10.799 -0.1737 -0.5815  0.4207
  702MPD2    C210378   4.209   2.733  10.692  0.0894 -0.4969  0.4502
  702MPD2    C310379   4.259   2.748  10.564  0.4831  0.0239  0.2614
  702MPD2    C410380   4.393   2.779  10.549  0.1507 -0.3526  0.0928
  702MPD2    C510381   4.472   2.799  10.661  0.8900 -0.0569  0.0149
  702MPD2     H10382   4.106   2.704  10.711  0.5409 -2.1161  0.4084
  702MPD2    H110383   4.443   2.761  10.454 -0.2701  0.7958 -0.3342
  702MPD2    H210384   4.474   2.821  10.879  0.1590 -0.5797 -0.2803
  702MPD2    H310385   4.575   2.832  10.649  0.2844  1.3260 -1.5120
  702MPD2     N10386   4.177   2.733  10.452 -0.4908 -0.0985 -0.7101
  702MPD2    H510387   4.083   2.705  10.475 -0.2199 -1.8356 -1.7263
  702MPD2    N110388   4.221   2.779  10.929 -0.3596  0.0090 -0.5690
  702MPD2    H710389   4.139   2.722  10.947 -1.6763  1.5176 -1.7996
  703TMC3    C110390   4.058   2.797  10.273  1.0351  0.5770  1.0795
  703TMC3    C210391   3.962   2.758  10.363 -0.1702 -0.5135 -0.2071
  703TMC3    C310392   3.882   2.853  10.425 -0.4009  0.3613  0.1263
  703TMC3    C410393   4.053   2.923  10.226  0.3334  0.0570  0.9544
  703TMC3    C510394   3.986   3.018  10.298 -0.1688  0.0396  0.3094
  703TMC3    C610395   3.903   2.985  10.398 -0.2925  0.0181  0.2504
  703TMC3     C10396   4.195   2.780  10.325 -0.0799 -0.5214  0.4076
  703TMC3     O10397   4.293   2.816  10.268 -1.0041  0.0340  0.1106
  703TMC3     H10398   3.936   2.653  10.373 -1.1416 -0.3428 -0.9812
  703TMC3    H110399   4.134   2.950  10.159  1.4002 -1.0271  1.8105
  703TMC3    H210400   3.860   3.065  10.456 -2.4591  0.4444 -1.9300
  703TMC3    C710401   4.073   3.135  10.316  0.2241  0.0191  0.0570
  703TMC3    C810402   3.803   2.816  10.532  0.1010 -0.0193 -0.6600
  703TMC3    O110403   4.193   3.128  10.288  0.1535  0.5791 -0.2578
  703TMC3    O210404   3.807   2.694  10.554  0.1853 -0.8395 -0.1377
  704TMC3    C110405   1.912   1.386  12.875  0.2609 -0.1594  0.6846
  704TMC3    C210406   2.027   1.448  12.831 -0.5318 -0.9491 -0.4621
  704TMC3    C310407   2.146   1.386  12.859 -0.8803  0.0947 -0.3718
  704TMC3    C410408   1.908   1.273  12.950  0.2320  0.3135  0.0664
  704TMC3    C510409   2.028   1.223  12.979  0.0448 -0.2751  0.9550
  704TMC3    C610410   2.147   1.279  12.939 -0.1170 -0.4484 -0.1459
  704TMC3     C10411   1.795   1.402  12.788  0.4464  0.3053 -0.9955
  704TMC3     O10412   1.687   1.359  12.826 -0.1921 -0.0013  0.2211
  704TMC3     H10413   2.032   1.543  12.780  1.2186  0.1250  1.7034
  704TMC3    H110414   1.814   1.224  12.974  0.3200  0.7984  1.3877
  704TMC3    H210415   2.242   1.233  12.966  0.3423  1.1390  0.9213
  704TMC3    C710416   2.038   1.078  12.997 -0.1837  0.0374  0.5040
  704TMC3    C810417   2.253   1.383  12.759  0.2888 -0.0242  0.5763
  704TMC3    O110418   2.132   1.038  12.933 -0.8316  0.3263  0.2485
  704TMC3    O210419   2.214   1.396  12.644 -0.0684 -0.0005 -0.5275
  705MPD2     C10420   1.497   4.304  16.525 -0.4298  0.5597  0.2975
  705MPD2    C110421   1.505   4.440  16.538 -0.0480  0.2489  0.1045
  705MPD2    C210422   1.394   4.508  16.578 -0.0564 -0.0144 -0.0716
  705MPD2    C310423   1.264   4.446  16.585  0.1200  0.5846  0.6457
  705MPD2    C410424   1.256   4.313  16.567 -0.2344  0.1478 -0.6640
  705MPD2    C510425   1.375   4.243  16.549 -0.1664 -0.2541  0.6478
  705MPD2     H10426   1.414   4.612  16.600 -1.4089  0.1983  0.1502
  705MPD2    H110427   1.165   4.255  16.580  0.1006 -0.0646  0.7438
  705MPD2    H210428   1.576   4.252  16.472 -0.3930  1.3384 -0.4153
  705MPD2    H310429   1.367   4.136  16.542  1.5203 -0.5932  3.7763
  705MPD2     N10430   1.143   4.519  16.595  0.3711  0.0618  0.4115
  705MPD2    H510431   1.060   4.469  16.564 -0.6600  2.9842 -1.5215
  705MPD2    N110432   1.630   4.513  16.524 -0.3876 -0.1689  0.3984
  705MPD2    H710433   1.635   4.605  16.566  0.5583 -0.3755  0.7414
  706TMC3    C110434   2.021   4.572  16.291 -0.4209 -0.2081 -0.5613
  706TMC3    C210435   1.980   4.703  16.260 -0.2603 -0.0655 -0.3707
  706TMC3    C310436   1.894   0.043  16.340  0.2586  0.6820  0.1319
  706TMC3    C410437   1.965   4.506  16.392  0.0815 -0.1926  0.1500
  706TMC3    C510438   1.853   4.560  16.447 -0.3651  0.1773 -0.0641
  706TMC3    C610439   1.824   4.695  16.429  0.3740  0.2786 -0.0977
  706TMC3     C10440   2.134   4.518  16.215 -0.5396 -0.2367 -0.1167
  706TMC3     O10441   2.227   4.466  16.281 -0.5005  0.6487 -0.1650
  706TMC3     H10442   2.034   0.029  16.181  0.6246  0.0901  0.3400
  706TMC3    H110443   1.990   4.403  16.414 -0.6793 -0.8440 -2.0297
  706TMC3    H210444   1.736   0.006  16.482  0.3474 -0.2988  0.2565
  706TMC3    C710445   1.743   4.468  16.460 -0.6450 -0.3657 -0.0424
  706TMC3    C810446   1.840   0.163  16.302 -0.1377  1.0015  0.8838
  706TMC3    O110447   1.764   4.365  16.394  0.0492 -0.1560 -0.0800
  706TMC3    O210448   1.849   0.189  16.180 -0.4440 -0.0535  0.7695
  707TMC3    C110449   3.554   3.749   1.722 -0.3387  0.0084 -0.3016
  707TMC3    C210450   3.664   3.669   1.755 -0.0011  0.2504 -0.2165
  707TMC3    C310451   3.681   3.619   1.882 -0.1335  0.2965 -0.1842
  707TMC3    C410452   3.475   3.794   1.820 -0.2207  0.0375 -1.1678
  707TMC3    C510453   3.503   3.753   1.953  0.0165  0.6813  0.4792
  707TMC3    C610454   3.598   3.659   1.986 -0.0841 -0.3884  0.4392
  707TMC3     C10455   3.528   3.792   1.582 -0.5615  0.1499 -0.9080
  707TMC3     O10456   3.445   3.878   1.561  0.2101  0.2083 -0.6147
  707TMC3     H10457   3.729   3.644   1.672 -0.1512 -0.4240 -0.1240
  707TMC3    H110458   3.404   3.876   1.813 -0.2360  0.1963  0.7285
  707TMC3    H210459   3.613   3.617   2.085 -4.5045 -1.6905  0.5384
  707TMC3    C710460   3.430   3.820   2.054  0.3062  0.1578  0.4494
  707TMC3    C810461   3.782   3.526   1.923 -0.3986  0.1131  0.6766
  707TMC3    O110462   3.318   3.863   2.024 -0.3958 -0.1519  0.3365
  707TMC3    O210463   3.843   3.566   2.022  0.2009 -0.3324  0.0407
  708MPD2     C10464   0.319   2.535  14.272  0.3439  0.2439 -0.1415
  708MPD2    C110465   0.237   2.635  14.225  0.9237  0.6984 -0.3970
  708MPD2    C210466   0.289   2.765  14.233 -0.1648 -0.8830 -0.7439
  708MPD2    C310467   0.417   2.786  14.293  0.1365  0.3840 -0.0598
  708MPD2    C410468   0.483   2.679  14.345 -0.1167 -0.1248 -0.4366
  708MPD2    C510469   0.437   2.551  14.334  0.1195 -0.0780 -0.6070
  708MPD2     H10470   0.235   2.847  14.186  2.3412  1.1159 -0.1525
  708MPD2    H110471   0.582   2.691  14.386  0.2636 -1.7743 -0.8902
  708MPD2    H210472   0.284   2.432  14.277  1.3441 -0.0523  0.7480
  708MPD2    H310473   0.495   2.477  14.387  1.4210  1.4573  0.1317
  708MPD2     N10474   0.470   2.913  14.319  0.0730 -0.2921 -0.0709
  708MPD2    H510475   0.552   2.920  14.377 -0.7878  2.1607  0.8338
  708MPD2    N110476   0.109   2.612  14.175  0.5428 -0.1561 -0.7633
  708MPD2    H710477   0.076   2.518  14.193 -1.1288  0.6767  0.6049
  709TMC3    C110478   4.612   2.673  14.123 -0.0137 -0.0289  0.2926
  709TMC3    C210479   4.521   2.737  14.041  0.7203 -0.4817  0.4281
  709TMC3    C310480   4.390   2.750  14.086 -0.2126  0.2505 -1.1154
  709TMC3    C410481   4.575   2.641  14.254 -0.3945 -0.2570 -0.2796
  709TMC3    C510482   4.452   2.674  14.296  0.3309 -0.4819  0.5416
  709TMC3    C610483   4.354   2.721  14.219  0.0671 -0.4955 -0.0402
  709TMC3     C10484   0.030   2.709  14.113 -0.0777  0.7715  0.3017
  709TMC3     O10485   0.058   2.818  14.063  0.2090 -0.2076 -0.4646
  709TMC3     H10486   4.562   2.764  13.945  0.1502 -0.8419  0.0841
  709TMC3    H110487   4.649   2.599  14.320 -1.1193 -1.0610  0.0167
  709TMC3    H210488   4.258   2.736  14.267  0.4798 -0.4327  0.7647
  709TMC3    C710489   4.466   2.739  14.422 -0.0631  0.4820 -0.1634
  709TMC3    C810490   4.277   2.786  13.995 -0.2207 -0.0064  0.3436
  709TMC3    O110491   4.363   2.754  14.491 -0.2056  0.3653 -0.0489
  709TMC3    O210492   4.167   2.772  14.043 -0.5517  0.1855  0.3849
  710TMC3    C110493   1.110   0.221   0.607  0.0864 -0.3390  0.0864
  710TMC3    C210494   1.210   0.227   0.516  0.4070  0.4802  0.3449
  710TMC3    C310495   1.335   0.178   0.554  0.3681  0.2907  0.2055
  710TMC3    C410496   1.128   0.164   0.728 -0.0313  0.1524 -0.2113
  710TMC3    C510497   1.250   0.125   0.771  0.5430 -0.5674  0.5207
  710TMC3    C610498   1.351   0.129   0.678  0.0231 -0.0248  1.2272
  710TMC3     C10499   0.976   0.231   0.558  0.1757  0.1435  0.3941
  710TMC3     O10500   0.962   0.243   0.436 -0.4166 -0.3623 -0.2933
  710TMC3     H10501   1.191   0.256   0.414  2.2618  1.4442  0.2745
  710TMC3    H110502   1.045   0.159   0.797  1.5897 -0.6063  1.6637
  710TMC3    H210503   1.452   0.100   0.705  0.7715  1.8000  0.3769
  710TMC3    C710504   1.261   0.032   0.887  0.0722  0.1686 -0.2386
  710TMC3    C810505   1.435   0.189   0.449 -0.4228 -0.0062 -0.7048
  710TMC3    O110506   1.149   4.720   0.929 -0.4453  0.5623 -0.0486
  710TMC3    O210507   1.387   0.205   0.337  0.0489 -0.3867  0.0517
  711TMC3    C110508   0.629   0.214  14.997  0.2541 -0.0988  0.4613
  711TMC3    C210509   0.640   0.302  15.098 -0.5973  0.6018 -0.3667
  711TMC3    C310510   0.743   0.290  15.186  0.0332  0.1007  0.3579
  711TMC3    C410511   0.690   0.094  14.995  0.7208  0.2966 -0.4888
  711TMC3    C510512   0.781   0.083  15.095  0.6134  0.3264  0.0912
  711TMC3    C610513   0.815   0.177  15.183 -0.2109 -0.7236  0.7117
  711TMC3     C10514   0.538   0.237  14.887 -0.0609 -0.2129  0.2715
  711TMC3     O10515   0.520   0.143  14.809 -0.2241 -0.1851  0.2300
  711TMC3     H10516   0.570   0.384  15.114 -0.4672  0.2979  1.7536
  711TMC3    H110517   0.673   0.031  14.909 -2.1162 -0.3231  0.5055
  711TMC3    H210518   0.898   0.158  15.250  0.9130  0.8683 -0.2494
  711TMC3    C710519   0.850   4.687  15.098 -0.0873 -0.4165 -0.1265
  711TMC3    C810520   0.711   0.350  15.316  0.4780  0.4517  0.0176
  711TMC3    O110521   0.955   4.692  15.161 -0.2423 -0.2003  0.8913
  711TMC3    O210522   0.593   0.375  15.342  0.1582 -0.2837  0.9243
  712MPD2     C10523   1.709   1.239  13.859 -0.1702  0.4711  0.0561
  712MPD2    C110524   1.632   1.332  13.792  0.1052  0.0688  0.6844
  712MPD2    C210525   1.645   1.460  13.833 -0.3193 -0.8916  0.1068
  712MPD2    C310526   1.735   1.507  13.924 -0.4137 -0.3192 -0.7206
  712MPD2    C410527   1.813   1.409  13.989 -0.6827  0.6447 -0.4009
  712MPD2    C510528   1.799   1.282  13.947  0.1933 -0.6934 -0.5559
  712MPD2     H10529   1.586   1.537  13.784  0.5215  0.6799  1.5586
  712MPD2    H110530   1.900   1.437  14.049  0.0872  0.4621 -1.4367
  712MPD2    H210531   1.719   1.135  13.830  3.0395  1.1135 -1.2051
  712MPD2    H310532   1.870   1.213  13.991  0.3236 -0.1133  0.1652
  712MPD2     N10533   1.762   1.639  13.959 -0.1332 -0.0613 -0.4110
  712MPD2    H510534   1.848   1.663  14.008 -0.4165 -1.6633  0.8399
  712MPD2    N110535   1.540   1.314  13.684  0.3870  0.7464 -0.1841
  712MPD2    H710536   1.498   1.397  13.643  1.9932  1.2979 -0.7167
  713TMC3    C110537   1.714   1.873  13.967  0.1234 -0.2029 -0.3029
  713TMC3    C210538   1.853   1.885  13.971  0.0821 -0.1761  0.0042
  713TMC3    C310539   1.904   2.009  13.973  0.4334 -0.4419  0.1265
  713TMC3    C410540   1.639   1.987  13.948  0.3423  0.0992  0.1907
  713TMC3    C510541   1.699   2.110  13.930 -0.3314  0.4128  0.2868
  713TMC3    C610542   1.834   2.126  13.951 -0.0752  0.0228 -0.4519
  713TMC3     C10543   1.664   1.742  13.945  0.0223 -0.3418  0.7001
  713TMC3     O10544   1.544   1.727  13.923  0.4446  0.8693  0.5568
  713TMC3     H10545   1.922   1.801  13.971 -3.1647 -2.8809  1.9535
  713TMC3    H110546   1.533   1.976  13.926  0.0667  0.8901  1.0940
  713TMC3    H210547   1.894   2.214  13.936  1.9001 -1.7152 -2.7579
  713TMC3    C710548   1.632   2.219  13.872  0.0537 -0.2024 -0.2510
  713TMC3    C810549   2.044   2.025  13.998 -0.3338 -0.0550 -0.9980
  713TMC3    O110550   1.548   2.176  13.790  0.0857  0.1525  0.0567
  713TMC3    O210551   2.101   2.115  13.940  0.1294 -0.4165  0.6667
  714MPD2     C10552   3.746   0.723   1.140 -0.1205 -0.2594  0.6262
  714MPD2    C110553   3.845   0.638   1.084 -0.3756 -0.0685  0.0125
  714MPD2    C210554   3.843   0.630   0.943  0.6063 -0.6105  1.1708
  714MPD2    C310555   3.743   0.683   0.869 -0.1192 -0.6302 -0.8110
  714MPD2    C410556   3.651   0.769   0.931  0.3827 -0.7318 -0.1213
  714MPD2    C510557   3.653   0.789   1.066  0.3581  0.5896 -0.8393
  714MPD2     H10558   3.926   0.579   0.895 -0.3830 -2.1576  1.0795
  714MPD2    H110559   3.577   0.824   0.875 -0.4893 -1.1995  0.5839
  714MPD2    H210560   3.744   0.737   1.247  1.6908 -0.7675  0.7198
  714MPD2    H310561   3.574   0.854   1.103  0.9498  1.0806 -0.4379
  714MPD2     N10562   3.744   0.660   0.728 -0.4773  0.1540  0.1988
  714MPD2    H510563   3.803   0.583   0.698 -1.1132 -1.0167  1.9665
  714MPD2    N110564   3.944   0.568   1.163 -0.0813  0.5834  0.2398
  714MPD2    H710565   3.945   0.597   1.261  0.5211 -0.5467  0.5720
  715TMC3    C110566   4.103   0.401   1.198 -0.7515 -0.5209  0.2658
  715TMC3    C210567   4.139   0.265   1.164  0.2842  0.3903 -0.3609
  715TMC3    C310568   4.239   0.205   1.236  0.3291  0.9653 -0.2445
  715TMC3    C410569   4.167   0.474   1.294 -0.0533 -0.7148 -0.5603
  715TMC3    C510570   4.263   0.409   1.364 -0.3444 -0.0042  0.1209
  715TMC3    C610571   4.301   0.278   1.341 -1.0876  0.3614  0.5336
  715TMC3     C10572   3.999   0.455   1.110  0.4345  0.4370  0.4162
  715TMC3     O10573   3.954   0.376   1.031  0.1446  0.3925 -0.3001
  715TMC3     H10574   4.093   0.201   1.089 -0.6214  0.9241 -0.2589
  715TMC3    H110575   4.142   0.579   1.302  2.2128 -0.0212 -2.5092
  715TMC3    H210576   4.385   0.238   1.397 -0.5257  0.4627 -0.2428
  715TMC3    C710577   4.315   0.467   1.492  0.0903  0.0143  0.5283
  715TMC3    C810578   4.269   0.058   1.222  0.0699 -0.6249  0.2724
  715TMC3    O110579   4.402   0.404   1.555 -0.0198 -0.3573 -0.0037
  715TMC3    O210580   4.253   0.008   1.110  0.2735  0.7098  0.1684
  716MPD2     C10581   4.022   2.779   9.773  0.4770  0.4163  0.2840
  716MPD2    C110582   3.959   2.692   9.680 -0.0320  0.8619  0.2232
  716MPD2    C210583   4.039   2.614   9.605  1.0979 -0.1573  0.6958
  716MPD2    C310584   4.173   2.622   9.608  0.1149  0.2411 -0.3516
  716MPD2    C410585   4.232   2.719   9.682  0.2749  0.4341 -0.4629
  716MPD2    C510586   4.157   2.791   9.767 -0.2202 -0.8465  0.0484
  716MPD2     H10587   4.001   2.551   9.525 -0.3652 -0.4210  1.5995
  716MPD2    H110588   4.337   2.745   9.684 -0.4662  3.3176  1.5277
  716MPD2    H210589   3.960   2.831   9.846  0.5411  1.3623 -0.3253
  716MPD2    H310590   4.198   2.867   9.833 -0.4617  0.6741 -1.5406
  716MPD2     N10591   4.247   2.528   9.526 -0.3677  0.1929  0.0662
  716MPD2    H510592   4.189   2.469   9.468  3.3133 -1.1303 -2.2679
  716MPD2    N110593   3.822   2.688   9.687  0.2490  0.2694 -0.3760
  716MPD2    H710594   3.785   2.763   9.745  1.1515 -1.3443  2.3077
  717TMC3    C110595   4.422   2.387   9.448 -0.5217 -0.7377  0.5613
  717TMC3    C210596   4.348   2.340   9.346  0.2803 -0.1352 -0.8930
  717TMC3    C310597   4.399   2.218   9.301  1.1383  0.0490 -0.9098
  717TMC3    C410598   4.537   2.326   9.495 -0.4376  0.1504  0.1301
  717TMC3    C510599   4.577   2.204   9.448  0.4781  0.2531 -0.7469
  717TMC3    C610600   4.509   2.152   9.345  0.2975 -0.8508  0.8474
  717TMC3     C10601   4.382   2.514   9.521 -0.4149  0.9437 -0.3484
  717TMC3     O10602   4.465   2.565   9.596 -0.1529  0.1470 -0.2032
  717TMC3     H10603   4.254   2.383   9.314  0.5584  0.4946 -0.8658
  717TMC3    H110604   4.582   2.353   9.590  2.0158 -0.1926 -0.9229
  717TMC3    H210605   4.536   2.058   9.299 -1.1746 -1.2035  0.6911
  717TMC3    C710606   4.687   2.135   9.510 -0.0230  0.0109 -0.2178
  717TMC3    C810607   4.310   2.138   9.218  0.3824 -0.1518  0.4050
  717TMC3    O110608   0.020   2.201   9.594 -0.7681 -0.3044 -0.0116
  717TMC3    O210609   4.305   2.019   9.249 -0.4872 -0.7460  0.1832
  718MPD2     C10610   3.641   1.996  13.179 -0.0090 -1.1146 -0.1354
  718MPD2    C110611   3.592   2.049  13.065  0.2221 -0.2196 -0.3275
  718MPD2    C210612   3.521   1.962  12.992  0.3633  0.2810 -0.1441
  718MPD2    C310613   3.487   1.834  13.026 -0.2005  0.5798  0.1306
  718MPD2    C410614   3.537   1.785  13.148  0.0072 -0.2527  0.4961
  718MPD2    C510615   3.619   1.863  13.217 -0.1209 -0.2770 -0.1174
  718MPD2     H10616   3.480   2.012  12.905  1.2657  1.2329 -0.0276
  718MPD2    H110617   3.527   1.685  13.189 -0.3238 -0.2535  0.4112
  718MPD2    H210618   3.704   2.054  13.245  1.1335 -0.4761 -1.7752
  718MPD2    H310619   3.664   1.828  13.310  0.2736  1.4565  0.3389
  718MPD2     N10620   3.384   1.764  12.954 -0.2219  0.3017 -0.7852
  718MPD2    H510621   3.365   1.789  12.858 -0.6826 -1.4816 -1.1564
  718MPD2    N110622   3.618   2.184  13.021  0.1406 -0.7346 -0.4895
  718MPD2    H710623   3.558   2.227  12.952 -0.0297 -3.3392 -1.9730
  719TMC3    C110624   3.675   2.406  13.034  0.5449  0.6385  0.0575
  719TMC3    C210625   3.544   2.424  13.015  0.0529  0.1436  1.0750
  719TMC3    C310626   3.502   2.511  12.927 -0.0765 -0.5571 -0.5803
  719TMC3    C410627   3.764   2.462  12.952 -0.1099  0.5684 -0.0232
  719TMC3    C510628   3.721   2.542  12.854  0.1203 -0.0123  0.4695
  719TMC3    C610629   3.584   2.571  12.832 -0.5062 -0.1428 -0.4040
  719TMC3     C10630   3.708   2.269  13.076  0.2795  0.1719  0.6104
  719TMC3     O10631   3.798   2.255  13.157 -0.5697  0.2530  0.0431
  719TMC3     H10632   3.481   2.371  13.086  1.1607 -2.6893 -0.0687
  719TMC3    H110633   3.869   2.435  12.963 -0.1610  0.8396  1.1299
  719TMC3    H210634   3.546   2.617  12.742  2.1257  0.9754 -0.9683
  719TMC3    C710635   3.818   2.598  12.759  0.0545 -0.4988 -0.3291
  719TMC3    C810636   3.364   2.513  12.889  0.2081  0.7278 -0.8556
  719TMC3    O110637   3.931   2.562  12.783  0.3952  0.9271  0.2318
  719TMC3    O210638   3.339   2.607  12.814  0.2657  0.9627  0.6883
  720MPD2     C10639   2.145   3.630  14.036  0.5212  0.2994 -0.7701
  720MPD2    C110640   2.245   3.641  13.941 -0.5818  0.7253 -0.1030
  720MPD2    C210641   2.370   3.595  13.975  0.6285  0.3444 -0.0545
  720MPD2    C310642   2.395   3.528  14.104  0.6244 -0.2941 -0.2623
  720MPD2    C410643   2.286   3.523  14.198  0.6009 -0.2810 -0.5040
  720MPD2    C510644   2.166   3.574  14.160  0.5150 -0.0780 -0.4008
  720MPD2     H10645   2.451   3.611  13.905 -1.5100  0.6298 -2.4895
  720MPD2    H110646   2.311   3.485  14.296  1.8944  0.3333 -0.6069
  720MPD2    H210647   2.050   3.680  14.021 -0.0741 -0.7574 -0.5194
  720MPD2    H310648   2.081   3.576  14.228  0.6501  2.1017 -0.2847
  720MPD2     N10649   2.521   3.474  14.124 -0.3007 -0.9318  0.0514
  720MPD2    H510650   2.593   3.494  14.056  0.1311  0.9448  1.0628
  720MPD2    N110651   2.224   3.715  13.821  0.5696  0.5583 -0.2443
  720MPD2    H710652   2.304   3.717  13.759 -0.8215 -0.5726 -2.0867
  721TMC3    C110653   2.707   3.405  14.249 -0.3085  0.6098  0.3601
  721TMC3    C210654   2.752   3.344  14.361  0.6023 -0.4003 -0.3299
  721TMC3    C310655   2.886   3.349  14.389  0.8263  0.2716 -0.5254
  721TMC3    C410656   2.793   3.465  14.159  0.0543 -0.0481  0.3162
  721TMC3    C510657   2.922   3.453  14.183 -0.0408 -0.0500  0.0652
  721TMC3    C610658   2.976   3.396  14.300  0.2457 -0.4193  0.0682
  721TMC3     C10659   2.559   3.408  14.238 -0.4957 -0.0752 -0.1744
  721TMC3     O10660   2.499   3.333  14.314  0.3289  0.2846  0.3549
  721TMC3     H10661   2.684   3.288  14.424  1.9954  2.1622  3.4753
  721TMC3    H110662   2.757   3.507  14.066  1.5488 -0.8162 -0.6102
  721TMC3    H210663   3.081   3.405  14.326  0.7374 -0.6766 -1.8415
  721TMC3    C710664   3.021   3.501  14.082 -0.1739 -0.2270 -0.5815
  721TMC3    C810665   2.939   3.287  14.516  0.3649 -1.2485  0.3472
  721TMC3    O110666   3.132   3.450  14.080  0.2347 -0.3192 -0.2793
  721TMC3    O210667   3.061   3.291  14.524 -0.2089 -0.0793  0.1242
  722MPD2     C10668   0.815   2.154  13.411 -0.5718 -0.2427  0.1723
  722MPD2    C110669   0.763   2.276  13.372  0.3828  0.9412  0.2573
  722MPD2    C210670   0.635   2.281  13.321 -0.4190  0.3286  0.1145
  722MPD2    C310671   0.561   2.166  13.287 -0.0659 -0.2369 -0.1229
  722MPD2    C410672   0.616   2.044  13.322  0.0609  0.7774  0.0775
  722MPD2    C510673   0.740   2.044  13.382 -0.5188  0.4794  0.0962
  722MPD2     H10674   0.583   2.371  13.293 -1.7478 -0.3832  0.2788
  722MPD2    H110675   0.578   1.942  13.319 -2.0840  1.5707 -0.0120
  722MPD2    H210676   0.914   2.133  13.449  0.9321  0.0116 -3.6135
  722MPD2    H310677   0.781   1.948  13.411 -0.1383  0.7816  0.5565
  722MPD2     N10678   0.435   2.175  13.223 -0.3754  0.4664  0.1738
  722MPD2    H510679   0.394   2.268  13.213 -0.1397  0.5472 -0.0357
  722MPD2    N110680   0.841   2.396  13.384  0.3761  0.1659 -0.1821
  722MPD2    H710681   0.799   2.485  13.359 -0.6635  0.0860  1.2507
  723TMC3    C110682   0.257   2.101  13.080 -0.4412 -0.3435  0.3262
  723TMC3    C210683   0.197   1.998  13.015 -0.3624  0.0266 -0.9567
  723TMC3    C310684   0.092   2.031  12.926  0.6285  0.3402 -0.0458
  723TMC3    C410685   0.215   2.233  13.064 -0.1638 -0.7423  0.0332
  723TMC3    C510686   0.096   2.258  13.006  0.0197  0.2891 -0.1377
  723TMC3    C610687   0.034   2.153  12.929 -0.1119  0.0546  0.5827
  723TMC3     C10688   0.383   2.072  13.151 -0.5282 -0.5327  0.1115
  723TMC3     O10689   0.434   1.963  13.130  0.0742 -0.2428 -0.4234
  723TMC3     H10690   0.221   1.895  13.040  0.3270 -0.3564 -3.1455
  723TMC3    H110691   0.272   2.318  13.100  0.5668 -1.7868  1.3322
  723TMC3    H210692   4.674   2.181  12.866  0.6866  3.2451  0.9049
  723TMC3    C710693   0.056   2.393  12.978  0.2511  0.0053  0.4034
  723TMC3    C810694   0.004   1.930  12.869 -0.3247 -0.0411 -0.3286
  723TMC3    O110695   0.041   2.417  12.863 -0.0137 -0.0255 -0.4237
  723TMC3    O210696   4.623   1.967  12.817 -0.2526 -0.0096 -0.0687
  724TMC3    C110697   1.272   4.375  10.863 -0.1297 -0.3901 -0.5626
  724TMC3    C210698   1.237   4.425  10.741  0.7396 -0.8465 -0.2412
  724TMC3    C310699   1.304   4.528  10.688 -0.5113 -0.7685  0.0900
  724TMC3    C410700   1.356   4.446  10.948 -0.1963  0.4992  0.2070
  724TMC3    C510701   1.424   4.553  10.897 -0.2617  0.2090 -0.5056
  724TMC3    C610702   1.395   4.597  10.766  0.0423 -0.6586 -0.2114
  724TMC3     C10703   1.212   4.254  10.911  0.0392 -0.4960 -0.0035
  724TMC3     O10704   1.210   4.245  11.032  0.3301  0.0660  0.5277
  724TMC3     H10705   1.180   4.369  10.667  0.9724 -0.8937 -0.3848
  724TMC3    H110706   1.382   4.395  11.040  0.9073  2.3792  0.9476
  724TMC3    H210707   1.452   4.680  10.725  1.3667 -1.0156  0.9024
  724TMC3    C710708   1.551   4.610  10.959 -0.2491  0.6360  0.2115
  724TMC3    C810709   1.279   4.565  10.548  0.3279  0.6480 -0.1422
  724TMC3    O110710   1.625   4.670  10.884 -0.0010 -0.3048 -0.0067
  724TMC3    O210711   1.204   4.487  10.494  0.3704 -0.0726 -0.0461
  725TMC3    C110712   2.793   3.898  12.821 -0.1322  0.2225 -0.0986
  725TMC3    C210713   2.757   3.914  12.690 -0.2536 -0.3362 -0.1995
  725TMC3    C310714   2.652   3.832  12.647  0.2275  0.0533  1.1837
  725TMC3    C410715   2.737   3.813  12.908 -0.0309  0.1410 -0.0977
  725TMC3    C510716   2.637   3.731  12.852 -0.5550  0.3800  0.0513
  725TMC3    C610717   2.590   3.741  12.726 -0.0436 -0.1331 -0.1061
  725TMC3     C10718   2.928   3.948  12.844  0.2879  0.1831  0.2293
  725TMC3     O10719   2.948   4.020  12.939  0.4431  0.2992  0.3701
  725TMC3     H10720   2.811   3.990  12.635 -1.1649  0.9887  0.7552
  725TMC3    H110721   2.788   3.782  12.999 -1.6192  1.0531  1.1031
  725TMC3    H210722   2.506   3.679  12.696  0.4511 -1.7669  1.9451
  725TMC3    C710723   2.640   3.600  12.900 -0.0715 -0.5282 -0.1677
  725TMC3    C810724   2.631   3.804  12.507  0.2010  0.0485  0.7644
  725TMC3    O110725   2.616   3.521  12.810  0.0371  0.2513 -0.2009
  725TMC3    O210726   2.599   3.689  12.468 -0.2497  0.0353 -0.4638
  726MPD2     C10727   0.654   0.170  10.427  0.7397  1.1390  0.2422
  726MPD2    C110728   0.580   0.272  10.368  0.4669  0.6036 -0.3723
  726MPD2    C210729   0.445   0.261  10.366 -0.4056 -0.2274  0.0778
  726MPD2    C310730   0.386   0.142  10.412  0.1703 -0.3298 -0.2669
  726MPD2    C410731   0.467   0.044  10.471 -0.2654 -0.1615  0.4663
  726MPD2    C510732   0.600   0.062  10.488  0.5089  0.4115  0.1063
  726MPD2     H10733   0.382   0.342  10.333  0.2982  0.3745  0.2220
  726MPD2    H110734   0.424   4.670  10.483 -3.4540  0.7121 -3.6121
  726MPD2    H210735   0.762   0.169  10.431  0.7011 -1.2599  0.6044
  726MPD2    H310736   0.668   4.704  10.504  0.7889  0.6778  0.2919
  726MPD2     N10737   0.250   0.128  10.433 -0.0555  0.0640 -0.2356
  726MPD2    H510738   0.218   0.045  10.482 -2.3717  2.4199  2.2447
  726MPD2    N110739   0.641   0.390  10.324 -0.0233  0.1834 -0.2536
  726MPD2    H710740   0.572   0.450  10.279  0.2155  0.4154 -0.3127
  727TMC3    C110741   0.785   0.573  10.315 -0.4688  0.6117  0.2287
  727TMC3    C210742   0.863   0.650  10.396 -0.1945  0.0880  0.2837
  727TMC3    C310743   0.867   0.783  10.378  0.5860  0.4778 -0.4336
  727TMC3    C410744   0.719   0.624  10.204 -0.6573  0.2595  0.3503
  727TMC3    C510745   0.734   0.758  10.186  0.9552 -0.4051 -0.4756
  727TMC3    C610746   0.807   0.840  10.267 -0.2077 -0.2150  0.1702
  727TMC3     C10747   0.773   0.431  10.352 -0.3672 -0.2264 -0.3364
  727TMC3     O10748   0.858   0.385  10.424  0.7811  0.6728  0.2541
  727TMC3     H10749   0.887   0.601  10.489 -1.9338  0.1299  0.7639
  727TMC3    H110750   0.661   0.567  10.133  0.4530  0.1535 -0.4805
  727TMC3    H210751   0.822   0.947  10.258  1.8621 -0.6101 -1.0519
  727TMC3    C710752   0.666   0.803  10.073  0.6342  0.2318 -0.5503
  727TMC3    C810753   0.938   0.869  10.465  0.1804 -0.9534 -0.4493
  727TMC3    O110754   0.618   0.721   9.994  0.1811  0.0163 -0.3678
  727TMC3    O210755   1.012   0.816  10.544 -0.1674 -0.2724  0.2879
  728TMC3    C110756   4.392   4.396  15.255 -0.3619  0.4440 -0.1010
  728TMC3    C210757   4.503   4.326  15.235 -0.3905  0.2060  0.2884
  728TMC3    C310758   4.554   4.308  15.114 -0.2719  0.8069  0.2751
  728TMC3    C410759   4.342   4.468  15.149  0.2089  0.2502  0.4699
  728TMC3    C510760   4.396   4.454  15.027  0.9288 -0.2813  0.2205
  728TMC3    C610761   4.497   4.367  15.005 -0.4750  0.2216 -0.0664
  728TMC3     C10762   4.320   4.403  15.387  0.0364 -0.1546  0.6269
  728TMC3     O10763   4.249   4.501  15.409 -0.5525  0.3769  0.1957
  728TMC3     H10764   4.534   4.268  15.322  2.7817 -0.0712 -1.0328
  728TMC3    H110765   4.252   4.525  15.170 -1.1349 -0.9437 -2.1206
  728TMC3    H210766   4.537   4.358  14.904  1.4117 -0.3123  0.7458
  728TMC3    C710767   4.327   4.533  14.917 -0.5048  0.0015  0.7387
  728TMC3    C810768   4.684   4.243  15.105  0.4447  0.1333 -0.2266
  728TMC3    O110769   4.219   4.588  14.937 -0.9559 -0.0442 -0.0502
  728TMC3    O210770   4.704   4.156  15.192 -0.5191 -0.5641  0.3431
  729MPD2     C10771   2.289   0.052  16.455  0.0299  0.2398  0.3607
  729MPD2    C110772   2.386   0.145  16.476  0.3369 -0.9802 -0.1327
  729MPD2    C210773   2.434   0.165  16.605 -0.7618  0.3259  0.0231
  729MPD2    C310774   2.367   0.102  16.708 -0.5977 -0.1463 -0.2382
  729MPD2    C410775   2.269   0.010  16.685  0.1928 -0.7667  0.9212
  729MPD2    C510776   2.236   4.700  16.559  0.6954 -0.0779  0.7589
  729MPD2     H10777   2.512   0.238  16.624  0.0831 -1.2207  2.4298
  729MPD2    H110778   2.218   4.677  16.761 -2.7513  0.9882  0.2814
  729MPD2    H210779   2.270   0.035  16.350  2.3403  0.4096 -0.1015
  729MPD2    H310780   2.167   4.622  16.529 -0.5808  1.7158 -0.9354
  729MPD2     N10781   2.395   0.138  16.844  0.1678  0.4616  0.3490
  729MPD2    H510782   2.323   0.114  16.910 -0.2066 -0.5316 -0.4294
  729MPD2    N110783   2.428   0.229  16.364  0.1406 -0.0666  0.4047
  729MPD2    H710784   2.372   0.222  16.280  1.2091 -0.2788 -0.2841
  730TMC3    C110785   2.497   0.249  17.029 -0.1631  0.2597  0.1277
  730TMC3    C210786   2.611   0.267  17.097  0.1980 -0.1180  0.4100
  730TMC3    C310787   2.612   0.327  17.218 -0.3242 -0.4693  0.1524
  730TMC3    C410788   2.384   0.303  17.076 -0.3253 -0.9803 -0.0361
  730TMC3    C510789   2.389   0.376  17.192 -0.2285 -0.9145  0.2695
  730TMC3    C610790   2.500   0.385  17.270 -0.1538 -0.3402  0.3635
  730TMC3     C10791   2.505   0.203  16.893  0.2639  0.1779  0.0186
  730TMC3     O10792   2.613   0.201  16.845  0.1692 -0.0966  0.3522
  730TMC3     H10793   2.704   0.227  17.059 -0.1085 -2.0415  1.6887
  730TMC3    H110794   2.292   0.298  17.019  0.9668 -2.7732 -1.9453
  730TMC3    H210795   2.523   0.465  17.340 -1.1037 -0.8746  1.2727
  730TMC3    C710796   2.306   0.491  17.190 -0.6388  0.4632 -0.2933
  730TMC3    C810797   2.746   0.365  17.266  0.2568  0.4302  0.3404
  730TMC3    O110798   2.238   0.510  17.091  0.7460 -0.1960  0.3072
  730TMC3    O210799   2.767   0.355  17.384 -0.1467  0.7925  0.0880
  731MPD2     C10800   1.511   2.295  12.525 -0.0638  0.3178 -0.4409
  731MPD2    C110801   1.653   2.304  12.510  0.4366  0.3673 -0.0611
  731MPD2    C210802   1.715   2.383  12.599  0.2444  0.2585 -0.0324
  731MPD2    C310803   1.658   2.449  12.705  0.5189  0.5142  0.5298
  731MPD2    C410804   1.521   2.431  12.719  0.1252 -0.2423 -0.1009
  731MPD2    C510805   1.451   2.355  12.628  0.5466  0.7765 -0.1913
  731MPD2     H10806   1.820   2.398  12.581 -0.1237  0.0408 -2.4069
  731MPD2    H110807   1.481   2.472  12.811  2.8275 -1.5850  1.6822
  731MPD2    H210808   1.451   2.235  12.457 -0.6401 -1.2704  1.4826
  731MPD2    H310809   1.345   2.339  12.645  0.9914 -0.4795  1.4883
  731MPD2     N10810   1.744   2.524  12.790  0.4469  0.2544 -0.2865
  731MPD2    H510811   1.842   2.512  12.768  0.3238  0.6554 -1.0509
  731MPD2    N110812   1.727   2.253  12.401  0.3520 -0.2460 -0.2654
  731MPD2    H710813   1.677   2.228  12.317  0.1306 -2.4661  0.5385
  732TMC3    C110814   1.909   2.302  12.273  0.2107 -0.4207 -0.5779
  732TMC3    C210815   1.814   2.308  12.174  0.0238 -0.1805  0.0827
  732TMC3    C310816   1.786   2.430  12.119 -0.0735  0.5453 -0.4806
  732TMC3    C410817   1.980   2.411  12.305 -0.4672  0.3042  1.2188
  732TMC3    C510818   1.946   2.535  12.256  0.2632 -0.0831 -0.1938
  732TMC3    C610819   1.836   2.546  12.171  0.7746 -0.2185 -0.5910
  732TMC3     C10820   1.865   2.244  12.397 -0.2230  0.4278  0.6780
  732TMC3     O10821   1.943   2.224  12.489  0.3780 -0.1604  0.0461
  732TMC3     H10822   1.765   2.217  12.142 -1.8669  1.2005 -0.9669
  732TMC3    H110823   2.036   2.403  12.398  0.3671 -0.8880  0.6265
  732TMC3    H210824   1.807   2.644  12.134 -3.0820 -0.2847  2.2525
  732TMC3    C710825   1.950   2.636  12.361  0.6636  0.7704 -0.0764
  732TMC3    C810826   1.641   2.432  12.104 -0.2615 -0.2161  0.1039
  732TMC3    O110827   1.854   2.706  12.398 -0.0262  0.4671 -0.7054
  732TMC3    O210828   1.594   2.357  12.023  0.3962 -0.1517  0.3946
  733TMC3    C110829   2.971   1.700  12.971  0.3765 -0.4406  0.2945
  733TMC3    C210830   3.079   1.620  13.001 -0.6588 -0.1514 -0.1357
  733TMC3    C310831   3.193   1.628  12.924  0.2725 -1.1956 -0.1289
  733TMC3    C410832   2.962   1.772  12.858 -1.2098 -0.6813 -0.8752
  733TMC3    C510833   3.067   1.770  12.775 -0.5023 -0.5835 -0.4611
  733TMC3    C610834   3.186   1.698  12.803  0.2428  0.4176 -0.5847
  733TMC3     C10835   2.874   1.726  13.073  0.2964  0.9961  0.5755
  733TMC3     O10836   2.826   1.835  13.072 -0.2305  0.1778 -0.5440
  733TMC3     H10837   3.087   1.565  13.093 -0.8903 -2.6043 -1.5874
  733TMC3    H110838   2.879   1.840  12.842  0.7048  2.1331  1.2057
  733TMC3    H210839   3.273   1.706  12.739  1.1892  0.8455  0.7499
  733TMC3    C710840   3.066   1.896  12.705  0.6479 -0.3823 -0.0522
  733TMC3    C810841   3.312   1.652  13.002  0.3707 -0.0416 -0.2073
  733TMC3    O110842   3.000   1.917  12.606 -0.2204 -0.2698 -0.1010
  733TMC3    O210843   3.302   1.615  13.119 -0.7520 -0.2569 -0.2740
  734MPD2     C10844   0.523   4.005  12.632 -0.0515 -0.1568 -0.7458
  734MPD2    C110845   0.385   3.997  12.633 -0.1608 -0.4460  0.0277
  734MPD2    C210846   0.318   4.045  12.526  0.1493 -0.3138 -0.0176
  734MPD2    C310847   0.385   4.111  12.423 -0.6041 -0.6191  0.6395
  734MPD2    C410848   0.523   4.115  12.430  0.3462 -0.2483  0.2542
  734MPD2    C510849   0.596   4.064  12.531  0.4442 -0.1217 -0.7257
  734MPD2     H10850   0.210   4.037  12.528  0.0643  0.5674 -0.6636
  734MPD2    H110851   0.572   4.174  12.354  1.1721 -0.0884  0.9070
  734MPD2    H210852   0.583   3.969  12.714  0.9127 -0.2637 -1.4947
  734MPD2    H310853   0.703   4.081  12.541  0.3891 -1.0167  1.4437
  734MPD2     N10854   0.309   4.166  12.320 -0.7912 -0.2172 -0.3462
  734MPD2    H510855   0.209   4.151  12.322 -0.8731  0.5701  1.2916
  734MPD2    N110856   0.317   3.937  12.743  0.0237 -0.1722 -0.0243
  734MPD2    H710857   0.370   3.874  12.802 -0.0445  0.9077  1.2045
  735TMC3    C110858   0.139   3.849  12.860  0.1623  0.7094  0.8431
  735TMC3    C210859   0.003   3.864  12.874  0.9672  0.3819  0.7927
  735TMC3    C310860   4.647   3.754  12.872 -0.2962 -0.1264  0.4392
  735TMC3    C410861   0.191   3.725  12.843 -0.5141  0.1322 -0.3226
  735TMC3    C510862   0.105   3.615  12.841  0.4441 -0.4508 -0.4908
  735TMC3    C610863   4.693   3.630  12.858 -1.0605  0.3565  1.0371
  735TMC3     C10864   0.184   3.941  12.756 -0.3545  0.6302 -0.5037
  735TMC3     O10865   0.096   4.009  12.707 -0.2147 -0.6549 -0.3568
  735TMC3     H10866   4.686   3.963  12.891 -0.7629 -0.5509  1.9484
  735TMC3    H110867   0.295   3.699  12.831 -0.7766 -1.0779  0.0284
  735TMC3    H210868   4.634   3.541  12.841  0.4095 -0.5549  0.7298
  735TMC3    C710869   0.152   3.514  12.754  0.6301 -0.5080 -0.3031
  735TMC3    C810870   4.550   3.775  12.770 -0.2457 -0.4253 -0.6255
  735TMC3    O110871   0.240   3.544  12.676 -0.0049  0.2908 -0.2224
  735TMC3    O210872   4.462   3.688  12.756  0.2501 -0.2249  0.4024
  736MPD2     C10873   0.093   3.150  12.805  0.6542 -0.3009 -0.0515
  736MPD2    C110874   0.153   3.261  12.749  0.2998 -0.0015 -0.3767
  736MPD2    C210875   0.271   3.243  12.673 -0.3367  0.3120  0.0586
  736MPD2    C310876   0.324   3.120  12.644  0.6683 -0.5044 -0.4728
  736MPD2    C410877   0.255   3.012  12.701 -0.2152 -0.6939  0.5608
  736MPD2    C510878   0.153   3.032  12.787  0.0325  0.0481 -0.1223
  736MPD2     H10879   0.326   3.330  12.642 -0.6143  0.4571 -0.0292
  736MPD2    H110880   0.287   2.910  12.685 -0.6187 -1.5177  4.9811
  736MPD2    H210881   0.008   3.143  12.873 -0.2846 -0.4344 -1.2356
  736MPD2    H310882   0.107   2.941  12.824 -0.9795  0.8849  0.7027
  736MPD2     N10883   0.428   3.095  12.546  0.3085  0.4455  0.8275
  736MPD2    H510884   0.442   2.997  12.524  0.8063  0.9519 -1.0897
  736MPD2    N110885   0.103   3.388  12.793  0.4876 -0.4840 -0.2476
  736MPD2    H710886   0.020   3.386  12.851 -0.9201 -0.8091 -2.2745
  737TMC3    C110887   0.603   3.124  12.390  0.4110  0.0538 -0.0321
  737TMC3    C210888   0.670   3.213  12.318  0.0149 -0.7073  0.4265
  737TMC3    C310889   0.746   3.174  12.216  0.7876 -0.0101  0.2464
  737TMC3    C410890   0.607   2.989  12.356  0.6378 -0.4823 -0.6848
  737TMC3    C510891   0.697   2.951  12.261 -0.1732 -0.6502  0.7393
  737TMC3    C610892   0.764   3.040  12.185  0.3588 -0.0566 -0.0586
  737TMC3     C10893   0.517   3.187  12.491 -0.0837  0.1650 -0.9418
  737TMC3     O10894   0.535   3.300  12.526 -0.1029 -0.5514 -0.0579
  737TMC3     H10895   0.666   3.319  12.340 -1.8695 -0.8498  0.7633
  737TMC3    H110896   0.545   2.911  12.399 -0.8315  1.0412 -0.0399
  737TMC3    H210897   0.843   3.009  12.119  0.9394  0.6612  0.2892
  737TMC3    C710898   0.690   2.811  12.217 -0.7029 -0.4846  0.1870
  737TMC3    C810899   0.798   3.285  12.140  0.7680 -0.8244 -1.0497
  737TMC3    O110900   0.586   2.748  12.234  0.2499  0.0581 -0.1719
  737TMC3    O210901   0.800   3.396  12.193  0.3596 -0.6306 -0.4205
  738MPD2     C10902   1.198   2.447  15.246  0.6226  0.6621 -0.5812
  738MPD2    C110903   1.116   2.477  15.134  0.4300  0.6682  0.7923
  738MPD2    C210904   1.181   2.557  15.037 -0.0498 -0.1956  0.0322
  738MPD2    C310905   1.310   2.611  15.053  0.0200  1.0167  0.6017
  738MPD2    C410906   1.379   2.586  15.172  0.5223 -0.1115 -0.1158
  738MPD2    C510907   1.318   2.505  15.263  0.8458 -0.1947  0.2357
  738MPD2     H10908   1.121   2.572  14.948  2.0216  0.5965 -1.2365
  738MPD2    H110909   1.480   2.618  15.198  0.7077 -0.2867 -0.6311
  738MPD2    H210910   1.169   2.377  15.324 -1.4337 -0.1227 -2.0671
  738MPD2    H310911   1.374   2.456  15.342  1.5537  1.4061  0.7419
  738MPD2     N10912   1.382   2.687  14.961  0.5187 -0.0901  0.7010
  738MPD2    H510913   1.467   2.730  14.996  1.0195 -0.7862  0.3353
  738MPD2    N110914   0.985   2.433  15.113  0.1459 -0.5285 -0.5439
  738MPD2    H710915   0.936   2.469  15.032 -0.1052 -1.2298 -0.7060
  739TMC3    C110916   1.418   2.808  14.754 -0.9457 -0.0044 -0.6853
  739TMC3    C210917   1.371   2.839  14.626 -0.3995  0.6458  0.3195
  739TMC3    C310918   1.462   2.871  14.529  0.6373  0.2450 -0.4591
  739TMC3    C410919   1.557   2.796  14.772  0.1876  0.0071 -0.2242
  739TMC3    C510920   1.644   2.839  14.672 -0.1080  0.1409  0.7566
  739TMC3    C610921   1.598   2.867  14.548 -0.1834  0.9573 -0.6327
  739TMC3     C10922   1.330   2.729  14.838 -0.6823 -0.4059  0.2578
  739TMC3     O10923   1.221   2.703  14.792 -0.8899  0.1379  0.3870
  739TMC3     H10924   1.264   2.846  14.613 -0.1980  3.5181 -0.0152
  739TMC3    H110925   1.600   2.783  14.871 -0.0309 -0.0632 -0.1388
  739TMC3    H210926   1.675   2.890  14.475 -1.1439 -1.6560 -2.4412
  739TMC3    C710927   1.774   2.889  14.718 -0.1458  0.2232  0.1686
  739TMC3    C810928   1.408   2.899  14.399 -0.1182  0.5388  0.1827
  739TMC3    O110929   1.801   2.879  14.836  0.5269 -0.5775  0.3241
  739TMC3    O210930   1.287   2.891  14.379  0.3593  0.2981  0.0781
  740TMC3    C110931   2.060   3.985  14.222 -0.0282 -0.1268 -0.6121
  740TMC3    C210932   2.114   3.941  14.343  0.7112 -0.0419 -0.0384
  740TMC3    C310933   2.246   3.936  14.356  0.5848  0.8236  0.0848
  740TMC3    C410934   2.141   4.017  14.115  0.1217  0.2432  0.2500
  740TMC3    C510935   2.282   4.002  14.129 -0.2547 -0.0213 -0.8777
  740TMC3    C610936   2.331   3.963  14.250  0.0672 -0.2799  0.0213
  740TMC3     C10937   1.926   4.037  14.234  0.0687  0.0842 -1.0139
  740TMC3     O10938   1.908   4.150  14.190 -0.1526 -0.1584 -0.0598
  740TMC3     H10939   2.052   3.917  14.429 -0.4340  1.7453 -0.3525
  740TMC3    H110940   2.093   4.047  14.022 -0.7034  2.1727  1.2921
  740TMC3    H210941   2.437   3.946  14.264  0.3872  0.4440 -1.4623
  740TMC3    C710942   2.369   3.997  14.015 -0.5048 -0.8928  0.2217
  740TMC3    C810943   2.307   3.856  14.464 -0.1207  0.0260 -0.4262
  740TMC3    O110944   2.460   3.921  14.039 -0.2132  0.6515  0.6651
  740TMC3    O210945   2.420   3.892  14.491  0.0612 -0.1449  0.3251
  741TMC3    C110946   1.296   3.317  14.076 -0.8030 -0.3743  0.1243
  741TMC3    C210947   1.178   3.251  14.067 -0.0244 -0.2668  0.2789
  741TMC3    C310948   1.126   3.183  14.175  0.1127  0.5899 -0.3777
  741TMC3    C410949   1.367   3.323  14.195 -0.7998 -0.6419 -0.0671
  741TMC3    C510950   1.310   3.251  14.301 -0.4860  0.3451 -0.8489
  741TMC3    C610951   1.188   3.181  14.293  0.6914  0.7244 -0.2248
  741TMC3     C10952   1.354   3.381  13.957  0.2966  0.0003 -0.8574
  741TMC3     O10953   1.291   3.379  13.852 -0.3627 -0.0487 -0.0989
  741TMC3     H10954   1.126   3.228  13.975 -0.8788  3.6858 -0.2384
  741TMC3    H110955   1.448   3.392  14.218 -0.1763 -1.2072 -0.5416
  741TMC3    H210956   1.150   3.118  14.373  2.0068  0.7523  0.4209
  741TMC3    C710957   1.402   3.237  14.413  0.3750  0.0527 -0.0572
  741TMC3    C810958   1.018   3.091  14.146 -0.1284 -0.6268  0.2914
  741TMC3    O110959   1.520   3.246  14.376  0.2210 -0.1351 -0.0416
  741TMC3    O210960   0.950   3.109  14.048  0.3317 -0.6585 -0.5620
  742TMC3    C110961   0.991   1.497  15.365  1.0201 -0.9021 -0.1413
  742TMC3    C210962   0.912   1.456  15.257 -0.3660  1.1133 -0.0397
  742TMC3    C310963   0.976   1.363  15.186 -0.6709  0.3398 -0.2752
  742TMC3    C410964   1.119   1.452  15.392 -0.9709  0.0309  0.1602
  742TMC3    C510965   1.172   1.349  15.326  0.1432 -0.0691  0.2783
  742TMC3    C610966   1.095   1.295  15.224  0.6556  0.1586 -0.0518
  742TMC3     C10967   0.913   1.553  15.479  0.8241  0.5380 -0.3477
  742TMC3     O10968   0.794   1.524  15.474 -0.2233 -0.2229  0.2521
  742TMC3     H10969   0.806   1.477  15.248 -0.1704  1.7646 -0.8461
  742TMC3    H110970   1.186   1.495  15.466 -0.9206 -0.7334  0.5537
  742TMC3    H210971   1.141   1.213  15.170 -1.6199 -0.8732 -0.4065
  742TMC3    C710972   1.308   1.312  15.356  0.2665 -0.3053  0.0417
  742TMC3    C810973   0.917   1.327  15.057 -0.2842 -0.7861 -1.0862
  742TMC3    O110974   1.331   1.196  15.335  0.1835  0.1239 -0.5550
  742TMC3    O210975   1.000   1.276  14.983 -0.8175 -0.3530 -0.2932
  743MPD2     C10976   4.500   2.642   1.740 -0.1489 -0.3992 -0.3978
  743MPD2    C110977   4.465   2.637   1.606 -0.0601  0.0061 -0.1802
  743MPD2    C210978   4.554   2.579   1.514  0.6611  0.2528  0.1785
  743MPD2    C310979   4.687   2.552   1.553 -0.7934 -0.6030 -1.1067
  743MPD2    C410980   4.718   2.571   1.688  0.5280  0.3353  0.4477
  743MPD2    C510981   4.623   2.610   1.775  0.1203 -0.2256  0.4966
  743MPD2     H10982   4.537   2.577   1.407  0.0621 -3.6846  0.3320
  743MPD2    H110983   0.092   2.553   1.728 -0.1725 -1.6211  1.2822
  743MPD2    H210984   4.426   2.682   1.808 -0.7387 -1.9022 -0.1550
  743MPD2    H310985   4.654   2.599   1.878 -1.1301 -1.7721  0.7017
  743MPD2     N10986   0.048   2.499   1.452 -0.0734  0.0072  0.0466
  743MPD2    H510987   0.007   2.491   1.360  1.9827  2.5976 -1.1061
  743MPD2    N110988   4.338   2.680   1.557  0.0343 -0.5314  0.0842
  743MPD2    H710989   4.283   2.736   1.621 -1.9213 -2.1519 -0.1766
  744TMC3    C110990   4.159   2.751   1.402 -0.1184  0.2132 -0.1551
  744TMC3    C210991   4.131   2.850   1.490 -1.3280  0.3145  0.3712
  744TMC3    C310992   4.046   2.945   1.442  0.5963  0.1072  0.5929
  744TMC3    C410993   4.117   2.739   1.275  0.4273  0.6226 -0.7922
  744TMC3    C510994   4.019   2.823   1.236  0.1531  0.1943  0.2400
  744TMC3    C610995   3.972   2.917   1.327  0.2381 -0.2390 -0.3855
  744TMC3     C10996   4.290   2.674   1.424 -0.3392  0.5230  0.6012
  744TMC3     O10997   4.333   2.597   1.342 -0.1891 -0.0420  0.6653
  744TMC3     H10998   4.162   2.855   1.593  0.7747  0.1943 -0.2541
  744TMC3    H110999   4.154   2.660   1.210  1.3918 -0.0894  0.6228
  744TMC3    H211000   3.917   3.005   1.296  0.1999  0.2650  1.1534
  744TMC3    C711001   3.974   2.837   1.096 -1.0574  0.0539  0.3508
  744TMC3    C811002   3.990   3.048   1.540 -0.6106  0.1469 -0.0275
  744TMC3    O111003   4.049   2.788   1.012  0.2185 -0.0885 -0.1898
  744TMC3    O211004   3.896   3.111   1.502  0.0421 -0.2175 -0.4666
  745TMC3    C111005   1.415   1.206  13.516  0.5398 -0.4694  0.2393
  745TMC3    C211006   1.284   1.205  13.561 -1.0476  0.9176 -0.9663
  745TMC3    C311007   1.185   1.268  13.491  0.1154  0.0519 -0.1444
  745TMC3    C411008   1.440   1.285  13.406  0.0971 -0.0547  0.0684
  745TMC3    C511009   1.340   1.349  13.340  0.4711  0.8934 -0.5798
  745TMC3    C611010   1.210   1.334  13.379 -0.5271 -0.1209  0.1633
  745TMC3     C11011   1.515   1.193  13.617 -0.6106  0.4151  0.1328
  745TMC3     O11012   1.562   1.084  13.642 -0.1682  0.1572 -0.7295
  745TMC3     H11013   1.248   1.142  13.642  2.2960  0.3397  0.0822
  745TMC3    H111014   1.541   1.280  13.367  0.3665 -0.5963  0.8328
  745TMC3    H211015   1.129   1.390  13.332  0.2930 -0.3071 -1.4626
  745TMC3    C711016   1.365   1.440  13.230 -0.0407  0.1624 -0.4120
  745TMC3    C811017   1.058   1.305  13.563  0.2504 -0.1910 -0.3658
  745TMC3    O111018   1.269   1.469  13.163  0.0217  0.2169 -0.1702
  745TMC3    O211019   0.954   1.319  13.502  0.0666 -0.0671 -0.1255
  746TMC3    C111020   4.030   2.946  11.287  0.2177 -0.2301 -0.7415
  746TMC3    C211021   4.143   2.957  11.211 -0.0914  0.4410 -0.3625
  746TMC3    C311022   4.182   2.841  11.149 -0.2188  0.9887 -0.1102
  746TMC3    C411023   3.986   2.829  11.334 -0.2535 -0.2285 -0.2836
  746TMC3    C511024   4.026   2.725  11.263  0.9026  0.2888  0.0714
  746TMC3    C611025   4.129   2.724  11.177 -0.3182  0.3597 -0.1935
  746TMC3     C11026   3.946   3.064  11.312  0.3900  0.0256 -0.4467
  746TMC3     O11027   3.880   3.060  11.418  0.5192 -0.7130  0.6441
  746TMC3     H11028   4.188   3.052  11.186 -1.6254  1.1810 -0.3088
  746TMC3    H111029   3.900   2.806  11.396 -0.5806 -1.4804 -1.1998
  746TMC3    H211030   4.145   2.635  11.118 -2.5895  0.2880 -0.6923
  746TMC3    C711031   3.955   2.597  11.275  0.1471 -0.0370  0.3544
  746TMC3    C811032   4.269   2.857  11.035 -0.1074  0.7256 -0.0619
  746TMC3    O111033   3.912   2.546  11.173  0.2656 -0.2315  0.0280
  746TMC3    O211034   4.345   2.950  11.029  0.2430  0.5031 -0.1576
  747TMC3    C111035   1.479   2.797  11.565 -0.0320 -0.6032 -0.0756
  747TMC3    C211036   1.359   2.759  11.610 -0.0942  0.7031  0.6191
  747TMC3    C311037   1.345   2.730  11.738 -0.2814 -0.4095  0.7268
  747TMC3    C411038   1.589   2.792  11.650 -0.1988  0.7745 -0.3158
  747TMC3    C511039   1.564   2.757  11.778 -0.2281 -0.1098  0.5491
  747TMC3    C611040   1.443   2.741  11.830 -0.3315  0.1979  0.2602
  747TMC3     C11041   1.497   2.818  11.424 -0.3112  0.6089  0.0690
  747TMC3     O11042   1.421   2.776  11.340 -0.6038 -0.0149  0.7298
  747TMC3     H11043   1.278   2.763  11.539  1.0530  0.2512 -0.7057
  747TMC3    H111044   1.689   2.808  11.612 -0.2018  1.4679 -0.0271
  747TMC3    H211045   1.424   2.728  11.936 -1.6911 -2.1299 -0.2570
  747TMC3    C711046   1.683   2.717  11.850  0.2366  0.3272 -0.0877
  747TMC3    C811047   1.215   2.665  11.770 -0.2778 -0.5565 -0.7183
  747TMC3    O111048   1.677   2.730  11.972  0.2710 -0.6926 -0.5936
  747TMC3    O211049   1.138   2.668  11.672 -0.1384 -0.4601 -0.1980
  748MPD2     C11050   3.022   4.186   1.776 -0.2154 -0.1235  0.3468
  748MPD2    C111051   3.075   4.059   1.761  0.2657 -0.4910  0.4461
  748MPD2    C211052   3.183   4.043   1.672  0.2336 -0.5334 -0.0092
  748MPD2    C311053   3.228   4.148   1.599  0.5743  0.0029 -0.4797
  748MPD2    C411054   3.161   4.271   1.613 -0.0847 -0.2679 -0.5297
  748MPD2    C511055   3.060   4.294   1.705 -0.5339 -0.7594 -0.3556
  748MPD2     H11056   3.237   3.950   1.663 -0.5364 -0.9102 -0.6944
  748MPD2    H111057   3.180   4.349   1.541  0.2568 -0.2912 -0.4655
  748MPD2    H211058   2.946   4.203   1.852 -0.5350 -0.4351  0.0973
  748MPD2    H311059   3.009   4.387   1.728 -2.0917 -1.4819 -0.8614
  748MPD2     N11060   3.340   4.131   1.514 -0.5131  0.0071  0.2112
  748MPD2    H511061   3.392   4.046   1.533  0.4565  0.3742 -0.7882
  748MPD2    N111062   3.034   3.961   1.854  0.0580  0.1620 -0.1958
  748MPD2    H711063   2.989   3.990   1.940 -0.8163  0.5760 -0.7967
  749TMC3    C111064   3.523   4.190   1.381  0.4516  0.6504  0.5043
  749TMC3    C211065   3.610   4.133   1.470 -0.5137  0.1165 -0.2727
  749TMC3    C311066   3.733   4.095   1.417 -0.4304 -0.1682  0.2744
  749TMC3    C411067   3.547   4.217   1.246  0.5749  0.5229 -0.0603
  749TMC3    C511068   3.666   4.174   1.204  0.0447 -0.2350  0.3648
  749TMC3    C611069   3.760   4.121   1.286 -0.2525  0.5834 -0.1143
  749TMC3     C11070   3.389   4.222   1.425 -0.2624 -0.5768  0.7444
  749TMC3     O11071   3.331   4.323   1.384 -0.5630  0.5029 -0.6485
  749TMC3     H11072   3.575   4.131   1.573 -0.9702 -0.0615 -0.4310
  749TMC3    H111073   3.464   4.251   1.185 -0.1666 -0.8687  0.1892
  749TMC3    H211074   3.862   4.092   1.262  0.1068 -0.0094  2.2003
  749TMC3    C711075   3.722   4.261   1.103 -0.2997 -0.0881  0.3543
  749TMC3    C811076   3.803   4.011   1.516  0.1752  0.3682 -0.3453
  749TMC3    O111077   3.674   4.368   1.075  0.9322 -0.4113  0.3532
  749TMC3    O211078   3.768   4.009   1.633  0.7335  0.8112 -0.5493
  750MPD2     C11079   4.328   0.149  10.978 -0.6328  0.6398 -0.5659
  750MPD2    C111080   4.253   0.068  11.067  0.0827 -0.2859  0.2712
  750MPD2    C211081   4.160   4.706  11.019 -0.0618  0.1975  0.3152
  750MPD2    C311082   4.163   4.680  10.885 -0.5126 -0.1474  0.4898
  750MPD2    C411083   4.242   0.018  10.798  0.7531 -0.1379  0.3987
  750MPD2    C511084   4.332   0.109  10.849  0.1415  0.2988 -0.2745
  750MPD2     H11085   4.103   4.656  11.096 -0.4491 -0.3245 -0.3092
  750MPD2    H111086   4.255   4.718  10.693 -1.0238  0.7676 -0.0407
  750MPD2    H211087   4.379   0.238  11.012  0.0294  0.7997 -1.9993
  750MPD2    H311088   4.401   0.167  10.789  1.1435 -0.4434  0.1501
  750MPD2     N11089   4.079   4.576  10.840  0.0159 -0.1975 -0.1768
  750MPD2    H511090   4.094   4.554  10.742  0.7017 -2.2283  0.3964
  750MPD2    N111091   4.267   0.114  11.207 -0.6504  0.4966  0.5035
  750MPD2    H711092   4.349   0.164  11.238  2.0493 -3.6500  0.1322
  751TMC3    C111093   3.966   4.374  10.843 -0.0965 -0.7717 -0.3025
  751TMC3    C211094   3.863   4.297  10.884 -0.4846 -0.0876 -0.1736
  751TMC3    C311095   3.856   4.164  10.838  0.7566 -0.2274  0.1980
  751TMC3    C411096   4.066   4.319  10.767 -0.0629  0.2355 -0.6669
  751TMC3    C511097   4.064   4.184  10.733 -0.7517  0.1363  0.4440
  751TMC3    C611098   3.955   4.102  10.762 -0.4772 -0.1497  0.6366
  751TMC3     C11099   3.985   4.504  10.908  0.5254  0.2581 -0.5867
  751TMC3     O11100   3.940   4.527  11.018  0.1562  0.2812  0.1247
  751TMC3     H11101   3.792   4.334  10.957  1.2450  1.6326  0.6260
  751TMC3    H111102   4.160   4.372  10.755  0.3349 -0.3343 -0.0652
  751TMC3    H211103   3.943   3.996  10.744 -1.2110 -0.0681  0.6305
  751TMC3    C711104   4.186   4.130  10.681  0.4376  0.0696 -0.2831
  751TMC3    C811105   3.741   4.082  10.875 -0.8925 -1.1399 -0.1726
  751TMC3    O111106   4.263   4.210  10.630  0.1671 -0.1227 -0.5966
  751TMC3    O211107   3.727   3.966  10.831  0.4691 -0.5709 -0.3778
  752TMC3    C111108   3.403   0.586  16.719 -0.4489  0.0094  0.0048
  752TMC3    C211109   3.345   0.457  16.733 -0.4180 -0.0826  0.5187
  752TMC3    C311110   3.388   0.383  16.840  0.3857 -0.4536 -0.3830
  752TMC3    C411111   3.515   0.624  16.794  0.1559 -0.1323  0.4103
  752TMC3    C511112   3.550   0.541  16.900 -0.6374 -0.9635  0.4711
  752TMC3    C611113   3.490   0.415  16.923 -0.0157  0.7937  0.4360
  752TMC3     C11114   3.345   0.694  16.641  0.0210 -0.6667 -0.1796
  752TMC3     O11115   3.407   0.799  16.633 -0.7705  0.1093  0.2686
  752TMC3     H11116   3.278   0.403  16.667 -1.3168 -0.8170  2.0212
  752TMC3    H111117   3.571   0.713  16.769  1.4019 -0.9648  0.2308
  752TMC3    H211118   3.511   0.354  17.010 -2.9431 -1.8553 -0.7266
  752TMC3    C711119   3.617   0.591  17.014 -0.1044  0.1420 -0.4405
  752TMC3    C811120   3.279   0.309  16.907  0.1197  0.2471 -0.3361
  752TMC3    O111121   3.655   0.507  17.093  0.2709 -0.0220 -0.4616
  752TMC3    O211122   3.166   0.342  16.875  0.2463 -0.2572 -0.0456
  753TMC3    C111123   0.190   1.472  13.238 -0.1968 -0.0481 -0.1960
  753TMC3    C211124   0.224   1.412  13.353 -0.2100 -0.2730 -0.2152
  753TMC3    C311125   0.205   1.286  13.368 -0.2258  0.4054 -0.5197
  753TMC3    C411126   0.156   1.402  13.125 -0.1506 -1.1635  0.9721
  753TMC3    C511127   0.125   1.270  13.143  0.0283 -0.4100  0.4617
  753TMC3    C611128   0.149   1.213  13.266  0.1948 -0.2531 -0.6592
  753TMC3     C11129   0.135   1.605  13.236  0.5885  0.0110 -0.0372
  753TMC3     O11130   0.033   1.618  13.166 -0.0769 -0.3503 -0.1687
  753TMC3     H11131   0.258   1.467  13.440  2.8050 -1.1440 -0.8207
  753TMC3    H111132   0.143   1.453  13.030  3.1056  1.4428  1.9256
  753TMC3    H211133   0.126   1.110  13.289 -3.0855  0.4407 -0.7664
  753TMC3    C711134   0.027   1.206  13.057 -0.3655 -0.4307  0.7662
  753TMC3    C811135   0.150   1.248  13.498 -0.3708  0.6386  0.0727
  753TMC3    O111136   0.015   1.086  13.048  0.3279 -0.9642  0.0455
  753TMC3    O211137   0.047   1.186  13.490 -0.2181 -1.2217  0.2137
  754MPD2     C11138   4.148   0.046  13.014  0.3680 -0.4968  0.2453
  754MPD2    C111139   4.110   4.646  12.994  0.2287  0.0573  0.3355
  754MPD2    C211140   3.984   4.622  12.943 -0.2898  0.2122 -0.1044
  754MPD2    C311141   3.888   4.723  12.938 -0.3321  0.0327 -0.3590
  754MPD2    C411142   3.924   0.123  12.976 -0.5394 -0.4309  0.9168
  754MPD2    C511143   4.056   0.144  13.005  0.4656 -0.1927  0.2068
  754MPD2     H11144   3.957   4.532  12.889  0.6222  0.1005 -0.3603
  754MPD2    H111145   3.864   0.212  12.967 -1.3914 -0.9001  1.9744
  754MPD2    H211146   4.248   0.076  13.044  0.2298  0.0469  0.1628
  754MPD2    H311147   4.089   0.245  13.030 -0.1344  0.2287 -0.7039
  754MPD2     N11148   3.755   4.704  12.893  0.2030 -0.4328  0.0755
  754MPD2    H511149   3.691   0.058  12.898  0.4132 -0.2495 -0.1119
  754MPD2    N111150   4.200   4.540  13.009  0.7625  0.1535  0.3661
  754MPD2    H711151   4.296   4.570  13.025  0.8497 -0.4130  0.8876
  755MPD2     C11152   3.133   0.554  12.893  0.3785 -0.2395 -0.2226
  755MPD2    C111153   3.125   0.476  13.004 -0.6496  0.4419 -0.5523
  755MPD2    C211154   3.179   0.347  12.995  0.0098  0.1834  0.1178
  755MPD2    C311155   3.240   0.297  12.878 -0.7239 -0.8597  0.4787
  755MPD2    C411156   3.249   0.379  12.771 -0.0694 -0.0145  0.7607
  755MPD2    C511157   3.196   0.507  12.778 -0.7582 -0.0462  0.5192
  755MPD2     H11158   3.178   0.288  13.085  0.0980  1.8107  1.1879
  755MPD2    H111159   3.307   0.356  12.683 -0.9287  0.7436 -0.0035
  755MPD2    H211160   3.113   0.660  12.902 -0.4823 -0.4927  0.9273
  755MPD2    H311161   3.212   0.579  12.699 -1.2299 -0.5906 -0.0761
  755MPD2     N11162   3.291   0.161  12.871 -0.2838 -0.0475  0.1520
  755MPD2    H511163   3.343   0.146  12.785  1.3104  0.7682  0.9665
  755MPD2    N111164   3.077   0.526  13.125  0.7742 -0.0481 -0.2317
  755MPD2    H711165   3.085   0.461  13.202 -0.1221  1.5080  1.1845
  756MPD2     C11166   4.001   4.690   9.273  0.3986  0.0648 -0.1954
  756MPD2    C111167   3.980   4.660   9.407  0.3348  0.7445  0.6683
  756MPD2    C211168   3.865   4.592   9.441  0.1050 -0.2409  0.3207
  756MPD2    C311169   3.785   4.543   9.340 -0.0870  0.6837 -0.1963
  756MPD2    C411170   3.806   4.573   9.206  0.0283 -0.3870  0.2989
  756MPD2    C511171   3.919   4.648   9.173 -0.1677  0.2029  0.5511
  756MPD2     H11172   3.857   4.560   9.544 -0.6870 -0.3944  0.2066
  756MPD2    H111173   3.729   4.553   9.132  0.8791 -1.2076 -0.3721
  756MPD2    H211174   4.093   0.008   9.236  0.4628 -0.3575 -0.5213
  756MPD2    H311175   3.939   4.667   9.068  2.4285 -1.5436  0.7402
  756MPD2     N11176   3.679   4.462   9.388 -0.0762 -0.0767  0.1616
  756MPD2    H511177   3.678   4.431   9.484  0.1929 -1.3711 -0.2577
  756MPD2    N111178   4.062   4.704   9.508 -0.1744 -0.0188  0.1462
  756MPD2    H711179   4.046   4.654   9.596  1.0954 -0.2285  0.2590
  757MPD2     C11180   2.994   3.638   9.492  0.0026 -0.6031  0.7786
  757MPD2    C111181   2.939   3.744   9.559  0.0110  0.3318 -0.0516
  757MPD2    C211182   2.997   3.868   9.553  0.3127 -0.2087 -0.9140
  757MPD2    C311183   3.117   3.888   9.487  0.1600 -0.2270  0.1151
  757MPD2    C411184   3.179   3.775   9.435 -0.4864 -0.2267 -0.3952
  757MPD2    C511185   3.114   3.656   9.433 -0.4506  0.5403  0.4705
  757MPD2     H11186   2.949   3.960   9.583  3.1047  1.3849 -1.3703
  757MPD2    H111187   3.275   3.781   9.386 -0.3275  2.8869  0.3022
  757MPD2    H211188   2.964   3.534   9.503 -0.9842 -0.4659 -0.6687
  757MPD2    H311189   3.174   3.569   9.405  0.6978  1.7002 -0.6806
  757MPD2     N11190   3.177   4.014   9.488 -0.6913 -0.0436 -0.6498
  757MPD2    H511191   3.135   4.089   9.542  0.3278 -0.1098  0.2217
  757MPD2    N111192   2.805   3.736   9.619 -0.4738 -0.3424 -0.0732
  757MPD2    H711193   2.767   3.815   9.671 -0.6176 -0.6893  0.3560
  758MPD2     C11194   3.379   4.597  15.618 -0.3915  0.2957  0.1568
  758MPD2    C111195   3.477   4.534  15.689  0.7804  0.5515 -0.3558
  758MPD2    C211196   3.537   4.607  15.788  0.4441 -0.8404 -0.0945
  758MPD2    C311197   3.490   0.013  15.816 -0.0301 -0.6213  0.0507
  758MPD2    C411198   3.400   0.077  15.732 -0.2765 -0.8667  0.0593
  758MPD2    C511199   3.346   0.003  15.629  0.5923 -0.3028 -0.1947
  758MPD2     H11200   3.601   4.554  15.857  0.1148 -0.2878  0.6403
  758MPD2    H111201   3.375   0.181  15.748 -1.1500 -1.5097  3.0109
  758MPD2    H211202   3.339   4.535  15.539  1.6704 -0.0155 -0.6519
  758MPD2    H311203   3.279   0.047  15.557 -0.7515 -0.2613  1.0846
  758MPD2     N11204   3.534   0.097  15.925 -0.5336  0.1898 -0.1953
  758MPD2    H511205   3.496   0.191  15.931 -0.7958 -0.1031  2.5471
  758MPD2    N111206   3.512   4.395  15.663  0.4139 -0.0687 -0.0665
  758MPD2    H711207   3.454   4.339  15.601 -0.5676 -0.4602  1.2116
  759MPD2     C11208   2.945   2.236  10.010  0.2366  0.0180  0.0373
  759MPD2    C111209   2.817   2.183  10.011  0.3882  0.3617  0.3034
  759MPD2    C211210   2.754   2.125   9.896  0.2168  0.2112  0.1316
  759MPD2    C311211   2.824   2.125   9.781  0.8355 -1.2388 -0.5632
  759MPD2    C411212   2.947   2.186   9.776 -0.1966 -0.4850 -0.5422
  759MPD2    C511213   3.002   2.244   9.890  1.0187 -0.3156 -0.0255
  759MPD2     H11214   2.656   2.082   9.911  1.0438 -1.8953 -0.6492
  759MPD2    H111215   2.996   2.208   9.682 -0.0641  1.5287  0.0002
  759MPD2    H211216   2.991   2.276  10.099  0.7782 -0.3149 -0.0915
  759MPD2    H311217   3.100   2.289   9.877  0.5042  1.3723  1.9037
  759MPD2     N11218   2.758   2.089   9.664 -0.8066 -0.4337 -0.3690
  759MPD2    H511219   2.663   2.052   9.665 -0.8679 -0.3291 -1.3903
  759MPD2    N111220   2.742   2.172  10.133  0.1479  0.8519  0.3589
  759MPD2    H711221   2.660   2.113  10.134 -0.5278  1.7974  1.0653
  760MPD2     C11222   2.307   0.187  11.911 -0.0772  0.4698  0.1359
  760MPD2    C111223   2.432   0.224  11.870  0.1125 -1.1211  0.2066
  760MPD2    C211224   2.517   0.115  11.852 -0.0811  0.3615  0.8430
  760MPD2    C311225   2.483   4.706  11.879  0.1730 -0.3114 -0.3146
  760MPD2    C411226   2.354   4.681  11.923 -0.1374  0.4948 -0.2567
  760MPD2    C511227   2.272   0.059  11.946  0.0346  0.4750  0.3794
  760MPD2     H11228   2.624   0.132  11.838  0.1043  0.7551  2.7873
  760MPD2    H111229   2.310   4.584  11.938 -0.7453  1.0233  1.3801
  760MPD2    H211230   2.243   0.270  11.938 -2.5191 -1.5183  0.3571
  760MPD2    H311231   2.171   0.049  11.983  0.2625 -1.9999  0.3588
  760MPD2     N11232   2.568   4.592  11.850 -0.8556  0.6041 -0.3341
  760MPD2    H511233   2.530   4.498  11.856  0.5193  0.0221 -0.9394
  760MPD2    N111234   2.476   0.353  11.846  0.3668  0.7777  0.4582
  760MPD2    H711235   2.573   0.375  11.824 -0.1011  0.3610 -1.9950
  761MPD2     C11236   3.324   4.003  11.151 -0.2875 -0.2287 -0.4530
  761MPD2    C111237   3.378   3.924  11.056 -1.0354 -0.1455 -0.1526
  761MPD2    C211238   3.496   3.968  10.993 -0.0054 -0.3292  0.0802
  761MPD2    C311239   3.551   4.090  11.026  0.1392  0.2659 -0.1183
  761MPD2    C411240   3.485   4.166  11.118 -0.7921  0.0904  0.2881
  761MPD2    C511241   3.375   4.122  11.179  0.1413  0.7762  0.4978
  761MPD2     H11242   3.540   3.911  10.911  1.8024 -0.3809  1.0962
  761MPD2    H111243   3.519   4.260  11.160 -0.1617  0.0934 -0.2175
  761MPD2    H211244   3.240   3.963  11.206  0.3732  0.1168  0.7983
  761MPD2    H311245   3.325   4.181  11.254 -0.2641  0.3779  0.5433
  761MPD2     N11246   3.665   4.138  10.967  0.4510 -0.6254  0.1175
  761MPD2    H511247   3.696   4.230  10.997  0.7887 -0.7325  0.0930
  761MPD2    N111248   3.329   3.793  11.047  0.1392  0.1385 -0.0833
  761MPD2    H711249   3.238   3.774  11.087 -0.5337  2.0841 -0.6937
  762MPD2     C11250   3.445   2.865  10.905 -0.2989 -0.4562 -0.2300
  762MPD2    C111251   3.480   2.992  10.865 -0.4087  0.4235 -0.0928
  762MPD2    C211252   3.571   3.008  10.758 -1.3202  0.6480  0.4366
  762MPD2    C311253   3.634   2.894  10.706  0.1675 -0.4818  0.2245
  762MPD2    C411254   3.582   2.771  10.744  0.1519  0.1973  0.6697
  762MPD2    C511255   3.499   2.756  10.850  0.0907  0.2331 -0.5798
  762MPD2     H11256   3.610   3.105  10.728 -3.6118  0.6864 -2.4127
  762MPD2    H111257   3.615   2.675  10.704  0.0897  0.4435  0.0332
  762MPD2    H211258   3.364   2.848  10.975 -0.2679 -0.9062 -0.3079
  762MPD2    H311259   3.455   2.659  10.870 -0.5804  0.9245  1.3210
  762MPD2     N11260   3.732   2.912  10.603 -0.2994 -0.0131 -0.5230
  762MPD2    H511261   3.763   3.008  10.589 -1.1932  0.6912  2.3895
  762MPD2    N111262   3.419   3.101  10.931  0.2944  0.0143 -0.5168
  762MPD2    H711263   3.359   3.086  11.011 -1.3945 -0.6860 -1.8968
  763MPD2     C11264   1.091   4.500  16.143  0.7022  0.1965 -0.6189
  763MPD2    C111265   0.993   4.579  16.081 -0.0068 -0.8762  0.8989
  763MPD2    C211266   0.978   4.710  16.126 -0.2170 -0.2416  0.4577
  763MPD2    C311267   1.049   0.028  16.233  0.3810 -0.6077 -0.3911
  763MPD2    C411268   1.157   4.680  16.277 -0.0142  0.1632  0.0349
  763MPD2    C511269   1.179   4.549  16.241 -0.0143  0.0272 -0.5780
  763MPD2     H11270   0.918   0.059  16.073 -0.8418 -0.4766  0.8385
  763MPD2    H111271   1.226   0.001  16.348  0.4456  1.6854 -1.3760
  763MPD2    H211272   1.107   4.396  16.116  1.3446  0.7688 -2.4570
  763MPD2    H311273   1.247   4.488  16.299 -0.3996  2.3740  2.3193
  763MPD2     N11274   1.032   0.155  16.291 -0.1824  0.2189 -0.8368
  763MPD2    H511275   1.101   0.191  16.356 -0.0247 -1.8597  0.1713
  763MPD2    N111276   0.932   4.538  15.960  0.4192 -0.2702  0.0312
  763MPD2    H711277   0.876   4.608  15.913  0.1103 -1.2616 -1.0773
  764MPD2     C11278   3.804   1.539  16.889 -0.5076 -1.0871  0.2867
  764MPD2    C111279   3.678   1.606  16.896 -0.4208 -0.0061  0.4724
  764MPD2    C211280   3.636   1.646  17.023  0.1575 -0.1598 -0.6502
  764MPD2    C311281   3.714   1.631  17.140 -0.0316 -0.2628 -0.2943
  764MPD2    C411282   3.826   1.557  17.127 -0.2612 -0.2304  1.1985
  764MPD2    C511283   3.873   1.510  17.008  0.2808  0.4068 -0.8975
  764MPD2     H11284   3.541   1.697  17.022  1.0319  1.4544 -1.9264
  764MPD2    H111285   3.882   1.548  17.219  0.1449  3.2566  1.3040
  764MPD2    H211286   3.843   1.487  16.802  1.0026  3.3301 -1.6776
  764MPD2    H311287   3.955   1.439  17.013  0.0367  0.1363 -0.7837
  764MPD2     N11288   3.666   1.678  17.257 -0.1223  0.2194  0.4160
  764MPD2    H511289   3.571   1.711  17.270  0.0560  1.0371 -0.3203
  764MPD2    N111290   3.602   1.630  16.781  0.3853  0.2096 -0.2641
  764MPD2    H711291   3.515   1.683  16.794  0.2524 -0.3367  1.0703
  765MPD2     C11292   3.337   3.558  16.012 -0.5555 -0.1750  0.0836
  765MPD2    C111293   3.383   3.674  15.960 -0.0289  0.2592 -0.1583
  765MPD2    C211294   3.518   3.698  15.961 -0.5540  0.3259 -0.4139
  765MPD2    C311295   3.604   3.607  16.020  0.5064  0.2204 -0.4813
  765MPD2    C411296   3.553   3.495  16.084 -0.1399 -0.3532 -0.1504
  765MPD2    C511297   3.419   3.473  16.083  0.0092  0.4772  0.2423
  765MPD2     H11298   3.548   3.788  15.909 -0.7260  0.7480  0.2064
  765MPD2    H111299   3.623   3.421  16.120 -1.5000 -2.3262 -1.5605
  765MPD2    H211300   3.230   3.539  16.007 -0.0810 -2.6041 -0.8201
  765MPD2    H311301   3.375   3.382  16.121  0.8053  0.0332  0.0936
  765MPD2     N11302   3.745   3.627  16.000 -0.5572 -0.1138 -0.0862
  765MPD2    H511303   3.774   3.713  15.956  0.1942  0.1468  0.9262
  765MPD2    N111304   3.291   3.763  15.892 -0.3591  0.1888  0.3707
  765MPD2    H711305   3.198   3.724  15.883 -0.9874  1.6119  0.7281
  766MPD2     C11306   2.656   4.031  15.383  0.2298  0.3459 -0.1943
  766MPD2    C111307   2.785   3.989  15.385  0.1756 -0.2295  0.2571
  766MPD2    C211308   2.838   3.942  15.263 -0.4416 -0.1750  0.3164
  766MPD2    C311309   2.769   3.953  15.143 -0.2067 -0.3717 -0.2078
  766MPD2    C411310   2.642   4.000  15.151 -0.6752  0.3761 -0.0065
  766MPD2    C511311   2.584   4.044  15.267 -1.0669 -0.5902  0.1282
  766MPD2     H11312   2.942   3.912  15.265 -0.1300  0.9313  0.5731
  766MPD2    H111313   2.582   4.021  15.064 -0.8971 -0.4182 -0.0473
  766MPD2    H211314   2.609   4.047  15.479  2.2904 -1.7966  1.1901
  766MPD2    H311315   2.488   4.094  15.261  0.0161  1.6982  1.5347
  766MPD2     N11316   2.816   3.916  15.012  0.3523 -0.4688  0.4953
  766MPD2    H511317   2.758   3.928  14.930 -1.5543  0.3456  1.9711
  766MPD2    N111318   2.851   3.988  15.507 -0.6274  0.1906  0.0194
  766MPD2    H711319   2.808   4.036  15.586  2.0444  0.2389  1.4188
  767MPD2     C11320   2.466   4.274  14.899  0.2056  0.2765  0.7477
  767MPD2    C111321   2.592   4.323  14.862 -0.0834  0.3839  0.2263
  767MPD2    C211322   2.622   4.325  14.724  1.1177  0.1463 -0.2780
  767MPD2    C311323   2.521   4.291  14.633  1.1489  0.0515  0.4155
  767MPD2    C411324   2.392   4.258  14.669 -0.3339 -0.0619 -0.4562
  767MPD2    C511325   2.370   4.243  14.804 -0.4564  0.0558  0.4965
  767MPD2     H11326   2.720   4.349  14.686  0.5076  3.3204  0.1824
  767MPD2    H111327   2.318   4.244  14.591 -1.2450  0.8286  0.2380
  767MPD2    H211328   2.444   4.254  15.003  0.6222  0.9063  0.9549
  767MPD2    H311329   2.268   4.214  14.829 -0.1810 -0.7688  0.6715
  767MPD2     N11330   2.570   4.279  14.500 -0.2230  0.4071  0.1252
  767MPD2    H511331   2.669   4.266  14.481 -0.1696  2.2585 -0.8103
  767MPD2    N111332   2.690   4.361  14.962 -0.2072  0.1113  0.4499
  767MPD2    H711333   2.670   4.343  15.059  0.9323 -3.4877  0.0094
  768MPD2     C11334   3.925   2.148  10.826  0.2991 -0.6628 -0.4343
  768MPD2    C111335   3.897   2.096  10.951 -0.5552  0.8149 -0.3491
  768MPD2    C211336   3.977   2.139  11.057  0.0357  0.3657 -0.4490
  768MPD2    C311337   4.083   2.231  11.041 -0.0707 -0.2633  0.8157
  768MPD2    C411338   4.098   2.283  10.913  0.2681  0.4906  0.0869
  768MPD2    C511339   4.026   2.238  10.808  0.7063  0.0312 -0.0309
  768MPD2     H11340   3.948   2.093  11.151 -0.5323 -0.1031 -0.8557
  768MPD2    H111341   4.165   2.366  10.895 -0.7904  1.0177 -1.3955
  768MPD2    H211342   3.864   2.120  10.740  1.4103  0.1074 -1.4815
  768MPD2    H311343   4.045   2.278  10.709  0.2708  2.4083  0.8466
  768MPD2     N11344   4.166   2.279  11.139  0.2233 -0.4398 -0.1054
  768MPD2    H511345   4.212   2.366  11.115  0.0449  0.2645  2.0832
  768MPD2    N111346   3.777   2.030  10.981 -0.2292  0.4357  0.0875
  768MPD2    H711347   3.758   2.008  11.078  2.5799  0.6325  0.6606
  769MPD2     C11348   4.652   0.666  14.978  0.3396  0.3928 -0.7123
  769MPD2    C111349   4.560   0.619  15.070  0.6731  0.6219  0.3636
  769MPD2    C211350   4.576   0.656  15.203 -0.3638 -0.6007 -0.3314
  769MPD2    C311351   4.671   0.751  15.243 -1.1620  0.0236 -0.1122
  769MPD2    C411352   0.038   0.794  15.150  0.1993  0.1768 -0.3603
  769MPD2    C511353   0.019   0.755  15.019 -0.9645 -1.2364 -0.2893
  769MPD2     H11354   4.516   0.610  15.281  0.4122 -1.6046 -0.3321
  769MPD2    H111355   0.126   0.857  15.160  0.1814 -0.3365  3.1307
  769MPD2    H211356   4.641   0.650  14.871  0.9979 -0.7367 -0.6182
  769MPD2    H311357   0.081   0.798  14.941  1.9147 -1.9961  1.6044
  769MPD2     N11358   4.657   0.804  15.377 -0.0038  0.1288 -0.0756
  769MPD2    H511359   4.584   0.759  15.430  1.9959 -2.9526  0.0382
  769MPD2    N111360   4.455   0.533  15.029  0.0115 -0.3619  0.1342
  769MPD2    H711361   4.459   0.496  14.934 -0.3752 -1.2736  0.4740
  770MPD2     C11362   3.795   4.411  15.217 -0.1578  0.5311 -0.2909
  770MPD2    C111363   3.864   4.398  15.099  0.6241  0.6922  0.4682
  770MPD2    C211364   3.946   4.495  15.067 -0.2744  0.2859  0.6526
  770MPD2    C311365   3.956   4.612  15.138 -0.4788 -0.7134 -0.2467
  770MPD2    C411366   3.878   4.632  15.252 -0.7523  0.2020  0.3797
  770MPD2    C511367   3.803   4.526  15.296 -0.2385 -0.7345 -0.2560
  770MPD2     H11368   4.009   4.489  14.979 -0.4714 -1.3983  0.6159
  770MPD2    H111369   3.867   4.719  15.315 -1.2557  0.0941  0.4429
  770MPD2    H211370   3.731   4.327  15.241 -0.6304  1.3779  1.4015
  770MPD2    H311371   3.732   4.530  15.379  0.7160  0.3582  0.5063
  770MPD2     N11372   4.040   4.716  15.085  0.7483  0.2822 -0.0597
  770MPD2    H511373   4.106   4.691  15.012  0.4139 -0.4528 -0.1022
  770MPD2    N111374   3.847   4.275  15.026  0.0379 -0.2113  0.9618
  770MPD2    H711375   3.791   4.206  15.075 -2.2524 -2.0018 -4.2629
  771MPD2     C11376   0.757   3.374  13.858 -0.1861 -0.6002 -0.5563
  771MPD2    C111377   0.684   3.481  13.816 -0.8917 -0.0124 -0.2126
  771MPD2    C211378   0.589   3.461  13.726  0.5846  0.7548  0.3049
  771MPD2    C311379   0.545   3.333  13.693  0.0003  0.5025 -0.1913
  771MPD2    C411380   0.623   3.222  13.733  1.0376  0.5628  0.4837
  771MPD2    C511381   0.734   3.248  13.806  0.3629  0.0220 -0.3472
  771MPD2     H11382   0.534   3.539  13.673 -0.2005  0.2748  0.4089
  771MPD2    H111383   0.611   3.118  13.703 -0.4110  0.8164  0.2189
  771MPD2    H211384   0.838   3.395  13.926 -1.7302  3.0888  0.1581
  771MPD2    H311385   0.805   3.170  13.834 -0.0319 -0.0995  0.3197
  771MPD2     N11386   0.434   3.331  13.607  1.0325  0.0742 -0.2923
  771MPD2    H511387   0.398   3.421  13.575 -0.5185 -0.3813  0.1793
  771MPD2    N111388   0.717   3.616  13.838 -0.2076  0.3264  0.3748
  771MPD2    H711389   0.651   3.684  13.803  0.6162 -0.4990 -2.8385
  772MPD2     C11390   0.373   4.212  14.092 -0.8371 -0.2704  0.1759
  772MPD2    C111391   0.382   4.099  14.016  1.2682 -0.5163  0.0776
  772MPD2    C211392   0.261   4.041  13.981  0.0498  0.0993  0.1981
  772MPD2    C311393   0.144   4.089  14.036  0.3605  0.1470 -0.1806
  772MPD2    C411394   0.140   4.204  14.116 -0.4667  0.3006 -0.2747
  772MPD2    C511395   0.256   4.270  14.140  0.6562 -0.3397 -0.4621
  772MPD2     H11396   0.267   3.957  13.913  1.0344 -1.4168  2.1631
  772MPD2    H111397   0.044   4.217  14.165 -0.5214 -0.1871 -0.2479
  772MPD2    H211398   0.470   4.246  14.126 -1.1121 -1.4613  2.1088
  772MPD2    H311399   0.260   4.356  14.205 -2.4519 -0.7612  0.2810
  772MPD2     N11400   0.022   4.027  14.004  0.0329 -0.2764 -0.6822
  772MPD2    H511401   4.662   4.074  14.032 -0.6537 -1.9633  0.0439
  772MPD2    N111402   0.503   4.045  13.970 -0.0540 -0.3039 -0.4088
  772MPD2    H711403   0.494   3.950  13.936 -1.7966 -0.7859  1.3690
  773MPD2     C11404   4.421   0.366  17.497 -0.6086  0.5143  0.5037
  773MPD2    C111405   4.411   0.248  17.418 -0.7471  0.3989 -0.0230
  773MPD2    C211406   4.431   0.130  17.485  0.1874 -0.4456  0.0779
  773MPD2    C311407   4.485   0.126  17.619  0.3331 -0.2052 -0.9301
  773MPD2    C411408   4.505   0.246  17.683 -1.0478  0.2317  0.0687
  773MPD2    C511409   4.469   0.365  17.624 -0.0021  0.6168 -0.9822
  773MPD2     H11410   4.408   0.039  17.430  0.7690 -2.3261  2.9645
  773MPD2    H111411   4.532   0.250   0.088  0.5695 -1.5809 -0.2813
  773MPD2    H211412   4.391   0.467  17.472  0.0146  0.4342 -0.5844
  773MPD2    H311413   4.471   0.454  17.685  0.2275  0.0632 -0.1711
  773MPD2     N11414   4.510   4.723  17.676  0.1039  0.9229 -0.0674
  773MPD2    H511415   4.500   4.649  17.607  1.0108  0.9844 -0.2705
  773MPD2    N111416   4.353   0.242  17.290 -0.0434 -0.2274  0.3792
  773MPD2    H711417   4.355   0.154  17.239  0.9702  0.6041 -1.0388
  774MPD2     C11418   3.449   3.731  13.012  0.0966 -0.0868 -0.4339
  774MPD2    C111419   3.537   3.710  13.118  0.4793 -0.3838 -0.2476
  774MPD2    C211420   3.642   3.798  13.134 -0.1982 -0.1677 -0.4512
  774MPD2    C311421   3.663   3.901  13.045 -0.4995 -0.5011  0.3881
  774MPD2    C411422   3.585   3.911  12.937  0.5250  0.4661 -0.5537
  774MPD2    C511423   3.469   3.834  12.930  0.3329  0.0535 -0.5815
  774MPD2     H11424   3.706   3.801  13.221  0.8712  1.1230 -1.2955
  774MPD2    H111425   3.609   3.983  12.859  0.7612  0.6118 -0.3474
  774MPD2    H211426   3.365   3.668  12.988 -0.3889  1.2537 -2.2397
  774MPD2    H311427   3.403   3.843  12.844  2.2022  1.7800 -1.8220
  774MPD2     N11428   3.773   3.988  13.067  0.8343  0.0559  0.0664
  774MPD2    H511429   3.824   3.969  13.153 -0.1797 -2.3914  0.1289
  774MPD2    N111430   3.517   3.607  13.205 -0.1366  0.2423 -0.6079
  774MPD2    H711431   3.430   3.558  13.188 -0.0507 -0.1028 -0.0434
  775MPD2     C11432   0.115   0.583  15.849 -0.5086 -0.3899 -0.1357
  775MPD2    C111433   0.135   0.686  15.934 -0.1947  0.2430 -0.6832
  775MPD2    C211434   0.216   0.787  15.895  0.2163 -0.1748  0.4716
  775MPD2    C311435   0.271   0.787  15.768  0.0333  0.7952 -0.1559
  775MPD2    C411436   0.243   0.685  15.678  0.4411  0.2169  0.7342
  775MPD2    C511437   0.160   0.583  15.719  0.9226  0.3744  0.1311
  775MPD2     H11438   0.247   0.862  15.967  0.8580 -2.0095  2.0992
  775MPD2    H111439   0.281   0.681  15.576  2.5012 -1.3899  1.5632
  775MPD2    H211440   0.054   0.497  15.874  0.1781  0.3230  3.8699
  775MPD2    H311441   0.134   0.496  15.660  0.1277  0.9728 -0.3872
  775MPD2     N11442   0.353   0.893  15.717  0.7004 -0.2819  0.0659
  775MPD2    H511443   0.385   0.874  15.623  0.3572 -0.7339  0.0401
  775MPD2    N111444   0.066   0.695  16.054  0.1843 -0.7765 -0.0952
  775MPD2    H711445   0.073   0.790  16.087  0.2613 -0.8480  0.0918
  776MPD2     C11446   4.668   0.527  11.823  0.1884 -0.3308  0.0149
  776MPD2    C111447   4.578   0.536  11.712 -0.1575 -0.0942 -0.2103
  776MPD2    C211448   4.551   0.657  11.658 -0.2799  0.6930  0.1640
  776MPD2    C311449   4.598   0.771  11.715 -0.5572 -0.1068  0.2070
  776MPD2    C411450   4.689   0.763  11.816 -0.4217  0.0598 -0.5838
  776MPD2    C511451   4.724   0.641  11.872 -0.3811  0.0174 -0.1319
  776MPD2     H11452   4.479   0.656  11.577  0.0468 -1.9797 -0.1120
  776MPD2    H111453   0.006   0.854  11.858  1.1022 -0.6203 -0.6297
  776MPD2    H211454   4.694   0.432  11.867 -0.0174  0.2411  1.3718
  776MPD2    H311455   0.059   0.630  11.962 -1.3006 -0.9811  0.3562
  776MPD2     N11456   4.566   0.905  11.667  0.1317 -0.0758  0.1550
  776MPD2    H511457   4.605   0.984  11.717 -2.8386  0.8236  1.0416
  776MPD2    N111458   4.519   0.413  11.675  0.0258  0.3542 -0.1775
  776MPD2    H711459   4.546   0.338  11.737  2.6773 -0.0619 -1.8347
  777MPD2     C11460   4.720   3.384   0.639  0.5695  0.5786 -0.5535
  777MPD2    C111461   4.599   3.353   0.703 -0.7905 -0.3904  0.3065
  777MPD2    C211462   4.503   3.286   0.636  0.0527 -0.0680 -0.0179
  777MPD2    C311463   4.523   3.240   0.507  0.3309 -0.0263 -0.3125
  777MPD2    C411464   4.635   3.263   0.440 -0.3178  0.3916 -0.0640
  777MPD2    C511465   0.004   3.343   0.509 -0.5619 -0.4015  0.0841
  777MPD2     H11466   4.405   3.266   0.677  0.2764 -0.1385  0.4866
  777MPD2    H111467   4.655   3.227   0.339 -1.3022  0.0636 -0.1444
  777MPD2    H211468   0.077   3.446   0.677 -0.1624  0.8631  0.5504
  777MPD2    H311469   0.097   3.371   0.461 -1.9293 -0.0286 -2.3359
  777MPD2     N11470   4.415   3.167   0.458 -0.5841  0.0882 -0.5397
  777MPD2    H511471   4.334   3.166   0.518  0.2053 -0.4821  0.5150
  777MPD2    N111472   4.571   3.409   0.832 -0.0807  0.0595  0.0786
  777MPD2    H711473   4.647   3.456   0.880  0.1344 -0.4623  0.2497
  778MPD2     C11474   1.108   4.080  14.566  0.0975  0.2874 -0.0874
  778MPD2    C111475   1.093   3.951  14.525 -0.2195 -0.3154 -0.0436
  778MPD2    C211476   1.161   3.913  14.404 -0.5620  0.1290  0.1208
  778MPD2    C311477   1.222   4.008  14.321 -0.4615 -0.3552 -0.4138
  778MPD2    C411478   1.215   4.141  14.355  0.0388  0.5196 -0.4259
  778MPD2    C511479   1.159   4.170  14.478 -0.4147 -0.2192 -0.4043
  778MPD2     H11480   1.154   3.811  14.370 -0.8847 -0.1474  0.9956
  778MPD2    H111481   1.264   4.223  14.304  3.4762  0.3200  2.5633
  778MPD2    H211482   1.071   4.113  14.663  2.1662  0.8179  0.5145
  778MPD2    H311483   1.154   4.273  14.513  0.6611 -0.6375  0.9539
  778MPD2     N11484   1.299   3.959  14.217 -0.2299  0.6630  0.0226
  778MPD2    H511485   1.298   3.858  14.208 -1.2951  0.5659  1.3183
  778MPD2    N111486   1.028   3.857  14.613  0.6165  0.4058 -0.4200
  778MPD2    H711487   1.037   3.759  14.588  0.4358  0.1533  0.5207
  779MPD2     C11488   0.122   2.050  13.986  0.0158  0.1323  0.0089
  779MPD2    C111489   0.237   2.086  14.051 -0.1612  0.3709 -0.4179
  779MPD2    C211490   0.284   2.217  14.031  0.3341  0.2752  0.1114
  779MPD2    C311491   0.230   2.308  13.936  0.1202 -0.5743 -0.0967
  779MPD2    C411492   0.123   2.257  13.860  0.4486  0.2404 -0.7374
  779MPD2    C511493   0.068   2.134  13.890  0.5778  0.3326 -0.0877
  779MPD2     H11494   0.355   2.248  14.107 -1.2058 -0.0172  1.6744
  779MPD2    H111495   0.084   2.313  13.775 -1.2888  2.7646  1.7133
  779MPD2    H211496   0.081   1.951  13.999 -1.6242  0.8285  0.2112
  779MPD2    H311497   4.704   2.102  13.836 -0.5973 -0.6576  2.4771
  779MPD2     N11498   0.277   2.438  13.921 -0.0795 -0.2696 -0.2071
  779MPD2    H511499   0.369   2.452  13.963 -0.1945 -0.7917  0.2175
  779MPD2    N111500   0.306   2.007  14.144  0.7436  0.2778  0.4289
  779MPD2    H711501   0.401   2.039  14.161  1.0470 -1.0883  1.3069
  780MPD2     C11502   4.160   2.423   0.987  0.6208  0.3106  0.4000
  780MPD2    C111503   4.096   2.363   0.876  0.4587 -0.3340  0.7511
  780MPD2    C211504   4.144   2.400   0.745 -0.5056 -0.1236 -0.1496
  780MPD2    C311505   4.240   2.500   0.729 -0.3184 -0.2265  0.7923
  780MPD2    C411506   4.285   2.561   0.844  0.1042 -0.2453 -0.3306
  780MPD2    C511507   4.250   2.520   0.970  0.3093 -0.6195 -0.2558
  780MPD2     H11508   4.094   2.357   0.659  0.1164 -1.0550 -0.0440
  780MPD2    H111509   4.352   2.647   0.844  0.0405 -0.1870  1.0888
  780MPD2    H211510   4.136   2.393   1.089 -0.2301  1.4186  0.5202
  780MPD2    H311511   4.291   2.569   1.058 -0.7168  0.3272 -0.3110
  780MPD2     N11512   4.285   2.542   0.599  0.6551  0.8940 -0.3850
  780MPD2    H511513   4.254   2.491   0.518 -1.3252 -1.3915  1.8089
  780MPD2    N111514   4.012   2.257   0.914 -1.0625  0.2101  0.4822
  780MPD2    H711515   4.005   2.237   1.013 -0.7353  2.6104  0.9885
  781MPD2     C11516   2.240   3.665  12.188 -0.0670 -0.0050 -0.2072
  781MPD2    C111517   2.154   3.575  12.250 -0.2003 -0.0737 -0.9098
  781MPD2    C211518   2.187   3.445  12.259  0.8769  0.1500 -0.2458
  781MPD2    C311519   2.304   3.395  12.202 -0.3543  0.7973  0.1951
  781MPD2    C411520   2.399   3.486  12.163  0.3356 -0.2583 -0.2526
  781MPD2    C511521   2.359   3.618  12.144  0.6181  0.5637  0.4538
  781MPD2     H11522   2.113   3.373  12.292 -1.1339  1.5938 -1.5818
  781MPD2    H111523   2.497   3.454  12.128  0.1589  0.0190 -0.9970
  781MPD2    H211524   2.213   3.770  12.182 -0.0263  0.0645  0.7945
  781MPD2    H311525   2.417   3.678  12.076  0.5734 -1.1273 -1.0737
  781MPD2     N11526   2.345   3.256  12.206 -0.5220  0.0491  0.1711
  781MPD2    H511527   2.443   3.234  12.189 -0.2213  0.1221  1.8354
  781MPD2    N111528   2.030   3.629  12.295  0.4615  0.4109 -0.0128
  781MPD2    H711529   2.012   3.728  12.281  2.9308  0.4182 -3.2018
  782MPD2     C11530   4.695   4.313   9.940  0.4640  0.4272 -0.5936
  782MPD2    C111531   4.683   4.284  10.079 -0.0406  0.1881 -0.1484
  782MPD2    C211532   4.610   4.365  10.165 -0.3739  0.2186 -0.3648
  782MPD2    C311533   4.553   4.482  10.120 -0.2994 -0.2330 -0.6890
  782MPD2    C411534   4.560   4.513   9.987 -0.0807 -0.1573  0.1270
  782MPD2    C511535   4.623   4.424   9.896  0.5125  0.1578  0.9745
  782MPD2     H11536   4.608   4.331  10.268 -0.6463  4.3566  0.9719
  782MPD2    H111537   4.520   4.605   9.945 -1.4018 -0.2703  1.1417
  782MPD2    H211538   0.019   4.247   9.869 -0.3279 -1.7214  0.8385
  782MPD2    H311539   4.630   4.451   9.792  1.5131 -2.5089  0.3351
  782MPD2     N11540   4.522   4.577  10.218 -0.2682 -0.1178 -0.5038
  782MPD2    H511541   4.548   4.553  10.314  0.0289 -0.9840 -0.7993
  782MPD2    N111542   0.018   4.180  10.146  0.0776  0.2709  0.2216
  782MPD2    H711543   4.714   4.170  10.243  0.3466 -4.0311 -0.1217
  783MPD2     C11544   4.333   3.810  10.770  0.3651 -0.4735  0.0617
  783MPD2    C111545   4.321   3.921  10.700  0.9897  0.0324 -0.0110
  783MPD2    C211546   4.412   3.949  10.605  0.3629 -0.4666 -0.0038
  783MPD2    C311547   4.530   3.873  10.592  0.1068 -0.2068  0.1852
  783MPD2    C411548   4.541   3.765  10.676  0.5920  0.1196 -0.1331
  783MPD2    C511549   4.436   3.729  10.754 -0.4820  0.1600  0.5531
  783MPD2     H11550   4.394   4.034  10.540  0.5542 -0.5315 -0.1402
  783MPD2    H111551   4.629   3.702  10.682 -1.3573 -2.3695  2.2998
  783MPD2    H211552   4.255   3.775  10.836  0.2297 -0.8593 -0.3064
  783MPD2    H311553   4.436   3.632  10.803  3.6679 -0.3447 -0.3780
  783MPD2     N11554   4.633   3.897  10.498 -0.3051 -0.2538  0.3447
  783MPD2    H511555   4.604   3.961  10.426  1.8717  0.1421 -0.1743
  783MPD2    N111556   4.204   3.997  10.721 -0.3124 -0.6032  0.1429
  783MPD2    H711557   4.123   3.956  10.767 -0.5877 -1.1668 -0.8455
  784MPD2     C11558   2.234   0.368   0.518 -0.3505 -0.3295  0.5079
  784MPD2    C111559   2.256   0.421   0.646 -0.6427  0.0643  0.1893
  784MPD2    C211560   2.166   0.518   0.696 -0.2651  0.6431  0.0559
  784MPD2    C311561   2.054   0.555   0.624  0.8103 -0.3891 -0.4009
  784MPD2    C411562   2.031   0.493   0.501 -0.1725  0.5255  0.9633
  784MPD2    C511563   2.119   0.405   0.449  0.1446  0.5860 -0.1022
  784MPD2     H11564   2.179   0.560   0.795 -0.5977  1.6627 -0.3380
  784MPD2    H111565   1.949   0.530   0.441  0.6699  1.2224  0.2389
  784MPD2    H211566   2.310   0.304   0.476  0.3140  1.5510 -1.1589
  784MPD2    H311567   2.109   0.374   0.346  1.3355 -1.0834  0.2880
  784MPD2     N11568   1.965   0.644   0.683 -0.2893 -0.6400 -0.2859
  784MPD2    H511569   1.981   0.669   0.780  1.0049  1.0481 -0.9265
  784MPD2    N111570   2.371   0.383   0.725  0.5963  0.1738  0.2017
  784MPD2    H711571   2.381   0.448   0.803 -1.5341  2.2741 -1.3102
  785MPD2     C11572   2.607   2.614  10.963  0.3854 -0.3745  0.5089
  785MPD2    C111573   2.481   2.582  11.021  0.0647  0.4711 -0.4954
  785MPD2    C211574   2.395   2.501  10.946  0.3023  0.1901  0.4653
  785MPD2    C311575   2.426   2.464  10.819 -0.3066 -0.3064 -0.1581
  785MPD2    C411576   2.550   2.492  10.763 -0.5098  0.8476 -0.5706
  785MPD2    C511577   2.640   2.565  10.835  0.1187  0.2408  0.5241
  785MPD2     H11578   2.295   2.473  10.976 -0.6342  2.6650 -0.3078
  785MPD2    H111579   2.583   2.451  10.668  0.2313 -0.4392  0.2410
  785MPD2    H211580   2.678   2.686  11.002 -0.5403  1.9130 -2.0368
  785MPD2    H311581   2.734   2.591  10.788  0.2072 -0.3776  0.3614
  785MPD2     N11582   2.333   2.387  10.752  0.0950 -0.2186  0.5917
  785MPD2    H511583   2.242   2.375  10.795  0.3984 -1.1583  0.9877
  785MPD2    N111584   2.454   2.619  11.151  0.2474  0.0457  0.7788
  785MPD2    H711585   2.524   2.672  11.203  0.2018 -0.5732  1.4758
  786MPD2     C11586   0.740   1.520  14.612 -0.1509 -0.0168  0.1893
  786MPD2    C111587   0.819   1.410  14.634  0.1756  0.2186  0.2940
  786MPD2    C211588   0.844   1.358  14.765  1.1302  0.7261  0.7051
  786MPD2    C311589   0.787   1.427  14.870 -0.1407  0.0281  0.2710
  786MPD2    C411590   0.705   1.535  14.850  0.3591  0.0947  0.3287
  786MPD2    C511591   0.697   1.589  14.724 -0.4072  0.0891 -0.7011
  786MPD2     H11592   0.903   1.268  14.779  0.5062  0.4917  1.8334
  786MPD2    H111593   0.664   1.596  14.930  0.6347 -1.0261  1.3179
  786MPD2    H211594   0.717   1.555  14.512 -1.7973  0.6256  0.7835
  786MPD2    H311595   0.646   1.684  14.719 -0.5052  0.0305 -0.8258
  786MPD2     N11596   0.824   1.413  15.008  0.6654 -0.2140  0.1822
  786MPD2    H511597   0.795   1.482  15.077 -0.8208 -0.2467 -0.4103
  786MPD2    N111598   0.883   1.329  14.532 -0.1063  0.5557  0.2192
  786MPD2    H711599   0.922   1.238  14.554  2.4081  1.8217  0.9869
  787MPD2     C11600   1.265   0.827  14.575 -0.5101 -0.2071 -0.5266
  787MPD2    C111601   1.286   0.874  14.446  0.1585  0.0514 -0.6274
  787MPD2    C211602   1.388   0.814  14.378  0.1398 -0.5696 -0.1779
  787MPD2    C311603   1.439   0.691  14.419  0.3144  0.3482 -0.4376
  787MPD2    C411604   1.399   0.643  14.540 -0.4191  0.8652  0.4430
  787MPD2    C511605   1.321   0.717  14.620  1.1302  0.6115 -0.1723
  787MPD2     H11606   1.415   0.853  14.281  0.4836  0.2663  0.2511
  787MPD2    H111607   1.438   0.548  14.575  2.1289  1.2387 -1.3148
  787MPD2    H211608   1.188   0.874  14.636  0.1963 -1.7719  1.5797
  787MPD2    H311609   1.301   0.682  14.720 -0.2770 -0.4977 -0.8390
  787MPD2     N11610   1.532   0.623  14.336 -0.1076 -0.3633  0.5987
  787MPD2    H511611   1.555   0.664  14.246  0.7222 -1.5635  0.2646
  787MPD2    N111612   1.208   0.980  14.412 -0.6376  0.3604  0.2785
  787MPD2    H711613   1.140   1.009  14.482  0.5338  1.9581  0.7511
  788MPD2     C11614   3.083   3.825   1.115  0.2859 -0.4373 -0.1308
  788MPD2    C111615   2.960   3.849   1.058  0.0799 -0.9760  0.3430
  788MPD2    C211616   2.941   3.976   1.006  0.1112 -0.2476  0.4081
  788MPD2    C311617   3.037   4.074   1.005  0.2041 -0.0962  0.8258
  788MPD2    C411618   3.144   4.051   1.090 -0.0786  0.4056 -0.4291
  788MPD2    C511619   3.165   3.929   1.144 -0.4664 -1.0797  0.3552
  788MPD2     H11620   2.851   3.997   0.950 -0.1571 -1.6657  0.3131
  788MPD2    H111621   3.215   4.133   1.097 -0.2485  0.5316 -0.2089
  788MPD2    H211622   3.115   3.730   1.156 -0.5365 -0.5204  0.3242
  788MPD2    H311623   3.252   3.914   1.206  0.2207 -0.0776 -0.3779
  788MPD2     N11624   3.038   4.192   0.927  0.3240  0.3587 -0.2823
  788MPD2    H511625   3.117   4.254   0.939 -0.0683  0.7748  0.1627
  788MPD2    N111626   2.858   3.750   1.033 -0.0840  0.2975 -0.5463
  788MPD2    H711627   2.772   3.789   0.996 -0.8356  0.6285  1.5759
  789MPD2     C11628   3.533   4.209  16.733 -0.1182 -0.9436 -0.2176
  789MPD2    C111629   3.443   4.104  16.758  0.1527  0.1238  0.6367
  789MPD2    C211630   3.312   4.119  16.742 -0.0875  0.1042 -0.2261
  789MPD2    C311631   3.260   4.240  16.681 -0.1590 -0.3837 -0.9239
  789MPD2    C411632   3.352   4.342  16.659  0.5717  0.0695  0.8089
  789MPD2    C511633   3.486   4.323  16.685  0.1031  0.1400 -0.5122
  789MPD2     H11634   3.243   4.037  16.758  0.9911 -0.5065  1.1680
  789MPD2    H111635   3.318   4.434  16.613  0.2991  0.1807  1.2358
  789MPD2    H211636   3.640   4.206  16.749 -0.0455 -0.1676 -0.5296
  789MPD2    H311637   3.557   4.401  16.661  1.7620 -1.6153 -1.3256
  789MPD2     N11638   3.130   4.267  16.638 -0.0700 -0.0024 -0.4628
  789MPD2    H511639   3.121   4.350  16.580  2.1515  0.9880  0.5751
  789MPD2    N111640   3.491   3.982  16.814 -0.8090 -0.0157  0.0180
  789MPD2    H711641   3.425   3.905  16.815 -0.9802  0.1154 -2.9120
  790MPD2     C11642   3.999   1.279  13.699  0.5985 -0.6261 -0.8695
  790MPD2    C111643   4.041   1.147  13.688  0.2847 -0.0004  0.4482
  790MPD2    C211644   4.079   1.109  13.563  0.8399 -0.7872  0.5777
  790MPD2    C311645   4.062   1.191  13.449  0.2378 -0.6780  0.3846
  790MPD2    C411646   4.009   1.318  13.460 -0.7090  0.6289 -0.3332
  790MPD2    C511647   3.983   1.355  13.589 -0.8385  0.0335  0.1675
  790MPD2     H11648   4.115   1.007  13.548  1.4086 -0.1525 -2.3982
  790MPD2    H111649   3.974   1.385  13.382 -0.4995  1.4610  0.2861
  790MPD2    H211650   3.995   1.317  13.800  1.2696 -0.4767 -0.8968
  790MPD2    H311651   3.945   1.457  13.599  0.8050  0.8218 -1.5635
  790MPD2     N11652   4.073   1.124  13.328 -0.2226  0.6800 -0.3405
  790MPD2    H511653   4.095   1.026  13.341  0.7576  1.2504  2.2782
  790MPD2    N111654   4.065   1.077  13.805 -0.2122 -0.5478 -0.3952
  790MPD2    H711655   4.035   1.112  13.895 -0.6336 -1.1904 -0.2843
  791MPD2     C11656   3.645   1.181  12.644  0.8679 -0.2003  0.1968
  791MPD2    C111657   3.651   1.062  12.712  0.0609 -0.8505  0.5553
  791MPD2    C211658   3.564   0.961  12.669 -0.4193 -0.0561  0.5653
  791MPD2    C311659   3.481   0.979  12.557 -0.1349  0.1443  0.5762
  791MPD2    C411660   3.480   1.094  12.484 -0.3208 -0.1473  0.0452
  791MPD2    C511661   3.556   1.195  12.534 -0.2602  0.5187 -0.6130
  791MPD2     H11662   3.567   0.863  12.715 -2.7542 -0.4560 -0.1596
  791MPD2    H111663   3.424   1.108  12.392  1.9519 -1.6963 -1.5771
  791MPD2    H211664   3.707   1.265  12.674 -0.3006  0.2212  1.4589
  791MPD2    H311665   3.560   1.284  12.473 -1.4214  0.8603 -0.1926
  791MPD2     N11666   3.417   0.858  12.513 -0.2398 -0.2263 -0.3305
  791MPD2    H511667   3.457   0.775  12.556  0.1254  0.4566  0.6469
  791MPD2    N111668   3.742   1.056  12.821  0.2556  0.3072  0.0718
  791MPD2    H711669   3.794   1.141  12.841  0.1117  0.5836 -0.6991
  792MPD2     C11670   4.195   0.658  11.337 -0.4551 -0.2320  0.2012
  792MPD2    C111671   4.231   0.663  11.206  0.0700  0.1698 -0.1817
  792MPD2    C211672   4.178   0.569  11.117  0.9666 -0.6002  0.2908
  792MPD2    C311673   4.094   0.465  11.162  0.5683 -0.1677  0.6649
  792MPD2    C411674   4.064   0.462  11.295 -0.4768  0.2652  0.2483
  792MPD2    C511675   4.119   0.555  11.381  0.1760  0.7032 -1.0711
  792MPD2     H11676   4.214   0.573  11.015  1.5928  0.0802  0.5388
  792MPD2    H111677   3.990   0.395  11.335  1.0968 -1.2440  0.6348
  792MPD2    H211678   4.231   0.737  11.402  0.8494 -0.7274  0.0883
  792MPD2    H311679   4.106   0.544  11.488  3.6684 -0.9207 -0.8013
  792MPD2     N11680   4.035   0.368  11.082  0.1491 -0.1007 -0.6806
  792MPD2    H511681   3.982   0.290  11.120 -0.5676  0.6258 -0.1820
  792MPD2    N111682   4.318   0.766  11.164 -0.6344 -0.3699 -0.5756
  792MPD2    H711683   4.336   0.837  11.234 -1.7454 -0.1863 -0.4645
  793MPD2     C11684   4.166   4.564  10.232  0.7147 -0.8259 -0.1200
  793MPD2    C111685   4.165   4.703  10.214  0.0280  0.0661 -0.1818
  793MPD2    C211686   4.122   0.061  10.308  0.0861  0.1347 -0.1550
  793MPD2    C311687   4.068   0.017  10.423 -0.5574 -0.9091 -0.8899
  793MPD2    C411688   4.060   4.600  10.441 -0.1778 -0.4604  0.1439
  793MPD2    C511689   4.103   4.510  10.344  0.6786  0.7735 -0.2909
  793MPD2     H11690   4.116   0.167  10.286  0.5241 -0.0782 -1.3124
  793MPD2    H111691   4.017   4.558  10.532 -0.4080  0.5796  0.5143
  793MPD2    H211692   4.210   4.488  10.168  0.9587 -0.3390 -0.5243
  793MPD2    H311693   4.102   4.404  10.366  0.9779  0.5557 -1.3490
  793MPD2     N11694   4.020   0.110  10.520 -0.0310 -0.9613 -0.2749
  793MPD2    H511695   4.052   0.205  10.503 -0.8088 -0.2574  2.1526
  793MPD2    N111696   4.196   0.040  10.095  0.0580  0.3659 -0.5144
  793MPD2    H711697   4.211   0.140  10.100 -0.2441  0.4221 -0.7678
  794MPD2     C11698   3.881   0.791  16.795 -0.0282  0.6901 -0.2733
  794MPD2    C111699   3.867   0.664  16.756 -0.0292  0.6156  0.1584
  794MPD2    C211700   3.797   0.638  16.645 -0.1675  0.5824  0.4438
  794MPD2    C311701   3.754   0.743  16.572  0.3824  0.2127 -0.0899
  794MPD2    C411702   3.781   0.871  16.598  1.2814 -0.2683 -0.3166
  794MPD2    C511703   3.842   0.896  16.714  0.6317 -0.1212 -0.2786
  794MPD2     H11704   3.777   0.538  16.608  3.1827  0.2355 -0.3887
  794MPD2    H111705   3.753   0.950  16.529  1.0433  0.4544  0.6033
  794MPD2    H211706   3.919   0.814  16.894 -0.7160 -1.2212  0.4428
  794MPD2    H311707   3.871   0.997  16.741  0.3202 -0.1589  0.2153
  794MPD2     N11708   3.660   0.728  16.467  0.7329  0.2883 -0.2651
  794MPD2    H511709   3.618   0.813  16.430 -0.0712 -0.0225 -0.0734
  794MPD2    N111710   3.917   0.558  16.837 -0.6670 -0.4349  0.2867
  794MPD2    H711711   3.894   0.464  16.807 -1.0719 -0.5078  0.8130
  795MPD2     C11712   1.504   2.708  13.801  0.2732 -0.5096  0.5053
  795MPD2    C111713   1.463   2.594  13.731 -0.1256 -0.3446  0.3712
  795MPD2    C211714   1.518   2.470  13.766 -0.4618 -0.5221 -0.1436
  795MPD2    C311715   1.614   2.467  13.870 -0.0575 -0.2062  0.7750
  795MPD2    C411716   1.649   2.574  13.940  0.5567  0.1591 -0.1803
  795MPD2    C511717   1.597   2.695  13.903 -0.2256 -0.1795 -0.3960
  795MPD2     H11718   1.491   2.385  13.704  2.0219 -1.2854 -0.1647
  795MPD2    H111719   1.724   2.570  14.018 -0.4121  1.5128  0.7938
  795MPD2    H211720   1.459   2.806  13.790  0.0828 -0.6840 -0.3213
  795MPD2    H311721   1.630   2.790  13.945 -1.5592 -0.9396  2.4152
  795MPD2     N11722   1.674   2.346  13.905 -0.1974  0.1596  0.9692
  795MPD2    H511723   1.747   2.355  13.976  0.0170 -2.0974  1.0407
  795MPD2    N111724   1.368   2.598  13.627  1.0668 -0.0421 -0.6742
  795MPD2    H711725   1.340   2.507  13.592  0.1625 -0.2284  0.5441
  796MPD2     C11726   1.291   4.146  15.770 -0.0435 -0.4278 -0.0076
  796MPD2    C111727   1.344   4.222  15.870 -0.3655  0.1685  0.7927
  796MPD2    C211728   1.338   4.361  15.876 -0.5735 -0.4594 -0.0107
  796MPD2    C311729   1.284   4.431  15.769  0.1862  0.1588  0.3607
  796MPD2    C411730   1.243   4.358  15.659 -0.3713 -0.1114  0.5616
  796MPD2    C511731   1.249   4.217  15.658 -0.6993 -0.6766 -0.6605
  796MPD2     H11732   1.369   4.413  15.966  2.6711  0.9111 -1.8809
  796MPD2    H111733   1.199   4.404  15.571 -1.3395  0.0729  1.1396
  796MPD2    H211734   1.289   4.038  15.783 -1.5467 -0.2258  1.3681
  796MPD2    H311735   1.207   4.167  15.572 -3.8029 -4.0735  2.8187
  796MPD2     N11736   1.276   4.575  15.770  0.7187 -0.0411 -0.3396
  796MPD2    H511737   1.332   4.612  15.846  1.8398 -0.0382 -1.1609
  796MPD2    N111738   1.372   4.149  15.989  0.2321 -0.5071 -0.2595
  796MPD2    H711739   1.353   4.050  15.980  1.5473 -0.5047 -3.1672
  797MPD2     C11740   2.172   3.555  17.398  0.1062 -0.4659  0.5705
  797MPD2    C111741   2.206   3.688  17.443 -0.2069  0.6734  0.2635
  797MPD2    C211742   2.124   3.792  17.411 -0.0855 -0.0488  0.0919
  797MPD2    C311743   2.010   3.772  17.334 -0.1861 -0.1648 -0.4743
  797MPD2    C411744   1.992   3.648  17.284  0.3403  0.4695  0.1716
  797MPD2    C511745   2.063   3.533  17.316 -0.2512 -0.0565  0.5334
  797MPD2     H11746   2.160   3.892  17.434 -1.1062  0.6496 -1.2833
  797MPD2    H111747   1.925   3.639  17.199 -0.1664  1.0625  0.5116
  797MPD2    H211748   2.240   3.473  17.418  0.2020 -0.3946  0.5403
  797MPD2    H311749   2.057   3.440  17.261  0.8326  0.0459  0.2251
  797MPD2     N11750   1.928   3.879  17.294 -0.1197  0.2753  1.0501
  797MPD2    H511751   1.862   3.860  17.219 -0.4432  0.7094  1.2204
  797MPD2    N111752   2.320   3.728  17.513  0.4908 -0.9270  0.5097
  797MPD2    H711753   2.311   3.822  17.551  1.4191 -0.4436 -0.4553
  798MPD2     C11754   2.223   4.463  17.564  0.1705  0.0553  0.1784
  798MPD2    C111755   2.165   4.340  17.544  0.2746 -0.3098 -0.1872
  798MPD2    C211756   2.245   4.229  17.553  0.8170  0.1234  0.0742
  798MPD2    C311757   2.377   4.235  17.592 -0.5746  0.2042  0.1243
  798MPD2    C411758   2.433   4.364  17.622  0.2963  0.1528  0.8313
  798MPD2    C511759   2.354   4.479  17.598 -0.3441  0.2597 -0.5779
  798MPD2     H11760   2.200   4.132  17.532  0.7034  0.2289 -0.1666
  798MPD2    H111761   2.536   4.378  17.652  1.4236 -2.1224 -1.9418
  798MPD2    H211762   2.160   4.551  17.557  0.7504  0.6516  2.5535
  798MPD2    H311763   2.385   4.580  17.623 -0.0372  0.4074 -1.5909
  798MPD2     N11764   2.449   4.117  17.602  0.6330 -0.1599 -0.2102
  798MPD2    H511765   2.386   4.037  17.603  1.4025 -0.7824 -2.7168
  798MPD2    N111766   2.036   4.318  17.486 -0.4280  0.6992 -0.3922
  798MPD2    H711767   1.997   4.225  17.498 -0.8789  0.9317 -0.0385
  799MPD2     C11768   1.141   0.397  14.884 -0.1494  0.2611 -0.2690
  799MPD2    C111769   1.132   0.330  14.769  0.4111 -1.0932  0.2147
  799MPD2    C211770   1.090   0.399  14.650  0.1095 -0.6136 -0.5334
  799MPD2    C311771   1.042   0.527  14.661 -0.6751 -0.2184 -0.4519
  799MPD2    C411772   1.062   0.596  14.781  0.2643  0.3099 -0.4574
  799MPD2    C511773   1.104   0.528  14.887 -0.6808 -0.5466  0.8458
  799MPD2     H11774   1.067   0.337  14.564  0.1325 -1.1786 -0.1312
  799MPD2    H111775   1.042   0.702  14.784  0.8380  0.3940  0.3165
  799MPD2    H211776   1.150   0.345  14.979 -0.2509 -0.0190 -0.4147
  799MPD2    H311777   1.118   0.573  14.985 -1.0689  2.2592 -0.3856
  799MPD2     N11778   1.010   0.609  14.555 -0.3960  0.0656  0.8104
  799MPD2    H511779   0.972   0.702  14.564 -1.6035 -0.3507  0.0634
  799MPD2    N111780   1.139   0.190  14.757  0.1451  0.4481 -0.5379
  799MPD2    H711781   1.107   0.149  14.670 -0.9066  2.2942 -1.0314
  800MPD2     C11782   0.846   1.513  13.978 -0.1950  0.0754  0.0437
  800MPD2    C111783   0.977   1.485  14.004 -0.9755 -0.1623 -0.0463
  800MPD2    C211784   1.049   1.415  13.910 -0.1874 -0.5077 -0.3649
  800MPD2    C311785   0.989   1.374  13.788  0.1075  0.5058 -0.0217
  800MPD2    C411786   0.853   1.392  13.768  0.6283 -0.3841  0.4730
  800MPD2    C511787   0.787   1.456  13.871 -0.3429  0.4239  0.1279
  800MPD2     H11788   1.157   1.405  13.922  0.1238 -0.9071 -3.4307
  800MPD2    H111789   0.785   1.369  13.687 -1.9834  0.3447  2.4440
  800MPD2    H211790   0.781   1.562  14.049 -2.2583  0.4884 -2.1522
  800MPD2    H311791   0.682   1.471  13.854 -0.4374 -0.7808 -0.3836
  800MPD2     N11792   1.084   1.329  13.696 -0.3595 -0.1057  0.0475
  800MPD2    H511793   1.178   1.329  13.733 -0.0891  2.9857 -0.5842
  800MPD2    N111794   1.041   1.544  14.125 -0.3425  0.7884  0.3907
  800MPD2    H711795   0.987   1.588  14.198 -0.5392 -0.2073  0.8424
  801MPD2     C11796   1.198   2.272  14.051  0.2475  0.9440 -0.0747
  801MPD2    C111797   1.275   2.248  14.159  0.4560 -0.3827 -0.1556
  801MPD2    C211798   1.344   2.349  14.224 -0.0275 -0.2474  0.1333
  801MPD2    C311799   1.347   2.479  14.179 -0.1510 -0.2858  0.2084
  801MPD2    C411800   1.268   2.504  14.069  0.4272 -0.8584 -0.1235
  801MPD2    C511801   1.182   2.408  14.013  0.0974  0.2469 -0.3482
  801MPD2     H11802   1.401   2.318  14.310 -1.9940 -1.9953  0.8199
  801MPD2    H111803   1.263   2.606  14.034 -1.7665 -0.3131  1.7167
  801MPD2    H211804   1.139   2.194  14.004  2.3403  0.4982 -1.9322
  801MPD2    H311805   1.114   2.435  13.933 -0.3420  0.2787  0.0343
  801MPD2     N11806   1.424   2.582  14.233  0.2196 -0.4404 -0.1222
  801MPD2    H511807   1.448   2.659  14.171  0.5732  0.7312  1.4700
  801MPD2    N111808   1.286   2.120  14.218 -0.0926 -0.4192  0.4710
  801MPD2    H711809   1.352   2.094  14.291 -0.6507 -3.5356 -0.1431
  802MPD2     C11810   0.698   2.428  16.858  0.9095 -0.8508  0.1554
  802MPD2    C111811   0.752   2.539  16.915  0.0834  0.4994 -0.0693
  802MPD2    C211812   0.880   2.584  16.891 -0.3894 -0.2167 -0.3273
  802MPD2    C311813   0.968   2.498  16.828 -0.0632 -0.1552  0.0142
  802MPD2    C411814   0.914   2.381  16.779 -0.1093 -0.0323 -0.3401
  802MPD2    C511815   0.780   2.346  16.796  0.3956  0.7301  0.6369
  802MPD2     H11816   0.905   2.684  16.927  0.6081 -0.7740  0.5406
  802MPD2    H111817   0.976   2.305  16.731 -0.3931  0.1047 -0.9262
  802MPD2    H211818   0.594   2.397  16.861  0.9645 -1.0288  0.1886
  802MPD2    H311819   0.740   2.253  16.759  0.3804 -0.1816  2.9539
  802MPD2     N11820   1.104   2.540  16.808  0.1758  0.0682 -0.4178
  802MPD2    H511821   1.128   2.637  16.830 -3.0688  1.3582 -2.6036
  802MPD2    N111822   0.679   2.640  16.983  0.3273  0.1732 -0.0580
  802MPD2    H711823   0.727   2.729  16.997 -0.0221  0.3414  0.0630
  803MPD2     C11824   2.142   0.992  12.025 -0.5482  0.8060  0.3838
  803MPD2    C111825   2.263   0.949  12.085  1.0498 -0.3145 -0.6081
  803MPD2    C211826   2.266   0.841  12.170 -0.8008  0.3324 -0.2123
  803MPD2    C311827   2.148   0.786  12.218 -0.2992 -0.8311  0.3756
  803MPD2    C411828   2.032   0.830  12.156  1.4518  0.2904  0.5041
  803MPD2    C511829   2.030   0.929  12.062 -0.1965  0.2276 -0.7734
  803MPD2     H11830   2.357   0.803  12.215 -1.5188  0.5835  1.4485
  803MPD2    H111831   1.934   0.798  12.187  2.0968 -2.4021 -0.2506
  803MPD2    H211832   2.144   1.074  11.954 -0.1843  0.4710  0.0064
  803MPD2    H311833   1.934   0.965  12.027 -0.6882 -0.1173  0.2386
  803MPD2     N11834   2.143   0.687  12.323  0.4445 -0.4085 -0.1443
  803MPD2    H511835   2.046   0.657  12.333 -0.1885  1.5808 -0.2397
  803MPD2    N111836   2.389   1.016  12.063 -0.2069  0.1936  0.1444
  803MPD2    H711837   2.470   0.982  12.113  0.6278  0.5030 -0.9940
  804MPD2     C11838   1.705   2.149  16.880 -0.5926  0.1228 -0.5116
  804MPD2    C111839   1.823   2.155  16.961  0.4083 -0.3892  0.0337
  804MPD2    C211840   1.897   2.268  16.961 -0.1243 -0.5663 -0.0050
  804MPD2    C311841   1.862   2.375  16.881  0.3156  0.2341  0.2233
  804MPD2    C411842   1.761   2.361  16.787 -0.4159 -0.1925 -0.4947
  804MPD2    C511843   1.680   2.250  16.792  0.0710  0.6682 -0.0349
  804MPD2     H11844   1.984   2.271  17.025 -1.2243  1.7439  1.3706
  804MPD2    H111845   1.736   2.440  16.717  0.1022  0.3297 -0.0911
  804MPD2    H211846   1.636   2.066  16.880  1.3550 -1.5215 -1.4421
  804MPD2    H311847   1.596   2.234  16.725  0.4771  0.6499 -0.5350
  804MPD2     N11848   1.934   2.495  16.891 -0.0683 -0.1615  0.1052
  804MPD2    H511849   1.998   2.506  16.968  0.7949 -0.1663 -0.6071
  804MPD2    N111850   1.868   2.054  17.046  0.3542  0.1378  0.1312
  804MPD2    H711851   1.961   2.060  17.087 -0.6088 -1.4530  2.5894
  805MPD2     C11852   0.717   0.547  15.534 -0.1433 -0.4785 -0.7186
  805MPD2    C111853   0.830   0.472  15.491  0.3522 -0.5898 -0.4688
  805MPD2    C211854   0.952   0.505  15.556 -0.0670  0.0207 -0.3239
  805MPD2    C311855   0.962   0.607  15.646 -0.6232  0.0948  0.3644
  805MPD2    C411856   0.847   0.678  15.684  0.5660  0.3369  0.2497
  805MPD2    C511857   0.727   0.644  15.626 -0.5535  0.2006  0.1376
  805MPD2     H11858   1.035   0.446  15.519 -0.8294  0.0515 -2.0889
  805MPD2    H111859   0.857   0.758  15.756  0.9864 -1.2555  1.9594
  805MPD2    H211860   0.611   0.537  15.513  0.0477 -1.8006 -1.0763
  805MPD2    H311861   0.636   0.694  15.657 -0.0218  0.1372  1.7605
  805MPD2     N11862   1.077   0.655  15.707  0.5118 -0.6486 -0.1223
  805MPD2    H511863   1.065   0.733  15.771 -1.5727  0.1096 -1.4493
  805MPD2    N111864   0.829   0.381  15.381  0.0615 -0.2289  0.0706
  805MPD2    H711865   0.925   0.362  15.357 -0.6346  0.4908 -3.3145
  806MPD2     C11866   1.390   0.362   1.073  0.2096  0.0162 -0.4264
  806MPD2    C111867   1.513   0.389   1.018  1.0595 -0.5488 -0.0629
  806MPD2    C211868   1.526   0.423   0.887 -0.5833  0.1345 -0.1919
  806MPD2    C311869   1.411   0.445   0.811 -0.8201  0.1766 -0.0765
  806MPD2    C411870   1.284   0.432   0.873  0.2049 -0.4321 -0.6636
  806MPD2    C511871   1.278   0.375   0.997  0.0149 -0.9493 -0.0210
  806MPD2     H11872   1.624   0.445   0.845  0.2651 -1.5990  0.8735
  806MPD2    H111873   1.190   0.444   0.820 -0.9941  1.3064  1.8778
  806MPD2    H211874   1.377   0.322   1.173 -0.0938  3.9513  1.1094
  806MPD2    H311875   1.180   0.355   1.041  0.3431 -2.6436 -0.0318
  806MPD2     N11876   1.426   0.490   0.681  0.8794 -0.1699 -0.1369
  806MPD2    H511877   1.523   0.487   0.652  0.5365  0.2337 -1.3222
  806MPD2    N111878   1.621   0.392   1.107 -0.2432 -0.1401 -0.2433
  806MPD2    H711879   1.601   0.372   1.204 -1.4731 -2.3570 -0.9537
  807MPD2     C11880   1.663   0.434   1.812 -0.3943  0.1200 -1.0376
  807MPD2    C111881   1.610   0.366   1.702  0.1657  0.2285 -0.8703
  807MPD2    C211882   1.493   0.287   1.715 -0.7363  0.1048 -0.0091
  807MPD2    C311883   1.427   0.296   1.838 -0.1658 -0.0961  0.5063
  807MPD2    C411884   1.486   0.357   1.946  0.0343 -0.0953 -0.0108
  807MPD2    C511885   1.598   0.426   1.927 -0.2007 -0.8440 -0.5296
  807MPD2     H11886   1.450   0.241   1.627 -1.5724 -0.7649  0.8530
  807MPD2    H111887   1.445   0.341   2.045 -1.3547  2.6073 -0.1518
  807MPD2    H211888   1.752   0.496   1.807  0.2020 -0.5344  1.5122
  807MPD2    H311889   1.634   0.477   2.015  0.3689  1.0653 -1.8774
  807MPD2     N11890   1.304   0.222   1.861 -0.5411 -0.1920  0.2060
  807MPD2    H511891   1.267   0.165   1.786  0.2567  2.3416 -2.0960
  807MPD2    N111892   1.681   0.355   1.583 -0.2269 -0.0835 -0.2440
  807MPD2    H711893   1.632   0.315   1.505 -0.2384 -1.1906  0.3306
  808MPD2     C11894   1.509   1.111  10.406 -0.5083 -0.4744 -0.9362
  808MPD2    C111895   1.545   1.080  10.275 -0.3895 -0.6623  0.6520
  808MPD2    C211896   1.615   1.175  10.204  0.3673 -0.1680 -0.7939
  808MPD2    C311897   1.633   1.303  10.248 -0.0301  0.1293 -0.7176
  808MPD2    C411898   1.584   1.339  10.366 -0.2085  0.3856 -0.6171
  808MPD2    C511899   1.523   1.243  10.445 -0.3720 -0.1211 -0.5564
  808MPD2     H11900   1.668   1.140  10.116  0.3891 -0.4506 -0.6690
  808MPD2    H111901   1.596   1.442  10.397 -0.4076 -0.4187  2.1127
  808MPD2    H211902   1.455   1.040  10.467 -2.6840 -0.3344 -2.6919
  808MPD2    H311903   1.481   1.272  10.540 -0.5165  1.0028 -0.9662
  808MPD2     N11904   1.708   1.398  10.175  0.3216  0.7503  0.3820
  808MPD2    H511905   1.730   1.490  10.209  0.9357  0.5787  0.4468
  808MPD2    N111906   1.547   0.953  10.223  0.3984 -0.1129  0.5420
  808MPD2    H711907   1.587   0.948  10.130  1.7613  2.0745  1.0132
  809MPD2     C11908   2.101   1.362   9.229 -0.1730  0.1745  0.5029
  809MPD2    C111909   2.192   1.376   9.330  0.1276 -0.3164  0.1939
  809MPD2    C211910   2.153   1.401   9.459 -0.4824  0.3481  0.1382
  809MPD2    C311911   2.017   1.421   9.476  0.9731  0.6064 -0.2188
  809MPD2    C411912   1.929   1.393   9.380  0.3864  0.2936 -0.8168
  809MPD2    C511913   1.970   1.368   9.256  0.7971  0.4461  0.1009
  809MPD2     H11914   2.215   1.414   9.547  1.0966  3.0157 -1.3580
  809MPD2    H111915   1.822   1.397   9.394  0.6644 -0.2650  1.5002
  809MPD2    H211916   2.126   1.332   9.128 -1.3914  0.5428  0.0907
  809MPD2    H311917   1.891   1.342   9.187  1.2491 -2.1475  0.5873
  809MPD2     N11918   1.965   1.466   9.600  0.0291 -0.6366  0.1995
  809MPD2    H511919   1.867   1.458   9.623 -0.6811  4.6616 -0.8675
  809MPD2    N111920   2.332   1.364   9.301 -0.1549  0.1264 -0.0179
  809MPD2    H711921   2.394   1.357   9.381  2.1767 -1.9301 -2.0069
  810MPD2     C11922   1.824   0.578  10.453 -0.4007 -0.5647  0.1984
  810MPD2    C111923   1.738   0.570  10.561 -0.1908 -0.0891 -0.4173
  810MPD2    C211924   1.707   0.690  10.623 -0.1950  0.4305 -0.3889
  810MPD2    C311925   1.758   0.810  10.574 -0.1589  0.4480 -0.1731
  810MPD2    C411926   1.853   0.806  10.475 -0.2904  0.3955  0.3283
  810MPD2    C511927   1.883   0.688  10.411 -0.4545 -0.4414 -0.2882
  810MPD2     H11928   1.631   0.682  10.700  1.3521 -0.7373  1.0211
  810MPD2    H111929   1.904   0.893  10.435 -2.1239  1.4895  0.3903
  810MPD2    H211930   1.846   0.494  10.387  1.2550 -1.4344  1.8539
  810MPD2    H311931   1.954   0.682  10.329  0.0131  1.3677 -0.0165
  810MPD2     N11932   1.724   0.938  10.632  0.5119  0.2708 -0.3054
  810MPD2    H511933   1.770   1.021  10.594 -1.2699  1.3316 -0.1536
  810MPD2    N111934   1.663   0.453  10.574 -0.3300 -0.3448 -0.0345
  810MPD2    H711935   1.659   0.389  10.496 -1.5739 -0.2193 -0.0706
  811MPD2     C11936   1.112   0.523  10.113 -0.5780 -0.3233 -0.1459
  811MPD2    C111937   1.161   0.565  10.236 -0.1603 -0.6525  0.7825
  811MPD2    C211938   1.180   0.701  10.246  0.2547  0.3191  0.2790
  811MPD2    C311939   1.172   0.788  10.136  0.1737  0.0879  0.0300
  811MPD2    C411940   1.118   0.744  10.018 -0.9109 -0.2964  0.4153
  811MPD2    C511941   1.099   0.611  10.005 -0.9458  0.3632  0.4881
  811MPD2     H11942   1.218   0.735  10.341 -0.8442  2.2270  0.0416
  811MPD2    H111943   1.079   0.808   9.939  0.1661 -1.1049 -0.7739
  811MPD2    H211944   1.093   0.417  10.101  1.1522 -0.7899  1.2608
  811MPD2    H311945   1.044   0.571   9.920 -1.6246 -0.4081  1.2978
  811MPD2     N11946   1.213   0.922  10.154  0.1401 -0.4284 -0.3240
  811MPD2    H511947   1.255   0.949  10.242 -2.3030  0.7680  0.4775
  811MPD2    N111948   1.162   0.473  10.342  0.0116 -0.3324 -0.3883
  811MPD2    H711949   1.163   0.374  10.320 -0.3184 -0.3613 -0.2738
  812MPD2     C11950   0.381   0.830  12.157 -0.5516 -0.3452  0.8033
  812MPD2    C111951   0.312   0.889  12.263 -0.3232  0.3173  0.5157
  812MPD2    C211952   0.259   0.804  12.358 -0.1308 -0.3316  0.3193
  812MPD2    C311953   0.287   0.670  12.355 -1.7629  0.3379  0.5967
  812MPD2    C411954   0.380   0.620  12.263 -0.2783  0.2155 -0.2180
  812MPD2    C511955   0.422   0.700  12.164  0.3488 -0.4842  0.3437
  812MPD2     H11956   0.202   0.838  12.444 -0.7669 -1.2018  0.2413
  812MPD2    H111957   0.404   0.514  12.258  0.1923  0.3513 -0.8851
  812MPD2    H211958   0.416   0.890  12.075 -0.1611 -4.0786 -1.7683
  812MPD2    H311959   0.491   0.653  12.095 -0.9990 -0.5688 -0.9662
  812MPD2     N11960   0.220   0.586  12.442  0.4632 -0.4234  0.1093
  812MPD2    H511961   0.171   0.633  12.517  0.4879  3.4520 -2.3255
  812MPD2    N111962   0.295   1.028  12.256 -0.5417  0.0401  0.1474
  812MPD2    H711963   0.360   1.075  12.193  0.0181  0.5755  1.1210
  813MPD2     C11964   3.773   2.909  12.945  0.4046  0.2572 -1.1765
  813MPD2    C111965   3.860   2.863  13.035 -1.0473 -0.2607  0.0572
  813MPD2    C211966   3.824   2.777  13.139  0.1387 -0.3820  0.2708
  813MPD2    C311967   3.695   2.744  13.163 -0.1316  0.1840  0.5667
  813MPD2    C411968   3.599   2.800  13.086 -0.5433 -0.3191  0.5979
  813MPD2    C511969   3.643   2.875  12.972 -0.2382 -0.2440  0.4122
  813MPD2     H11970   3.899   2.755  13.215  1.6946 -3.0674 -2.0592
  813MPD2    H111971   3.492   2.795  13.099 -0.3690 -1.8462  1.3802
  813MPD2    H211972   3.799   2.970  12.860  3.9056  1.2964  0.6835
  813MPD2    H311973   3.559   2.919  12.919  0.3170 -1.6940 -1.6815
  813MPD2     N11974   3.662   2.667  13.285  0.0862 -0.7857  0.7589
  813MPD2    H511975   3.733   2.615  13.336  0.6245  0.1315  0.9522
  813MPD2    N111976   3.997   2.894  13.011  0.4119 -0.0316 -0.6934
  813MPD2    H711977   4.010   2.952  12.929 -1.9915 -0.7912 -1.6110
  814MPD2     C11978   4.306   4.332  12.313  0.3731  0.1692 -0.9709
  814MPD2    C111979   4.365   4.321  12.189 -0.1791  0.1454 -0.2429
  814MPD2    C211980   4.465   4.413  12.154  0.3800  0.0254 -0.4091
  814MPD2    C311981   4.509   4.503  12.247 -0.1483  0.4189 -0.8382
  814MPD2    C411982   4.442   4.517  12.361  0.2235 -0.4482 -0.5299
  814MPD2    C511983   4.345   4.438  12.397 -0.4349 -0.0772 -0.4591
  814MPD2     H11984   4.512   4.407  12.056 -0.9276 -0.7818 -0.9910
  814MPD2    H111985   4.485   4.586  12.432  0.1429 -0.0978 -0.8186
  814MPD2    H211986   4.228   4.265  12.347  1.2032 -0.0421  0.5470
  814MPD2    H311987   4.305   4.443  12.498 -0.6121  1.8997 -0.6358
  814MPD2     N11988   4.613   4.592  12.217 -0.0927 -0.2411 -0.1659
  814MPD2    H511989   4.620   4.668  12.285 -1.4523 -0.1942 -0.0903
  814MPD2    N111990   4.324   4.221  12.097  0.1068  0.1648  0.1346
  814MPD2    H711991   4.378   4.222  12.011  1.5990 -0.9294  1.0564
  815MPD2     C11992   0.273   2.909  11.745  0.8393  0.0193 -0.6653
  815MPD2    C111993   0.289   2.777  11.787  0.4066  0.1558  0.1016
  815MPD2    C211994   0.211   2.726  11.888 -0.3615 -0.5214 -1.2856
  815MPD2    C311995   0.127   2.806  11.961  0.1752 -0.5665  0.6979
  815MPD2    C411996   0.131   2.938  11.926  0.2537 -0.3545 -0.5578
  815MPD2    C511997   0.193   2.990  11.815 -0.7589 -0.1307 -0.0644
  815MPD2     H11998   0.210   2.620  11.911  0.3650 -0.0474  0.9604
  815MPD2    H111999   0.078   3.013  11.984 -0.2242  0.9491 -2.6505
  815MPD2    H212000   0.322   2.953  11.659 -0.6108  1.7501 -0.5975
  815MPD2    H312001   0.169   3.092  11.787  1.2370  0.4246  0.2586
  815MPD2     N12002   0.043   2.743  12.057  0.2872 -0.0470 -1.0913
  815MPD2    H512003   0.040   2.641  12.060  0.5586  0.0018  0.7168
  815MPD2    N112004   0.381   2.699  11.716 -0.5253 -0.0826 -0.0612
  815MPD2    H712005   0.436   2.738  11.640  0.5479 -0.7304  0.3807
  816MPD2     C12006   0.418   2.131  17.110 -1.1119 -0.0224 -0.1405
  816MPD2    C112007   0.409   2.194  16.981 -0.4910  0.0453 -0.6110
  816MPD2    C212008   0.500   2.146  16.888 -0.1648 -0.9101 -0.1655
  816MPD2    C312009   0.587   2.039  16.907 -0.6901  0.1336 -0.2515
  816MPD2    C412010   0.590   1.976  17.032 -0.0091  0.2432 -0.3308
  816MPD2    C512011   0.514   2.029  17.134 -0.0782 -0.2365 -0.2240
  816MPD2     H12012   0.495   2.205  16.798 -4.4960  0.0358  0.7207
  816MPD2    H112013   0.661   1.901  17.065 -2.6422 -3.0504 -2.2077
  816MPD2    H212014   0.364   2.159  17.201 -2.9865  0.4501 -1.3868
  816MPD2    H312015   0.535   1.983  17.230 -0.9777 -0.4844 -0.1412
  816MPD2     N12016   0.675   1.999  16.805  0.2314  0.7829 -0.5633
  816MPD2    H512017   0.671   2.040  16.712 -2.0937  0.1122 -0.7642
  816MPD2    N112018   0.325   2.305  16.948 -0.1501  0.4617 -0.4028
  816MPD2    H712019   0.329   2.338  16.853  0.7035  0.5993 -0.3172
  817MPD2     C12020   0.026   2.884   9.579  0.7946  0.6196  0.1910
  817MPD2    C112021   4.723   2.778   9.499  0.1627 -0.2958 -0.2003
  817MPD2    C212022   4.595   2.782   9.436 -0.4300  0.1677 -0.4425
  817MPD2    C312023   4.501   2.882   9.457  0.3855 -0.0144 -0.3653
  817MPD2    C412024   4.534   2.985   9.538  0.0651  0.0984 -0.4386
  817MPD2    C512025   4.660   2.983   9.596 -0.8931 -0.3437  0.0917
  817MPD2     H12026   4.555   2.695   9.385  0.6521 -0.8095  0.3663
  817MPD2    H112027   4.470   3.069   9.563 -1.0965 -0.1093 -2.6602
  817MPD2    H212028   0.127   2.897   9.616  0.3341  0.3576  1.5448
  817MPD2    H312029   4.686   3.061   9.667 -1.0794 -1.0440  0.9272
  817MPD2     N12030   4.374   2.867   9.394 -0.1159  0.1856  0.4597
  817MPD2    H512031   4.367   2.794   9.324 -3.3232  1.9371 -1.0769
  817MPD2    N112032   0.081   2.671   9.471  0.3265  0.0724  0.5191
  817MPD2    H712033   0.048   2.600   9.408 -1.2424  0.4088  0.9641
  818MPD2     C12034   3.639   2.870  10.172  0.2734  0.1065 -0.0446
  818MPD2    C112035   3.567   2.775  10.238 -0.7198  0.0464  0.4846
  818MPD2    C212036   3.575   2.635  10.213 -0.3172 -0.1651 -0.3794
  818MPD2    C312037   3.671   2.586  10.126  0.1447  0.5560 -0.2670
  818MPD2    C412038   3.745   2.681  10.059  0.0716  0.3348  0.6458
  818MPD2    C512039   3.733   2.816  10.086 -0.0471 -0.1774 -0.3294
  818MPD2     H12040   3.509   2.563  10.260  1.4226 -0.6592  1.3025
  818MPD2    H112041   3.828   2.647   9.997  0.5823  3.3427 -0.2764
  818MPD2    H212042   3.634   2.978  10.171 -1.1135  0.0123 -3.4153
  818MPD2    H312043   3.790   2.890  10.030  2.1026 -0.6332  1.2612
  818MPD2     N12044   3.697   2.448  10.111  0.1373  0.3379 -0.2686
  818MPD2    H512045   3.769   2.433  10.041 -0.1579  2.3733 -1.0254
  818MPD2    N112046   3.477   2.806  10.340  0.0507 -0.1644 -0.8991
  818MPD2    H712047   3.402   2.742  10.362 -1.2634  1.5120 -0.5183
  819MPD2     C12048   1.548   0.016  15.514 -0.5707  0.3787  0.1438
  819MPD2    C112049   1.629   4.628  15.510 -0.8356  0.4451 -0.0822
  819MPD2    C212050   1.752   4.632  15.571  0.2161  0.3630  0.0173
  819MPD2    C312051   1.795   0.023  15.632 -0.6090 -0.2678 -0.3218
  819MPD2    C412052   1.710   0.131  15.633  0.0962 -1.0505 -0.4314
  819MPD2    C512053   1.589   0.131  15.577  0.2158 -0.1669 -0.1488
  819MPD2     H12054   1.816   4.546  15.561  1.6014  1.2848  0.9465
  819MPD2    H112055   1.730   0.213  15.700 -0.6523  0.6014 -2.2298
  819MPD2    H212056   1.451   0.009  15.468  0.3376  1.7952 -1.9876
  819MPD2    H312057   1.525   0.217  15.596 -2.2706 -1.7882 -1.1501
  819MPD2     N12058   1.922   0.023  15.679  0.0873  0.3232 -0.4038
  819MPD2    H512059   1.973   4.664  15.652  1.2268 -0.3151  3.8019
  819MPD2    N112060   1.578   4.512  15.445  0.0774  0.0913  0.1421
  819MPD2    H712061   1.498   4.530  15.385 -0.1039  1.8812  0.9270
  820MPD2     C12062   0.786   4.355  14.948 -0.7921  0.6213  0.0794
  820MPD2    C112063   0.854   4.448  15.024  0.1991  1.1410 -0.0514
  820MPD2    C212064   0.965   4.407  15.093  0.0439  0.3066  0.7909
  820MPD2    C312065   1.007   4.272  15.086  0.3621 -0.1521 -0.1075
  820MPD2    C412066   0.944   4.182  15.003 -0.0845  0.3498  0.1054
  820MPD2    C512067   0.833   4.224  14.934  0.1534  0.5959 -0.6317
  820MPD2     H12068   1.015   4.477  15.159  0.9827  1.4170 -1.1035
  820MPD2    H112069   0.982   4.081  14.990  0.3888  0.5297  0.0908
  820MPD2    H212070   0.687   4.368  14.908 -1.1257 -0.1243  0.6575
  820MPD2    H312071   0.775   4.154  14.875 -2.1627  1.0831  1.0773
  820MPD2     N12072   1.139   4.238  15.134 -0.0576 -0.1033  0.0958
  820MPD2    H512073   1.193   4.159  15.101 -1.1662 -0.5885 -0.5691
  820MPD2    N112074   0.800   4.580  15.023 -0.2350  0.8736 -0.2999
  820MPD2    H712075   0.709   4.593  14.980 -0.1682 -0.0078 -0.7135
  821MPD2     C12076   1.498   1.580  13.008  0.5764 -0.0779  0.4721
  821MPD2    C112077   1.556   1.568  13.131 -0.0234  0.1294  0.1553
  821MPD2    C212078   1.683   1.624  13.144  0.1133  0.2026 -0.7730
  821MPD2    C312079   1.749   1.695  13.052  0.0821 -0.5304 -0.5159
  821MPD2    C412080   1.686   1.716  12.933  0.5056  0.0191 -0.3723
  821MPD2    C512081   1.564   1.658  12.913  0.6266  0.4094  0.4018
  821MPD2     H12082   1.743   1.602  13.232  1.6437  2.5396 -1.2223
  821MPD2    H112083   1.729   1.780  12.857  2.6428 -2.0587 -0.8858
  821MPD2    H212084   1.405   1.532  12.980  0.1883  1.2500 -0.5192
  821MPD2    H312085   1.519   1.678  12.816  1.5685  2.9145  0.4987
  821MPD2     N12086   1.876   1.762  13.064 -0.0712  0.4297 -0.0278
  821MPD2    H512087   1.908   1.813  12.982  2.3685  0.5037  0.9747
  821MPD2    N112088   1.492   1.494  13.230 -0.0611 -0.6050  0.6752
  821MPD2    H712089   1.552   1.484  13.311  0.2280 -1.5097  0.3560
  822MPD2     C12090   1.762   1.534  15.705 -0.2757 -0.2371 -0.6879
  822MPD2    C112091   1.845   1.501  15.812 -0.4552 -0.4283 -0.3574
  822MPD2    C212092   1.838   1.577  15.926  0.1568  0.9354  0.5592
  822MPD2    C312093   1.741   1.680  15.938  0.7221 -0.0425  0.3900
  822MPD2    C412094   1.649   1.691  15.841  0.1133 -0.1461 -0.1247
  822MPD2    C512095   1.662   1.624  15.725 -0.6104 -0.5887 -0.4162
  822MPD2     H12096   1.901   1.548  16.009  1.7892  0.6210 -0.8107
  822MPD2    H112097   1.569   1.764  15.843 -1.0047 -1.4306  2.6119
  822MPD2    H212098   1.765   1.476  15.614 -1.9941  1.0927 -1.5777
  822MPD2    H312099   1.593   1.648  15.645  0.3888  0.5216 -0.9535
  822MPD2     N12100   1.744   1.752  16.059  0.3118 -0.0183 -0.3402
  822MPD2    H512101   1.808   1.729  16.134 -0.8326 -2.5787 -0.1346
  822MPD2    N112102   1.949   1.404  15.806 -0.3618 -0.0383  0.8408
  822MPD2    H712103   2.011   1.393  15.885 -1.6685 -0.6485  1.7811
  823MPD2     C12104   2.066   1.963  16.789  0.3172 -0.3272  0.8436
  823MPD2    C112105   2.005   1.870  16.710 -0.2977 -1.5525 -0.0460
  823MPD2    C212106   2.032   1.738  16.733  0.9764  0.3111  0.5727
  823MPD2    C312107   2.115   1.698  16.834  0.6051  0.0939  0.0285
  823MPD2    C412108   2.159   1.790  16.923 -0.7815  0.3841  0.6561
  823MPD2    C512109   2.140   1.927  16.898  0.1045 -0.1073 -0.9462
  823MPD2     H12110   1.989   1.666  16.664 -0.1556  1.8639 -0.3640
  823MPD2    H112111   2.228   1.779  17.005 -0.0039 -0.5856 -0.1226
  823MPD2    H212112   2.043   2.068  16.774  0.0606 -0.4488  0.3730
  823MPD2    H312113   2.170   2.000  16.972 -0.6503  0.6286 -1.3723
  823MPD2     N12114   2.158   1.572  16.849 -0.2302  0.0320  0.0641
  823MPD2    H512115   2.203   1.560  16.939  1.7028  0.3775 -0.8513
  823MPD2    N112116   1.914   1.920  16.617 -0.6083 -0.1091 -0.0194
  823MPD2    H712117   1.916   2.021  16.602  3.3585  0.2441  2.9966
  824MPD2     C12118   2.270   0.623  15.653 -0.3654 -0.2787  0.0223
  824MPD2    C112119   2.342   0.717  15.724  0.0986  0.6168 -0.8943
  824MPD2    C212120   2.475   0.679  15.755  0.1215 -0.0404 -0.4304
  824MPD2    C312121   2.526   0.555  15.726 -0.1099  0.1866  0.0905
  824MPD2    C412122   2.449   0.461  15.671 -0.4336  0.3798  0.2552
  824MPD2    C512123   2.317   0.490  15.636  0.1965  0.4889 -0.3705
  824MPD2     H12124   2.545   0.754  15.789  0.9538 -1.7248  1.4981
  824MPD2    H112125   2.485   0.361  15.648  0.3215  0.9983 -1.2501
  824MPD2    H212126   2.164   0.632  15.629  0.3400  1.4418 -2.4248
  824MPD2    H312127   2.253   0.415  15.593  2.1054 -0.8550 -0.8749
  824MPD2     N12128   2.662   0.538  15.750 -0.2835  0.7004  0.0666
  824MPD2    H512129   2.712   0.616  15.791  1.0205  0.2305 -0.6592
  824MPD2    N112130   2.300   0.846  15.760 -0.6195 -0.0430 -0.4070
  824MPD2    H712131   2.367   0.901  15.812  0.5683 -1.2952 -0.5890
  825MPD2     C12132   3.480   0.703  15.549  0.2350 -0.1064 -0.3248
  825MPD2    C112133   3.346   0.722  15.536  0.3551  0.2083 -0.2809
  825MPD2    C212134   3.302   0.815  15.444  1.1497 -0.5748 -0.8450
  825MPD2    C312135   3.396   0.903  15.383  0.8929 -0.1551  0.4172
  825MPD2    C412136   3.530   0.884  15.410 -1.0352  1.0950 -0.5466
  825MPD2    C512137   3.572   0.779  15.488  0.1497  0.0042  0.2568
  825MPD2     H12138   3.199   0.827  15.415  0.7320 -0.5179  0.6481
  825MPD2    H112139   3.600   0.941  15.350  1.6175  0.2584  1.7660
  825MPD2    H212140   3.511   0.620  15.611  0.4982  1.1129  1.1749
  825MPD2    H312141   3.677   0.758  15.509  0.3129 -0.4563 -1.0231
  825MPD2     N12142   3.360   1.002  15.291 -0.0203 -0.5636  0.3554
  825MPD2    H512143   3.440   1.036  15.239 -0.1606  1.4067  1.4253
  825MPD2    N112144   3.266   0.651  15.626  0.5483  0.3084 -0.2342
  825MPD2    H712145   3.316   0.588  15.688 -1.9157  0.1483  1.5701
  826MPD2     C12146   3.415   0.741  13.535  0.2437  0.1024  0.5824
  826MPD2    C112147   3.369   0.775  13.410  0.3636  0.4981 -0.3930
  826MPD2    C212148   3.283   0.881  13.390 -0.2550 -0.9087  0.2361
  826MPD2    C312149   3.241   0.949  13.504 -0.0698 -0.9847 -0.2202
  826MPD2    C412150   3.300   0.925  13.629  0.1310 -0.2383  0.3688
  826MPD2    C512151   3.387   0.821  13.642  0.6678 -0.4349  0.5064
  826MPD2     H12152   3.243   0.914  13.295  2.6810  0.8145 -0.3927
  826MPD2    H112153   3.280   0.987  13.716  2.4423 -0.8936  1.3643
  826MPD2    H212154   3.484   0.658  13.549 -0.9245 -1.1573 -1.0521
  826MPD2    H312155   3.435   0.793  13.735  0.5715  0.8296  0.9441
  826MPD2     N12156   3.140   1.046  13.503 -0.1331  0.1697  0.1591
  826MPD2    H512157   3.125   1.099  13.588 -1.1082 -0.3221  0.2915
  826MPD2    N112158   3.412   0.696  13.302  0.2205  0.0545  0.0186
  826MPD2    H712159   3.482   0.628  13.332 -0.3039  0.0693  1.2771
  827MPD2     C12160   4.149   1.977   9.996  0.0339  0.1813 -0.4344
  827MPD2    C112161   4.184   1.855  10.040  0.3577 -0.8536  0.1495
  827MPD2    C212162   4.120   1.742   9.988  0.9569 -0.0646  0.0458
  827MPD2    C312163   4.046   1.747   9.869  1.0716  0.0430 -0.7708
  827MPD2    C412164   4.015   1.874   9.819 -0.3271  0.0037 -0.2062
  827MPD2    C512165   4.074   1.984   9.880 -0.3971 -0.1385  0.3962
  827MPD2     H12166   4.155   1.642  10.013  1.2045 -0.1841 -0.7673
  827MPD2    H112167   3.944   1.886   9.737  0.5790  0.1465 -0.9682
  827MPD2    H212168   4.180   2.073  10.037 -0.4535  0.7022 -1.2934
  827MPD2    H312169   4.043   2.077   9.833 -0.9405 -0.3189  0.3944
  827MPD2     N12170   3.997   1.634   9.802  0.7427  0.2457  0.0300
  827MPD2    H512171   4.022   1.546   9.845 -0.5731  0.5149  1.3450
  827MPD2    N112172   4.276   1.847  10.148 -0.1610  0.1210 -1.1154
  827MPD2    H712173   4.320   1.930  10.186 -1.8640  2.0314 -3.3770
  828MPD2     C12174   2.254   1.730  12.857 -0.4098 -0.6707  0.1258
  828MPD2    C112175   2.257   1.782  12.733  0.7188  0.1651 -0.6646
  828MPD2    C212176   2.369   1.771  12.663  0.1769 -0.6355  0.5509
  828MPD2    C312177   2.486   1.717  12.711  0.4144 -0.4855 -0.0368
  828MPD2    C412178   2.492   1.689  12.845 -0.0580  0.5627  0.8215
  828MPD2    C512179   2.368   1.683  12.912 -0.6532  0.6129  0.5623
  828MPD2     H12180   2.359   1.803  12.560 -2.2932 -3.0856  0.0221
  828MPD2    H112181   2.580   1.653  12.896  0.1645  1.9025  1.3851
  828MPD2    H212182   2.162   1.732  12.913 -1.3011 -0.9075 -1.3295
  828MPD2    H312183   2.374   1.654  13.017 -1.4527 -1.2326  0.0928
  828MPD2     N12184   2.603   1.710  12.634 -0.7444  0.1253  0.2808
  828MPD2    H512185   2.686   1.689  12.689 -1.0176  0.8942  0.9781
  828MPD2    N112186   2.152   1.843  12.661  0.4490 -0.9875 -0.8523
  828MPD2    H712187   2.182   1.904  12.586  1.7171 -0.4469  0.0760
  829MPD2     C12188   2.216   1.910  11.808  0.1162 -0.0688  0.4407
  829MPD2    C112189   2.084   1.942  11.826 -0.0174  0.3589 -0.3074
  829MPD2    C212190   2.033   1.948  11.950 -0.2683 -0.5293 -0.4555
  829MPD2    C312191   2.109   1.914  12.060 -0.1449 -0.3456 -0.6117
  829MPD2    C412192   2.241   1.868  12.043  0.6683 -0.1108 -0.6864
  829MPD2    C512193   2.293   1.877  11.919  0.2396 -0.5013  0.0434
  829MPD2     H12194   1.927   1.964  11.961 -0.3582 -0.5931 -1.2301
  829MPD2    H112195   2.292   1.821  12.126  0.5272  0.3999 -0.3134
  829MPD2    H212196   2.259   1.904  11.709 -0.7139  0.4558  0.0555
  829MPD2    H312197   2.387   1.824  11.907 -0.7980 -1.8498 -2.1825
  829MPD2     N12198   2.061   1.905  12.190 -0.7737  0.3266 -0.0831
  829MPD2    H512199   2.130   1.870  12.256 -1.0812 -0.7763 -0.3363
  829MPD2    N112200   2.010   1.961  11.707 -0.5375  0.7778  0.2317
  829MPD2    H712201   2.062   1.934  11.624 -1.0041 -0.5669  0.3870
  830MPD2     C12202   2.307   4.649  15.215  0.2405  0.7317  0.2466
  830MPD2    C112203   2.398   4.715  15.294 -0.1537 -0.1458 -0.1174
  830MPD2    C212204   2.530   0.015  15.247 -0.5369  0.7406 -0.2426
  830MPD2    C312205   2.563   4.712  15.116 -0.2468 -0.0368 -0.8521
  830MPD2    C412206   2.479   4.632  15.049  0.1428  0.6042  0.0346
  830MPD2    C512207   2.355   4.601  15.095 -0.2546 -0.1244  0.8451
  830MPD2     H12208   2.587   0.078  15.314 -0.3572 -0.2248  0.5040
  830MPD2    H112209   2.498   4.610  14.944 -2.4237 -1.8467  0.0769
  830MPD2    H212210   2.212   4.635  15.266 -0.6106  0.4661 -1.4109
  830MPD2    H312211   2.288   4.540  15.035 -0.2614 -0.0949  0.8229
  830MPD2     N12212   2.667   0.056  15.050 -0.6383 -0.5333  0.3260
  830MPD2    H512213   2.673   0.048  14.949  0.3882  0.1982  0.3238
  830MPD2    N112214   2.348   0.029  15.421  0.2869  0.1529 -0.8032
  830MPD2    H712215   2.249   0.008  15.433 -0.2913  3.1132 -0.3414
  831MPD2     C12216   2.148   1.830  16.205 -0.3675  0.0406  0.0838
  831MPD2    C112217   2.148   1.738  16.106 -1.1631 -0.0546  0.2413
  831MPD2    C212218   2.104   1.606  16.131 -0.9506  0.2024 -0.0771
  831MPD2    C312219   2.046   1.578  16.253 -0.0671 -0.0569 -0.2803
  831MPD2    C412220   2.058   1.669  16.354 -0.5214 -0.6472  0.3844
  831MPD2    C512221   2.103   1.795  16.328  0.0200  0.4383  0.0417
  831MPD2     H12222   2.117   1.532  16.053 -1.2036 -0.2657  0.3305
  831MPD2    H112223   2.021   1.645  16.453 -0.4584 -1.9253  0.0863
  831MPD2    H212224   2.191   1.929  16.197  1.7340 -0.8634  0.0793
  831MPD2    H312225   2.100   1.869  16.407 -1.3605 -0.3372  0.7070
  831MPD2     N12226   2.003   1.448  16.282 -0.1842 -0.3638  0.2186
  831MPD2    H512227   1.959   1.438  16.373 -0.2463  3.1680  0.5708
  831MPD2    N112228   2.196   1.774  15.980  0.1576  0.1473  0.1892
  831MPD2    H712229   2.197   1.700  15.911  0.2606 -1.1754  1.6194
  832MPD2     C12230   1.290   3.358  17.182  0.0769 -0.6697  0.4727
  832MPD2    C112231   1.245   3.482  17.135 -0.3479 -0.1788 -0.3926
  832MPD2    C212232   1.172   3.489  17.020 -0.3434 -0.2839 -0.2773
  832MPD2    C312233   1.120   3.371  16.967  0.1365 -0.1312  0.2453
  832MPD2    C412234   1.156   3.252  17.024 -0.6147 -0.2787 -0.0892
  832MPD2    C512235   1.243   3.245  17.129  0.5627 -0.1015 -0.0667
  832MPD2     H12236   1.130   3.585  16.993  0.2245  0.2929  0.9267
  832MPD2    H112237   1.121   3.156  16.986 -1.0854 -0.0694 -0.1780
  832MPD2    H212238   1.342   3.335  17.274 -2.1991 -0.6841  1.7383
  832MPD2    H312239   1.276   3.146  17.159 -1.6966 -0.9897 -0.5173
  832MPD2     N12240   1.025   3.369  16.867  0.2721 -0.2986  0.5023
  832MPD2    H512241   0.992   3.276  16.843 -0.2651  0.3265 -1.1782
  832MPD2    N112242   1.264   3.596  17.215 -0.8037 -0.2892 -0.1526
  832MPD2    H712243   1.297   3.589  17.311 -1.6168 -0.5399  0.1041
  833MPD2     C12244   2.793   4.448  12.640  0.3570  0.0873  0.4234
  833MPD2    C112245   2.844   4.511  12.523  0.1375  0.3511 -0.6898
  833MPD2    C212246   2.938   4.439  12.452  0.0642  0.3501 -0.5559
  833MPD2    C312247   2.956   4.305  12.475  0.0753  0.0560 -0.0787
  833MPD2    C412248   2.907   4.249  12.592  0.0651 -0.6798  0.3222
  833MPD2    C512249   2.821   4.321  12.674  0.2540 -0.5130 -0.4618
  833MPD2     H12250   2.996   4.481  12.370  2.6118 -2.4217 -0.1854
  833MPD2    H112251   2.930   4.151  12.631  3.9256 -0.1331 -0.5858
  833MPD2    H212252   2.726   4.508  12.701 -1.5264 -1.2443 -0.3163
  833MPD2    H312253   2.778   4.279  12.765 -1.3794  1.9183 -0.1201
  833MPD2     N12254   3.037   4.237  12.381  0.0036  0.4584 -0.0053
  833MPD2    H512255   3.076   4.295  12.308 -1.1285 -1.3304 -2.0166
  833MPD2    N112256   2.807   4.647  12.497 -0.2253  0.1729  0.2426
  833MPD2    H712257   2.748   4.704  12.557  0.2367  0.8554  0.0547
  834MPD2     C12258   3.107   3.707  11.491 -0.7497  0.2850  0.1587
  834MPD2    C112259   2.981   3.716  11.540  0.2897 -0.4403 -0.3280
  834MPD2    C212260   2.958   3.768  11.664 -0.4012 -0.2478 -0.5759
  834MPD2    C312261   3.069   3.822  11.733 -0.5156 -0.0426 -0.0432
  834MPD2    C412262   3.193   3.817  11.679  1.0003 -0.1688  0.3984
  834MPD2    C512263   3.214   3.762  11.551  0.3815  0.5481 -0.2923
  834MPD2     H12264   2.861   3.783  11.710 -1.1632 -3.8014 -1.0393
  834MPD2    H112265   3.276   3.863  11.731  3.3364 -3.3915 -0.4423
  834MPD2    H212266   3.128   3.676  11.389  0.3086  0.8871  0.1842
  834MPD2    H312267   3.313   3.760  11.507  0.3820 -0.4892 -0.2584
  834MPD2     N12268   3.047   3.904  11.846  0.6201  0.7131  0.3805
  834MPD2    H512269   2.955   3.939  11.871  0.0946 -0.0953 -0.4343
  834MPD2    N112270   2.882   3.647  11.466 -0.5258 -0.6443  0.3863
  834MPD2    H712271   2.912   3.587  11.390  0.6802  0.3887  0.0469
  835MPD2     C12272   3.198   1.850  10.957 -0.0477 -0.2763 -0.2254
  835MPD2    C112273   3.174   1.925  11.070  0.0839  0.0084  0.4271
  835MPD2    C212274   3.218   1.877  11.197 -0.1296 -0.2236  0.5789
  835MPD2    C312275   3.298   1.766  11.206  0.0120  0.4124 -0.6605
  835MPD2    C412276   3.319   1.693  11.095  0.5835  0.5832  0.7897
  835MPD2    C512277   3.262   1.727  10.968  0.1437 -0.6251  0.0622
  835MPD2     H12278   3.173   1.915  11.288  1.5485  2.9911  0.0825
  835MPD2    H112279   3.363   1.594  11.103  0.8299  0.7509  1.5203
  835MPD2    H212280   3.147   1.880  10.866  0.2401 -0.6446 -0.5066
  835MPD2    H312281   3.273   1.660  10.883  0.5481  0.4870 -0.7631
  835MPD2     N12282   3.340   1.708  11.324 -0.3156  0.2707 -0.3663
  835MPD2    H512283   3.366   1.610  11.332  0.3720  0.2969 -2.4443
  835MPD2    N112284   3.087   2.032  11.082 -0.3661 -0.1436  0.4824
  835MPD2    H712285   3.057   2.046  11.177 -3.1935 -0.6734 -0.3229
  836MPD2     C12286   2.724   1.825  11.565  0.4674  1.0450 -0.1648
  836MPD2    C112287   2.812   1.819  11.670 -0.2582 -0.3699  0.1791
  836MPD2    C212288   2.768   1.877  11.789  0.0785 -0.1407 -0.6829
  836MPD2    C312289   2.649   1.943  11.796  0.4431 -0.2717  0.3633
  836MPD2    C412290   2.566   1.949  11.689 -0.1885  0.0444  0.5212
  836MPD2    C512291   2.604   1.886  11.572  0.1725 -0.2825  0.4816
  836MPD2     H12292   2.820   1.859  11.883 -1.9317  0.4936  0.5528
  836MPD2    H112293   2.468   1.996  11.697 -0.0956  0.7477 -2.5363
  836MPD2    H212294   2.749   1.781  11.469  0.5291 -0.5551  0.5834
  836MPD2    H312295   2.537   1.897  11.487  0.1938  0.6070  0.5734
  836MPD2     N12296   2.598   2.010  11.911 -0.0805  0.3383  0.7493
  836MPD2    H512297   2.513   2.064  11.895  0.5740  1.4089  0.9083
  836MPD2    N112298   2.927   1.744  11.658  0.1467  0.0639  0.4151
  836MPD2    H712299   2.940   1.707  11.564  1.9892 -1.6762  1.3433
  837MPD2     C12300   1.016   1.605  10.438 -0.2104 -0.3983  0.6328
  837MPD2    C112301   1.076   1.614  10.315  0.4583  0.2582  0.3311
  837MPD2    C212302   1.068   1.732  10.244 -0.1289  0.4524 -0.4224
  837MPD2    C312303   0.990   1.837  10.303 -0.2321  0.1372 -0.6534
  837MPD2    C412304   0.923   1.822  10.418  0.2933  0.9323 -0.6874
  837MPD2    C512305   0.934   1.706  10.482  0.2474 -0.1504  0.1307
  837MPD2     H12306   1.124   1.743  10.152  1.5633  0.5959  0.6302
  837MPD2    H112307   0.872   1.898  10.475  2.2162  0.5994  1.4754
  837MPD2    H212308   1.019   1.514  10.497  3.2533  0.0436  1.1428
  837MPD2    H312309   0.897   1.699  10.584 -1.5456 -0.0831 -0.5128
  837MPD2     N12310   0.973   1.949  10.220 -0.6773  0.1641  0.5032
  837MPD2    H512311   1.039   1.948  10.143 -1.5048  1.8243 -0.2419
  837MPD2    N112312   1.140   1.510  10.254 -0.1778 -0.3142 -0.2657
  837MPD2    H712313   1.153   1.523  10.154  2.1064  1.0416  0.2031
  838MPD2     C12314   3.808   3.919  11.207  0.5229 -0.2247  0.7728
  838MPD2    C112315   3.857   4.043  11.240  0.7272  0.8912 -0.0369
  838MPD2    C212316   3.789   4.120  11.336  0.5853 -0.2133 -0.1012
  838MPD2    C312317   3.664   4.088  11.386 -0.0640 -0.3617  0.0465
  838MPD2    C412318   3.608   3.974  11.343 -0.2216 -0.0755 -0.3458
  838MPD2    C512319   3.675   3.886  11.258  0.4484  0.4179  0.9151
  838MPD2     H12320   3.845   4.205  11.374  0.6102 -0.6765  0.8885
  838MPD2    H112321   3.509   3.940  11.371 -0.1481  0.5213  0.6119
  838MPD2    H212322   3.859   3.851  11.139 -1.6219 -0.1807 -0.8874
  838MPD2    H312323   3.617   3.810  11.207  1.1997  0.2267  0.3419
  838MPD2     N12324   3.618   4.150  11.507  0.2374  0.1755 -0.1769
  838MPD2    H512325   3.666   4.238  11.523 -2.4905  1.7074 -0.5416
  838MPD2    N112326   3.978   4.098  11.192  0.1113  0.5812 -0.3162
  838MPD2    H712327   3.992   4.195  11.218  2.9170 -0.0800  0.6515
  839MPD2     C12328   3.842   4.067  11.824 -0.2806 -0.1041  0.1377
  839MPD2    C112329   3.838   3.987  11.713  0.6793 -0.3972 -0.7408
  839MPD2    C212330   3.915   4.015  11.607  0.0270  0.9166  0.8278
  839MPD2    C312331   3.998   4.124  11.608  0.2597  0.3435 -0.3393
  839MPD2    C412332   4.002   4.208  11.715 -0.0656  0.0198  0.4416
  839MPD2    C512333   3.928   4.176  11.819 -0.4440 -0.7057  0.4789
  839MPD2     H12334   3.905   3.952  11.519 -0.9998  1.0977  0.8090
  839MPD2    H112335   4.073   4.290  11.721  0.1830 -0.2353  0.9862
  839MPD2    H212336   3.795   4.044  11.919  2.8534  0.2018  1.7399
  839MPD2    H312337   3.939   4.237  11.908  1.0319  1.9617 -1.5294
  839MPD2     N12338   4.085   4.138  11.502  0.3227  0.1667  1.0696
  839MPD2    H512339   4.068   4.070  11.428 -0.6916  2.2836 -0.6432
  839MPD2    N112340   3.745   3.887  11.696  0.9499  0.5088 -0.2272
  839MPD2    H712341   3.736   3.826  11.614 -1.0839  1.0242 -0.3994
  840MPD2     C12342   4.672   2.287  10.257  0.4294  0.0517  0.0509
  840MPD2    C112343   4.660   2.224  10.375 -0.0528 -0.9626  0.5671
  840MPD2    C212344   4.696   2.293  10.492 -1.1068 -0.1381 -0.0390
  840MPD2    C312345   0.006   2.426  10.482  0.0643  0.1178 -0.0091
  840MPD2    C412346   0.017   2.485  10.361 -0.3389  0.7921 -0.0854
  840MPD2    C512347   4.717   2.414  10.244 -0.1975 -0.3416 -0.0534
  840MPD2     H12348   4.674   2.242  10.586  0.0493 -0.9929 -0.2338
  840MPD2    H112349   0.034   2.592  10.355 -0.0485  0.7930  0.7434
  840MPD2    H212350   4.645   2.238  10.164 -0.2221 -1.2390  0.9219
  840MPD2    H312351   4.707   2.471  10.153 -0.8026  0.5032  0.5384
  840MPD2     N12352   0.016   2.516  10.593 -0.5759 -0.6585  0.1445
  840MPD2    H512353   0.063   2.605  10.578 -1.1875 -0.3801 -0.0905
  840MPD2    N112354   4.614   2.092  10.373 -0.1677 -0.8116 -0.0617
  840MPD2    H712355   4.589   2.065  10.279  1.6709 -0.7316 -0.5893
  841MPD2     C12356   4.645   2.373  14.522 -0.1677  0.8189 -0.5208
  841MPD2    C112357   4.568   2.395  14.631  0.4090  0.1155 -0.1638
  841MPD2    C212358   4.608   2.490  14.725  0.9956  0.4417  0.4121
  841MPD2    C312359   0.005   2.555  14.717  0.3437  0.2299 -0.2128
  841MPD2    C412360   0.075   2.544  14.598  0.5672 -0.2244  0.1953
  841MPD2    C512361   0.031   2.459  14.501  0.5628  0.0563 -0.0914
  841MPD2     H12362   4.546   2.513  14.811 -1.5286  0.4044 -1.3782
  841MPD2    H112363   0.162   2.604  14.576 -1.1671  2.3937  0.5098
  841MPD2    H212364   4.620   2.294  14.452 -2.7670 -0.5014  1.8725
  841MPD2    H312365   0.088   2.451  14.409 -0.9669  0.1416 -1.0481
  841MPD2     N12366   0.053   2.633  14.826 -0.2728  0.9855 -0.9027
  841MPD2    H512367   4.715   2.663  14.901  1.1833  2.1565 -0.1742
  841MPD2    N112368   4.455   2.313  14.666  0.2191 -0.1375 -0.5835
  841MPD2    H712369   4.416   2.316  14.760 -0.1406  1.7003 -0.8041
  842MPD2     C12370   0.042   3.506  16.417 -0.2034 -0.7003 -0.6274
  842MPD2    C112371   4.651   3.431  16.408  0.2988  0.1431 -0.3909
  842MPD2    C212372   4.636   3.322  16.494 -0.2491  0.0967  0.4026
  842MPD2    C312373   4.724   3.295  16.594  0.7170 -0.0764  0.1813
  842MPD2    C412374   0.117   3.372  16.605 -0.3144  0.6515  1.0341
  842MPD2    C512375   0.134   3.473  16.515 -0.3172 -0.5381  0.4894
  842MPD2     H12376   4.548   3.260  16.484 -0.0948 -0.2588  1.2830
  842MPD2    H112377   0.194   3.357  16.679  1.4120 -0.5859 -1.0171
  842MPD2    H212378   0.055   3.590  16.350 -3.6757 -0.8646 -1.5019
  842MPD2    H312379   0.234   3.512  16.506 -0.2812 -0.8590 -0.4886
  842MPD2     N12380   4.694   3.218  16.705  0.2999  0.6610  0.0605
  842MPD2    H512381   0.047   3.212  16.770  1.8557  0.5961 -1.7872
  842MPD2    N112382   4.560   3.476  16.309  0.6655 -0.2706  0.8579
  842MPD2    H712383   4.584   3.567  16.273  0.5418  0.3530  2.3405
  843MPD2     C12384   1.915   3.296  17.561 -0.1894 -0.1965  0.3731
  843MPD2    C112385   1.863   3.349  17.677 -0.0687 -0.6000  0.2023
  843MPD2    C212386   1.944   3.415   0.073  0.4125 -0.0419 -0.1898
  843MPD2    C312387   2.086   3.412   0.056 -1.1275 -0.3537 -0.0532
  843MPD2    C412388   2.131   3.346  17.641  0.6261 -0.4816 -0.2209
  843MPD2    C512389   2.055   3.292  17.547  0.6598  0.0735  0.1516
  843MPD2     H12390   1.901   3.474   0.153  1.1737  1.2146 -0.7042
  843MPD2    H112391   2.237   3.328  17.626  0.9976  1.0424  0.5128
  843MPD2    H212392   1.858   3.266  17.474  0.2129 -3.3812  1.2351
  843MPD2    H312393   2.108   3.239  17.468 -1.4992  1.7740 -2.4373
  843MPD2     N12394   2.188   3.480   0.132 -0.1700 -0.8673 -0.8027
  843MPD2    H512395   2.284   3.473   0.098  0.1151  2.6133 -0.7143
  843MPD2    N112396   1.720   3.355  17.683  0.1636 -0.2069  0.2259
  843MPD2    H712397   1.674   3.337  17.594  1.2161 -0.1112 -0.3391
  844MPD2     C12398   0.497   2.932  16.245  0.5646 -0.1758 -0.7269
  844MPD2    C112399   0.622   2.911  16.193  0.4653 -0.1509  0.5495
  844MPD2    C212400   0.724   3.006  16.205 -0.1787 -0.0271 -0.6781
  844MPD2    C312401   0.705   3.121  16.273 -0.5144 -0.4108 -0.5112
  844MPD2    C412402   0.579   3.141  16.322  0.1289  0.4008  0.3538
  844MPD2    C512403   0.478   3.049  16.310  0.3135 -0.0048 -0.0514
  844MPD2     H12404   0.822   2.984  16.165 -0.3103  0.2458 -1.1507
  844MPD2    H112405   0.540   3.232  16.368 -1.3631  0.2116 -0.5230
  844MPD2    H212406   0.416   2.861  16.251 -0.5837  1.0283 -2.2448
  844MPD2    H312407   0.383   3.055  16.363  0.4596 -1.2149  0.3441
  844MPD2     N12408   0.811   3.209  16.285 -0.2895  0.7858 -0.7350
  844MPD2    H512409   0.903   3.171  16.265 -0.9089 -0.6861 -0.8335
  844MPD2    N112410   0.652   2.797  16.117  0.1620 -0.1009 -0.0672
  844MPD2    H712411   0.743   2.783  16.072  1.2729  1.8986  1.5530
  845MPD2     C12412   0.837   4.165  16.584 -0.0344 -0.4795 -0.5439
  845MPD2    C112413   0.923   4.098  16.672 -0.8735  0.6362  0.6762
  845MPD2    C212414   0.951   3.961  16.641  0.4013  0.2060 -0.4861
  845MPD2    C312415   0.900   3.909  16.517 -0.4025 -0.0900 -0.4646
  845MPD2    C412416   0.807   3.978  16.445 -0.7312  0.0482  0.4956
  845MPD2    C512417   0.778   4.106  16.473 -0.4729 -1.2306  0.5966
  845MPD2     H12418   1.019   3.902  16.701 -1.2408  0.3292  1.4948
  845MPD2    H112419   0.766   3.937  16.354  2.3161 -0.4137 -0.6479
  845MPD2    H212420   0.809   4.268  16.600  1.2507 -0.5499  2.1758
  845MPD2    H312421   0.700   4.158  16.419  0.7160 -2.1450 -2.0158
  845MPD2     N12422   0.944   3.777  16.466  0.0386  0.4590 -0.1010
  845MPD2    H512423   0.900   3.735  16.385 -0.1850 -0.4329  0.4934
  845MPD2    N112424   0.987   4.160  16.785  0.3215  0.5916 -0.6088
  845MPD2    H712425   0.977   4.260  16.799 -0.8778  0.4749 -0.5724
  846MPD2     C12426   2.521   4.064  13.534 -0.5129  0.4718 -0.3288
  846MPD2    C112427   2.416   4.144  13.563  0.6460  0.1082  0.4398
  846MPD2    C212428   2.361   4.157  13.687 -0.6388 -0.1300  0.0734
  846MPD2    C312429   2.395   4.070  13.784  0.4428  0.9663 -0.2629
  846MPD2    C412430   2.488   3.972  13.758 -0.6007  0.4360  0.7311
  846MPD2    C512431   2.555   3.979  13.638  0.1588 -0.3644 -0.2724
  846MPD2     H12432   2.282   4.231  13.694  1.1796  1.7167  1.3575
  846MPD2    H112433   2.519   3.905  13.838 -2.2785 -1.3347 -0.1066
  846MPD2    H212434   2.576   4.051  13.442  2.2501  0.1054  1.3733
  846MPD2    H312435   2.645   3.920  13.627  1.3350  1.2302  0.7848
  846MPD2     N12436   2.329   4.072  13.908 -0.3885  0.0391 -0.4526
  846MPD2    H512437   2.269   4.153  13.919 -2.8301 -1.8987  0.4096
  846MPD2    N112438   2.357   4.226  13.461 -0.4832  1.0954  0.5547
  846MPD2    H712439   2.298   4.301  13.496 -2.1701 -0.1032  0.2744
  847MPD2     C12440   2.595   0.318  13.856  0.4598 -0.5483 -0.2879
  847MPD2    C112441   2.658   0.364  13.971 -0.8533 -0.9336 -0.4581
  847MPD2    C212442   2.680   0.275  14.070  0.7061  0.4762  0.6958
  847MPD2    C312443   2.640   0.141  14.060  0.3680  0.6374  0.0457
  847MPD2    C412444   2.578   0.093  13.947  0.5902 -0.6198  0.8439
  847MPD2    C512445   2.566   0.186  13.850  0.4182 -0.3236 -0.2698
  847MPD2     H12446   2.725   0.306  14.163  1.6613  2.1084 -0.3103
  847MPD2    H112447   2.560   4.713  13.922  0.7094 -0.4130 -0.0879
  847MPD2    H212448   2.570   0.381  13.771 -4.0954 -3.0917 -0.8912
  847MPD2    H312449   2.515   0.148  13.762  0.2830 -1.1376  0.1597
  847MPD2     N12450   2.668   0.068  14.182  0.5757  0.0419 -0.0994
  847MPD2    H512451   2.732   0.112  14.248  1.6908  1.3678 -2.0823
  847MPD2    N112452   2.687   0.495  13.997 -0.0880 -0.4271  0.2068
  847MPD2    H712453   2.708   0.509  14.095  0.7708 -0.8122  0.0744
  848MPD2     C12454   0.549   3.718  16.257  0.6927  0.6524 -0.0303
  848MPD2    C112455   0.541   3.746  16.393 -0.3966  0.8715 -0.3904
  848MPD2    C212456   0.505   3.868  16.445  0.4408 -0.0661 -0.2646
  848MPD2    C312457   0.450   3.960  16.355  0.1057 -0.3017 -0.3054
  848MPD2    C412458   0.449   3.930  16.225 -0.2295 -1.2228  0.6964
  848MPD2    C512459   0.506   3.817  16.171  0.7230  0.9007 -0.6186
  848MPD2     H12460   0.492   3.887  16.551  0.9727 -0.5584 -0.1094
  848MPD2    H112461   0.402   4.000  16.157  1.3087 -0.5670  0.3151
  848MPD2    H212462   0.566   3.620  16.213 -1.7003  0.6617 -1.0179
  848MPD2    H312463   0.491   3.797  16.065  0.0679  1.0138 -0.5499
  848MPD2     N12464   0.397   4.085  16.387  0.7920  0.3396 -0.8971
  848MPD2    H512465   0.377   4.153  16.315 -1.0399 -0.8434 -1.5256
  848MPD2    N112466   0.576   3.646  16.490 -0.5843  0.0742  0.0238
  848MPD2    H712467   0.590   3.551  16.458  0.2802  0.2267 -0.0361
  849MPD2     C12468   4.551   2.920  14.649  0.2009 -0.4128  0.2169
  849MPD2    C112469   4.630   2.881  14.539  0.5583  0.9444  0.2544
  849MPD2    C212470   0.041   2.916  14.542  0.4788  0.4544 -0.1633
  849MPD2    C312471   0.096   2.999  14.634 -0.7120  0.1035  0.1313
  849MPD2    C412472   0.011   3.052  14.733  0.2207  1.3801 -0.2969
  849MPD2    C512473   4.610   3.009  14.735 -0.0046  0.3968  0.4582
  849MPD2     H12474   0.107   2.857  14.479  1.0006 -0.1466  0.9458
  849MPD2    H112475   0.045   3.120  14.811  2.9610 -2.0668  1.5656
  849MPD2    H212476   4.447   2.893  14.655 -0.2468  0.8513 -1.9291
  849MPD2    H312477   4.544   3.041  14.815  0.7117 -1.6957  1.9143
  849MPD2     N12478   0.229   3.030  14.624  0.0066 -0.1007  0.5092
  849MPD2    H512479   0.278   2.980  14.551  0.4618  1.6054 -0.3438
  849MPD2    N112480   4.587   2.796  14.435 -0.1850  0.3876  0.4717
  849MPD2    H712481   4.662   2.780  14.369 -1.1001 -3.7174  0.3789
  850MPD2     C12482   1.974   0.461  15.007 -0.5121 -0.1133 -0.2763
  850MPD2    C112483   1.954   0.592  15.038  0.7864  0.0511 -0.2607
  850MPD2    C212484   2.045   0.685  15.005  0.6265  0.6597  0.5357
  850MPD2    C312485   2.168   0.657  14.948  0.3377 -0.6860 -0.3419
  850MPD2    C412486   2.185   0.531  14.903 -0.4369  0.1801  0.0680
  850MPD2    C512487   2.091   0.431  14.936  0.0685 -0.2489 -0.7235
  850MPD2     H12488   2.025   0.790  15.022  0.6816  0.9450 -1.1582
  850MPD2    H112489   2.280   0.499  14.862  0.8053 -0.3594  3.3905
  850MPD2    H212490   1.898   0.386  15.029 -1.0025  0.6345  0.6064
  850MPD2    H312491   2.118   0.328  14.916  2.1097  0.3282 -1.0029
  850MPD2     N12492   2.281   0.752  14.939  0.1839  0.5586 -0.0589
  850MPD2    H512493   2.369   0.711  14.912 -0.6426 -1.2897  0.0401
  850MPD2    N112494   1.835   0.614  15.114 -0.3151  0.0473 -0.1191
  850MPD2    H712495   1.770   0.536  15.107  0.1993 -0.4225  0.3763
  851MPD2     C12496   2.571   0.894  15.464  0.1784  0.7922 -0.1160
  851MPD2    C112497   2.491   0.848  15.361  0.1298  0.5546 -0.4119
  851MPD2    C212498   2.541   0.763  15.268  0.2852  0.7410 -0.6645
  851MPD2    C312499   2.668   0.709  15.284  0.3494 -0.7946  0.7815
  851MPD2    C412500   2.751   0.762  15.386  0.1405 -0.1339  0.2899
  851MPD2    C512501   2.698   0.850  15.477 -0.0064 -0.2258 -0.1651
  851MPD2     H12502   2.487   0.731  15.179 -0.0537  1.0642 -0.5733
  851MPD2    H112503   2.856   0.734  15.391  0.3370  0.8856  2.0854
  851MPD2    H212504   2.546   0.971  15.536 -0.1811  1.0221 -0.4826
  851MPD2    H312505   2.760   0.883  15.560  0.5472 -1.1478 -0.2041
  851MPD2     N12506   2.726   0.627  15.182  0.2648  0.2543 -0.2720
  851MPD2    H512507   2.660   0.607  15.108 -0.1827 -3.2266  1.0608
  851MPD2    N112508   2.355   0.884  15.365 -0.1474 -0.1643  0.2795
  851MPD2    H712509   2.327   0.970  15.411  0.2910 -0.9929  2.0662
  852MPD2     C12510   1.918   2.835  10.271 -0.0570 -0.1482 -0.2287
  852MPD2    C112511   1.911   2.810  10.406 -0.2492  0.5875  0.4078
  852MPD2    C212512   1.886   2.919  10.486  0.8599  1.3739 -0.1672
  852MPD2    C312513   1.880   3.052  10.438  0.2291  0.7838 -0.8412
  852MPD2    C412514   1.895   3.076  10.303 -0.0687 -0.3955  0.6471
  852MPD2    C512515   1.927   2.965  10.228 -0.3942 -0.1786 -0.3612
  852MPD2     H12516   1.884   2.897  10.593  1.5521 -1.0409 -0.6490
  852MPD2    H112517   1.890   3.174  10.258 -1.5499 -1.3026 -1.2033
  852MPD2    H212518   1.916   2.751  10.203  0.0402 -1.3991  1.3185
  852MPD2    H312519   1.932   2.972  10.120 -4.9327 -0.4692 -0.5742
  852MPD2     N12520   1.865   3.155  10.538  0.0800  0.1097  0.9862
  852MPD2    H512521   1.869   3.130  10.636  0.7458  1.0706  1.2116
  852MPD2    N112522   1.911   2.678  10.456 -0.7188 -0.1268 -0.2746
  852MPD2    H712523   1.902   2.677  10.557 -1.1865  0.5763 -0.3101
  853MPD2     C12524   4.075   3.206  12.545  0.5279 -0.0497 -0.1630
  853MPD2    C112525   3.936   3.202  12.511 -0.5609 -0.1605 -0.4244
  853MPD2    C212526   3.893   3.170  12.381 -0.3186 -1.2452 -0.2481
  853MPD2    C312527   3.982   3.153  12.284 -0.6819 -0.3882 -0.3425
  853MPD2    C412528   4.118   3.161  12.314  0.1057 -0.1036  0.3771
  853MPD2    C512529   4.165   3.186  12.445 -0.0340 -0.0329 -0.0862
  853MPD2     H12530   3.790   3.158  12.348 -1.0802  1.8624  0.9896
  853MPD2    H112531   4.202   3.155  12.245  1.5318 -0.0468  2.1297
  853MPD2    H212532   4.098   3.234  12.647 -1.8381 -1.4817  0.7680
  853MPD2    H312533   4.268   3.212  12.465 -0.3380 -0.1028  1.5669
  853MPD2     N12534   3.956   3.128  12.146  0.3277 -0.6996 -0.4812
  853MPD2    H512535   4.034   3.115  12.082  0.2944  0.8169 -0.8245
  853MPD2    N112536   3.841   3.218  12.618 -0.1925  0.7092  0.4305
  853MPD2    H712537   3.882   3.239  12.708 -0.6695  2.5542  0.2149
  854MPD2     C12538   1.021   3.976  12.557  0.5825 -0.2364  0.0923
  854MPD2    C112539   1.155   3.984  12.572 -0.0476  0.2658 -0.4225
  854MPD2    C212540   1.219   3.944  12.685  0.8099 -0.7453  0.0890
  854MPD2    C312541   1.143   3.893  12.786 -0.1276  0.1050  0.8353
  854MPD2    C412542   1.005   3.866  12.776  0.1240  0.3210 -0.8746
  854MPD2    C512543   0.948   3.910  12.657  1.0689  0.3468 -0.1775
  854MPD2     H12544   1.327   3.938  12.683  0.8209 -0.7417  0.6888
  854MPD2    H112545   0.953   3.814  12.856 -2.8981  0.7944 -2.5436
  854MPD2    H212546   0.973   4.021  12.470  1.4115 -0.9653 -0.7295
  854MPD2    H312547   0.842   3.893  12.643  0.9613 -0.0048  1.0226
  854MPD2     N12548   1.199   3.852  12.904  0.1359  0.4321  0.2781
  854MPD2    H512549   1.142   3.799  12.970  0.6807 -3.0715 -2.0958
  854MPD2    N112550   1.230   4.028  12.460  0.1612  0.5275 -0.0525
  854MPD2    H712551   1.185   4.044  12.371  1.3775  0.7508 -0.6345
  855MPD2     C12552   0.850   3.357  13.452  1.2166  0.0726  0.4623
  855MPD2    C112553   0.975   3.306  13.454 -0.0134  0.7177  0.5032
  855MPD2    C212554   1.082   3.381  13.403  0.2333 -0.0536  0.0686
  855MPD2    C312555   1.073   3.507  13.354  0.6004  0.4131 -0.4169
  855MPD2    C412556   0.942   3.556  13.349  0.9013 -0.7401  0.3876
  855MPD2    C512557   0.840   3.481  13.408 -0.3698  0.2120 -0.7107
  855MPD2     H12558   1.178   3.331  13.400  1.9201  3.0664  1.0065
  855MPD2    H112559   0.911   3.651  13.309  0.5823 -1.3172 -0.7228
  855MPD2    H212560   0.770   3.303  13.502  2.0322 -1.9470 -0.4357
  855MPD2    H312561   0.743   3.529  13.419 -0.8845 -0.5920 -1.8275
  855MPD2     N12562   1.172   3.581  13.292 -0.2992 -0.3025 -0.1724
  855MPD2    H512563   1.139   3.642  13.217 -0.5246 -0.6126 -0.3304
  855MPD2    N112564   1.000   3.177  13.514 -0.1674  0.5254 -0.6041
  855MPD2    H712565   1.096   3.149  13.532 -0.3145 -0.4288 -1.3140
  856MPD2     C12566   3.416   4.106  13.283  0.5244 -0.3850 -0.5217
  856MPD2    C112567   3.455   4.184  13.390  0.1483  0.0865  0.1359
  856MPD2    C212568   3.375   4.291  13.434  0.1785 -0.0096  0.5281
  856MPD2    C312569   3.271   4.336  13.356 -0.2460 -1.0213 -0.3592
  856MPD2    C412570   3.235   4.259  13.246 -0.0375  0.0513 -0.0936
  856MPD2    C512571   3.308   4.149  13.208 -0.6340  0.4212  0.4785
  856MPD2     H12572   3.408   4.342  13.523  0.7092  0.7649 -0.1126
  856MPD2    H112573   3.144   4.283  13.192  0.4685 -1.5601 -1.6622
  856MPD2    H212574   3.472   4.022  13.243  1.2539 -0.2685  0.2627
  856MPD2    H312575   3.272   4.094  13.121 -0.3748  0.8009  0.1349
  856MPD2     N12576   3.196   4.450  13.389 -0.1436 -0.4085 -0.0574
  856MPD2    H512577   3.129   4.482  13.319  0.6372  1.9267  0.2684
  856MPD2    N112578   3.572   4.155  13.465 -0.4343 -0.0604  0.1619
  856MPD2    H712579   3.602   4.229  13.528  0.9092 -0.0250 -0.5106
  857MPD2     C12580   4.626   1.451  12.726  0.0396  0.3297  0.2896
  857MPD2    C112581   0.039   1.451  12.751  0.7548 -0.4682 -0.3034
  857MPD2    C212582   0.087   1.573  12.790  0.3915  0.7717  0.0108
  857MPD2    C312583   0.009   1.685  12.798 -0.4342 -0.3014  0.2631
  857MPD2    C412584   4.605   1.677  12.763  0.1406  0.1155  0.5375
  857MPD2    C512585   4.550   1.558  12.727 -0.1397 -0.1338 -0.2564
  857MPD2     H12586   0.185   1.583  12.834  0.3332  0.5052  0.2034
  857MPD2    H112587   4.526   1.749  12.778 -2.2491 -2.3054 -0.5174
  857MPD2    H212588   4.580   1.359  12.692  1.2010  0.4630 -1.6940
  857MPD2    H312589   4.445   1.552  12.700 -0.3355  1.0983  0.2282
  857MPD2     N12590   0.068   1.806  12.857 -0.6538 -0.0545 -0.4146
  857MPD2    H512591   0.165   1.792  12.885 -0.7348  3.6545  1.7052
  857MPD2    N112592   0.115   1.334  12.730 -0.4581  0.2461 -0.2885
  857MPD2    H712593   0.067   1.245  12.720 -0.4242  0.4295 -2.0629
  858MPD2     C12594   0.496   0.664  16.592  0.4058 -0.1345 -0.4405
  858MPD2    C112595   0.592   0.731  16.515  0.8640 -0.2811  0.1774
  858MPD2    C212596   0.608   0.865  16.544 -0.3956  0.0980 -0.1722
  858MPD2    C312597   0.532   0.942  16.628  0.3217 -0.2503  0.1638
  858MPD2    C412598   0.425   0.871  16.686 -0.6910 -0.4034  1.2702
  858MPD2    C512599   0.410   0.734  16.673  0.1853  0.5968  0.4257
  858MPD2     H12600   0.685   0.912  16.483 -0.0467 -1.6374 -1.0574
  858MPD2    H112601   0.357   0.922  16.754 -0.7731  0.5977  0.4313
  858MPD2    H212602   0.469   0.559  16.587  0.5423 -0.2981  1.9750
  858MPD2    H312603   0.328   0.676  16.714 -1.6771  1.4044 -2.1470
  858MPD2     N12604   0.544   1.081  16.652  0.0427 -0.6853  0.1676
  858MPD2    H512605   0.465   1.133  16.691  0.5744  2.2302 -2.6143
  858MPD2    N112606   0.680   0.645  16.450  0.3079 -0.0315 -0.9711
  858MPD2    H712607   0.668   0.545  16.448 -1.4112  0.1644 -0.2904
  859MPD2     C12608   3.728   2.358  15.458 -0.1943  0.1450 -0.3569
  859MPD2    C112609   3.844   2.422  15.404 -0.7233 -0.4185  0.9721
  859MPD2    C212610   3.956   2.452  15.486 -0.2967 -0.2303  0.3415
  859MPD2    C312611   3.950   2.422  15.626  0.3373 -0.0485 -0.0313
  859MPD2    C412612   3.835   2.366  15.672 -0.5372  0.2402  0.3408
  859MPD2    C512613   3.730   2.330  15.595 -0.6887  0.1655  0.0581
  859MPD2     H12614   4.047   2.495  15.445 -0.7401  0.4445  0.0599
  859MPD2    H112615   3.826   2.348  15.779 -0.5354  0.9267  0.4602
  859MPD2    H212616   3.633   2.343  15.409  0.9203  0.3600 -2.5522
  859MPD2    H312617   3.646   2.304  15.659  1.3201 -1.4837  2.0083
  859MPD2     N12618   4.056   2.457  15.715  0.2036 -0.0066 -0.2264
  859MPD2    H512619   4.051   2.434  15.814  0.3614  1.3976  0.0976
  859MPD2    N112620   3.842   2.456  15.267  0.2662 -0.1296  0.4984
  859MPD2    H712621   3.752   2.467  15.222  1.0023  2.3818 -0.3773
  860MPD2     C12622   1.347   2.466  12.154  0.2883  0.7218  0.0779
  860MPD2    C112623   1.440   2.504  12.244 -0.0247 -0.3059  0.3854
  860MPD2    C212624   1.408   2.574  12.361  0.2023  0.2403  0.0192
  860MPD2    C312625   1.274   2.593  12.393  0.2789  0.5776 -0.3556
  860MPD2    C412626   1.179   2.550  12.303  0.1717  0.6572 -0.2655
  860MPD2    C512627   1.218   2.485  12.188 -0.4442 -0.2306 -0.6102
  860MPD2     H12628   1.479   2.618  12.430 -1.2278  2.9199 -0.2102
  860MPD2    H112629   1.073   2.552  12.324  0.4541 -0.2165  1.2328
  860MPD2    H212630   1.370   2.432  12.054  2.3352  0.0535  0.7808
  860MPD2    H312631   1.133   2.460  12.126 -0.9834 -2.3832  0.9763
  860MPD2     N12632   1.251   2.647  12.518  0.1063 -0.7339 -0.1665
  860MPD2    H512633   1.329   2.673  12.578 -0.3843 -0.8456  0.5216
  860MPD2    N112634   1.580   2.500  12.208 -0.2698  0.4304  0.8227
  860MPD2    H712635   1.647   2.539  12.273  0.9459  0.7059 -0.6134
  861MPD2     C12636   0.379   1.132  11.060  0.6506  0.1560  0.2903
  861MPD2    C112637   0.400   1.258  11.113  0.5294 -0.1416  0.5014
  861MPD2    C212638   0.337   1.364  11.056  0.1837 -0.4405 -0.3257
  861MPD2    C312639   0.253   1.343  10.951  0.3156 -0.8448  0.0348
  861MPD2    C412640   0.231   1.221  10.899  0.7893 -0.5090 -0.4273
  861MPD2    C512641   0.285   1.112  10.953  0.1889 -0.2272  0.4192
  861MPD2     H12642   0.359   1.462  11.097 -0.7223 -0.0003 -0.8942
  861MPD2    H112643   0.167   1.209  10.812 -0.2090  2.7606 -0.1404
  861MPD2    H212644   0.419   1.042  11.106 -1.9667 -0.3738  1.5523
  861MPD2    H312645   0.267   1.014  10.910 -0.1407 -0.0531  0.1604
  861MPD2     N12646   0.195   1.439  10.872 -0.3131 -0.1288  0.3214
  861MPD2    H512647   0.176   1.408  10.778 -1.0810  2.5761 -0.3843
  861MPD2    N112648   0.491   1.286  11.215  0.4120 -0.8363  0.7016
  861MPD2    H712649   0.516   1.383  11.228  0.8324 -1.0176  1.2164
  862MPD2     C12650   0.302   1.695  10.194  0.4167  0.1750  0.5240
  862MPD2    C112651   0.267   1.604  10.298  0.0693  0.4342 -0.0804
  862MPD2    C212652   0.263   1.480  10.255  0.2908 -0.5626  0.0473
  862MPD2    C312653   0.270   1.442  10.121 -0.1423  0.3285 -0.4395
  862MPD2    C412654   0.287   1.527  10.022  0.1720  0.1745  0.0610
  862MPD2    C512655   0.304   1.659  10.064  0.3379 -0.4664 -0.5016
  862MPD2     H12656   0.250   1.399  10.326  0.9648  1.7490  2.8020
  862MPD2    H112657   0.284   1.509   9.915  1.2265 -0.6368  0.1728
  862MPD2    H212658   0.322   1.799  10.220 -0.3377  0.2559  0.7972
  862MPD2    H312659   0.321   1.737   9.991  1.0115 -1.1999 -1.1314
  862MPD2     N12660   0.259   1.308  10.078 -0.2770 -0.0514  0.3360
  862MPD2    H512661   0.242   1.284   9.981  5.1921  0.4021 -0.7484
  862MPD2    N112662   0.253   1.631  10.438  0.0310 -0.2238  0.0963
  862MPD2    H712663   0.240   1.550  10.498 -1.1770 -0.5308 -0.5732
  863MPD2     C12664   3.810   4.428  16.400  0.1932  0.5669  0.0710
  863MPD2    C112665   3.844   4.545  16.457 -0.3940 -0.0189  0.3927
  863MPD2    C212666   3.911   4.555  16.573  0.1843 -0.2491  0.6395
  863MPD2    C312667   3.921   4.443  16.649  0.7401  0.5573 -0.3144
  863MPD2    C412668   3.890   4.322  16.596 -0.5838  0.7185  0.2987
  863MPD2    C512669   3.819   4.315  16.479 -0.0898 -0.4671  1.1331
  863MPD2     H12670   3.937   4.649  16.621 -1.4240  0.1592  0.7079
  863MPD2    H112671   3.898   4.232  16.656 -0.4608 -0.0291 -0.8517
  863MPD2    H212672   3.754   4.426  16.307 -1.5710 -1.7803  1.1667
  863MPD2    H312673   3.783   4.221  16.441 -2.1641  0.5302  0.6461
  863MPD2     N12674   3.985   4.435  16.775  0.1980 -0.8564 -0.2546
  863MPD2    H512675   3.991   4.338  16.805 -2.4267 -0.4109  1.6318
  863MPD2    N112676   3.801   4.662  16.383 -0.7361 -0.2819  0.5790
  863MPD2    H712677   3.754   4.663  16.293  2.5056 -1.2875 -1.1301
  864MPD2     C12678   4.520   1.672  17.306  0.1229  0.5202  1.0232
  864MPD2    C112679   4.555   1.553  17.247 -0.9332 -0.4732 -0.2350
  864MPD2    C212680   4.593   1.551  17.117  0.6325  0.6338  0.7582
  864MPD2    C312681   4.598   1.667  17.041 -0.1714  0.2568 -0.7183
  864MPD2    C412682   4.566   1.789  17.103 -0.0922  0.1966  0.0950
  864MPD2    C512683   4.529   1.792  17.233  0.2059 -0.0877  0.2355
  864MPD2     H12684   4.619   1.464  17.059  2.3193  1.8566 -0.3210
  864MPD2    H112685   4.552   1.876  17.041 -0.9862 -0.4278 -0.5836
  864MPD2    H212686   4.496   1.685  17.411 -2.2198  2.2677  0.2884
  864MPD2    H312687   4.509   1.891  17.271  0.1705  1.0504 -2.7704
  864MPD2     N12688   4.621   1.670  16.905 -0.3158  0.4774 -0.1251
  864MPD2    H512689   4.599   1.754  16.852  0.9259  0.1766 -1.1234
  864MPD2    N112690   4.530   1.434  17.319 -0.3701  0.1024  0.0038
  864MPD2    H712691   4.472   1.444  17.402  0.4305  2.0908  0.3439
  865MPD2     C12692   4.430   1.235  16.032  0.1148  0.4140 -0.1253
  865MPD2    C112693   4.467   1.203  16.172  0.5026  0.2623  0.6241
  865MPD2    C212694   4.470   1.319  16.259  0.3298  0.0993 -0.4924
  865MPD2    C312695   4.456   1.449  16.214 -0.4766  0.3180 -0.8504
  865MPD2    C412696   4.432   1.470  16.076 -0.1340  0.3782  0.3716
  865MPD2    C512697   4.413   1.367  15.990 -0.9018 -0.3739  0.2522
  865MPD2     H12698   4.503   1.302  16.361  2.9594 -1.4964 -1.6236
  865MPD2    H112699   4.422   1.571  16.040 -0.2692  0.7188  1.3528
  865MPD2    H212700   4.423   1.155  15.959 -0.6117 -0.1883  0.5986
  865MPD2    H312701   4.410   1.390  15.884 -2.0657 -1.7710 -0.0168
  865MPD2     N12702   4.483   1.559  16.294 -0.2204  0.3011 -0.1156
  865MPD2    H512703   4.504   1.649  16.252  0.0993 -0.7392 -2.1541
  865MPD2    N112704   4.499   1.066  16.211 -0.8105  0.8848  0.3433
  865MPD2    H712705   4.495   0.997  16.136 -0.4426  0.0160  1.1294
  866MPD2     C12706   1.156   1.904  11.574  0.5378  0.2693  0.0720
  866MPD2    C112707   1.168   1.922  11.436 -0.1830  0.1557  0.1881
  866MPD2    C212708   1.052   1.943  11.355  1.3275 -0.7025 -0.2745
  866MPD2    C312709   0.933   1.971  11.421 -0.9525 -0.2272  0.6221
  866MPD2    C412710   0.931   1.953  11.556 -0.4283  0.4527 -0.2113
  866MPD2    C512711   1.039   1.923  11.631 -0.5441  0.1736 -0.4415
  866MPD2     H12712   1.050   1.952  11.247  0.1921  1.3099 -0.0801
  866MPD2    H112713   0.834   1.964  11.603 -0.1143 -0.3134  0.6213
  866MPD2    H212714   1.245   1.898  11.637 -0.2637 -0.6938  1.1025
  866MPD2    H312715   1.035   1.906  11.738 -1.4540 -0.2007 -0.5412
  866MPD2     N12716   0.813   1.984  11.349  0.6739  0.0365  0.1996
  866MPD2    H512717   0.729   2.000  11.404  1.5116  0.3039  1.3864
  866MPD2    N112718   1.288   1.874  11.379  0.0230 -0.4224  0.1285
  866MPD2    H712719   1.355   1.832  11.443 -0.1489  2.1441  2.0220
  867MPD2     C12720   3.076   1.109  16.055 -0.7323  0.6185 -0.2225
  867MPD2    C112721   3.211   1.101  16.089  0.3567 -0.0666 -0.2487
  867MPD2    C212722   3.272   1.208  16.143  0.3025  0.1553  0.2160
  867MPD2    C312723   3.205   1.325  16.173 -0.7870  0.7126  0.2748
  867MPD2    C412724   3.068   1.333  16.145  0.2375 -0.0640  0.6796
  867MPD2    C512725   3.007   1.223  16.089  0.2892  0.0708 -0.0544
  867MPD2     H12726   3.374   1.198  16.177  1.1094 -1.6318 -2.6963
  867MPD2    H112727   3.011   1.424  16.160 -1.6159 -1.4172  1.8489
  867MPD2    H212728   3.023   1.025  16.012 -1.6218 -0.2345  2.5451
  867MPD2    H312729   2.902   1.220  16.063  0.3327  0.8672 -0.3496
  867MPD2     N12730   3.257   1.434  16.244  0.1550 -0.1136 -0.3971
  867MPD2    H512731   3.192   1.495  16.292 -0.4065 -1.3589  0.4078
  867MPD2    N112732   3.270   0.976  16.086  0.1190 -0.2468 -0.2358
  867MPD2    H712733   3.217   0.902  16.040  1.6997  0.0215 -2.4829
  868MPD2     C12734   0.497   0.020  12.811 -0.5167 -0.0718 -0.5771
  868MPD2    C112735   0.539   0.023  12.943 -0.8282 -0.0261  0.0418
  868MPD2    C212736   0.459   0.071  13.038 -0.0010 -0.2071 -0.5870
  868MPD2    C312737   0.326   0.097  13.018  0.0539 -0.0032 -0.1036
  868MPD2    C412738   0.280   0.099  12.890 -1.2351 -0.0656  0.0917
  868MPD2    C512739   0.370   0.068  12.791 -0.0882  0.0995  0.0718
  868MPD2     H12740   0.496   0.077  13.140  0.9674  0.5998 -0.9863
  868MPD2    H112741   0.179   0.123  12.858 -1.4517  0.7951  1.3814
  868MPD2    H212742   0.569   4.718  12.735  1.9715 -1.8603  2.4583
  868MPD2    H312743   0.337   0.066  12.688  1.5691  1.6243 -0.4813
  868MPD2     N12744   0.245   0.122  13.131  0.2895 -0.4406  0.5347
  868MPD2    H512745   0.302   0.139  13.212 -0.4599 -0.5052  1.0732
  868MPD2    N112746   0.668   4.691  12.971 -0.0787 -0.6816 -0.4750
  868MPD2    H712747   0.717   4.676  12.883  0.6717  2.1364 -0.5455
  869MPD2     C12748   0.419   2.732   1.447  0.0258 -0.0591 -0.3051
  869MPD2    C112749   0.538   2.794   1.476  0.3217 -0.5380  0.5546
  869MPD2    C212750   0.592   2.882   1.391  0.4368  0.4475  0.6999
  869MPD2    C312751   0.515   2.926   1.280  0.2478  0.8147  0.3685
  869MPD2    C412752   0.393   2.866   1.256  0.2759 -0.1676  0.5373
  869MPD2    C512753   0.350   2.770   1.340  0.1799  0.0002  0.7938
  869MPD2     H12754   0.683   2.935   1.416  0.1893  0.0007  2.5332
  869MPD2    H112755   0.337   2.874   1.164 -0.4351  0.8939  1.0677
  869MPD2    H212756   0.378   2.658   1.514  0.8129 -1.7374 -1.7008
  869MPD2    H312757   0.269   2.707   1.304 -1.2989  1.9192  0.7677
  869MPD2     N12758   0.565   3.024   1.185  0.0956  0.1296  0.6892
  869MPD2    H512759   0.495   3.036   1.113  0.6935  0.1024  0.1083
  869MPD2    N112760   0.601   2.752   1.595  0.3544 -0.0963 -0.0498
  869MPD2    H712761   0.543   2.684   1.643 -0.3375  0.3906 -0.1867
  870MPD2     C12762   1.501   1.899   1.763 -0.4163 -0.0874  0.8791
  870MPD2    C112763   1.634   1.892   1.722 -0.2136  0.6970 -0.2294
  870MPD2    C212764   1.692   2.007   1.664  0.5334  0.2421  0.0020
  870MPD2    C312765   1.620   2.127   1.646 -0.5038 -0.2871 -0.2693
  870MPD2    C412766   1.488   2.129   1.692  0.0711 -0.8162  0.0877
  870MPD2    C512767   1.431   2.015   1.748  0.1397 -0.3726 -0.5943
  870MPD2     H12768   1.791   2.001   1.620  0.6798  1.4084  0.1630
  870MPD2    H112769   1.438   2.225   1.680  0.5855 -0.3629  1.4868
  870MPD2    H212770   1.457   1.810   1.806  1.8613 -0.8735  1.6215
  870MPD2    H312771   1.330   2.022   1.787  0.3320 -2.8401  0.3612
  870MPD2     N12772   1.689   2.227   1.578  0.7393 -0.4084 -0.1041
  870MPD2    H512773   1.782   2.209   1.542  0.7625  0.8871 -0.7046
  870MPD2    N112774   1.705   1.777   1.744 -0.3140  0.4649  0.5103
  870MPD2    H712775   1.651   1.698   1.779 -2.1377  1.1469 -0.7863
  871MPD2     C12776   2.001   0.758  16.606 -0.5214  0.3894  1.7327
  871MPD2    C112777   2.111   0.830  16.571  0.5316 -0.5667 -0.2460
  871MPD2    C212778   2.184   0.802  16.457 -0.1851 -0.1406 -0.2039
  871MPD2    C312779   2.145   0.690  16.384 -0.5860  0.2864 -0.0222
  871MPD2    C412780   2.030   0.627  16.416  0.1208 -0.1037  0.0873
  871MPD2    C512781   1.954   0.661  16.526  0.1142  0.2683 -0.3701
  871MPD2     H12782   2.276   0.854  16.434 -0.0605  0.5247  1.7857
  871MPD2    H112783   2.010   0.547  16.346 -2.2368  0.5062  0.0524
  871MPD2    H212784   1.939   0.784  16.691 -0.9990 -0.5814  1.6871
  871MPD2    H312785   1.868   0.602  16.556 -0.6206  1.3846 -0.2740
  871MPD2     N12786   2.218   0.629  16.284 -0.3892 -0.0556 -0.0334
  871MPD2    H512787   2.176   0.541  16.255  1.5438 -1.1723  0.4759
  871MPD2    N112788   2.144   0.935  16.658  0.5150  0.3498  0.4064
  871MPD2    H712789   2.098   0.937  16.749 -1.4764  0.0640 -0.5944
  872MPD2     C12790   3.140   3.793  13.676  0.5793 -0.0839  0.5227
  872MPD2    C112791   3.196   3.679  13.723  0.4098 -0.3663  0.4272
  872MPD2    C212792   3.136   3.614  13.833 -0.7341 -0.2805  0.3889
  872MPD2    C312793   3.033   3.676  13.903  0.6643 -0.1538  0.4635
  872MPD2    C412794   2.981   3.787  13.853 -0.0209  0.7930  0.4031
  872MPD2    C512795   3.030   3.845  13.739  0.0123  0.2118  0.2911
  872MPD2     H12796   3.183   3.528  13.879 -0.8074 -0.7299 -0.3988
  872MPD2    H112797   2.892   3.834  13.895 -1.0124 -0.4967 -0.2405
  872MPD2    H212798   3.185   3.844  13.592 -1.3758  0.5607 -0.1363
  872MPD2    H312799   2.976   3.934  13.708  0.3429  0.9188  1.7064
  872MPD2     N12800   2.970   3.615  14.019 -0.1048  0.0183  0.0450
  872MPD2    H512801   2.887   3.659  14.057 -0.8090  1.0667 -2.7255
  872MPD2    N112802   3.301   3.614  13.649 -1.0500 -0.3202 -1.4966
  872MPD2    H712803   3.341   3.658  13.567  2.6208 -0.6218  0.1579
  873MPD2     C12804   0.504   3.586   0.944 -0.4755 -0.2278  0.2045
  873MPD2    C112805   0.378   3.541   0.939 -0.2415  0.4978 -0.5283
  873MPD2    C212806   0.352   3.439   0.845  0.1705 -0.1746  0.0585
  873MPD2    C312807   0.448   3.387   0.765  0.0670 -0.0242 -0.0118
  873MPD2    C412808   0.569   3.443   0.772 -0.3063  0.5020  0.3757
  873MPD2    C512809   0.598   3.529   0.869 -0.0078  0.1363 -0.1809
  873MPD2     H12810   0.253   3.396   0.840 -0.6279  1.7704 -0.6347
  873MPD2    H112811   0.654   3.407   0.715 -2.1070 -1.4683 -1.0445
  873MPD2    H212812   0.540   3.665   1.010 -0.0722 -1.5324  1.5508
  873MPD2    H312813   0.700   3.561   0.883 -0.5183  1.1264  1.2180
  873MPD2     N12814   0.427   3.298   0.662 -0.1950 -0.2932 -0.3562
  873MPD2    H512815   0.500   3.299   0.591  0.7118 -1.8829  0.5562
  873MPD2    N112816   0.285   3.603   1.024 -0.0530 -0.9237 -0.0129
  873MPD2    H712817   0.321   3.674   1.088  0.1414 -1.2192  0.2073
  874MPD2     C12818   4.381   4.210  16.099  0.0738  0.1697  0.8090
  874MPD2    C112819   4.422   4.100  16.179 -0.1178 -0.6051  0.1515
  874MPD2    C212820   4.522   4.119  16.272 -0.1176  0.0484 -0.2982
  874MPD2    C312821   4.563   4.251  16.299  0.1087 -0.1892  0.8019
  874MPD2    C412822   4.527   4.354  16.215  0.0009 -0.3590  0.5059
  874MPD2    C512823   4.429   4.335  16.118  0.4412 -0.6315 -0.0143
  874MPD2     H12824   4.566   4.041  16.333 -0.8917 -0.7588 -0.7712
  874MPD2    H112825   4.571   4.452  16.230 -0.8322 -0.1544  1.6415
  874MPD2    H212826   4.308   4.189  16.022  0.0489 -0.4254  0.9890
  874MPD2    H312827   4.384   4.408  16.053 -2.6538 -1.9914  0.5560
  874MPD2     N12828   4.655   4.267  16.399 -0.1856 -0.2697  0.3339
  874MPD2    H512829   4.696   4.188  16.449 -1.7514 -2.9259 -2.5502
  874MPD2    N112830   4.358   3.978  16.157  0.5139 -0.8236  0.2029
  874MPD2    H712831   4.269   3.981  16.108 -0.6783  2.3310  2.5939
  875MPD2     C12832   0.934   1.909  14.444 -0.3480 -1.1381  0.0209
  875MPD2    C112833   0.806   1.899  14.491 -0.3185 -0.0086  0.7440
  875MPD2    C212834   0.775   1.954  14.612  0.4560  0.4857  0.0389
  875MPD2    C312835   0.870   2.034  14.675 -0.9888 -0.5239  0.3230
  875MPD2    C412836   0.996   2.051  14.621 -0.0453 -0.1041 -0.3526
  875MPD2    C512837   1.024   1.995  14.500 -0.2426  0.1352 -0.9139
  875MPD2     H12838   0.680   1.940  14.663  1.5926 -1.5953  1.5898
  875MPD2    H112839   1.070   2.119  14.663  0.2260 -1.0881  0.7602
  875MPD2    H212840   0.965   1.851  14.358 -1.8332 -1.1911 -0.4897
  875MPD2    H312841   1.122   1.994  14.453  0.7735 -0.1148  1.2210
  875MPD2     N12842   0.851   2.085  14.806  0.4131  0.6206  0.2379
  875MPD2    H512843   0.926   2.143  14.842  0.2333  1.0396 -0.0555
  875MPD2    N112844   0.706   1.826  14.424 -0.3503  0.0118  0.4292
  875MPD2    H712845   0.613   1.820  14.465 -1.3494 -1.0857 -1.9181
  876MPD2     C12846   0.057   3.622  15.894 -0.1031 -0.1348 -0.3858
  876MPD2    C112847   4.722   3.509  15.842  0.4350  0.2568  0.8855
  876MPD2    C212848   4.721   3.394  15.918 -0.2642 -0.0855 -0.0269
  876MPD2    C312849   0.065   3.386  16.035  0.0323 -0.3842  0.0556
  876MPD2    C412850   0.130   3.500  16.086  0.5414 -0.6092  0.7102
  876MPD2    C512851   0.114   3.621  16.018 -0.5528  0.0795 -0.1119
  876MPD2     H12852   4.673   3.299  15.895 -1.3335  0.0214  1.7787
  876MPD2    H112853   0.186   3.488  16.177  1.2196  0.8167  0.4930
  876MPD2    H212854   0.041   3.714  15.839  2.1323  0.7183  0.4068
  876MPD2    H312855   0.164   3.710  16.055 -0.5489 -0.0569  0.2099
  876MPD2     N12856   0.078   3.266  16.110  0.5687 -0.6804 -0.2243
  876MPD2    H512857   0.011   3.195  16.084 -0.2803 -0.2968  0.9244
  876MPD2    N112858   4.642   3.526  15.724 -0.6801  0.0723  0.5414
  876MPD2    H712859   4.657   3.608  15.666 -2.3704  0.4121  0.5735
  877MPD2     C12860   4.261   4.013  15.251  0.3315 -0.1316 -0.4668
  877MPD2    C112861   4.350   3.924  15.201  0.0414 -0.3267  0.4147
  877MPD2    C212862   4.397   3.939  15.075 -0.2599  0.4196 -0.4920
  877MPD2    C312863   4.363   4.044  14.989 -0.3943 -0.1229  0.0482
  877MPD2    C412864   4.267   4.127  15.037  0.4125  0.2660 -0.2863
  877MPD2    C512865   4.214   4.111  15.161 -0.2813  0.3578  0.0756
  877MPD2     H12866   4.466   3.862  15.043  0.3434  1.4015 -1.5697
  877MPD2    H112867   4.232   4.214  14.983  0.0911  1.0640  1.2181
  877MPD2    H212868   4.216   4.002  15.349  0.7882 -0.1858 -0.2596
  877MPD2    H312869   4.141   4.181  15.198 -0.6438 -0.0364  0.0979
  877MPD2     N12870   4.416   4.058  14.860  0.4901 -0.4223  0.5385
  877MPD2    H512871   4.371   4.118  14.791 -1.0665 -0.1512  1.7882
  877MPD2    N112872   4.393   3.810  15.271 -0.0102 -0.3111  0.0095
  877MPD2    H712873   4.448   3.738  15.225  3.0834  1.9961  0.0731
  878MPD2     C12874   4.133   2.769  13.505  0.0066  0.1889 -0.3095
  878MPD2    C112875   4.245   2.851  13.512 -0.4831 -0.2381 -0.1185
  878MPD2    C212876   4.307   2.859  13.638  0.1120  0.1786  0.1355
  878MPD2    C312877   4.254   2.807  13.749  0.6963 -0.5488 -0.4760
  878MPD2    C412878   4.134   2.746  13.739 -0.6470  0.4710 -0.5375
  878MPD2    C512879   4.084   2.712  13.621  0.4059 -0.0350  0.0047
  878MPD2     H12880   4.400   2.914  13.650  0.4885 -0.3842 -0.2084
  878MPD2    H112881   4.091   2.689  13.821  0.4888 -0.2566 -0.4511
  878MPD2    H212882   4.083   2.752  13.410  0.0825 -1.3505 -0.0783
  878MPD2    H312883   3.992   2.655  13.615 -0.1574  0.8344  0.2506
  878MPD2     N12884   4.324   2.818  13.869  0.4768 -0.9197 -0.4164
  878MPD2    H512885   4.418   2.855  13.861 -0.4777  1.3103 -1.1820
  878MPD2    N112886   4.287   2.899  13.384 -0.4264 -0.2927 -0.9074
  878MPD2    H712887   4.230   2.862  13.309 -0.8144  0.2556 -0.8816
  879MPD2     C12888   4.609   0.064  16.858  0.5264 -0.5957  0.1170
  879MPD2    C112889   4.686   4.671  16.892 -0.4177 -0.0407 -0.5975
  879MPD2    C212890   4.650   4.551  16.829  0.1044  0.4995  0.0644
  879MPD2    C312891   4.539   4.541  16.752 -0.5002 -0.1401 -0.4458
  879MPD2    C412892   4.466   4.659  16.733 -0.3718 -0.2094  0.0487
  879MPD2    C512893   4.492   0.059  16.785  0.5039 -0.0773 -0.1678
  879MPD2     H12894   4.696   4.459  16.865 -1.5622  0.0855  1.1443
  879MPD2    H112895   4.374   4.654  16.675  0.3374  1.4647 -1.2297
  879MPD2    H212896   4.647   0.158  16.896 -0.8762 -0.4842  1.2427
  879MPD2    H312897   4.427   0.141  16.758 -0.8839 -1.8041 -2.1012
  879MPD2     N12898   4.478   4.424  16.698  0.5253 -0.2258  0.3207
  879MPD2    H512899   4.401   4.439  16.633  0.8612 -3.0570 -0.7191
  879MPD2    N112900   0.066   4.690  16.990  0.7781  0.1523  0.1911
  879MPD2    H712901   0.061   0.052  17.042  1.1742  0.7158 -0.7068
  880MPD2     C12902   1.482   1.488   0.435 -0.0829  0.2015  1.0250
  880MPD2    C112903   1.609   1.466   0.488 -0.5341 -0.5444  0.6450
  880MPD2    C212904   1.644   1.339   0.520  0.7919 -0.0372  0.2103
  880MPD2    C312905   1.544   1.238   0.529 -0.1932  0.2629  1.1481
  880MPD2    C412906   1.415   1.261   0.481  0.1554  0.5434  0.0257
  880MPD2    C512907   1.390   1.388   0.432  0.3142 -0.9013  0.0663
  880MPD2     H12908   1.733   1.315   0.577 -0.0471  1.6393  2.2249
  880MPD2    H112909   1.337   1.186   0.473  0.2233  0.3120  1.4880
  880MPD2    H212910   1.443   1.586   0.409  1.1858 -0.3082 -2.7671
  880MPD2    H312911   1.292   1.407   0.390  1.1778  0.6490 -1.2781
  880MPD2     N12912   1.589   1.123   0.590  0.0758 -0.1526 -0.2459
  880MPD2    H512913   1.684   1.114   0.626  0.7774 -1.3009 -2.4415
  880MPD2    N112914   1.697   1.571   0.516  0.4399 -0.5779  0.3627
  880MPD2    H712915   1.667   1.658   0.474  0.3772 -0.4703  0.6284
  881MPD2     C12916   2.127   2.195  17.598 -0.5258  0.2589  0.3946
  881MPD2    C112917   2.080   2.062  17.600  0.0267 -0.0831 -0.3304
  881MPD2    C212918   2.032   2.014   0.025 -0.7253  0.3890  0.1437
  881MPD2    C312919   2.051   2.083   0.141  0.4114  0.6211  0.0205
  881MPD2    C412920   2.102   2.212   0.133 -0.3085 -0.7337 -0.2860
  881MPD2    C512921   2.140   2.263   0.013  0.1622 -0.7352 -0.6167
  881MPD2     H12922   1.984   1.917   0.020  0.2993 -0.1958  2.1927
  881MPD2    H112923   2.121   2.277   0.218  0.5821 -1.8373  0.3546
  881MPD2    H212924   2.166   2.231  17.504  1.4816 -1.1248  0.7090
  881MPD2    H312925   2.169   2.367   0.007 -1.0685 -0.4138 -0.9908
  881MPD2     N12926   2.001   2.027   0.269  1.0605  0.4101 -0.0525
  881MPD2    H512927   2.007   2.084   0.353  0.4261  0.0249  0.2553
  881MPD2    N112928   2.056   1.999  17.480  0.1419  0.5035  0.3583
  881MPD2    H712929   2.069   2.050  17.393  1.1791 -2.5289 -1.2909
  882MPD2     C12930   4.597   3.627  14.240  0.4411  0.7644  0.0612
  882MPD2    C112931   4.491   3.718  14.256 -0.9889 -0.4686  1.2957
  882MPD2    C212932   4.366   3.689  14.215 -0.3067 -0.0612  0.5160
  882MPD2    C312933   4.333   3.566  14.155 -0.6124 -0.3849  0.0609
  882MPD2    C412934   4.433   3.468  14.156  0.6970  0.0058 -0.1586
  882MPD2    C512935   4.562   3.500  14.198  0.6902  0.1525 -0.3550
  882MPD2     H12936   4.288   3.763  14.228  0.7256  1.1092  0.0392
  882MPD2    H112937   4.422   3.362  14.135 -3.0268  0.0989  1.3169
  882MPD2    H212938   4.702   3.646  14.255  0.4297  1.6218 -1.0505
  882MPD2    H312939   4.635   3.420  14.198  3.2765  2.5201 -2.6726
  882MPD2     N12940   4.197   3.522  14.133 -0.1108 -0.4634  0.1496
  882MPD2    H512941   4.187   3.421  14.127 -0.6684 -0.2816 -2.2544
  882MPD2    N112942   4.519   3.839  14.311  0.0332 -0.5170  0.0600
  882MPD2    H712943   4.619   3.845  14.325 -0.1439  1.2799  0.6966
  883MPD2     C12944   2.067   3.508  16.245  0.3870  0.0688  0.4710
  883MPD2    C112945   2.120   3.632  16.212  0.2943  0.6690  0.5007
  883MPD2    C212946   2.207   3.696  16.297  0.7656 -0.0977  0.0164
  883MPD2    C312947   2.245   3.640  16.418  1.1463  0.3255  0.5288
  883MPD2    C412948   2.191   3.515  16.451  0.7264  0.5665 -0.3798
  883MPD2    C512949   2.103   3.452  16.367  0.0255  0.0999 -0.2201
  883MPD2     H12950   2.245   3.786  16.251 -0.5448  1.4926  2.0860
  883MPD2    H112951   2.225   3.461  16.539 -1.4125 -2.6903 -1.5359
  883MPD2    H212952   1.992   3.447  16.196  2.2740 -0.1228 -2.1586
  883MPD2    H312953   2.055   3.362  16.402 -0.6024  0.7889  0.6633
  883MPD2     N12954   2.337   3.709  16.498 -0.0715 -0.1195 -0.2841
  883MPD2    H512955   2.377   3.791  16.454  0.0985  0.5234  1.0896
  883MPD2    N112956   2.076   3.701  16.093 -0.6643  0.2005  0.4647
  883MPD2    H712957   2.127   3.782  16.059 -0.4607 -0.6515 -1.2783
  884MPD2     C12958   3.422   3.873  15.179 -0.1341  0.3110  0.7896
  884MPD2    C112959   3.402   3.946  15.061  0.6460 -0.4959  0.3323
  884MPD2    C212960   3.300   4.040  15.057  0.2020  0.6127  0.4158
  884MPD2    C312961   3.223   4.070  15.165 -0.0211 -0.2284 -0.6103
  884MPD2    C412962   3.247   4.001  15.278 -0.2752 -0.1564 -0.1822
  884MPD2    C512963   3.338   3.902  15.282 -0.1702  0.2900 -0.1349
  884MPD2     H12964   3.263   4.095  14.971 -2.8119 -1.0496  0.6348
  884MPD2    H112965   3.196   4.024  15.371 -0.5605 -2.4222  0.2184
  884MPD2    H212966   3.495   3.794  15.190 -0.2488  0.0003 -0.6246
  884MPD2    H312967   3.354   3.847  15.374 -1.5943 -0.4670 -0.3412
  884MPD2     N12968   3.127   4.175  15.156 -0.6451 -0.1152  0.1936
  884MPD2    H512969   3.126   4.226  15.068 -1.2123 -2.2017 -1.0130
  884MPD2    N112970   3.498   3.942  14.951  0.8307  0.0187 -0.2874
  884MPD2    H712971   3.492   4.022  14.889  0.1712 -0.3600 -0.7207
  885MPD2     C12972   2.431   0.173   0.262  0.6358 -0.1144 -0.1240
  885MPD2    C112973   2.340   0.076   0.247  0.4703  0.5231 -0.1411
  885MPD2    C212974   2.262   0.073   0.130  0.9895  0.0025  0.1305
  885MPD2    C312975   2.275   0.170   0.030  0.1643 -0.1637  0.1096
  885MPD2    C412976   2.375   0.265   0.051  0.1054  0.5354 -0.0839
  885MPD2    C512977   2.440   0.276   0.169  0.4894  0.3454  0.0734
  885MPD2     H12978   2.193   4.716   0.113 -0.4486  0.9835  1.3102
  885MPD2    H112979   2.398   0.331  17.668  1.1498  2.2678  1.5813
  885MPD2    H212980   2.476   0.188   0.360  1.1337  0.8706 -0.5121
  885MPD2    H312981   2.515   0.352   0.187  1.1993 -0.3364 -0.0033
  885MPD2     N12982   2.197   0.155  17.609 -0.9265 -0.1635  0.0374
  885MPD2    H512983   2.130   0.078  17.601 -2.0925  0.7594  0.8735
  885MPD2    N112984   2.331   4.713   0.360 -0.3497 -0.4821 -0.4125
  885MPD2    H712985   2.387   0.007   0.443  1.8474 -1.1708 -1.7440
  886MPD2     C12986   3.016   3.026  15.384  0.3184 -0.0840 -0.4786
  886MPD2    C112987   3.138   3.040  15.322  0.0364  0.2430 -0.2448
  886MPD2    C212988   3.158   3.146  15.233 -0.4429 -0.1764  0.1313
  886MPD2    C312989   3.049   3.230  15.203  0.0202  0.3226 -0.0564
  886MPD2    C412990   2.930   3.220  15.271  1.0576  0.9745  0.5958
  886MPD2    C512991   2.909   3.107  15.346 -0.2182  0.2717  0.5437
  886MPD2     H12992   3.248   3.158  15.174 -0.0819  0.1870  0.7676
  886MPD2    H112993   2.841   3.279  15.254  0.7254 -0.4706 -2.6656
  886MPD2    H212994   3.000   2.942  15.450  2.4596 -0.8295 -0.9286
  886MPD2    H312995   2.811   3.084  15.385  0.7871 -3.9021  0.5277
  886MPD2     N12996   3.075   3.332  15.113 -0.1213  0.1808  0.0921
  886MPD2    H512997   3.164   3.317  15.068 -0.3724 -0.3599 -0.2314
  886MPD2    N112998   3.242   2.949  15.350  0.1642 -0.7681 -0.2726
  886MPD2    H712999   3.329   2.967  15.302 -0.5980  0.8355 -1.0456
  887MPD2     C13000   3.911   3.035  15.379  0.4471 -0.5483  0.1258
  887MPD2    C113001   3.816   3.065  15.477 -0.3749 -0.0974  0.7926
  887MPD2    C213002   3.843   3.173  15.557  0.1371  0.1370 -0.5559
  887MPD2    C313003   3.947   3.259  15.538  0.2742  0.3491  0.0507
  887MPD2    C413004   4.035   3.226  15.433 -0.4651 -0.0717 -0.7065
  887MPD2    C513005   4.017   3.114  15.352  0.1032  0.0230 -0.4394
  887MPD2     H13006   3.774   3.199  15.637  2.5751  0.8638  1.3247
  887MPD2    H113007   4.115   3.295  15.408 -1.8269  0.8718 -2.4765
  887MPD2    H213008   3.902   2.946  15.318  1.3629  1.6491 -3.2571
  887MPD2    H313009   4.089   3.096  15.274  0.9687  1.3144  0.0557
  887MPD2     N13010   3.972   3.362  15.632  0.6641  0.1315  0.7463
  887MPD2    H513011   3.902   3.379  15.703  1.2204  1.5009  0.9706
  887MPD2    N113012   3.711   2.979  15.512  0.8943 -0.0212  0.1565
  887MPD2    H713013   3.635   3.008  15.573 -1.2341 -1.1129 -1.9393
  888MPD2     C13014   1.517   3.089  15.388 -0.1832 -0.6262  0.3612
  888MPD2    C113015   1.392   3.097  15.326  0.4505 -1.1582  0.0909
  888MPD2    C213016   1.371   3.198  15.241 -0.0584  0.2694  0.1585
  888MPD2    C313017   1.467   3.293  15.208 -0.1801  0.3581 -0.4841
  888MPD2    C413018   1.592   3.281  15.269 -0.1444  1.3002  0.1706
  888MPD2    C513019   1.609   3.186  15.363  0.1639 -0.0599 -0.0068
  888MPD2     H13020   1.268   3.216  15.213 -0.8246 -2.3388  1.2666
  888MPD2    H113021   1.672   3.354  15.268 -1.7623  3.0526 -1.5475
  888MPD2    H213022   1.548   3.009  15.454  0.6950 -0.4422  0.1662
  888MPD2    H313023   1.702   3.174  15.417  0.1318  1.2260  0.3268
  888MPD2     N13024   1.438   3.391  15.119  0.5046 -0.5958 -0.2075
  888MPD2    H513025   1.340   3.403  15.095  0.3288 -0.1699  0.7186
  888MPD2    N113026   1.291   2.997  15.351 -0.0450 -0.5231  0.2411
  888MPD2    H713027   1.204   3.007  15.300  0.6729  3.3383 -0.2399
  889MPD2     C13028   4.679   2.663  12.958 -0.0145 -0.4743  1.0587
  889MPD2    C113029   0.004   2.618  13.075 -1.4185 -0.3390  0.1664
  889MPD2    C213030   0.044   2.715  13.175  0.7039 -0.2877  1.2308
  889MPD2    C313031   0.017   2.854  13.156 -0.3445 -0.4620  0.8715
  889MPD2    C413032   4.665   2.888  13.043  0.1150 -0.1703  0.3169
  889MPD2    C513033   4.645   2.799  12.944  0.1500  0.2543 -0.3127
  889MPD2     H13034   0.089   2.679  13.266  1.5023 -1.9746  0.1733
  889MPD2    H113035   4.631   2.990  13.024 -0.6737 -0.2057  1.5190
  889MPD2    H213036   4.635   2.602  12.880 -2.2735  1.6577  0.6354
  889MPD2    H313037   4.588   2.830  12.857  0.3023 -0.0798 -0.5330
  889MPD2     N13038   0.055   2.947  13.261  0.4143  0.3999 -0.2311
  889MPD2    H513039   0.108   2.909  13.338 -0.8759 -0.3179  0.2973
  889MPD2    N113040   0.049   2.483  13.086 -0.5854 -0.8987 -0.0068
  889MPD2    H713041   0.081   2.447  13.176  2.1673 -1.8771 -1.3627
  890MPD2     C13042   4.296   4.663  14.416 -0.4570  0.7864  0.2491
  890MPD2    C113043   4.430   4.652  14.449  0.1097 -0.2467  0.7320
  890MPD2    C213044   4.463   4.616  14.581  0.2616  0.0747 -0.4632
  890MPD2    C313045   4.368   4.587  14.677  0.0881 -0.2983 -0.2903
  890MPD2    C413046   4.234   4.594  14.640 -0.3884 -0.1331 -0.2682
  890MPD2    C513047   4.203   4.621  14.505 -0.3255 -0.1570  0.5355
  890MPD2     H13048   4.561   4.614  14.626  0.0109  1.3627  0.1271
  890MPD2    H113049   4.160   4.578  14.718 -1.8795 -0.5428 -1.7443
  890MPD2    H213050   4.259   4.703  14.322 -1.5162  3.0149  1.6091
  890MPD2    H313051   4.101   4.626  14.468 -0.6994 -0.5300  1.5273
  890MPD2     N13052   4.409   4.549  14.808 -0.6256 -0.7394 -0.0960
  890MPD2    H513053   4.507   4.532  14.828 -0.9162  1.1041  2.9430
  890MPD2    N113054   4.521   4.689  14.350  0.6168  0.2801 -0.4826
  890MPD2    H713055   4.491   4.724  14.259 -1.7515  2.1249  1.0141
  891MPD2     C13056   2.588   3.667  16.127  0.1851 -0.3024  0.8862
  891MPD2    C113057   2.538   3.557  16.194  0.1671  0.3342  0.5685
  891MPD2    C213058   2.597   3.506  16.313 -0.3000 -0.3210  0.1303
  891MPD2    C313059   2.699   3.578  16.370  0.2433 -0.2006  0.4780
  891MPD2    C413060   2.735   3.700  16.318 -0.7558 -0.8175  0.1074
  891MPD2    C513061   2.685   3.738  16.191 -0.3844 -0.5564  0.3711
  891MPD2     H13062   2.562   3.411  16.352 -1.2148 -0.1033 -0.1728
  891MPD2    H113063   2.806   3.760  16.373  0.1098  1.1880 -3.2364
  891MPD2    H213064   2.546   3.697  16.031 -0.4773 -1.5111  0.7984
  891MPD2    H313065   2.714   3.834  16.149 -2.8758  0.1389  0.2698
  891MPD2     N13066   2.759   3.524  16.487  0.5127 -0.0189 -0.6100
  891MPD2    H513067   2.715   3.442  16.529  0.6250 -0.0073 -0.4687
  891MPD2    N113068   2.431   3.491  16.125 -0.0777  0.0196 -0.2908
  891MPD2    H713069   2.396   3.543  16.045  0.8049 -1.9628 -1.9543
  892MPD2     C13070   3.576   4.137  14.581 -0.3063  0.1847 -0.2567
  892MPD2    C113071   3.503   4.023  14.581  0.5419 -0.5497 -0.5141
  892MPD2    C213072   3.550   3.916  14.510 -0.1331 -0.0189  0.2657
  892MPD2    C313073   3.679   3.917  14.456 -0.0718  0.0846 -0.1167
  892MPD2    C413074   3.752   4.032  14.462 -0.2958  0.5558  0.8388
  892MPD2    C513075   3.702   4.143  14.532 -0.0907  0.3055  0.0431
  892MPD2     H13076   3.488   3.828  14.499  1.5241 -1.0906 -0.4007
  892MPD2    H113077   3.851   4.034  14.416 -0.7797 -3.6729 -0.3419
  892MPD2    H213078   3.535   4.226  14.625  0.9884  0.7927 -0.2944
  892MPD2    H313079   3.758   4.234  14.548  1.2192 -0.3966 -0.5210
  892MPD2     N13080   3.725   3.810  14.383  0.3693 -0.2706 -0.7672
  892MPD2    H513081   3.810   3.836  14.335 -1.0270  4.2897 -0.7399
  892MPD2    N113082   3.383   4.021  14.657  0.5282  0.2905  0.0098
  892MPD2    H713083   3.353   4.105  14.705  1.5789  0.9106 -0.4286
  893MPD2     C13084   2.103   1.820   2.027  0.6861  0.4374  0.4444
  893MPD2    C113085   1.966   1.811   2.052 -0.1681  0.0474  0.1734
  893MPD2    C213086   1.916   1.690   2.100  0.1297 -0.1598 -0.0405
  893MPD2    C313087   1.997   1.582   2.118  0.2412 -0.3065 -0.4828
  893MPD2    C413088   2.136   1.589   2.092  0.8004 -0.3672 -1.0651
  893MPD2    C513089   2.187   1.711   2.043  0.1975  0.1325 -0.4246
  893MPD2     H13090   1.810   1.690   2.123 -0.5399 -2.3637 -3.1523
  893MPD2    H113091   2.203   1.504   2.101  0.5527 -0.2546  1.6403
  893MPD2    H213092   2.157   1.906   1.990  2.4085  0.4113  2.8474
  893MPD2    H313093   2.292   1.722   2.020  0.0687  1.7502 -0.2532
  893MPD2     N13094   1.955   1.456   2.160 -0.2403 -0.9979  0.3004
  893MPD2    H513095   2.017   1.376   2.161 -0.3916 -1.1214 -0.5539
  893MPD2    N113096   1.897   1.932   2.024 -0.0731  0.2000 -0.1483
  893MPD2    H713097   1.954   2.006   1.985  1.0566 -0.5456  0.1054
  894MPD2     C13098   3.926   4.637   0.361  0.1628  0.3997  0.0873
  894MPD2    C113099   3.844   4.676   0.461  0.8310  0.0138  0.6751
  894MPD2    C213100   3.815   0.084   0.473 -0.1030  0.5344  0.0019
  894MPD2    C313101   3.859   0.180   0.381 -0.1084 -0.5388 -0.4040
  894MPD2    C413102   3.939   0.132   0.279 -0.2848  0.9262  0.4195
  894MPD2    C513103   3.973   0.004   0.272  0.0572 -0.4962  0.3943
  894MPD2     H13104   3.758   0.121   0.558  0.0988  2.4216 -0.6783
  894MPD2    H113105   3.982   0.201   0.207 -0.4172  0.8958  0.3085
  894MPD2    H213106   3.951   4.533   0.342 -1.2229  0.7272 -3.6534
  894MPD2    H313107   4.043   4.695   0.197 -1.2944 -0.5085 -0.8627
  894MPD2     N13108   3.828   0.315   0.394  0.3060 -0.8468  0.7749
  894MPD2    H513109   3.760   0.338   0.466  0.4514 -2.2942  1.3741
  894MPD2    N113110   3.799   4.576   0.543 -0.4344 -0.6391  0.0872
  894MPD2    H713111   3.830   4.481   0.529 -1.8098 -1.2388  1.0573
  895MPD2     C13112   2.887   2.963  13.819 -0.8854 -0.0629 -0.5436
  895MPD2    C113113   2.777   2.915  13.756 -0.7022 -0.0249  0.3448
  895MPD2    C213114   2.744   2.779  13.772  0.5076 -0.1552 -0.9625
  895MPD2    C313115   2.823   2.696  13.847  0.0480  0.5003 -0.8893
  895MPD2    C413116   2.925   2.752  13.922  0.1836  0.0926 -0.6005
  895MPD2    C513117   2.960   2.882  13.901 -0.0778 -0.0513  0.9627
  895MPD2     H13118   2.668   2.734  13.710  0.8890 -1.4550 -0.4776
  895MPD2    H113119   2.988   2.698  13.992 -0.9310  1.6867  1.6492
  895MPD2    H213120   2.926   3.062  13.802  0.8101 -0.1479  2.9661
  895MPD2    H313121   3.049   2.923  13.948  1.1667  0.1305 -1.5897
  895MPD2     N13122   2.785   2.562  13.852 -0.0669  0.1157  0.7932
  895MPD2    H513123   2.712   2.525  13.793  0.2047 -0.9516  1.1231
  895MPD2    N113124   2.694   2.988  13.666  0.2212  0.1053  0.9505
  895MPD2    H713125   2.616   2.943  13.619  1.1828 -1.2982  0.7063
  896MPD2     C13126   0.555   1.160   1.771 -0.3310 -0.0549 -0.4972
  896MPD2    C113127   0.559   1.141   1.632 -0.4423  0.0056  0.3104
  896MPD2    C213128   0.437   1.102   1.577 -0.6676 -0.6204  0.0354
  896MPD2    C313129   0.325   1.075   1.649  0.2473 -0.1147  0.0416
  896MPD2    C413130   0.320   1.112   1.782  0.4616  0.1731 -0.0807
  896MPD2    C513131   0.442   1.144   1.847 -0.4104  0.1906  0.2880
  896MPD2     H13132   0.429   1.105   1.469 -0.0069 -1.3903 -0.0387
  896MPD2    H113133   0.234   1.101   1.848  1.1890 -0.3649  0.7935
  896MPD2    H213134   0.644   1.181   1.829  1.0167  0.7575 -2.9051
  896MPD2    H313135   0.446   1.161   1.954 -2.8388 -0.9280  0.5543
  896MPD2     N13136   0.213   1.021   1.579 -0.0410  0.4741 -0.0575
  896MPD2    H513137   0.224   1.005   1.479  0.1041  0.0562  0.0274
  896MPD2    N113138   0.683   1.173   1.571  0.2476  0.1807 -0.1150
  896MPD2    H713139   0.744   1.208   1.645  1.4107 -0.5329 -0.7409
  897MPD2     C13140   1.169   2.357  10.475 -0.3134  0.4421  0.7381
  897MPD2    C113141   1.208   2.419  10.588  0.4072  0.3915  0.1382
  897MPD2    C213142   1.156   2.383  10.715 -0.3822  0.1529  0.2225
  897MPD2    C313143   1.052   2.296  10.728  0.1279 -0.6152 -0.6604
  897MPD2    C413144   1.011   2.233  10.606  0.1738  0.3688 -0.1548
  897MPD2    C513145   1.076   2.263  10.488  0.2468  0.3601 -0.5473
  897MPD2     H13146   1.190   2.432  10.806 -1.2345 -0.9580  1.1420
  897MPD2    H113147   0.927   2.164  10.603  1.0165 -0.7066  0.9050
  897MPD2    H213148   1.203   2.378  10.374  0.4252  0.8071  1.0606
  897MPD2    H313149   1.038   2.206  10.404  1.6623  0.6854 -1.4071
  897MPD2     N13150   0.981   2.281  10.854  0.4541  0.5074  0.2352
  897MPD2    H513151   1.031   2.318  10.935  0.4151  0.4985  0.2631
  897MPD2    N113152   1.300   2.525  10.564  0.1656  0.6043 -0.0692
  897MPD2    H713153   1.321   2.547  10.467  0.5066  1.7005  0.2623
  898MPD2     C13154   4.025   3.299  17.266  0.5780  1.0238 -0.1900
  898MPD2    C113155   3.998   3.355  17.385  0.5924 -0.1498  0.7860
  898MPD2    C213156   3.870   3.372  17.426 -0.4527 -0.0279 -0.0151
  898MPD2    C313157   3.761   3.337  17.350 -0.7413 -0.8909 -0.4237
  898MPD2    C413158   3.789   3.275  17.227  1.2685 -0.6702  0.4665
  898MPD2    C513159   3.922   3.255  17.190 -0.4748 -0.2901  0.0457
  898MPD2     H13160   3.863   3.414  17.526 -0.4128  0.5160 -0.2397
  898MPD2    H113161   3.703   3.258  17.164  3.4277 -1.6047 -2.1964
  898MPD2    H213162   4.128   3.272  17.243 -0.0373 -0.5000 -1.1617
  898MPD2    H313163   3.938   3.218  17.089 -0.7016 -2.1221  0.6803
  898MPD2     N13164   3.633   3.378  17.396 -0.5798  0.2533  0.8348
  898MPD2    H513165   3.630   3.442  17.474 -0.7798  1.2436  0.0260
  898MPD2    N113166   4.097   3.385  17.480  0.1733  0.6913  0.4010
  898MPD2    H713167   4.072   3.439  17.561 -0.2302  0.3056  0.5327
  899MPD2     C13168   3.908   3.925  17.133 -0.1711 -0.6901  0.1954
  899MPD2    C113169   3.981   4.011  17.215 -0.6219 -0.4829 -0.1952
  899MPD2    C213170   3.992   3.976  17.351  0.3690  0.0765 -0.5811
  899MPD2    C313171   3.925   3.863  17.406 -0.9358  0.1509 -0.4731
  899MPD2    C413172   3.857   3.780  17.323  0.2427  0.7949 -0.3273
  899MPD2    C513173   3.853   3.811  17.188  0.4967  0.0537  0.0158
  899MPD2     H13174   4.051   4.038  17.418 -1.5117 -0.6097  1.7334
  899MPD2    H113175   3.814   3.686  17.353 -3.4173  2.7066  0.4017
  899MPD2    H213176   3.897   3.935  17.026 -0.7438 -2.5601  0.0886
  899MPD2    H313177   3.797   3.743  17.125 -0.0369  0.0672  0.4833
  899MPD2     N13178   3.933   3.824  17.544 -0.2257 -0.7685 -0.0646
  899MPD2    H513179   3.895   3.734  17.569 -0.5307 -0.6211  0.0063
  899MPD2    N113180   4.043   4.122  17.155  0.4191  0.1219  0.1649
  899MPD2    H713181   4.037   4.127  17.053 -1.0138 -0.2086  0.2419
  900MPD2     C13182   4.090   0.974  12.610 -0.2313  0.4093 -0.6686
  900MPD2    C113183   3.985   0.872  12.605  0.9319  0.4090  0.0751
  900MPD2    C213184   3.893   0.883  12.502  1.3253 -0.3596 -0.3165
  900MPD2    C313185   3.873   1.007  12.437 -0.7079  0.1755 -0.3408
  900MPD2    C413186   3.962   1.108  12.465 -0.4747  0.7239 -1.0453
  900MPD2    C513187   4.075   1.089  12.537 -0.3540  0.4809  0.2263
  900MPD2     H13188   3.831   0.797  12.480 -0.9441  1.3383 -0.5411
  900MPD2    H113189   3.942   1.207  12.426 -0.2533  0.7480 -1.1021
  900MPD2    H213190   4.172   0.967  12.681 -0.9835 -1.4696  0.0220
  900MPD2    H313191   4.146   1.169  12.556  1.0102 -0.4760 -0.8069
  900MPD2     N13192   3.770   1.018  12.339 -0.5821  0.1608  0.1100
  900MPD2    H513193   3.702   0.943  12.336 -1.2360  0.7144  0.7881
  900MPD2    N113194   4.022   0.754  12.672 -0.0699 -0.2540 -0.0345
  900MPD2    H713195   4.103   0.763  12.733 -0.6348 -0.5852  0.7727
  901MPD2     C13196   3.829   4.480  12.391 -0.2431  0.0370 -0.4184
  901MPD2    C113197   3.922   4.460  12.489 -0.0771 -0.7620  0.2832
  901MPD2    C213198   3.964   4.569  12.564  0.0369  0.2483  0.3431
  901MPD2    C313199   3.920   4.693  12.544  0.7333  0.1278 -0.3385
  901MPD2    C413200   3.806   4.704  12.461  0.0785  0.3394  0.3993
  901MPD2    C513201   3.769   4.601  12.381  0.4355 -0.9219 -0.7460
  901MPD2     H13202   4.036   4.561  12.645 -0.0662 -1.0132  0.3040
  901MPD2    H113203   3.755   0.073  12.443 -1.1958 -0.4054  0.1462
  901MPD2    H213204   3.791   4.394  12.336  0.7525 -1.4939  1.3060
  901MPD2    H313205   3.683   4.617  12.317 -0.5209 -0.3520  0.6678
  901MPD2     N13206   3.977   0.068  12.614 -0.2312 -0.0747  0.6443
  901MPD2    H513207   4.071   0.047  12.647 -0.3295  1.7551  2.0683
  901MPD2    N113208   3.977   4.330  12.494 -0.0955  0.4960 -0.2633
  901MPD2    H713209   3.948   4.272  12.416  0.9826 -0.3272 -0.0421
  902MPD2     C13210   2.779   3.459  13.228  0.0866  0.2034 -0.0156
  902MPD2    C113211   2.717   3.455  13.102  0.7146  0.2409 -0.2601
  902MPD2    C213212   2.738   3.343  13.019 -0.4418  0.0010 -0.3971
  902MPD2    C313213   2.790   3.232  13.079 -0.6515  0.2572  0.0918
  902MPD2    C413214   2.842   3.233  13.213 -0.0198  0.0150 -0.7243
  902MPD2    C513215   2.832   3.349  13.293 -0.0770  0.2835 -0.5742
  902MPD2     H13216   2.708   3.329  12.916 -1.0563  2.2141 -0.5367
  902MPD2    H113217   2.899   3.160  13.268 -0.6569 -0.8708 -1.2516
  902MPD2    H213218   2.780   3.556  13.277  0.1415 -0.4953  1.3800
  902MPD2    H313219   2.889   3.356  13.385 -0.3990  0.0387 -0.3548
  902MPD2     N13220   2.821   3.118  13.002 -0.3335 -0.1528  0.0718
  902MPD2    H513221   2.897   3.056  13.027  1.8715  2.6331  0.3082
  902MPD2    N113222   2.665   3.577  13.038  0.1242 -0.0954  0.1032
  902MPD2    H713223   2.653   3.654  13.104  3.6966  1.3261 -0.8905
  903MPD2     C13224   2.235   2.962  12.640 -0.1018 -0.1104  0.3841
  903MPD2    C113225   2.299   2.845  12.622 -0.3274  0.1977 -0.0453
  903MPD2    C213226   2.254   2.745  12.538  0.4711 -0.4394 -0.9637
  903MPD2    C313227   2.132   2.761  12.470 -0.1851 -0.1182 -0.1353
  903MPD2    C413228   2.056   2.879  12.495 -0.4796  0.7734  0.0719
  903MPD2    C513229   2.117   2.977  12.578 -0.6300  0.1973  0.5524
  903MPD2     H13230   2.300   2.647  12.548  0.2458 -0.3923  0.5516
  903MPD2    H113231   1.955   2.907  12.465 -0.4184  0.8132 -0.0978
  903MPD2    H213232   2.281   3.041  12.698  0.7190  0.3241 -0.8695
  903MPD2    H313233   2.071   3.075  12.576  2.0607  1.4629 -0.2765
  903MPD2     N13234   2.082   2.647  12.401  0.2461  0.3687  0.5505
  903MPD2    H513235   2.144   2.588  12.346 -1.2166 -1.1596  0.5758
  903MPD2    N113236   2.424   2.837  12.687  0.2806  0.1117 -0.3750
  903MPD2    H713237   2.454   2.929  12.719 -1.7114  0.8497 -0.6226
  904MPD2     C13238   2.108   2.288  14.226  0.6786  0.2576  0.3066
  904MPD2    C113239   2.186   2.389  14.174 -0.6120  0.4385  0.5566
  904MPD2    C213240   2.320   2.382  14.200  0.3577  0.4704  0.3163
  904MPD2    C313241   2.374   2.279  14.281  0.1231  0.5218  0.0239
  904MPD2    C413242   2.294   2.188  14.342  0.1868  0.3152  0.0510
  904MPD2    C513243   2.155   2.192  14.316  0.0043  0.2775 -0.0788
  904MPD2     H13244   2.384   2.439  14.134  1.9136 -0.2767  1.1652
  904MPD2    H113245   2.332   2.099  14.391  0.1732 -0.3596 -1.1494
  904MPD2    H213246   2.004   2.284  14.196  1.5302  1.0346 -2.7890
  904MPD2    H313247   2.088   2.111  14.342  2.4934 -2.1128 -1.0240
  904MPD2     N13248   2.513   2.260  14.306  0.0049  0.0869 -0.8726
  904MPD2    H513249   2.541   2.183  14.365 -0.1155 -1.7497 -3.2055
  904MPD2    N113250   2.140   2.485  14.081  0.1337 -0.2379 -0.1366
  904MPD2    H713251   2.206   2.549  14.036 -0.5495  0.1130 -0.6422
  905MPD2     C13252   2.053   2.087  13.562  0.0474  0.4749  0.1429
  905MPD2    C113253   2.121   2.207  13.558  0.1956  0.7975  0.8610
  905MPD2    C213254   2.257   2.217  13.567 -0.0544  0.2326 -0.4304
  905MPD2    C313255   2.334   2.102  13.591 -0.4063  0.7217 -0.5559
  905MPD2    C413256   2.259   1.984  13.595  0.3386  0.2272  0.5231
  905MPD2    C513257   2.122   1.973  13.571  0.0861  0.0087  0.5750
  905MPD2     H13258   2.309   2.312  13.558  0.4888  0.0729  1.0809
  905MPD2    H113259   2.316   1.894  13.612 -1.4554 -1.4675 -2.3591
  905MPD2    H213260   1.945   2.080  13.556  0.1541  0.2899 -1.5021
  905MPD2    H313261   2.072   1.878  13.579  0.4722  0.0825  3.5732
  905MPD2     N13262   2.469   2.103  13.617  0.6988 -1.3097 -0.1541
  905MPD2    H513263   2.511   2.013  13.636 -3.0218 -2.7994  1.0072
  905MPD2    N113264   2.031   2.324  13.549  0.5296  0.3446 -0.5142
  905MPD2    H713265   1.931   2.309  13.555  0.6797 -0.6501 -0.5138
  906MPD2     C13266   0.042   2.609  11.454 -0.8675 -0.0812 -0.0403
  906MPD2    C113267   0.035   2.518  11.345 -0.1143  0.1015  0.2176
  906MPD2    C213268   0.057   2.383  11.374 -1.0196  0.2064 -0.3864
  906MPD2    C313269   0.072   2.342  11.506 -0.7457  0.6672 -0.4877
  906MPD2    C413270   0.080   2.436  11.609  0.5867  0.0880  0.9990
  906MPD2    C513271   0.080   2.569  11.583  0.1328  0.3613  0.5473
  906MPD2     H13272   0.055   2.315  11.290 -1.7413 -2.9577  2.1973
  906MPD2    H113273   0.093   2.417  11.715  0.0574  1.1834  1.2703
  906MPD2    H213274   0.023   2.715  11.449  1.7310  0.3673 -0.3842
  906MPD2    H313275   0.086   2.645  11.660 -1.3281  0.1040  0.9074
  906MPD2     N13276   0.087   2.210  11.541 -0.7172 -0.2605 -0.3491
  906MPD2    H513277   0.056   2.177  11.632 -0.5159 -1.6536 -0.7764
  906MPD2    N113278   0.027   2.558  11.206  0.0999  0.4820  0.0478
  906MPD2    H713279   0.011   2.480  11.144 -1.3136  0.9588 -0.1908
  907MPD2     C13280   3.652   1.258  14.706  0.7092 -0.0721 -0.3398
  907MPD2    C113281   3.638   1.199  14.832 -0.4731 -0.4520  0.8722
  907MPD2    C213282   3.748   1.142  14.896  0.2766  0.1332 -0.1325
  907MPD2    C313283   3.875   1.154  14.839  0.3560  0.2102  0.1333
  907MPD2    C413284   3.887   1.225  14.718  0.4408 -0.0489  0.0639
  907MPD2    C513285   3.780   1.267  14.649  1.3161  0.1292  0.0778
  907MPD2     H13286   3.741   1.086  14.989 -1.6201 -0.6455 -0.7482
  907MPD2    H113287   3.978   1.228  14.659  0.3873 -0.1970 -0.0264
  907MPD2    H213288   3.569   1.299  14.649  0.5530  0.1451  0.0422
  907MPD2    H313289   3.790   1.312  14.551 -0.3185 -1.2774 -0.7420
  907MPD2     N13290   3.988   1.104  14.913  0.0659  0.1099 -0.4478
  907MPD2    H513291   3.974   1.042  14.992 -2.5368 -0.2593 -1.1665
  907MPD2    N113292   3.514   1.175  14.886 -0.2280 -0.5977 -0.0498
  907MPD2    H713293   3.514   1.135  14.980 -2.1047 -2.3448 -0.7941
  908MPD2     C13294   1.399   2.944   9.847  0.2249  0.8490  0.0213
  908MPD2    C113295   1.398   2.813   9.895 -0.2442 -0.5803 -0.6375
  908MPD2    C213296   1.411   2.790  10.033 -0.0304 -0.6895  0.3525
  908MPD2    C313297   1.435   2.897  10.115  0.3552 -0.7698 -0.3773
  908MPD2    C413298   1.451   3.025  10.063  0.5114  0.0443 -0.1210
  908MPD2    C513299   1.441   3.043   9.928 -0.4103  0.8956  0.7315
  908MPD2     H13300   1.396   2.695  10.083  0.2300 -0.3345  1.0988
  908MPD2    H113301   1.479   3.111  10.123 -1.7264  1.1277 -0.6443
  908MPD2    H213302   1.391   2.970   9.742 -2.0957 -0.6617 -0.1677
  908MPD2    H313303   1.450   3.143   9.888 -3.8575  0.8133 -0.3089
  908MPD2     N13304   1.440   2.874  10.254  0.0223  0.1025  0.4891
  908MPD2    H513305   1.425   2.778  10.284  0.1089  0.6412  2.2281
  908MPD2    N113306   1.391   2.697   9.811 -0.3559 -0.8357 -0.0253
  908MPD2    H713307   1.400   2.615   9.870  0.1260 -0.1445  0.8707
  909MPD2     C13308   1.900   0.198  11.853  0.6713  0.1760 -0.4687
  909MPD2    C113309   1.883   0.317  11.790 -0.1726  0.2844  0.6537
  909MPD2    C213310   1.767   0.389  11.833 -0.4038  0.8553 -0.7069
  909MPD2    C313311   1.685   0.349  11.940 -0.7780 -0.0432 -0.1618
  909MPD2    C413312   1.713   0.230  12.009 -0.2181 -0.2542  0.3767
  909MPD2    C513313   1.829   0.162  11.960 -0.3098 -0.3841  0.7072
  909MPD2     H13314   1.750   0.485  11.785  0.7730  0.4707 -1.9220
  909MPD2    H113315   1.640   0.187  12.076 -0.8396 -2.0888 -1.4448
  909MPD2    H213316   1.987   0.145  11.817  0.8516 -0.8153  1.4387
  909MPD2    H313317   1.861   0.071  12.010  2.7461  0.3619  0.1349
  909MPD2     N13318   1.573   0.426  11.972 -0.5414  0.0808  0.6111
  909MPD2    H513319   1.553   0.504  11.910  0.0522 -1.3324 -1.3579
  909MPD2    N113320   1.982   0.375  11.701  0.1254 -0.1547  0.2204
  909MPD2    H713321   1.968   0.470  11.668  1.0306  0.5457  1.8563
  910MPD2     C13322   2.660   2.007  15.818 -0.1276 -0.0819  0.4256
  910MPD2    C113323   2.735   2.018  15.703  0.7118 -0.5464 -0.2449
  910MPD2    C213324   2.714   2.128  15.624  0.0570 -0.4734 -0.0475
  910MPD2    C313325   2.600   2.211  15.635 -0.1631 -0.2789  0.0887
  910MPD2    C413326   2.516   2.184  15.741 -0.2179  0.6610 -0.0582
  910MPD2    C513327   2.553   2.093  15.840  0.2926 -0.2192  0.8497
  910MPD2     H13328   2.779   2.154  15.541  1.5919 -1.6086  0.7860
  910MPD2    H113329   2.430   2.248  15.760  0.7995  1.7033  1.0579
  910MPD2    H213330   2.678   1.940  15.902  0.9292  1.6119  1.5490
  910MPD2    H313331   2.488   2.083  15.926 -3.1211  0.2140 -1.6746
  910MPD2     N13332   2.566   2.320  15.542  0.0769 -0.3498 -0.0560
  910MPD2    H513333   2.470   2.352  15.551  0.3180  0.2971  0.1789
  910MPD2    N113334   2.851   1.937  15.673  0.0199  0.3810  0.3607
  910MPD2    H713335   2.905   1.969  15.594 -1.8876  1.3200 -0.5620
  911MPD2     C13336   0.987   2.988  15.756 -0.7351 -0.1338 -0.0554
  911MPD2    C113337   0.989   3.036  15.886  0.0195 -0.0354 -0.8012
  911MPD2    C213338   0.903   3.130  15.925 -0.1980  0.3781 -0.3157
  911MPD2    C313339   0.800   3.174  15.843  0.7308 -0.6210  0.0110
  911MPD2    C413340   0.798   3.125  15.712  0.3053 -0.6912 -0.1498
  911MPD2    C513341   0.897   3.041  15.664  0.0156  0.0489  0.2896
  911MPD2     H13342   0.909   3.180  16.021  2.5969 -0.5192 -0.0235
  911MPD2    H113343   0.718   3.151  15.643 -0.1090  1.2045  1.0318
  911MPD2    H213344   1.061   2.925  15.708 -1.5983 -0.3501 -1.0974
  911MPD2    H313345   0.884   3.004  15.563 -2.0243 -1.3461  1.0784
  911MPD2     N13346   0.690   3.255  15.881  0.0605  0.5341 -0.8745
  911MPD2    H513347   0.607   3.245  15.823 -1.4873  0.4133  1.3442
  911MPD2    N113348   1.101   2.997  15.968 -0.4821 -0.1040  0.9147
  911MPD2    H713349   1.154   2.920  15.930 -1.4111 -1.0272  1.4833
  912MPD2     C13350   0.448   3.114  15.492  0.8503  0.2416 -0.1320
  912MPD2    C113351   0.438   3.115  15.627 -0.6391  0.4769 -0.1406
  912MPD2    C213352   0.477   2.999  15.694  0.3194  0.0200  0.3607
  912MPD2    C313353   0.532   2.896  15.622 -0.7638  0.9513 -0.6101
  912MPD2    C413354   0.559   2.903  15.488  0.7758  0.1737 -0.1664
  912MPD2    C513355   0.511   3.011  15.428  0.1009  0.5788  0.0170
  912MPD2     H13356   0.466   2.994  15.802 -1.7990  1.8992  0.2402
  912MPD2    H113357   0.614   2.824  15.439  1.4985  0.6472 -0.1086
  912MPD2    H213358   0.413   3.199  15.434  2.8547 -0.9273 -3.0426
  912MPD2    H313359   0.510   3.017  15.319 -1.3304  0.5643  0.0204
  912MPD2     N13360   0.574   2.787  15.703 -0.9141  0.2069  0.0416
  912MPD2    H513361   0.540   2.780  15.798 -2.4224  0.9011 -0.4466
  912MPD2    N113362   0.377   3.226  15.691  0.4924 -0.4463 -0.5038
  912MPD2    H713363   0.370   3.305  15.628 -0.7626  1.0721  1.5358
  913MPD2     C13364   1.298   3.054  11.288 -0.6475  0.5767  0.7223
  913MPD2    C113365   1.291   3.186  11.316  0.2843  0.3445  0.3434
  913MPD2    C213366   1.261   3.276  11.218 -0.1544 -0.3538 -0.3665
  913MPD2    C313367   1.228   3.227  11.089 -0.4016  0.7198 -0.1346
  913MPD2    C413368   1.223   3.091  11.071  0.8988 -0.0322  0.0671
  913MPD2    C513369   1.256   3.003  11.166 -0.3789  0.1437  0.1488
  913MPD2     H13370   1.254   3.381  11.242 -0.2178 -0.3217 -0.5268
  913MPD2    H113371   1.185   3.047  10.980 -3.3749  2.5986  0.5776
  913MPD2    H213372   1.312   2.985  11.370 -3.5745 -2.2170 -1.1321
  913MPD2    H313373   1.249   2.896  11.150 -0.1462  0.4181 -1.7240
  913MPD2     N13374   1.201   3.313  10.977  0.2292 -0.0232 -0.1468
  913MPD2    H513375   1.180   3.279  10.884  1.3057  0.4022 -0.5511
  913MPD2    N113376   1.324   3.219  11.450  0.0623  0.2751  0.0537
  913MPD2    H713377   1.327   3.150  11.524  0.7497  2.2105  1.8038
  914MPD2     C13378   3.452   3.803  12.218 -0.5735 -0.0053  0.0543
  914MPD2    C113379   3.505   3.933  12.214  0.3047 -0.5172  0.6846
  914MPD2    C213380   3.606   3.964  12.306  0.2969  0.0828  0.3641
  914MPD2    C313381   3.665   3.868  12.390  0.7809 -0.9720 -0.1625
  914MPD2    C413382   3.608   3.743  12.393  0.3052  0.1096  0.2737
  914MPD2    C513383   3.503   3.712  12.310 -0.6261 -0.5446  0.4046
  914MPD2     H13384   3.649   4.064  12.307  0.3453  0.0757 -0.9732
  914MPD2    H113385   3.641   3.667  12.462  0.0276  0.3680  0.6906
  914MPD2    H213386   3.379   3.784  12.141 -0.9005 -1.0529  0.6237
  914MPD2    H313387   3.457   3.614  12.316 -1.0428 -0.3033  1.0782
  914MPD2     N13388   3.775   3.912  12.459 -0.3624  0.3443 -0.0694
  914MPD2    H513389   3.803   4.004  12.428 -1.1529 -0.2113 -2.4414
  914MPD2    N113390   3.459   4.019  12.106 -0.2579 -0.1532  0.5426
  914MPD2    H713391   3.387   3.982  12.046  0.5060  1.6241 -1.4803
  915MPD2     C13392   2.424   4.472  15.791  0.7394  0.0404  0.0351
  915MPD2    C113393   2.290   4.477  15.752  0.6059 -0.3799 -0.0108
  915MPD2    C213394   2.193   4.507  15.849  0.2409 -0.7005 -0.2081
  915MPD2    C313395   2.230   4.509  15.983  0.2475 -0.4853 -0.7912
  915MPD2    C413396   2.366   4.505  16.018  0.1446  0.0494 -1.1311
  915MPD2    C513397   2.458   4.492  15.921  0.5478 -0.3624  0.5563
  915MPD2     H13398   2.086   4.506  15.837  0.1772 -2.6080  0.5481
  915MPD2    H113399   2.392   4.510  16.123 -2.4228 -1.4464 -0.4130
  915MPD2    H213400   2.507   4.465  15.722 -0.0822 -0.6235 -0.8667
  915MPD2    H313401   2.564   4.498  15.942  0.4908  2.3634  0.1443
  915MPD2     N13402   2.129   4.540  16.076 -0.0291  0.6253  0.3312
  915MPD2    H513403   2.042   4.575  16.036 -0.4416  1.4974  1.9470
  915MPD2    N113404   2.273   4.473  15.612 -0.0474 -0.2043  0.1327
  915MPD2    H713405   2.345   4.443  15.546  0.0018 -0.2904  0.2249
  916MPD2     C13406   0.214   2.791  15.706 -0.2971  0.1993  0.9015
  916MPD2    C113407   0.158   2.727  15.817  0.4507 -0.4157 -0.2877
  916MPD2    C213408   0.125   2.596  15.804 -0.4945 -0.0069  0.0382
  916MPD2    C313409   0.145   2.531  15.682  0.5373 -0.0166  0.0236
  916MPD2    C413410   0.200   2.598  15.573  0.6248 -0.1306 -0.3478
  916MPD2    C513411   0.230   2.726  15.587 -0.3695  0.0560  0.3664
  916MPD2     H13412   0.077   2.547  15.888 -0.9993 -1.5055 -1.1250
  916MPD2    H113413   0.219   2.549  15.478  1.3085 -0.1417 -0.2085
  916MPD2    H213414   0.244   2.896  15.705 -3.9666  1.1988 -1.4188
  916MPD2    H313415   0.278   2.781  15.508  0.9765  0.2363  1.3181
  916MPD2     N13416   0.100   2.399  15.661  0.5302 -0.7860 -0.2437
  916MPD2    H513417   0.058   2.351  15.739  0.0408  0.2526  0.1396
  916MPD2    N113418   0.147   2.809  15.936  0.2989 -0.3354  0.7921
  916MPD2    H713419   0.183   2.903  15.933  2.0967 -1.0378  0.7753
  917MPD2     C13420   0.396   4.455  10.972 -0.1703 -0.3272 -0.1701
  917MPD2    C113421   0.445   4.546  11.057 -0.2788 -0.1218  0.5894
  917MPD2    C213422   0.538   4.634  11.003  0.3186 -0.2635  0.0626
  917MPD2    C313423   0.569   4.639  10.865 -0.2927  1.0306  0.1012
  917MPD2    C413424   0.519   4.545  10.779 -0.2893 -0.6846 -0.6844
  917MPD2    C513425   0.436   4.452  10.838 -0.1057  0.9328  0.0289
  917MPD2     H13426   0.576   4.716  11.062 -1.2930  2.1277 -2.2147
  917MPD2    H113427   0.537   4.528  10.674  1.3588 -0.6106 -0.4195
  917MPD2    H213428   0.323   4.379  10.996 -0.8224 -0.0597 -1.2803
  917MPD2    H313429   0.379   4.390  10.769  1.0463  0.8096 -0.8184
  917MPD2     N13430   0.645   0.014  10.810  0.1019  0.0873  0.4642
  917MPD2    H513431   0.650   0.027  10.710 -1.5120 -0.0511  0.3697
  917MPD2    N113432   0.393   4.549  11.184  0.3843  0.1893 -0.0187
  917MPD2    H713433   0.326   4.478  11.210 -0.4912  0.2413 -2.1580
  918MPD2     C13434   0.701   0.331  12.038 -0.9323 -0.5101  0.5305
  918MPD2    C113435   0.754   0.218  11.978  0.7747  0.0588 -0.9289
  918MPD2    C213436   0.685   0.150  11.879 -0.2642  0.2441  0.9434
  918MPD2    C313437   0.561   0.183  11.841 -0.5718 -0.6551 -0.0312
  918MPD2    C413438   0.503   0.289  11.902 -0.5343 -0.1768  0.5188
  918MPD2    C513439   0.573   0.362  11.995 -0.6502  0.0125  0.2042
  918MPD2     H13440   0.736   0.066  11.833  0.8120  1.2578  0.2969
  918MPD2    H113441   0.402   0.313  11.873 -0.3398 -1.1114 -0.9121
  918MPD2    H213442   0.752   0.381  12.119  1.3487 -0.5253 -0.8949
  918MPD2    H313443   0.530   0.451  12.041  2.4103  2.0146 -0.8159
  918MPD2     N13444   0.498   0.094  11.750 -0.2687  0.0667 -0.2494
  918MPD2    H513445   0.551   0.011  11.725 -0.2321 -0.3985  1.3419
  918MPD2    N113446   0.879   0.169  12.021 -0.6194  0.3041  0.2258
  918MPD2    H713447   0.906   0.077  11.987 -0.7763 -0.0378  1.0307
  919MPD2     C13448   0.927   3.463  11.930 -0.5718  0.8951 -0.0077
  919MPD2    C113449   0.914   3.328  11.915 -0.8033 -0.1665 -0.3050
  919MPD2    C213450   0.951   3.278  11.785 -0.3465  0.5839 -0.1227
  919MPD2    C313451   1.001   3.366  11.687  0.4757 -0.0592 -0.2705
  919MPD2    C413452   1.014   3.496  11.711  0.4844  0.7667  0.7919
  919MPD2    C513453   0.988   3.538  11.834  0.0159 -0.1685  0.2375
  919MPD2     H13454   0.952   3.172  11.766 -1.0833  1.1183 -3.2280
  919MPD2    H113455   1.052   3.563  11.635 -1.5848 -1.3976 -2.1616
  919MPD2    H213456   0.898   3.510  12.023  0.5990  2.5508 -0.4824
  919MPD2    H313457   0.997   3.645  11.848 -1.1907  0.1895 -1.7631
  919MPD2     N13458   1.009   3.331  11.546  0.1634 -0.2837 -0.6245
  919MPD2    H513459   1.014   3.411  11.484  2.9332 -0.6163 -0.8261
  919MPD2    N113460   0.848   3.248  12.016 -0.0244 -0.5416 -0.3435
  919MPD2    H713461   0.833   3.151  11.990 -0.1868 -0.9249  1.1346
  920MPD2     C13462   0.213   3.470  11.041  0.2259  0.8995 -0.4753
  920MPD2    C113463   0.284   3.432  10.926 -0.0910 -0.1335  0.0345
  920MPD2    C213464   0.418   3.391  10.939  0.1947  0.0857  0.1068
  920MPD2    C313465   0.487   3.413  11.062 -0.2709 -0.1110  0.1184
  920MPD2    C413466   0.416   3.467  11.171  0.3356 -0.4468 -0.8307
  920MPD2    C513467   0.280   3.486  11.159 -0.0632  0.0323 -0.4563
  920MPD2     H13468   0.478   3.351  10.857 -0.7319  0.4248 -0.7265
  920MPD2    H113469   0.455   3.487  11.270 -2.5426 -1.4438  0.5174
  920MPD2    H213470   0.107   3.497  11.043  0.4529  1.7481  0.2183
  920MPD2    H313471   0.228   3.537  11.240 -0.4342 -0.2577 -0.5117
  920MPD2     N13472   0.623   3.366  11.077 -0.5018  0.4143  0.0609
  920MPD2    H513473   0.660   3.313  11.000 -0.0350 -1.2431  1.4263
  920MPD2    N113474   0.219   3.421  10.804  0.4884  0.4226  0.1649
  920MPD2    H713475   0.269   3.388  10.722  1.8827 -0.1979  1.2621
  921MPD2     C13476   1.978   3.083  16.501  0.1251 -0.4223  0.4567
  921MPD2    C113477   1.924   3.092  16.373 -0.2248 -0.3903  0.3566
  921MPD2    C213478   1.793   3.051  16.350  0.0175 -0.1126 -0.9931
  921MPD2    C313479   1.717   3.009  16.453  0.0197 -0.6107 -0.1135
  921MPD2    C413480   1.757   3.016  16.582 -0.0974  0.0223  0.3204
  921MPD2    C513481   1.887   3.050  16.603  0.0575  0.1376 -0.0243
  921MPD2     H13482   1.759   3.065  16.248  0.8918  1.2090 -1.1084
  921MPD2    H113483   1.696   2.984  16.666 -0.6982 -0.1755 -0.1953
  921MPD2    H213484   2.080   3.101  16.532 -0.3733  1.6228  0.8971
  921MPD2    H313485   1.910   3.048  16.709  0.2422 -0.5314 -0.0751
  921MPD2     N13486   1.584   2.951  16.433  0.5299 -0.0453 -0.0936
  921MPD2    H513487   1.540   2.917  16.518  0.6805 -0.7760 -0.3151
  921MPD2    N113488   2.013   3.130  16.272 -0.5805  0.1700 -0.1870
  921MPD2    H713489   2.107   3.142  16.308 -0.0617 -0.5692 -1.2654
  922MPD2     C13490   3.216   0.580  17.193  0.1880  0.2266 -0.3601
  922MPD2    C113491   3.126   0.615  17.095 -0.5363 -0.3641  0.0619
  922MPD2    C213492   2.994   0.567  17.092 -0.8507  0.8345  0.2634
  922MPD2    C313493   2.951   0.480  17.187 -0.0027 -0.1315  0.7582
  922MPD2    C413494   3.042   0.443  17.285  0.2168 -0.3327 -0.8442
  922MPD2    C513495   3.174   0.487  17.287 -0.1302  0.2933 -0.2726
  922MPD2     H13496   2.923   0.609  17.022 -0.0802 -2.9347 -2.7650
  922MPD2    H113497   3.015   0.386  17.373 -2.2310 -1.1461 -2.1173
  922MPD2    H213498   3.322   0.599  17.178  0.2270  1.3512  1.3375
  922MPD2    H313499   3.241   0.445  17.362  0.0124 -0.2280 -0.6944
  922MPD2     N13500   2.816   0.434  17.171 -0.0894  0.0005 -0.0101
  922MPD2    H513501   2.754   0.477  17.103  0.7409 -0.3874 -1.0106
  922MPD2    N113502   3.154   0.715  17.000  1.1118 -0.6357 -0.8234
  922MPD2    H713503   3.084   0.723  16.926 -0.1205 -3.8703  0.0074
  923MPD2     C13504   3.873   2.139   8.931 -0.2137  0.2947 -0.1484
  923MPD2    C113505   3.919   2.048   9.028  0.0097  0.0833  0.4827
  923MPD2    C213506   4.041   2.059   9.092  0.8490 -0.3003  0.7838
  923MPD2    C313507   4.120   2.174   9.064  0.4563 -0.2755  0.0549
  923MPD2    C413508   4.075   2.263   8.975 -0.2094 -0.1060  0.2793
  923MPD2    C513509   3.957   2.244   8.903  0.3021  0.4049 -0.4839
  923MPD2     H13510   4.071   1.989   9.169 -0.9168 -0.1639  1.5886
  923MPD2    H113511   4.129   2.354   8.951  1.4208 -0.9398  0.8099
  923MPD2    H213512   3.781   2.140   8.874 -0.2681 -0.4654 -0.0742
  923MPD2    H313513   3.926   2.316   8.828  1.2522  0.6001 -0.6864
  923MPD2     N13514   4.243   2.211   9.128  0.0297 -0.0265 -0.0600
  923MPD2    H513515   4.276   2.305   9.107 -1.0277 -0.0763 -1.9122
  923MPD2    N113516   3.816   1.955   9.065  0.1943 -0.7864 -0.7280
  923MPD2    H713517   3.723   1.974   9.029  0.1022  0.2602  0.0877
  924MPD2     C13518   3.850   0.556  15.452  0.1465  0.3090  0.3029
  924MPD2    C113519   3.960   0.641  15.489 -0.1551 -0.3551  0.1089
  924MPD2    C213520   4.037   0.699  15.392  0.4832  0.6949  0.1650
  924MPD2    C313521   4.023   0.665  15.260  0.7582 -0.4076  0.3627
  924MPD2    C413522   3.931   0.574  15.229 -0.1048  0.4820  0.7313
  924MPD2    C513523   3.838   0.528  15.319 -0.5773 -0.0464  0.0540
  924MPD2     H13524   4.107   0.775  15.425  3.2335 -1.4866 -0.6603
  924MPD2    H113525   3.926   0.551  15.123 -1.6643  0.0705  0.8947
  924MPD2    H213526   3.790   0.501  15.523 -0.3838  0.3600 -0.1017
  924MPD2    H313527   3.761   0.457  15.291  2.3694 -3.2316  0.0264
  924MPD2     N13528   4.109   0.720  15.158 -0.1606  0.6703  0.3480
  924MPD2    H513529   4.088   0.701  15.060  0.1774  1.6392  0.0858
  924MPD2    N113530   3.976   0.648  15.629  0.4416 -0.4608 -0.5844
  924MPD2    H713531   3.896   0.619  15.685  0.0307 -0.9906 -1.4493
  925MPD2     C13532   3.018   3.150  14.761 -0.2118  0.9375  0.4589
  925MPD2    C113533   2.889   3.181  14.728  0.1789  0.0813 -0.8785
  925MPD2    C213534   2.788   3.148  14.815 -0.6207  0.1424 -0.4970
  925MPD2    C313535   2.815   3.090  14.938  0.4677 -0.5240 -0.0213
  925MPD2    C413536   2.944   3.054  14.966  0.1007 -0.1869  0.0502
  925MPD2    C513537   3.044   3.106  14.885  0.7335  0.2268  0.3564
  925MPD2     H13538   2.687   3.182  14.797 -1.2449 -1.9706 -0.9640
  925MPD2    H113539   2.965   2.999  15.057  0.4623  0.7648  0.5417
  925MPD2    H213540   3.096   3.164  14.688 -0.0880  1.2253  0.6479
  925MPD2    H313541   3.146   3.080  14.910  1.1673  2.2315  0.6680
  925MPD2     N13542   2.722   3.056  15.033 -0.0636  0.2373  0.4847
  925MPD2    H513543   2.756   3.014  15.119  3.3515  1.9254 -0.0204
  925MPD2    N113544   2.851   3.239  14.604  0.5873  0.5133  0.2141
  925MPD2    H713545   2.754   3.258  14.580  0.4606 -0.5484 -0.1093
  926MPD2     C13546   1.168   1.682  13.650 -0.6849  0.7522  0.6283
  926MPD2    C113547   1.058   1.741  13.590 -0.1412  0.6892  0.5076
  926MPD2    C213548   1.048   1.744  13.452  0.2042  0.0386  0.8664
  926MPD2    C313549   1.173   1.730  13.383  0.2786  0.1458 -0.4198
  926MPD2    C413550   1.287   1.677  13.444 -0.0673 -0.6072 -0.2657
  926MPD2    C513551   1.279   1.643  13.572  0.0401 -0.1222 -0.8558
  926MPD2     H13552   0.957   1.780  13.406 -0.8582 -0.3721  2.6575
  926MPD2    H113553   1.376   1.661  13.385  0.5170 -0.1183  0.4838
  926MPD2    H213554   1.174   1.665  13.757 -2.3286  0.9650  0.7525
  926MPD2    H313555   1.367   1.603  13.621 -0.6950  0.0568  0.6125
  926MPD2     N13556   1.183   1.753  13.246 -0.1463 -0.4087 -0.2782
  926MPD2    H513557   1.266   1.714  13.201  0.6553 -0.4952  1.2585
  926MPD2    N113558   0.946   1.795  13.649 -0.3253 -0.6722 -0.3171
  926MPD2    H713559   0.863   1.810  13.592 -0.8172 -0.5201  0.4342
  927MPD2     C13560   1.796   0.148   0.459  0.8046  0.7047 -0.2453
  927MPD2    C113561   1.671   0.146   0.407  0.0622  0.0527  0.2046
  927MPD2    C213562   1.668   0.140   0.270 -0.6814  0.0772  0.2537
  927MPD2    C313563   1.780   0.110   0.194 -0.3835  0.5819 -0.5451
  927MPD2    C413564   1.905   0.102   0.257 -0.1155  0.1784 -0.2120
  927MPD2    C513565   1.912   0.120   0.394  0.1977  0.2152  0.0499
  927MPD2     H13566   1.570   0.135   0.224 -1.1406  0.4908  1.1882
  927MPD2    H113567   1.999   0.077   0.210  0.3872  0.3993  0.6836
  927MPD2    H213568   1.808   0.170   0.565  0.4457 -1.7870  0.3072
  927MPD2    H313569   2.004   0.111   0.451  0.5394 -2.4692 -0.9364
  927MPD2     N13570   1.756   0.099   0.054 -0.0925 -1.0001  0.2743
  927MPD2    H513571   1.665   0.129   0.022 -0.4455 -0.9578  1.3135
  927MPD2    N113572   1.564   0.170   0.492 -0.1260 -0.3184  0.1741
  927MPD2    H713573   1.589   0.161   0.590  1.2319 -0.5733 -0.1933
  928MPD2     C13574   3.694   3.034   0.947 -0.8609 -0.0853 -0.4650
  928MPD2    C113575   3.818   2.970   0.948 -0.5575  0.4228  0.5110
  928MPD2    C213576   3.892   2.962   0.830 -0.2447  0.2757 -1.2621
  928MPD2    C313577   3.847   3.024   0.711 -0.7959 -0.1478  0.0486
  928MPD2    C413578   3.726   3.093   0.717  0.3063 -0.3116 -0.6399
  928MPD2    C513579   3.647   3.093   0.832  0.3465  0.0032 -0.3284
  928MPD2     H13580   3.990   2.916   0.838 -0.8501 -0.7678  0.0613
  928MPD2    H113581   3.679   3.130   0.627 -0.9790  2.8402  1.2884
  928MPD2    H213582   3.630   3.018   1.033 -1.2145  1.4496 -0.4478
  928MPD2    H313583   3.552   3.145   0.833  0.7195  0.6714  0.1947
  928MPD2     N13584   3.909   3.014   0.583 -0.1932  0.3754 -0.0094
  928MPD2    H513585   3.881   3.077   0.508 -0.6812 -1.0329 -1.0165
  928MPD2    N113586   3.863   2.914   1.073 -0.2232 -0.3143  0.3913
  928MPD2    H713587   3.804   2.941   1.151 -0.5403  3.1479 -1.0562
  929MPD2     C13588   4.399   2.432  10.481  0.4829  0.4962  0.2393
  929MPD2    C113589   4.348   2.308  10.516 -0.5570  0.0139  0.4913
  929MPD2    C213590   4.256   2.249  10.431  0.1731 -0.1173  0.3788
  929MPD2    C313591   4.210   2.311  10.319 -0.2408 -0.0388  0.7873
  929MPD2    C413592   4.268   2.430  10.278 -0.2442 -0.5609 -0.2331
  929MPD2    C513593   4.360   2.488  10.361  0.0119  0.1864  0.3463
  929MPD2     H13594   4.197   2.166  10.469 -1.8264 -0.0964 -2.7402
  929MPD2    H113595   4.228   2.493  10.199 -0.5122  1.1775  1.2957
  929MPD2    H213596   4.462   2.494  10.544  0.6340  1.3793 -0.7875
  929MPD2    H313597   4.395   2.588  10.336 -1.0483  0.7651  1.2033
  929MPD2     N13598   4.103   2.266  10.250 -0.8473 -0.6975 -0.2720
  929MPD2    H513599   4.078   2.320  10.168 -0.0708  0.3977  0.2088
  929MPD2    N113600   4.393   2.250  10.635  0.5570  0.3235  0.3554
  929MPD2    H713601   4.461   2.303  10.689  3.5591 -1.3316 -1.8182
  930MPD2     C13602   1.094   4.724  13.940 -0.2266 -0.1881 -0.3380
  930MPD2    C113603   0.982   0.065  13.892 -0.3238 -0.4736  0.5671
  930MPD2    C213604   0.872   4.723  13.865 -0.2236  0.3997 -0.4612
  930MPD2    C313605   0.871   4.587  13.864 -0.3255 -0.3458 -0.6992
  930MPD2    C413606   0.985   4.522  13.913  0.2719 -0.0687 -0.0055
  930MPD2    C513607   1.094   4.589  13.953 -0.6687  0.9844 -0.1780
  930MPD2     H13608   0.786   0.055  13.831 -1.3348 -1.1639 -0.2457
  930MPD2    H113609   0.982   4.414  13.928  2.3906 -0.3058 -1.3886
  930MPD2    H213610   1.189   0.050  13.952 -1.5013  1.6683  1.7434
  930MPD2    H313611   1.182   4.527  13.971  0.4047  2.0814 -1.6819
  930MPD2     N13612   0.757   4.508  13.838 -0.0230 -0.9567  0.5895
  930MPD2    H513613   0.745   4.428  13.900 -0.3686  0.2086  2.0133
  930MPD2    N113614   0.997   0.203  13.873  0.7328 -0.6019 -0.4158
  930MPD2    H713615   1.085   0.241  13.906  0.3746 -0.6516  0.5890
  931MPD2     C13616   1.542   4.689   1.117 -0.6122  0.0482  0.3440
  931MPD2    C113617   1.422   4.673   1.063 -0.8340 -0.0293  0.5737
  931MPD2    C213618   1.338   4.574   1.108 -0.1132  0.0544  0.2797
  931MPD2    C313619   1.375   4.497   1.220 -0.7213  0.1808  0.6303
  931MPD2    C413620   1.502   4.523   1.278  0.3476 -0.1284  0.1510
  931MPD2    C513621   1.589   4.612   1.220 -0.2312 -0.5625 -0.5882
  931MPD2     H13622   1.247   4.552   1.054 -0.0087 -2.1773  1.0314
  931MPD2    H113623   1.532   4.464   1.363  1.1308 -1.1256 -0.8258
  931MPD2    H213624   1.606   0.042   1.077  0.2373  0.2806  2.1489
  931MPD2    H313625   1.690   4.629   1.253 -0.3085  0.8448 -1.0975
  931MPD2     N13626   1.293   4.401   1.277 -0.5726 -0.4483 -0.5559
  931MPD2    H513627   1.343   4.335   1.336 -0.5990  0.7696  0.8045
  931MPD2    N113628   1.389   0.022   0.945 -0.3814  0.5687  0.1304
  931MPD2    H713629   1.467   0.079   0.915 -0.1018 -0.3038 -0.7902
  932MPD2     C13630   2.380   2.997  11.655  0.1108 -0.1892 -0.3674
  932MPD2    C113631   2.503   3.011  11.587 -0.1941  0.2440  0.2338
  932MPD2    C213632   2.595   2.918  11.594 -0.1736 -0.1425 -0.4501
  932MPD2    C313633   2.586   2.805  11.674 -0.4483 -0.1958 -0.3743
  932MPD2    C413634   2.470   2.790  11.758 -0.7488  0.0037 -0.5812
  932MPD2    C513635   2.369   2.894  11.739 -0.1192 -0.3783  0.0134
  932MPD2     H13636   2.687   2.945  11.543 -0.3400 -1.4733 -1.4546
  932MPD2    H113637   2.447   2.702  11.817 -1.0723  0.7239  0.3692
  932MPD2    H213638   2.304   3.074  11.662 -1.8123 -2.1335 -0.1159
  932MPD2    H313639   2.284   2.882  11.806 -0.7492  2.0607 -0.3478
  932MPD2     N13640   2.693   2.708  11.691 -0.1998  0.0706 -0.3546
  932MPD2    H513641   2.685   2.638  11.763  0.0072  0.4750  0.0600
  932MPD2    N113642   2.536   3.120  11.508 -1.0678  0.4375 -0.0785
  932MPD2    H713643   2.623   3.111  11.456 -0.3466  2.1838  0.8552
  933MPD2     C13644   4.121   3.146   1.872 -0.0203 -0.3326 -0.9454
  933MPD2    C113645   4.036   3.155   1.760  0.4859 -0.4654  0.3055
  933MPD2    C213646   3.933   3.253   1.751  0.9454 -0.3935  0.4805
  933MPD2    C313647   3.911   3.343   1.845 -0.4469  0.0898  1.1327
  933MPD2    C413648   3.990   3.337   1.962 -0.2506 -0.5094  0.1396
  933MPD2    C513649   4.093   3.240   1.969  0.6289  0.2835  0.0836
  933MPD2     H13650   3.866   3.264   1.666  0.6214  2.2874  1.0794
  933MPD2    H113651   3.989   3.407   2.045 -1.1033  1.1715 -1.3190
  933MPD2    H213652   4.201   3.073   1.883  1.1762  1.1997  0.6477
  933MPD2    H313653   4.155   3.237   2.057 -0.2535 -0.4895  0.6791
  933MPD2     N13654   3.808   3.436   1.828 -0.0752 -0.1026  0.3054
  933MPD2    H513655   3.755   3.431   1.742  0.7739 -1.5021 -0.1345
  933MPD2    N113656   4.060   3.061   1.654 -0.8167 -0.7902  0.5664
  933MPD2    H713657   4.142   3.005   1.673  0.9167  1.9332  1.1242
  934MPD2     C13658   4.293   0.832   1.872 -0.4056  0.2943 -0.0699
  934MPD2    C113659   4.395   0.747   1.834 -0.2577  0.4483  0.4165
  934MPD2    C213660   4.383   0.668   1.724  0.1603 -0.8080  0.4657
  934MPD2    C313661   4.265   0.664   1.647 -0.3837 -0.9291 -0.1271
  934MPD2    C413662   4.165   0.751   1.689 -0.0162  0.3265 -0.7881
  934MPD2    C513663   4.181   0.821   1.803  0.0307  0.5088  0.3381
  934MPD2     H13664   4.469   0.606   1.699 -0.1566 -0.0128 -2.5595
  934MPD2    H113665   4.066   0.745   1.647 -0.2793  0.5221 -0.1906
  934MPD2    H213666   4.299   0.906   1.951 -0.2192 -0.7678  0.9059
  934MPD2    H313667   4.104   0.889   1.838 -1.1066 -1.3245  1.3965
  934MPD2     N13668   4.244   0.579   1.534 -0.5969  0.1036  0.5887
  934MPD2    H513669   4.154   0.590   1.488  0.4829  1.9868 -1.0485
  934MPD2    N113670   4.525   0.756   1.898  0.1891 -0.0495 -0.0219
  934MPD2    H713671   4.600   0.693   1.869  1.2590  0.0788  2.4827
  935MPD2     C13672   4.475   4.324   1.373 -1.1987 -0.4558 -0.2718
  935MPD2    C113673   4.461   4.386   1.245  0.1443 -0.0980  0.3327
  935MPD2    C213674   4.403   4.513   1.227  0.5516 -0.2200 -0.3179
  935MPD2    C313675   4.363   4.582   1.336  0.7648  0.3576  0.0605
  935MPD2    C413676   4.361   4.523   1.459 -0.1344 -0.0830  0.8828
  935MPD2    C513677   4.427   4.400   1.477  0.2393  0.5297  0.2736
  935MPD2     H13678   4.391   4.551   1.126  2.6525 -0.2006 -0.5451
  935MPD2    H113679   4.312   4.564   1.547 -1.9176 -0.2112 -0.0417
  935MPD2    H213680   4.526   4.229   1.386  0.4286  0.3167 -1.0073
  935MPD2    H313681   4.423   4.356   1.576  2.6136 -1.5948 -0.5835
  935MPD2     N13682   4.300   4.714   1.336  0.3114 -0.5076  0.1769
  935MPD2    H513683   4.291   0.039   1.424  1.1656 -1.1134  0.6096
  935MPD2    N113684   4.510   4.324   1.124 -0.0996 -0.1150 -0.1569
  935MPD2    H713685   4.480   4.363   1.035  1.0666  1.4249  0.1354
  936MPD2     C13686   3.063   2.198  12.650 -0.0057 -0.1222  0.7186
  936MPD2    C113687   3.111   2.131  12.767 -0.0874 -0.0747  0.0623
  936MPD2    C213688   3.188   2.197  12.862 -0.4345 -0.0105  0.3996
  936MPD2    C313689   3.201   2.331  12.840 -0.0717  0.9299 -0.0297
  936MPD2    C413690   3.143   2.394  12.728  0.3254  0.8544  0.0296
  936MPD2    C513691   3.068   2.332  12.636 -0.4055  0.1104 -0.1194
  936MPD2     H13692   3.238   2.147  12.944  0.9742 -1.5285 -1.3832
  936MPD2    H113693   3.162   2.500  12.721 -0.5407  1.0832  1.2606
  936MPD2    H213694   3.026   2.142  12.565 -1.1480 -0.8006  1.6475
  936MPD2    H313695   3.033   2.389  12.551 -0.4016  1.8198  1.0190
  936MPD2     N13696   3.306   2.393  12.914  0.7247  0.3374  0.1859
  936MPD2    H513697   3.354   2.337  12.984 -0.3654 -0.3484  0.3965
  936MPD2    N113698   3.120   1.993  12.786 -1.1508  0.0093  0.3436
  936MPD2    H713699   3.174   1.960  12.866  2.5951  2.8114 -1.0482
  937MPD2     C13700   0.785   2.611  12.024 -0.5457 -0.0130 -0.4067
  937MPD2    C113701   0.866   2.681  12.104  0.1809 -0.4760 -0.0143
  937MPD2    C213702   0.991   2.697  12.051 -0.3544 -0.4279 -0.5241
  937MPD2    C313703   1.044   2.634  11.939 -0.4160  0.2721  0.1037
  937MPD2    C413704   0.966   2.548  11.869 -0.2314  0.5774  0.2070
  937MPD2    C513705   0.839   2.538  11.917 -0.0145  0.3933 -1.1811
  937MPD2     H13706   1.055   2.771  12.098 -0.5469 -0.2795 -0.4934
  937MPD2    H113707   1.004   2.489  11.787 -1.0044 -0.7500  0.8004
  937MPD2    H213708   0.678   2.602  12.042 -0.5448 -3.0018 -1.8347
  937MPD2    H313709   0.776   2.463  11.870  2.3613 -1.2207 -1.8019
  937MPD2     N13710   1.179   2.664  11.901  0.0139  0.0946  0.2916
  937MPD2    H513711   1.238   2.721  11.960  1.5736 -1.5637  0.3431
  937MPD2    N113712   0.818   2.778  12.197  0.1572  0.0611  0.5085
  937MPD2    H713713   0.893   2.838  12.230  0.6169  0.9332 -2.1423
  938MPD2     C13714   4.068   4.357   0.744  0.3128 -0.0826 -0.2245
  938MPD2    C113715   3.996   4.441   0.826  0.1410 -0.1426 -0.0911
  938MPD2    C213716   3.910   4.381   0.920 -1.4561  0.1266 -0.1977
  938MPD2    C313717   3.899   4.240   0.929 -0.5904 -0.9807  0.3780
  938MPD2    C413718   3.975   4.163   0.839 -0.0034  0.4561  0.0894
  938MPD2    C513719   4.061   4.222   0.749  0.2869 -0.1972  0.1167
  938MPD2     H13720   3.875   4.450   0.995  0.4958  0.7161  0.1846
  938MPD2    H113721   3.974   4.055   0.832 -1.5033  0.5375 -1.0338
  938MPD2    H213722   4.135   4.392   0.666  2.0739 -0.0147  1.3239
  938MPD2    H313723   4.128   4.166   0.684 -0.4918 -0.8455 -0.1330
  938MPD2     N13724   3.817   4.185   1.036 -0.0846  0.2536  0.2734
  938MPD2    H513725   3.831   4.089   1.067  1.2854 -0.1298 -1.4796
  938MPD2    N113726   3.999   4.575   0.818  0.3484 -0.1602 -0.8023
  938MPD2    H713727   3.931   4.623   0.875 -0.4537 -2.6538  0.3634
  939MPD2     C13728   0.260   1.146   0.308  0.0654 -0.1206 -0.5141
  939MPD2    C113729   0.265   1.269   0.379 -0.4481 -0.0565 -0.0982
  939MPD2    C213730   0.332   1.385   0.328  0.4040 -0.3400 -0.1720
  939MPD2    C313731   0.385   1.374   0.199 -0.3030 -0.0195  0.0595
  939MPD2    C413732   0.377   1.256   0.127 -0.7103 -0.5783  0.1798
  939MPD2    C513733   0.313   1.146   0.180 -0.1881  0.1563  0.5414
  939MPD2     H13734   0.357   1.476   0.381  2.1422 -0.9041 -0.0286
  939MPD2    H113735   0.431   1.236   0.035 -0.5816  0.4554  0.0294
  939MPD2    H213736   0.211   1.060   0.351  0.5314 -0.5859 -0.9054
  939MPD2    H313737   0.303   1.061   0.114 -4.9708  0.7975  0.4436
  939MPD2     N13738   0.456   1.483   0.149  0.2666  0.7861 -0.0951
  939MPD2    H513739   0.454   1.560   0.215 -3.8344  0.2159  0.4348
  939MPD2    N113740   0.198   1.273   0.499  0.2678  0.1003 -0.3146
  939MPD2    H713741   0.150   1.185   0.519  1.3057 -0.2239  0.7647
  940MPD2     C13742   4.204   1.983  13.433 -0.0413 -0.0080  0.4215
  940MPD2    C113743   4.197   1.852  13.384 -0.2019 -0.0837 -0.4156
  940MPD2    C213744   4.136   1.835  13.262 -0.0997  0.5625 -0.1887
  940MPD2    C313745   4.071   1.932  13.194 -0.2635 -0.2234  0.2279
  940MPD2    C413746   4.075   2.062  13.240  0.7583  0.2934  0.6460
  940MPD2    C513747   4.138   2.079  13.363 -0.1019  0.4605  0.1077
  940MPD2     H13748   4.141   1.736  13.217  0.8195  0.6536 -0.2698
  940MPD2    H113749   4.029   2.145  13.187 -0.4391 -0.6921  0.1590
  940MPD2    H213750   4.237   2.014  13.531  0.9974  0.3954 -0.0568
  940MPD2    H313751   4.143   2.178  13.407  0.3503  1.2124 -1.6028
  940MPD2     N13752   4.008   1.914  13.067  0.0772  0.0570 -0.4475
  940MPD2    H513753   3.958   1.991  13.024 -0.2232  0.6098  0.8788
  940MPD2    N113754   4.237   1.734  13.445 -0.0387 -0.6718 -0.4527
  940MPD2    H713755   4.224   1.648  13.393 -0.5905  0.7690 -2.6959
  941MPD2     C13756   3.909   0.404   9.687 -0.3821  0.3859  0.0769
  941MPD2    C113757   3.932   0.430   9.818 -0.6876  0.9031 -0.2594
  941MPD2    C213758   3.901   0.330   9.915  0.2158 -0.5238 -0.0975
  941MPD2    C313759   3.852   0.204   9.883 -0.4765  0.5891  0.0648
  941MPD2    C413760   3.844   0.176   9.746 -0.2065 -0.0040 -0.4589
  941MPD2    C513761   3.873   0.274   9.653  0.4130 -0.0917  0.2291
  941MPD2     H13762   3.924   0.352  10.019  1.2925  0.0894 -0.4643
  941MPD2    H113763   3.821   0.077   9.709  1.6668 -0.9870  1.0068
  941MPD2    H213764   3.936   0.478   9.613 -0.4296 -0.9836 -1.3021
  941MPD2    H313765   3.852   0.248   9.550 -0.7607  1.3811  0.0911
  941MPD2     N13766   3.828   0.100   9.976 -0.1285 -0.1057  0.5199
  941MPD2    H513767   3.802   0.012   9.932  1.1143 -0.7213  1.0244
  941MPD2    N113768   4.004   0.545   9.866  0.4221 -0.2041  0.1173
  941MPD2    H713769   4.006   0.554   9.967 -0.6068 -1.4929  0.2554
  942MPD2     C13770   2.536   1.677   9.146  0.1267 -0.3184 -0.5272
  942MPD2    C113771   2.513   1.695   9.279 -0.6560  0.5179  0.4898
  942MPD2    C213772   2.628   1.695   9.353 -0.0237  0.3352 -0.5755
  942MPD2    C313773   2.756   1.688   9.301  0.3790 -0.5779  0.4498
  942MPD2    C413774   2.772   1.675   9.167  0.0415 -0.4795  0.1890
  942MPD2    C513775   2.659   1.666   9.090  0.0297 -0.2179 -0.0670
  942MPD2     H13776   2.613   1.694   9.461  0.9816  0.4930 -0.4260
  942MPD2    H113777   2.868   1.674   9.115 -0.2349 -0.8954 -0.3173
  942MPD2    H213778   2.459   1.667   9.070  0.2820 -0.4357 -0.6657
  942MPD2    H313779   2.663   1.659   8.982 -1.4595  1.5407 -0.2317
  942MPD2     N13780   2.872   1.689   9.385 -0.3015 -0.1899 -0.2094
  942MPD2    H513781   2.954   1.663   9.331  0.5526  1.8473  0.1115
  942MPD2    N113782   2.387   1.713   9.333  0.4130 -0.1730 -0.1870
  942MPD2    H713783   2.379   1.716   9.434 -1.7086 -1.7392 -0.3299
  943MPD2     C13784   2.066   0.159  10.302  0.0177  0.2718 -0.4057
  943MPD2    C113785   2.057   0.049  10.383  0.6443  0.5320 -0.0141
  943MPD2    C213786   2.117   0.055  10.504 -0.2316 -0.1337 -0.1172
  943MPD2    C313787   2.180   0.178  10.547  0.3764 -0.2119  0.1860
  943MPD2    C413788   2.186   0.282  10.462  0.2359  0.2402 -0.6015
  943MPD2    C513789   2.123   0.275  10.338 -0.4444 -0.4799  0.0598
  943MPD2     H13790   2.113   4.691  10.567 -0.1668  0.3221  0.5269
  943MPD2    H113791   2.227   0.379  10.487  0.4804  0.3956 -1.6155
  943MPD2    H213792   2.022   0.176  10.204  0.8391  1.4377 -0.5662
  943MPD2    H313793   2.119   0.352  10.262 -0.5560 -1.3855 -0.8497
  943MPD2     N13794   2.223   0.208  10.677  0.1466 -0.4964  0.2181
  943MPD2    H513795   2.226   0.306  10.704 -2.1171 -0.7277  1.3696
  943MPD2    N113796   1.982   4.663  10.337 -0.3697 -0.8888  0.3192
  943MPD2    H713797   1.933   4.678  10.249  2.7418  2.0213 -0.9411
  944MPD2     C13798   2.233   4.101  11.202  0.3657 -0.2501  0.3956
  944MPD2    C113799   2.096   4.088  11.195 -0.1111 -0.5739 -0.2795
  944MPD2    C213800   2.026   4.071  11.307  0.5748  0.4764  0.3426
  944MPD2    C313801   2.084   4.067  11.431 -0.0414  0.5047 -0.0546
  944MPD2    C413802   2.221   4.067  11.434 -0.1180  0.3340  0.6478
  944MPD2    C513803   2.294   4.080  11.317  0.4015 -0.2135  0.2803
  944MPD2     H13804   1.918   4.080  11.299  0.9161  1.8059 -2.8682
  944MPD2    H113805   2.276   4.070  11.527  0.4549  0.6369  0.2961
  944MPD2    H213806   2.287   4.127  11.112 -0.8954  0.2971 -0.1881
  944MPD2    H313807   2.402   4.087  11.324  0.2784 -0.6079  2.7784
  944MPD2     N13808   2.007   4.060  11.552 -0.1349  0.2096 -0.3347
  944MPD2    H513809   1.907   4.081  11.544 -0.1775 -0.4908 -1.7356
  944MPD2    N113810   2.030   4.089  11.068  0.8936  0.7996  0.2911
  944MPD2    H713811   2.084   4.124  10.989  0.3461  2.4471  0.6362
    1TCq1    O113812   0.100   0.646  14.114 -0.1227 -0.4068  0.7284
    1TCq1    C113813   0.219   0.594  14.081 -0.0696 -0.1113  0.7253
    1TCq1    O213814   0.243   0.514  13.992 -0.7122  0.0861 -0.4131
    1TCq1    C213815   0.316   0.610  14.188  0.2366  0.1502 -0.0214
    1TCq1    C313816   0.398   0.510  14.205 -0.5469 -0.6335 -0.1717
    1TCq1    C413817   0.462   0.500  14.325 -0.1098 -0.5825 -0.0455
    1TCq1    C513818   0.439   0.584  14.427  0.0610  0.2407 -0.4821
    1TCq1    C613819   0.355   0.688  14.408  0.1782  0.0312  0.7039
    1TCq1    C713820   0.294   0.702  14.288 -0.1562  0.0404  0.0680
    1TCq1    C813821   0.361   0.788  14.507 -0.2054  0.0478  0.2635
    1TCq1    O413822   0.441   0.772  14.598  0.0328  0.4193 -0.8564
    1TCq1    C913823   0.547   0.388  14.348 -0.0124  0.3727  0.3452
    1TCq1    O513824   0.516   0.279  14.296  0.1440  0.7032 -0.2621
    1TCq1    O613825   0.640   0.399  14.426 -0.1578 -0.1396 -1.1019
    1TCq1    H113826   0.113   0.690  14.201  1.5385  3.2419 -1.3513
    1TCq1    H213827   0.422   0.436  14.130  0.6871  1.2769 -1.6686
    1TCq1    H313828   0.480   0.553  14.523 -1.7530 -0.8215 -0.0508
    1TCq1    H413829   0.256   0.801  14.266  0.3912  0.4791  1.0803
    2MPD2     C13830   0.165   1.198  14.734  0.1382 -0.2754  0.3397
    2MPD2    C113831   0.106   1.193  14.609 -0.3743  0.2393 -0.1001
    2MPD2    C213832   0.130   1.073  14.538  0.0967 -0.1832 -0.1551
    2MPD2    C313833   0.224   0.979  14.584  0.1841  0.7787 -0.4271
    2MPD2    C413834   0.277   0.990  14.705  0.0934 -0.0685  0.3422
    2MPD2    C513835   0.251   1.100  14.778 -0.7103  0.5207 -0.0883
    2MPD2     H13836   0.081   1.069  14.441  1.7358  1.4396 -1.0558
    2MPD2    H113837   0.346   0.919  14.749  0.0305 -2.0498 -2.7442
    2MPD2    H213838   0.157   1.288  14.793 -1.0441 -0.5534  0.5951
    2MPD2    H313839   0.313   1.117  14.866 -0.8905  0.7622 -0.0099
    2MPD2     N13840   0.251   0.873  14.497  0.2778  0.6039  0.1987
    2MPD2    H513841   0.175   0.853  14.433  2.3772  3.8320 -3.2887
    2MPD2    N113842   0.038   1.307  14.563 -0.5425 -0.1130 -0.3478
    2MPD2    H713843   0.016   1.374  14.636  1.0613 -0.2224  0.2181
    3TMC2    C113844   4.675   1.471  14.416  0.2125 -0.3091  0.2338
    3TMC2    C213845   4.693   1.561  14.514 -0.1539 -0.6798 -0.2434
    3TMC2    C313846   4.662   1.693  14.482  0.5950 -0.1878  0.7499
    3TMC2    C413847   4.646   1.503  14.284 -0.0585 -0.2820 -0.2354
    3TMC2    C513848   4.627   1.636  14.258 -0.3211  0.1020 -0.0712
    3TMC2    C613849   4.632   1.730  14.355 -0.2366  0.5323 -0.4165
    3TMC2     C13850   0.009   1.339  14.435  0.5783 -0.8511 -0.0686
    3TMC2     O13851   0.062   1.286  14.336 -0.1896  0.2557  0.3800
    3TMC2     H13852   4.695   1.528  14.617  1.5014 -0.9418 -0.3451
    3TMC2    H113853   4.622   1.419  14.222 -1.5625 -1.3378  1.7820
    3TMC2    H213854   4.637   1.835  14.329  2.3489  1.0186  2.0498
    3TMC2    C713855   4.587   1.688  14.131 -0.2173  0.6545 -0.4471
    3TMC2    C813856   4.690   1.799  14.576  0.2425 -1.1891 -0.0254
    3TMC2    O113857   4.505   1.777  14.138 -0.1941 -0.3471 -0.5385
    3TMC2    O213858   4.638   1.909  14.584 -0.3925 -0.5523  0.3009
    3TMC2    O513859   0.088   1.761  14.620  0.2059  0.1191  0.2851
    3TMC2    H513860   0.132   1.680  14.586  0.3669  0.2674  0.1398
    4MPD2     C13861   3.605   2.410  13.818 -0.2980  0.2440  0.0102
    4MPD2    C113862   3.623   2.337  13.698 -0.1501  0.2800  0.4617
    4MPD2    C213863   3.751   2.329  13.643 -0.0001 -0.1197  0.0299
    4MPD2    C313864   3.856   2.392  13.712 -0.2854  0.7169 -0.1539
    4MPD2    C413865   3.830   2.468  13.825  0.2106 -0.2134 -0.2545
    4MPD2    C513866   3.710   2.474  13.880 -0.0900 -0.2804  0.4633
    4MPD2     H13867   3.778   2.277  13.552  0.0166 -0.0595 -0.0001
    4MPD2    H113868   3.905   2.515  13.887  0.3666  2.6264 -2.5788
    4MPD2    H213869   3.507   2.419  13.864 -1.2700 -0.6671 -1.8999
    4MPD2    H313870   3.685   2.533  13.968  1.2946 -0.6877  1.1424
    4MPD2     N13871   3.986   2.377  13.663 -0.8457  0.3720 -0.4279
    4MPD2    H513872   3.989   2.314  13.584 -0.2095 -0.1249 -0.0043
    4MPD2    N113873   3.513   2.278  13.642  0.1347  0.9014  0.3133
    4MPD2    H713874   3.423   2.288  13.689 -1.8010  0.4635 -3.2305
    5TCq2    C113875   4.095   2.386  13.748  0.6173 -0.2379 -0.7524
    5TCq2    O213876   4.092   2.414  13.869 -0.2367 -0.5188  0.0303
    5TCq2    C213877   4.213   2.319  13.698  0.5800  0.2727  0.8239
    5TCq2    C313878   4.241   2.354  13.572 -0.6729 -0.2247 -0.2058
    5TCq2    C413879   4.367   2.306  13.535 -0.3607 -0.9114  0.0331
    5TCq2    C513880   4.448   2.230  13.612  0.5172 -0.6234 -0.3608
    5TCq2    C613881   4.405   2.196  13.736  0.6294  0.0046  0.6408
    5TCq2    C713882   4.293   2.253  13.787  0.8530 -0.0671  0.5649
    5TCq2    C813883   4.458   2.073  13.797 -0.2714 -0.0721  0.7516
    5TCq2    O413884   4.453   2.065  13.920  0.1074  0.5200  0.2285
    5TCq2    C913885   4.423   2.346  13.409 -0.0270  0.3155 -0.3196
    5TCq2    O513886   4.547   2.324  13.393  0.0272  0.3418 -0.0345
    5TCq2    O613887   4.354   2.424  13.334  0.2126  0.1352  1.1492
    5TCq2    H213888   4.180   2.421  13.512 -2.5507 -0.2174  1.6964
    5TCq2    H313889   4.550   2.207  13.582  1.0864  0.0654  1.0507
    5TCq2    H413890   4.262   2.225  13.887 -0.7559  2.4684  0.7608
    6MPD1     C13891   3.128   3.762  13.086  0.4319  0.1345 -0.4545
    6MPD1    C113892   3.170   3.733  13.210 -0.6548  0.4547 -0.0578
    6MPD1    C213893   3.169   3.605  13.253  0.1109 -0.5081  0.7318
    6MPD1    C313894   3.168   3.496  13.157  0.7451  0.8067  0.1756
    6MPD1    C413895   3.128   3.529  13.028 -0.0446  0.4297 -0.0151
    6MPD1    C513896   3.107   3.659  12.998 -0.3507  0.1209  0.0015
    6MPD1     H13897   3.198   3.594  13.357  1.6094 -0.3759  0.3296
    6MPD1    H113898   3.104   3.457  12.951  1.3630  1.1264 -1.0927
    6MPD1    H213899   3.128   3.864  13.049 -0.4832 -0.1329 -1.1872
    6MPD1    H313900   3.064   3.686  12.902 -0.0870 -1.4923 -0.5755
    6MPD1     N13901   3.183   3.361  13.194 -0.4557  0.1162  0.3355
    6MPD1    H513902   3.172   3.291  13.120 -1.3925 -0.0082  0.6028
    6MPD1    N113903   3.191   3.839  13.298 -0.0058 -0.1281 -0.3888
    6MPD1    H613904   3.232   3.916  13.246  0.2912  0.6623  1.0080
    6MPD1    H713905   3.253   3.808  13.374 -1.4412 -1.9786  0.0389
    7MPD2     C13906   2.837   2.711  13.473 -0.0115  0.1229 -0.1667
    7MPD2    C113907   2.960   2.697  13.535  0.1778 -0.0216  0.1569
    7MPD2    C213908   3.011   2.568  13.542  0.2778  0.0294  0.1259
    7MPD2    C313909   2.937   2.452  13.517 -0.8067 -0.4494  0.0570
    7MPD2    C413910   2.821   2.466  13.448 -0.1776 -0.0178  0.5758
    7MPD2    C513911   2.777   2.595  13.426  0.4241  0.1928  0.3111
    7MPD2     H13912   3.115   2.561  13.572  0.0440 -0.8118  0.7524
    7MPD2    H113913   2.767   2.376  13.419 -0.5485  0.3814  0.0470
    7MPD2    H213914   2.786   2.804  13.453 -1.3209 -0.5271  0.1431
    7MPD2    H313915   2.690   2.623  13.368  0.7222 -0.8475 -0.6339
    7MPD2     N13916   2.986   2.320  13.539 -0.4254 -0.0998 -0.1034
    7MPD2    H513917   2.927   2.238  13.535  1.8795 -1.6609 -1.9393
    7MPD2    N113918   3.052   2.806  13.559 -0.2091  0.0141 -0.2785
    7MPD2    H713919   3.146   2.781  13.586  0.1351 -0.3636 -1.8663
    8TMC3    C113920   3.155   2.159  13.559 -0.8126 -0.3496  0.1610
    8TMC3    C213921   3.285   2.161  13.597 -0.1558 -0.1947  0.4107
    8TMC3    C313922   3.384   2.145  13.501  0.8337 -0.0464 -0.3204
    8TMC3    C413923   3.125   2.143  13.425  0.2334  0.0033 -0.1384
    8TMC3    C513924   3.230   2.137  13.336  0.2727 -0.2582 -0.2414
    8TMC3    C613925   3.357   2.137  13.371  0.7756 -0.2971 -0.0153
    8TMC3     C13926   3.110   2.289  13.593 -0.4175 -0.1118 -0.2311
    8TMC3     O13927   3.203   2.357  13.628  0.4214 -0.4739  0.5815
    8TMC3     H13928   3.309   2.156  13.702  0.2266 -0.5264  0.3107
    8TMC3    H113929   3.023   2.130  13.390 -0.0361  0.8974  0.3088
    8TMC3    H213930   3.445   2.135  13.307 -0.4393 -1.9673 -1.6123
    8TMC3    C713931   3.215   2.251  13.245 -0.4540 -0.5350 -0.1546
    8TMC3    C813932   3.519   2.196  13.532  0.7453  0.5842  0.6204
    8TMC3    O113933   3.317   2.313  13.218 -0.0579  0.3527 -0.0674
    8TMC3    O213934   3.611   2.145  13.477 -0.0072 -0.2195  0.1220
    9TMC3    C113935   3.199   3.171  13.332  0.2297 -0.7454  0.3495
    9TMC3    C213936   3.209   3.095  13.228 -0.9956  0.1252 -0.8037
    9TMC3    C313937   3.225   2.966  13.250  0.2685 -0.7302 -0.0811
    9TMC3    C413938   3.163   3.120  13.458 -0.0641 -0.0906  0.3714
    9TMC3    C513939   3.172   2.984  13.478 -0.3193 -0.2705  0.0997
    9TMC3    C613940   3.222   2.908  13.378 -0.1154  0.3640  0.5795
    9TMC3     C13941   3.192   3.314  13.321 -0.0151  0.1889 -0.2010
    9TMC3     O13942   3.173   3.370  13.429  0.2173 -0.4170 -0.4879
    9TMC3     H13943   3.224   3.135  13.128 -2.4202  1.6302 -0.4171
    9TMC3    H113944   3.107   3.185  13.525  0.1749 -0.3257  0.7957
    9TMC3    H213945   3.238   2.801  13.390  2.0773  0.6915  0.7007
    9TMC3    C713946   3.041   2.935  13.506 -0.7653  0.0613 -0.1779
    9TMC3    C813947   3.144   2.889  13.161  0.4290 -0.1066 -1.0257
    9TMC3    O113948   2.947   2.989  13.443 -0.0355  0.6175  0.1094
    9TMC3    O213949   3.051   2.947  13.101  0.1659 -0.6427  0.2202
   10MPD2     C13950   2.926   2.414  13.086  0.4236 -1.0488 -0.0371
   10MPD2    C113951   3.051   2.402  13.152  0.0811  0.0045  0.1285
   10MPD2    C213952   3.122   2.522  13.179  0.8333  0.3789 -0.4434
   10MPD2    C313953   3.079   2.643  13.134  0.4611 -0.1752 -0.0714
   10MPD2    C413954   2.955   2.652  13.071  1.2200  0.5799 -0.4868
   10MPD2    C513955   2.879   2.538  13.042 -0.6185 -0.1742 -0.2388
   10MPD2     H13956   3.213   2.508  13.235 -0.0014  0.6896  1.0017
   10MPD2    H113957   2.931   2.742  13.016 -0.5123  1.1643  1.1959
   10MPD2    H213958   2.859   2.332  13.063  0.9677 -1.9634  1.6390
   10MPD2    H313959   2.781   2.551  12.999 -0.0500  1.3801 -1.0376
   10MPD2     N13960   3.163   2.755  13.170  0.3378  0.4673  0.5576
   10MPD2    H513961   3.249   2.730  13.217 -0.0038 -2.1666 -0.1781
   10MPD2    N113962   3.090   2.273  13.202  0.6107  0.1798 -0.2543
   10MPD2    H713963   3.023   2.197  13.199  0.3489  0.3615  0.9392
   11MPD2     C13964   4.686   1.627  13.785  0.4840  0.5914  0.0469
   11MPD2    C113965   4.632   1.690  13.889 -0.0128  0.2603  0.3405
   11MPD2    C213966   4.577   1.813  13.872  0.2464 -0.1717 -0.1989
   11MPD2    C313967   4.573   1.866  13.744  0.0705  0.8963 -0.6099
   11MPD2    C413968   4.626   1.794  13.632 -0.4404 -0.1707 -0.4884
   11MPD2    C513969   4.680   1.672  13.658 -0.3440  0.2566 -0.5541
   11MPD2     H13970   4.555   1.877  13.957 -0.3818 -2.4117  1.3010
   11MPD2    H113971   4.608   1.822  13.529 -2.3949 -2.1425 -0.6738
   11MPD2    H213972   0.010   1.534  13.810 -2.1706 -2.2524 -5.4099
   11MPD2    H313973   4.714   1.625  13.567  1.9897 -0.9479  0.9479
   11MPD2     N13974   4.516   1.986  13.705 -0.3349  0.1250  0.3894
   11MPD2    H513975   4.506   2.012  13.607 -1.2179 -0.4260  0.3427
   11MPD2    N113976   4.643   1.632  14.018  0.2611 -0.2615 -0.4239
   11MPD2    H713977   4.695   1.546  14.029 -1.2810 -1.0500  0.6575
    1MPD1     C13978   2.551   3.112   0.040  0.2051 -0.7027  0.1958
    1MPD1    C113979   2.426   3.088  17.676 -0.2389  0.8639 -0.2488
    1MPD1    C213980   2.411   3.125  17.543 -0.5190 -0.3958  0.2443
    1MPD1    C313981   2.507   3.198  17.481  0.3616 -0.3943  0.6980
    1MPD1    C413982   2.628   3.222  17.542 -0.0571  0.4025 -0.4835
    1MPD1    C513983   2.650   3.174  17.669  0.3785  0.7431  0.0749
    1MPD1     H13984   2.327   3.084  17.489 -0.8671 -2.3140  2.2094
    1MPD1    H113985   2.705   3.283  17.496 -0.1272  1.1750  0.4332
    1MPD1    H213986   2.571   3.097   0.146 -1.5844  2.4945  0.9664
    1MPD1    H313987   2.746   3.196   0.015  0.9726  0.2483 -0.9141
    1MPD1     N13988   2.490   3.263  17.358  0.0968 -0.4446 -0.1772
    1MPD1    H513989   2.553   3.342  17.345  1.7988 -1.7291  0.3765
    1MPD1    N113990   2.320   3.025   0.044 -0.5184  0.2271  0.9738
    1MPD1    H613991   2.335   3.034   0.145  0.1118  0.8204  0.8272
    1MPD1    H713992   2.233   3.068   0.011  0.0598 -0.4024 -1.2823
    2MPD1     C13993   2.721   4.057  17.306  0.8235  0.7890 -0.8258
    2MPD1    C113994   2.787   3.944  17.301 -0.4472 -0.3012  0.0443
    2MPD1    C213995   2.712   3.833  17.262  0.2643 -0.2263  0.4659
    2MPD1    C313996   2.586   3.835  17.217  0.4438 -0.8777 -0.2713
    2MPD1    C413997   2.519   3.963  17.213  0.0348  0.3227 -0.5469
    2MPD1    C513998   2.591   4.073  17.259 -0.2397  0.2997 -0.8062
    2MPD1     H13999   2.761   3.736  17.259  0.7452 -0.0190  1.4608
    2MPD1    H114000   2.414   3.972  17.190  0.3238  1.4397 -1.4345
    2MPD1    H214001   2.767   4.138  17.362 -1.4108  0.1180  1.9590
    2MPD1    H314002   2.551   4.173  17.273 -0.7183  0.1308 -0.9864
    2MPD1     N14003   2.510   3.720  17.187 -0.2191  0.0244  0.6896
    2MPD1    H514004   2.559   3.636  17.217 -0.3475 -0.5696 -0.7749
    2MPD1    N114005   2.916   3.936  17.363 -0.6534 -0.4920  0.1025
    2MPD1    H614006   2.976   3.858  17.335 -0.5771 -0.9003  1.4129
    2MPD1    H714007   2.966   4.024  17.357  1.1191 -1.5679 -0.9463
    3TMC3    C114008   2.370   3.570  17.095 -0.1786  0.2208  0.0772
    3TMC3    C214009   2.281   3.537  16.997 -0.2292 -0.3797 -0.5260
    3TMC3    C314010   2.237   3.412  16.982  0.4550  0.5177 -0.2604
    3TMC3    C414011   2.410   3.471  17.186  0.6558 -0.2214 -0.1247
    3TMC3    C514012   2.367   3.340  17.166 -0.5048  0.1004  0.7008
    3TMC3    C614013   2.274   3.310  17.069 -0.0799  0.7673  0.0357
    3TMC3     C14014   2.388   3.711  17.128 -0.5381 -0.4338  0.2534
    3TMC3     O14015   2.328   3.794  17.060  0.5396  0.0198  0.1679
    3TMC3     H14016   2.234   3.620  16.945 -0.2549  1.4585  2.4338
    3TMC3    H114017   2.461   3.498  17.278  2.5489 -1.1658 -0.8977
    3TMC3    H214018   2.241   3.209  17.048 -1.3512  0.8105  1.9013
    3TMC3    C714019   2.386   3.245  17.271 -0.6499  0.0950 -0.2173
    3TMC3    C814020   2.105   3.382  16.922  0.2709  0.5289 -0.0232
    3TMC3    O114021   2.311   3.149  17.259 -0.5023 -0.1165  0.7433
    3TMC3    O214022   2.051   3.276  16.963  0.5850 -0.2998  0.3767
    4MPD1     C14023   1.752   3.442  16.560 -0.2550  0.4034  0.0852
    4MPD1    C114024   1.838   3.547  16.553  0.6634  0.6153 -1.0876
    4MPD1    C214025   1.937   3.560  16.648 -0.1412  0.3802 -0.0416
    4MPD1    C314026   1.948   3.462  16.742 -0.5651 -0.1811 -0.0345
    4MPD1    C414027   1.847   3.371  16.764 -0.2869 -0.2304  0.8167
    4MPD1    C514028   1.757   3.355  16.664  0.5320  0.0008 -0.0279
    4MPD1     H14029   2.001   3.648  16.646  1.2626 -0.6510  0.1692
    4MPD1    H114030   1.841   3.312  16.854 -1.1706  1.6076  1.9528
    4MPD1    H214031   1.674   3.423  16.487 -2.2200 -0.2308  2.3487
    4MPD1    H314032   1.679   3.280  16.673  0.7163 -0.3647 -1.5167
    4MPD1     N14033   2.067   3.469  16.822 -0.1646 -0.0473  0.1230
    4MPD1    H514034   2.133   3.541  16.792 -0.3319 -0.3029 -0.8769
    4MPD1    N114035   1.817   3.664  16.477  0.0865  0.0562 -0.1821
    4MPD1    H614036   1.747   3.638  16.408 -0.7692 -1.3261  1.2062
    4MPD1    H714037   1.900   3.699  16.431  0.0888 -0.9109 -0.9024
    1TCq1    O114038   2.831   3.057  11.352 -0.0008  0.6409  0.2407
    1TCq1    C114039   2.896   3.107  11.458 -0.0115 -0.7211  0.2770
    1TCq1    O214040   2.857   3.168  11.555 -0.0360 -0.5116  0.0567
    1TCq1    C214041   3.020   3.028  11.453  0.1837  0.3948 -0.4847
    1TCq1    C314042   3.094   3.009  11.342  0.7795  0.1746 -0.2250
    1TCq1    C414043   3.207   2.932  11.354 -0.8604 -0.4711  0.7104
    1TCq1    C514044   3.261   2.889  11.477 -0.3626 -0.0024 -0.0332
    1TCq1    C614045   3.180   2.916  11.585 -0.1079  0.4524  0.5657
    1TCq1    C714046   3.060   2.981  11.572  0.3013 -0.3274 -0.2162
    1TCq1    C814047   3.224   2.878  11.719 -0.0015 -0.1204  0.3535
    1TCq1    O414048   3.159   2.912  11.816  0.3269 -0.0715  0.0297
    1TCq1    C914049   3.304   2.945  11.252  0.0813 -0.8555 -0.1914
    1TCq1    O514050   3.271   3.007  11.145  0.1207  0.2068 -0.7639
    1TCq1    O614051   3.423   2.903  11.275  0.0929  0.4094 -0.4303
    1TCq1    H114052   2.897   3.017  11.292  0.2258  0.9534  0.2836
    1TCq1    H214053   3.079   3.075  11.257  2.1016 -1.0909 -1.4706
    1TCq1    H314054   3.362   2.851  11.479 -1.0529 -1.8201  0.4685
    1TCq1    H414055   3.006   2.994  11.665 -0.0574  0.3061 -0.5102
    2MPD1     C14056   3.609   2.724  12.034 -0.2118 -1.2871 -0.9743
    2MPD1    C114057   3.629   2.672  11.912 -0.2337 -0.2501 -0.5702
    2MPD1    C214058   3.532   2.699  11.813  0.1745  1.2003 -0.3802
    2MPD1    C314059   3.417   2.783  11.835  0.4817 -0.2835 -0.2802
    2MPD1    C414060   3.395   2.829  11.961 -0.0985 -0.2820 -0.0556
    2MPD1    C514061   3.494   2.800  12.058  0.2448 -0.2855  0.3199
    2MPD1     H14062   3.544   2.660  11.712 -0.1791  0.6557 -0.2084
    2MPD1    H114063   3.314   2.898  11.983 -0.4721 -0.2886 -1.4238
    2MPD1    H214064   3.675   2.710  12.119 -2.1518  2.9181  1.2268
    2MPD1    H314065   3.484   2.848  12.154  1.7635  0.7915 -0.0718
    2MPD1     N14066   3.333   2.793  11.719  0.0825  0.3885  0.4544
    2MPD1    H514067   3.371   2.750  11.635 -0.0626  0.1396  0.5151
    2MPD1    N114068   3.736   2.590  11.882 -0.3185 -0.2057 -0.7142
    2MPD1    H614069   3.743   2.582  11.780 -0.1637  3.3685 -0.9868
    2MPD1    H714070   3.824   2.616  11.925  0.2764 -0.1763 -1.9434
    1TCq1    O114071   2.796   3.788   0.705 -0.0960 -0.0395  0.3558
    1TCq1    C114072   2.888   3.689   0.675 -0.1819 -0.2360  0.0140
    1TCq1    O214073   2.876   3.566   0.670  0.6781 -0.0386  0.1383
    1TCq1    C214074   3.010   3.739   0.733 -0.2464  0.5101 -0.0077
    1TCq1    C314075   3.048   3.853   0.675 -0.2920  0.3231  0.9151
    1TCq1    C414076   3.179   3.884   0.684 -0.1359  0.6911 -0.5549
    1TCq1    C514077   3.257   3.824   0.781 -0.3225  0.0916  0.6541
    1TCq1    C614078   3.222   3.704   0.826 -0.0656  0.8464  0.1718
    1TCq1    C714079   3.095   3.658   0.804  0.1503  0.2681 -1.6658
    1TCq1    C814080   3.323   3.621   0.892  1.3014 -0.3988  1.1349
    1TCq1    O414081   3.439   3.641   0.855  0.3361 -0.0304 -0.0747
    1TCq1    C914082   3.217   4.014   0.639 -0.3336 -0.9814 -0.2997
    1TCq1    O514083   3.138   4.082   0.565  0.1919 -0.3255  0.5978
    1TCq1    O614084   3.327   4.061   0.679  0.0688 -0.4939  0.2918
    1TCq1    H114085   2.837   3.872   0.732 -0.1749 -0.0180  0.4078
    1TCq1    H214086   2.985   3.905   0.604  2.3953  1.1228 -0.9130
    1TCq1    H314087   3.353   3.868   0.803 -0.1306 -0.7573  1.5391
    1TCq1    H414088   3.052   3.566   0.842 -1.6246  0.9278 -2.0917
    2MPD1     C14089   3.442   3.192   1.144  0.2676  0.3678  0.4390
    2MPD1    C114090   3.306   3.191   1.138  0.5623  0.6077  0.4352
    2MPD1    C214091   3.244   3.304   1.079 -0.4016 -0.4561  0.2363
    2MPD1    C314092   3.327   3.410   1.022  0.5723  0.5642 -0.0923
    2MPD1    C414093   3.462   3.394   1.017  0.0343 -0.1341 -0.0700
    2MPD1    C514094   3.518   3.282   1.082 -0.5811 -0.2761  0.0369
    2MPD1     H14095   3.138   3.323   1.085 -0.2713  0.7763 -1.4538
    2MPD1    H114096   3.522   3.471   0.970  0.6655  0.0799  1.0859
    2MPD1    H214097   3.491   3.110   1.195 -0.2382  0.1343  0.5446
    2MPD1    H314098   3.626   3.267   1.079 -0.7592 -1.8476  1.2691
    2MPD1     N14099   3.265   3.525   0.967  0.6345  0.4523 -0.0133
    2MPD1    H514100   3.166   3.542   0.982  0.5672 -1.5413  1.6399
    2MPD1    N114101   3.234   3.099   1.209 -0.0928 -0.3727  0.4410
    2MPD1    H614102   3.270   3.004   1.208 -3.0055 -1.4723 -1.6906
    2MPD1    H714103   3.139   3.088   1.174 -0.7865  2.4558  1.4809
    1MPD1     C14104   4.577   2.700  12.608 -0.0497 -1.0613 -0.4789
    1MPD1    C114105   4.697   2.726  12.546 -0.6501  0.1274  0.1310
    1MPD1    C214106   0.011   2.856  12.510  0.4943  1.5178  0.0992
    1MPD1    C314107   4.644   2.965  12.519  0.5016 -0.3275  0.5474
    1MPD1    C414108   4.524   2.940  12.575  0.4233  0.2457  0.0327
    1MPD1    C514109   4.491   2.809  12.622  0.6206  0.5959  0.2131
    1MPD1     H14110   0.106   2.873  12.461  1.0306  1.5113  1.1349
    1MPD1    H114111   4.453   3.020  12.591  0.2211 -0.1252  0.9528
    1MPD1    H214112   4.544   2.602  12.639 -0.3678 -1.2526 -1.4465
    1MPD1    H314113   4.392   2.800  12.664  1.0843  1.0015  1.3886
    1MPD1     N14114   4.680   3.089  12.470 -0.0997  0.2854  0.3061
    1MPD1    H514115   0.049   3.089  12.430 -0.6723 -0.0985 -1.0377
    1MPD1    N114116   0.061   2.622  12.520 -0.1157 -0.9459  0.1978
    1MPD1    H614117   0.114   2.632  12.433 -1.1298 -1.9739 -0.5412
    1MPD1    H714118   0.012   2.533  12.525  1.0276 -1.4264  2.6686
    2MPD1     C14119   4.073   3.374  11.805 -0.1380 -1.4468  0.5281
    2MPD1    C114120   4.051   3.303  11.692 -0.1673 -0.0517 -0.5792
    2MPD1    C214121   4.152   3.268  11.616  0.0341  0.4098  0.0264
    2MPD1    C314122   4.281   3.301  11.655  0.3691  0.1446  0.2085
    2MPD1    C414123   4.311   3.351  11.779  0.4905 -0.1462  0.1130
    2MPD1    C514124   4.200   3.398  11.854 -0.4886 -0.6234  0.0270
    2MPD1     H14125   4.120   3.240  11.517 -1.6001 -0.6258  0.8455
    2MPD1    H114126   4.409   3.350  11.825  0.7206  1.0835 -0.3568
    2MPD1    H214127   3.987   3.415  11.857  0.2538  1.0958 -0.7797
    2MPD1    H314128   4.200   3.438  11.955  0.9649 -0.7661  0.0949
    2MPD1     N14129   4.399   3.276  11.577 -0.3388 -0.6925  0.1447
    2MPD1    H514130   4.491   3.290  11.618  0.0329 -0.2461 -0.8378
    2MPD1    N114131   3.917   3.294  11.644  0.6786 -0.2275  0.6526
    2MPD1    H614132   3.891   3.218  11.581  1.7319 -3.3915  4.0082
    2MPD1    H714133   3.841   3.307  11.710  1.7801  2.6513  1.3368
    3MPD1     C14134   4.532   3.134  10.543 -0.4689 -0.2014 -0.0573
    3MPD1    C114135   4.423   3.119  10.622 -0.2275  0.1993 -1.0818
    3MPD1    C214136   4.439   3.115  10.759  0.0530  0.5005 -0.6851
    3MPD1    C314137   4.563   3.125  10.816 -0.3030  0.3413 -0.1415
    3MPD1    C414138   4.674   3.125  10.729 -0.5490  0.1040  0.0342
    3MPD1    C514139   4.655   3.142  10.596  0.0923  0.7233  0.3738
    3MPD1     H14140   4.359   3.123  10.832  0.0542  1.0445 -0.7459
    3MPD1    H114141   0.046   3.139  10.776  0.1936 -1.5078 -1.0154
    3MPD1    H214142   4.524   3.138  10.435 -0.5841  0.3377 -0.0292
    3MPD1    H314143   0.012   3.162  10.528 -0.5635  3.3941  0.3817
    3MPD1     N14144   4.560   3.122  10.954 -0.9576 -0.1686  0.3220
    3MPD1    H514145   4.474   3.090  10.998  0.1448 -2.2991  0.8900
    3MPD1    N114146   4.301   3.138  10.556 -0.6128 -0.9108 -0.1274
    3MPD1    H614147   4.224   3.097  10.609 -0.8733  0.8147  0.8262
    3MPD1    H714148   4.299   3.092  10.465 -0.2519  0.1935 -0.6907
    4MPD2     C14149   4.563   3.701  11.964  0.1169  0.3017 -0.1129
    4MPD2    C114150   4.677   3.695  12.036  0.2636 -0.8406 -0.4287
    4MPD2    C214151   0.072   3.732  11.979  0.0555  0.3199  0.2744
    4MPD2    C314152   0.071   3.776  11.849 -0.3722 -0.4380 -0.1122
    4MPD2    C414153   4.679   3.772  11.775  0.7362 -0.3875 -0.3121
    4MPD2    C514154   4.569   3.724  11.832 -0.6251  0.3773 -0.7189
    4MPD2     H14155   0.166   3.717  12.032  1.1203 -1.3182 -2.0593
    4MPD2    H114156   4.672   3.787  11.668 -0.8510 -1.5262 -0.3714
    4MPD2    H214157   4.479   3.641  11.997  1.1354 -0.8368  0.4129
    4MPD2    H314158   4.482   3.714  11.768 -2.0782  0.5906  1.2233
    4MPD2     N14159   0.192   3.809  11.782 -0.1318  0.5902 -0.0754
    4MPD2    H514160   0.190   3.801  11.681  1.7875  1.9440 -0.2265
    4MPD2    N114161   4.694   3.646  12.169  0.6269 -0.2805  0.0759
    4MPD2    H714162   0.065   3.646  12.201  0.5864 -3.3267  0.1846
    5TMC3    C114163   4.652   3.550  12.374 -0.0788 -0.0505 -0.2870
    5TMC3    C214164   4.595   3.432  12.410  0.0296  0.8977 -0.2833
    5TMC3    C314165   4.674   3.318  12.427 -0.0420 -0.0770  0.0466
    5TMC3    C414166   0.063   3.573  12.385 -0.0932 -0.5350  0.2006
    5TMC3    C514167   0.142   3.457  12.399  0.6596 -0.8086  0.0601
    5TMC3    C614168   0.088   3.330  12.416 -0.0073 -0.0077 -0.0676
    5TMC3     C14169   4.592   3.605  12.249  0.3248 -0.3416 -0.9855
    5TMC3     O14170   4.484   3.555  12.216 -0.0088 -0.1039 -0.5157
    5TMC3     H14171   4.487   3.418  12.402 -0.1518  0.9004  2.2546
    5TMC3    H114172   0.093   3.676  12.372  0.7683 -0.8992 -0.6524
    5TMC3    H214173   0.149   3.243  12.437 -1.6200 -1.4305 -1.2880
    5TMC3    C714174   0.264   3.474  12.322 -0.0700  0.5991 -0.6665
    5TMC3    C814175   4.606   3.205  12.477 -1.1218  0.5474  0.1826
    5TMC3    O114176   0.294   3.588  12.296  0.1904  0.4203  0.4528
    5TMC3    O214177   4.500   3.225  12.534  0.3040  0.1916  0.0851
    6TMC3    C114178   4.526   3.188  11.373  0.0610  0.4086 -0.2361
    6TMC3    C214179   4.525   3.178  11.238 -0.1119 -0.0097  0.2655
    6TMC3    C314180   4.650   3.127  11.183 -0.1537  0.9147 -0.1711
    6TMC3    C414181   4.640   3.172  11.451  0.3978 -0.2527  0.3648
    6TMC3    C514182   0.032   3.140  11.390 -0.1704 -0.3285  0.0615
    6TMC3    C614183   0.040   3.118  11.253  0.0182 -0.0411 -0.8318
    6TMC3     C14184   4.400   3.223  11.444 -0.0323  0.4867 -0.0207
    6TMC3     O14185   4.300   3.214  11.375 -0.0826 -0.1107 -0.4321
    6TMC3     H14186   4.441   3.191  11.171 -0.9822 -0.2729  1.3069
    6TMC3    H114187   4.643   3.162  11.559 -0.6957 -1.4163  0.2825
    6TMC3    H214188   0.129   3.068  11.215 -0.4080 -0.3503 -1.4136
    6TMC3    C714189   0.142   3.212  11.447  0.0704  0.6331 -0.1583
    6TMC3    C814190   4.671   3.134  11.036  0.1818 -0.2722  1.4150
    6TMC3    O114191   0.110   3.307  11.512 -0.5194 -0.0679  0.0043
    6TMC3    O214192   0.063   3.143  11.002 -1.0215 -0.3222  0.3385
    7MPD2     C14193   0.552   3.289  11.942  0.0827  0.5271 -0.9174
    7MPD2    C114194   0.539   3.419  11.989 -0.1173 -0.0552  0.3992
    7MPD2    C214195   0.463   3.442  12.104 -0.0754  0.2614  0.3077
    7MPD2    C314196   0.399   3.336  12.172 -0.4864  0.2879 -0.0274
    7MPD2    C414197   0.419   3.207  12.118 -0.1645  0.2339 -0.7568
    7MPD2    C514198   0.492   3.182  12.002 -0.3385  0.3060  0.9991
    7MPD2     H14199   0.461   3.544  12.140 -0.1218  1.1869 -2.2925
    7MPD2    H114200   0.352   3.127  12.144 -0.9153  0.3413 -2.3687
    7MPD2    H214201   0.604   3.267  11.850 -0.5397 -0.6208 -1.0000
    7MPD2    H314202   0.499   3.084  11.957  0.1230  0.3867  0.8942
    7MPD2     N14203   0.310   3.353  12.276 -0.4256  0.0409 -0.2645
    7MPD2    H514204   0.262   3.266  12.299 -1.7609  0.3551 -1.8619
    7MPD2    N114205   0.602   3.521  11.916  0.0493 -0.3451 -0.2362
    7MPD2    H714206   0.621   3.495  11.819  0.3225  0.6980 -0.4653
    8TMC3    C114207   0.623   3.733  11.847 -0.1568 -1.0287 -0.5853
    8TMC3    C214208   0.637   3.691  11.723  0.4072  0.2097  0.1420
    8TMC3    C314209   0.541   3.715  11.626  0.1333  0.7854  0.4033
    8TMC3    C414210   0.528   3.831  11.870 -0.3104 -0.8652  0.1020
    8TMC3    C514211   0.431   3.856  11.781 -0.3588 -0.5367  0.2617
    8TMC3    C614212   0.431   3.790  11.658  0.0315 -0.2976  0.3533
    8TMC3     C14213   0.642   3.644  11.958  0.2747  0.2418 -0.3553
    8TMC3     O14214   0.648   3.696  12.068 -0.3215  0.1670  0.1455
    8TMC3     H14215   0.732   3.649  11.692 -0.3683 -1.9420  0.6674
    8TMC3    H114216   0.527   3.864  11.974  1.5685 -0.9370  0.1349
    8TMC3    H214217   0.358   3.803  11.579  1.6875  1.3127 -0.9323
    8TMC3    C714218   0.301   3.866  11.845 -0.0205  0.1155 -0.4766
    8TMC3    C814219   0.495   3.599  11.551 -0.1066  0.0817 -0.5326
    8TMC3    O114220   0.300   3.907  11.957  0.1222  0.3078 -0.1918
    8TMC3    O214221   0.380   3.602  11.507 -0.0629  0.1825  0.6441
    9MPD2     C14222   0.635   3.270  11.566  0.1731 -0.3582 -0.3425
    9MPD2    C114223   0.541   3.359  11.545  0.5211  0.3415  0.3863
    9MPD2    C214224   0.415   3.311  11.504 -0.1813 -0.0420  0.3778
    9MPD2    C314225   0.387   3.185  11.476  0.1109  0.1854  0.2567
    9MPD2    C414226   0.492   3.097  11.481  0.3037 -0.1752 -0.0810
    9MPD2    C514227   0.610   3.136  11.534  0.4064 -0.2700  0.0180
    9MPD2     H14228   0.333   3.378  11.482  0.4018  0.0982 -1.3960
    9MPD2    H114229   0.479   2.991  11.464  2.0812 -0.4925  0.5193
    9MPD2    H214230   0.735   3.295  11.599  0.3595 -0.6665 -0.6748
    9MPD2    H314231   0.690   3.065  11.549  1.1333  0.7118  0.7979
    9MPD2     N14232   0.257   3.141  11.439  0.8111  0.7471  0.6004
    9MPD2    H514233   0.254   3.049  11.395 -3.5482  0.5725  1.2124
    9MPD2    N114234   0.577   3.491  11.569  0.0898  0.2195 -0.2222
    9MPD2    H714235   0.672   3.514  11.596  0.0585  0.4126 -0.2734
    1MPD1     C14236   2.996   1.864  16.095  0.1428  0.5045  0.0850
    1MPD1    C114237   3.064   1.977  16.143 -0.0400 -0.3407  0.4665
    1MPD1    C214238   3.198   1.969  16.170 -0.1062  0.4006  0.0812
    1MPD1    C314239   3.268   1.852  16.135 -0.2274 -0.1772 -0.5159
    1MPD1    C414240   3.202   1.738  16.095  0.4005  0.4059  0.1044
    1MPD1    C514241   3.063   1.744  16.076  0.6362  0.2976 -0.5297
    1MPD1     H14242   3.248   2.061  16.197  2.6198 -0.7211 -1.0962
    1MPD1    H114243   3.260   1.649  16.073 -0.1110  0.1250 -0.1150
    1MPD1    H214244   2.890   1.865  16.070  0.0869  2.4924  0.3865
    1MPD1    H314245   3.004   1.661  16.039 -1.6973  1.7394 -0.0796
    1MPD1     N14246   3.405   1.837  16.156 -0.2213  0.5446  0.4517
    1MPD1    H514247   3.454   1.755  16.122  1.1854  1.4053  0.3902
    1MPD1    N114248   3.002   2.101  16.132  0.0644 -0.5379  0.4255
    1MPD1    H614249   3.021   2.168  16.206 -0.6917  1.5486 -1.2718
    1MPD1    H714250   2.901   2.087  16.141 -0.1974 -0.3713 -2.3965
    2MPD1     C14251   3.873   2.019  16.978 -0.6394  0.7450 -0.6154
    2MPD1    C114252   3.813   2.117  16.909  0.9019 -0.3216 -0.2312
    2MPD1    C214253   3.785   2.088  16.770 -0.9089  0.3547  0.4188
    2MPD1    C314254   3.824   1.969  16.714  0.4028 -0.4864 -0.3374
    2MPD1    C414255   3.885   1.876  16.798  0.8456  0.5655  0.0908
    2MPD1    C514256   3.902   1.898  16.931  0.4453  0.5457  0.0954
    2MPD1     H14257   3.716   2.149  16.712  1.2917  1.5410 -0.9255
    2MPD1    H114258   3.915   1.778  16.763 -2.0509  0.7380 -2.8615
    2MPD1    H214259   3.883   2.031  17.086  1.9378  0.5167 -0.8265
    2MPD1    H314260   3.939   1.814  16.989 -0.2359  1.2961  1.6296
    2MPD1     N14261   3.785   1.940  16.583  0.8026  0.3587 -0.1758
    2MPD1    H514262   3.734   2.007  16.526  1.1545  1.2881  0.5998
    2MPD1    N114263   3.763   2.226  16.982  0.2403 -0.2468  0.1839
    2MPD1    H614264   3.767   2.309  16.923 -1.6549  0.4448  1.0256
    2MPD1    H714265   3.827   2.247  17.059 -0.1619 -0.5603  0.6005
    3TCq2    C114266   3.842   1.835  16.513 -0.3139 -0.7656 -0.0376
    3TCq2    O214267   3.934   1.761  16.543  0.2599  0.2668  0.2653
    3TCq2    C214268   3.796   1.830  16.376 -0.5792  0.6292 -0.2355
    3TCq2    C314269   3.829   1.722  16.299 -0.0327 -0.2574  0.6431
    3TCq2    C414270   3.759   1.687  16.185  0.3657 -0.6422 -0.1965
    3TCq2    C514271   3.653   1.762  16.146  0.5464 -0.0534 -0.1449
    3TCq2    C614272   3.616   1.869  16.232  0.0484 -0.0767 -0.3926
    3TCq2    C714273   3.683   1.898  16.350  0.2325  0.6599 -0.3150
    3TCq2    C814274   3.484   1.925  16.220  0.2477  0.7015 -0.7373
    3TCq2    O414275   3.461   2.028  16.282  0.2211  0.2394 -0.6892
    3TCq2    C914276   3.806   1.576  16.106  0.3554 -0.0791  0.1538
    3TCq2    O514277   3.730   1.541  16.013  0.4189 -0.3622  0.2362
    3TCq2    O614278   3.895   1.505  16.163  0.0813 -0.0725 -0.2335
    3TCq2    H214279   3.908   1.653  16.325  0.5554  0.2084  0.1051
    3TCq2    H314280   3.592   1.738  16.059  0.4615 -1.2518  0.2563
    3TCq2    H414281   3.638   1.978  16.409 -0.4282 -0.7538  1.0866
    1TCq1    O114282   3.146   1.140  12.251 -0.8369  0.6434  0.2433
    1TCq1    C114283   3.164   1.262  12.303 -0.5049  0.7664  0.4723
    1TCq1    O214284   3.168   1.367  12.246 -0.2971 -0.4545  1.1316
    1TCq1    C214285   3.174   1.241  12.444  0.7506 -0.1748 -0.4911
    1TCq1    C314286   3.094   1.146  12.500  0.2637  0.3625 -0.4027
    1TCq1    C414287   3.095   1.126  12.642 -0.3109  0.6760 -0.3812
    1TCq1    C514288   3.189   1.194  12.715 -0.1970  0.0630  0.8262
    1TCq1    C614289   3.271   1.282  12.651  0.1916 -0.5273 -0.5818
    1TCq1    C714290   3.260   1.316  12.519  0.2807 -0.4220  0.3256
    1TCq1    C814291   3.364   1.366  12.725 -0.3647 -0.0633  0.2832
    1TCq1    O414292   3.401   1.476  12.677  0.1876  0.3175  0.5302
    1TCq1    C914293   3.009   1.024  12.697 -0.2171  0.0803  0.0612
    1TCq1    O514294   2.948   0.962  12.601 -0.2302  0.1300  0.0982
    1TCq1    O614295   3.022   0.995  12.817 -0.1645  0.1049  0.3408
    1TCq1    H114296   3.176   1.068  12.312 -0.4693  0.1552 -0.5121
    1TCq1    H214297   3.021   1.091  12.442 -1.0472  0.0743  1.5151
    1TCq1    H314298   3.211   1.155  12.813  0.0148 -0.7059  0.4668
    1TCq1    H414299   3.325   1.386  12.468 -2.1993  0.7497 -1.2509
    2MPD2     C14300   3.587   1.492  12.898 -0.4731 -0.1084 -0.1072
    2MPD2    C114301   3.522   1.369  12.919 -0.4241 -0.4403  0.5361
    2MPD2    C214302   3.556   1.303  13.037 -0.3476  0.1134  0.8280
    2MPD2    C314303   3.643   1.350  13.130  0.1370 -0.5048  0.3819
    2MPD2    C414304   3.702   1.476  13.108 -0.1529  0.8279 -0.6198
    2MPD2    C514305   3.676   1.549  12.993  0.7307  0.5462  0.4004
    2MPD2     H14306   3.497   1.214  13.059  0.6184 -0.4696  1.0323
    2MPD2    H114307   3.782   1.526  13.163  0.4599 -0.9051  0.0525
    2MPD2    H214308   3.565   1.540  12.803  1.5282  1.4574  0.2430
    2MPD2    H314309   3.720   1.647  12.978 -1.3745  1.4753  0.2864
    2MPD2     N14310   3.664   1.276  13.251 -0.7893  0.1439 -0.2757
    2MPD2    H514311   3.704   1.324  13.331 -2.2484  1.4966 -0.3630
    2MPD2    N114312   3.419   1.311  12.841  0.0769  0.0343 -0.7539
    2MPD2    H714313   3.395   1.214  12.858 -1.0646  0.2591 -1.1021
    3TCq1    O114314   3.878   0.825  13.695 -0.0838  0.0056  0.1708
    3TCq1    C114315   3.861   0.870  13.571 -0.7288 -0.3130 -0.0400
    3TCq1    O214316   3.930   0.838  13.477  0.2943 -0.5292 -0.3889
    3TCq1    C214317   3.735   0.947  13.558  0.1746  0.0028 -0.3240
    3TCq1    C314318   3.677   1.020  13.660  0.6742  0.0132 -0.5356
    3TCq1    C414319   3.603   1.133  13.631 -0.2772  0.4806  1.4442
    3TCq1    C514320   3.606   1.180  13.506  0.2603  0.5849 -0.7220
    3TCq1    C614321   3.644   1.100  13.403  0.0603 -0.3341  0.3712
    3TCq1    C714322   3.703   0.983  13.430 -0.3314  0.0442  0.3930
    3TCq1    C814323   3.644   1.139  13.265  0.1586  0.4953  0.0466
    3TCq1    O414324   3.617   1.062  13.173 -0.8257  0.1073 -0.1414
    3TCq1    C914325   3.555   1.228  13.727  0.0239  0.3575 -0.3582
    3TCq1    O514326   3.492   1.327  13.674 -0.0935  0.5296 -0.1930
    3TCq1    O614327   3.608   1.222  13.843  0.1477  0.5615  0.3655
    3TCq1    H114328   3.807   0.851  13.757  1.7381  0.8231  1.9039
    3TCq1    H214329   3.713   1.009  13.762  1.7831 -1.5123 -1.0766
    3TCq1    H314330   3.548   1.268  13.479  2.6388  1.8537 -1.7187
    3TCq1    H414331   3.757   0.924  13.356 -0.3879 -1.5501  1.6054
    1MPD2     C14332   1.855   1.852  15.078 -0.5688 -0.0355 -0.2028
    1MPD2    C114333   1.766   1.786  14.999 -1.2218  0.6361 -0.7167
    1MPD2    C214334   1.802   1.654  14.965 -0.0176  0.0389  0.5659
    1MPD2    C314335   1.905   1.593  15.031  0.4475 -0.3283 -0.3510
    1MPD2    C414336   1.994   1.660  15.113  0.1685 -0.0589  0.0318
    1MPD2    C514337   1.962   1.791  15.135  0.3232 -0.1627 -0.2558
    1MPD2     H14338   1.737   1.590  14.905 -2.3467  0.9422  2.1065
    1MPD2    H114339   2.077   1.613  15.165  0.3308 -0.3685 -0.5138
    1MPD2    H214340   1.834   1.954  15.110 -1.9731  0.1084 -1.5724
    1MPD2    H314341   2.013   1.852  15.209  2.0044  0.2368 -1.7732
    1MPD2     N14342   1.923   1.451  15.017 -0.2270 -0.5193  0.4447
    1MPD2    H514343   2.007   1.408  15.051 -0.0208 -0.5377 -0.0862
    1MPD2    N114344   1.646   1.858  14.956 -0.6980 -0.4177 -0.4739
    1MPD2    H714345   1.654   1.956  14.981  0.1110 -0.5092 -0.3625
    2TMC3    C114346   1.430   1.871  14.853 -0.7505  0.7660 -0.1961
    2TMC3    C214347   1.331   1.793  14.812 -0.2920 -0.3741 -0.1612
    2TMC3    C314348   1.293   1.797  14.678 -0.0065 -0.1357 -1.3770
    2TMC3    C414349   1.486   1.962  14.765 -0.0202 -0.0701  1.0599
    2TMC3    C514350   1.442   1.974  14.634 -0.4721 -0.7017  0.2218
    2TMC3    C614351   1.351   1.887  14.591  0.3484  0.0511  0.1716
    2TMC3     C14352   1.535   1.786  14.904  0.7825 -0.5205  0.4674
    2TMC3     O14353   1.519   1.663  14.884  0.0718 -0.0240 -0.0538
    2TMC3     H14354   1.293   1.712  14.873 -0.9342 -0.3798 -0.5750
    2TMC3    H114355   1.562   2.028  14.805  0.4925  0.0063 -0.0659
    2TMC3    H214356   1.320   1.887  14.487 -0.9192 -0.3991  0.5492
    2TMC3    C714357   1.508   2.067  14.539  0.5220 -0.2614 -0.1644
    2TMC3    C814358   1.271   1.670  14.615  0.0251 -0.8546  0.9092
    2TMC3    O114359   1.441   2.097  14.441 -0.6554 -0.0683 -0.0768
    2TMC3    O214360   1.216   1.667  14.505  0.1672 -0.2472  0.0619
    3TCq1    O114361   2.519   2.823  14.750 -0.3001 -0.2858  0.0359
    3TCq1    C114362   2.459   2.779  14.636  0.1346  0.8678  0.2602
    3TCq1    O214363   2.424   2.846  14.541 -0.1698 -0.2753  0.0435
    3TCq1    C214364   2.387   2.659  14.671  0.4484 -0.4437  0.4266
    3TCq1    C314365   2.465   2.552  14.689 -0.1063 -0.4892 -0.0279
    3TCq1    C414366   2.407   2.429  14.670 -0.3495  0.6436  0.3657
    3TCq1    C514367   2.276   2.422  14.630 -0.6343  0.0028  0.7767
    3TCq1    C614368   2.205   2.540  14.616 -0.1975 -0.0267  0.1606
    3TCq1    C714369   2.259   2.660  14.634  0.1425 -0.5481 -0.4218
    3TCq1    C814370   2.086   2.534  14.539  0.1555 -0.5415 -1.2059
    3TCq1    O414371   2.057   2.624  14.460 -0.3982 -0.1182  0.1453
    3TCq1    C914372   2.484   2.298  14.679  0.1637 -0.7688 -0.7949
    3TCq1    O514373   2.414   2.197  14.683 -0.1712  0.0832 -0.4003
    3TCq1    O614374   2.608   2.294  14.668  0.3666  0.5599 -0.0937
    3TCq1    H114375   2.559   2.760  14.813 -2.3397 -1.8135 -0.1844
    3TCq1    H214376   2.570   2.553  14.718 -0.1488 -1.0149  0.1534
    3TCq1    H314377   2.233   2.327  14.599 -0.6668  0.2767  0.0004
    3TCq1    H414378   2.204   2.745  14.596  0.4392  0.7408  2.0090
    4MPD2     C14379   1.866   2.421  14.375  0.8191 -0.3366 -0.3641
    4MPD2    C114380   1.905   2.372  14.496 -0.7810 -0.7205  0.4166
    4MPD2    C214381   1.826   2.269  14.565 -0.2123  0.3609  0.2702
    4MPD2    C314382   1.721   2.205  14.503 -0.3701 -0.0611 -0.5490
    4MPD2    C414383   1.689   2.249  14.376  0.4706  0.0398  0.2794
    4MPD2    C514384   1.754   2.353  14.315 -0.5385 -0.1902  0.4544
    4MPD2     H14385   1.852   2.247  14.668  0.9608 -1.2741 -0.3695
    4MPD2    H114386   1.600   2.209  14.331 -0.3113 -0.2572  2.1109
    4MPD2    H214387   1.919   2.503  14.329 -0.1353 -0.3226 -1.4531
    4MPD2    H314388   1.707   2.383  14.222 -1.3261  2.9545  1.8595
    4MPD2     N14389   1.639   2.115  14.572 -0.5142 -0.9461  0.2127
    4MPD2    H514390   1.666   2.073  14.660  0.7903  0.7449  0.6252
    4MPD2    N114391   2.012   2.423  14.573 -0.7102 -0.2821  0.1621
    4MPD2    H714392   2.035   2.371  14.657  1.5183  0.3870 -0.0383
    5TMC2    C114393   1.813   1.074  14.786 -0.2974  0.1593 -0.0216
    5TMC2    C214394   1.944   1.055  14.740 -0.2155 -0.3298 -0.1459
    5TMC2    C314395   2.046   1.120  14.799  0.9179  0.3977  0.1734
    5TMC2    C414396   1.797   1.153  14.891 -0.7328 -0.2572  0.1702
    5TMC2    C514397   1.899   1.230  14.939 -0.4529 -0.2269  0.2226
    5TMC2    C614398   2.029   1.225  14.883 -0.0963 -0.8145  0.2743
    5TMC2     C14399   1.719   1.098  14.677 -0.6903 -0.5009 -0.5670
    5TMC2     O14400   1.707   1.011  14.594 -0.0906  0.0436 -0.2697
    5TMC2     H14401   1.955   1.013  14.641 -0.9827  3.0426 -1.6552
    5TMC2    H114402   1.700   1.161  14.941 -0.4863  0.0044  0.6077
    5TMC2    H214403   2.112   1.287  14.914  1.8227 -3.6174  0.6787
    5TMC2    C714404   1.842   1.362  14.960 -0.2293 -0.3642  0.1870
    5TMC2    C814405   2.187   1.111  14.753  0.2235  0.4875  0.2214
    5TMC2    O114406   1.723   1.365  14.944  0.0428  0.3280  0.0456
    5TMC2    O214407   2.277   1.190  14.781  0.2964  0.1319  0.0584
    5TMC2    O514408   2.193   1.023  14.655 -0.5195 -0.1633 -0.0728
    5TMC2    H514409   2.128   0.950  14.652 -0.2509 -0.4432  1.0769
    6MPD2     C14410   1.338   1.398  14.490 -0.4196 -0.7928 -0.1344
    6MPD2    C114411   1.403   1.463  14.597  0.2704 -0.1940 -0.6209
    6MPD2    C214412   1.499   1.391  14.659 -0.1927  0.7084  0.0110
    6MPD2    C314413   1.549   1.270  14.618 -0.5529 -0.1352  0.5487
    6MPD2    C414414   1.492   1.205  14.510 -0.5205  0.8666 -0.0170
    6MPD2    C514415   1.391   1.277  14.444  1.0426  0.6417  0.1998
    6MPD2     H14416   1.554   1.431  14.744  0.1651 -0.8868  0.5289
    6MPD2    H114417   1.529   1.113  14.468  1.1976  1.1217  0.9583
    6MPD2    H214418   1.255   1.448  14.441 -2.0291  0.4165  3.8249
    6MPD2    H314419   1.342   1.242  14.355 -2.4816 -0.5596  2.6129
    6MPD2     N14420   1.651   1.217  14.697  0.3360 -0.2105 -0.3872
    6MPD2    H514421   1.664   1.275  14.780 -0.8900 -0.6942  0.1549
    6MPD2    N114422   1.369   1.588  14.659  0.0312 -0.6039 -0.0003
    6MPD2    H714423   1.429   1.623  14.733 -1.6386 -0.9073  1.5064
  945NH3     N114424   3.293   4.691   9.203 -0.2601  0.4037  0.1643
  945NH3     H214425   3.357   4.656   9.133  2.8744 -0.5097  3.5375
  945NH3     H314426   3.235   4.608   9.217 -0.7449  1.0533  1.9270
  945NH3     H414427   3.225   0.003   9.137 -0.6185 -0.3453  0.1103
  946SOD     NA14428   1.559   4.337   9.582  0.3122  0.1423  0.1346
  947SOD     NA14429   1.304   0.861  16.949  0.1502  0.0773  0.4913
  948SOD     NA14430   1.571   2.819   8.683 -0.1009 -0.0894  0.3641
  949SOD     NA14431   0.603   1.722  12.630 -0.3791  0.4978 -0.3426
  950SOD     NA14432   3.551   0.526   3.026  0.3040 -0.0573 -0.4274
  951SOD     NA14433   2.088   2.817  15.423 -0.5869 -0.1891  0.1908
  952SOD     NA14434   3.839   3.056  13.874  0.2402 -0.1200 -0.1964
  953SOD     NA14435   3.990   1.097  11.463 -0.0742 -0.7307  0.1676
  954SOD     NA14436   3.978   1.407  11.277 -0.5057  0.1685 -0.2477
  955SOD     NA14437   4.017   2.772  15.526  0.1900  0.1413  0.4420
  956SOD     NA14438   2.394   4.556  10.855  0.1944  0.1473  0.8271
  957SOD     NA14439   2.847   0.124   0.018  0.1083  0.1467  0.1467
  958SOD     NA14440   4.345   1.933  14.155  0.1454 -0.6317 -0.5124
  959SOD     NA14441   0.674   0.129  14.343 -0.1958 -0.0354 -0.1452
  960SOD     NA14442   3.615   2.951  11.373 -0.4709  0.1451 -0.4703
  961SOD     NA14443   4.040   1.203  16.312  0.7261 -0.0495  0.6161
  962SOD     NA14444   3.565   1.551  12.114  0.3668 -0.4838  0.6382
  963SOD     NA14445   3.604   1.112  17.360 -0.3559  0.0258  0.0504
  964SOD     NA14446   1.482   4.141  12.733  0.6500  0.0936  0.3067
  965SOD     NA14447   0.900   0.825   0.794  0.6694 -0.2339 -0.5035
  966SOD     NA14448   2.964   2.463  15.490 -0.3295 -0.0088  0.0726
  967SOD     NA14449   4.667   0.758   0.805  0.4074 -0.1026 -0.0997
  968SOD     NA14450   3.454   3.576   7.600  0.9753 -0.3000  0.2623
  969SOD     NA14451   1.268   0.880   9.707  0.2511  0.2608 -0.0168
  970SOD     NA14452   4.217   1.650  15.017  0.0014 -0.2513  0.3465
  971SOD     NA14453   4.394   4.156  13.044  0.8547 -0.2965  0.2681
  972SOD     NA14454   0.498   0.213   2.045 -0.6281  0.3908  0.2660
  973SOD     NA14455   3.806   2.290  12.246  0.1629  0.1130 -0.9429
  974SOD     NA14456   2.259   4.717  12.752 -0.2825 -0.6711  0.2965
  975SOD     NA14457   2.730   4.056   2.182 -0.0787  0.3158 -0.0636
  976SOD     NA14458   2.423   2.868  14.316 -0.0373 -0.0210 -0.3069
  977SOD     NA14459   1.137   0.434  11.103 -0.1198 -0.0863 -0.0519
  978SOD     NA14460   3.690   0.926   6.039 -0.4395  0.0349 -0.3784
  979SOD     NA14461   2.863   0.884  12.921  0.0080  0.0355 -0.0456
  980SOD     NA14462   2.845   1.420  14.261  0.2596  0.3682 -0.4524
  981SOD     NA14463   3.756   0.440  12.491 -0.3528  0.3231 -0.8319
  982SOD     NA14464   1.730   3.832   6.155 -0.1746  0.3038 -0.1742
  983SOD     NA14465   1.269   1.899  10.894  0.4174 -0.3857 -0.6340
  984SOD     NA14466   3.688   0.156   0.811 -0.0744  0.0305 -0.1533
  985SOD     NA14467   3.223   3.250   1.421 -0.7271 -0.3180  0.5560
  986SOD     NA14468   3.331   2.361  10.350 -0.0534 -0.2668  0.0796
  987SOD     NA14469   2.279   0.828   9.993 -0.0748  0.1444 -0.1788
  988SOD     NA14470   0.640   4.536   0.270 -0.7967  0.2365  0.4776
  989SOD     NA14471   4.011   2.768   4.293  0.4091  0.1327  0.2359
  990SOD     NA14472   4.383   2.123  15.134 -0.4652  0.0823  0.4218
  991SOD     NA14473   4.077   0.740  14.518 -0.0235  0.2815 -0.2431
  992SOD     NA14474   1.503   3.589   2.500  0.0595  0.5630  0.2011
  993SOD     NA14475   1.153   0.731  10.707 -0.3664  0.2704 -0.1288
  994SOD     NA14476   3.391   0.939  11.050  0.3399 -0.0651 -0.2376
  995SOD     NA14477   0.957   2.707   2.363  0.2862  0.0775  0.3742
  996SOD     NA14478   3.054   0.467  10.624  0.5938  0.2854 -0.0102
  997SOD     NA14479   4.371   0.097  12.344  0.1017 -0.3351  0.0107
  998SOD     NA14480   4.505   1.802  15.099 -0.4970 -0.1061 -0.0722
  999SOD     NA14481   3.758   1.453   3.427  0.3320 -0.1705 -0.4771
 1000SOD     NA14482   2.925   1.305   6.254 -0.0260 -0.0302 -0.3109
 1001SOD     NA14483   2.147   4.412  10.648 -0.1308 -0.3688  0.0503
 1002SOD     NA14484   2.984   2.205  11.526  0.2512  0.1745 -0.1232
 1003SOD     NA14485   3.112   1.169  11.825 -0.7752  0.1374  0.2907
 1004SOD     NA14486   3.114   1.434  11.999 -0.2330  0.0171  0.0840
 1005SOD     NA14487   2.047   4.668  14.159 -0.6199  0.3323 -0.1661
 1006SOD     NA14488   1.175   2.833   2.178  0.0660 -0.2884 -0.3215
 1007SOD     NA14489   2.572   2.845   9.644  0.3795  0.1118  0.2125
 1008SOD     NA14490   4.621   2.074  15.004  0.1304  0.0734 -0.0033
 1009SOD     NA14491   1.326   2.978   0.431  0.0062 -0.3841  0.0246
 1010SOD     NA14492   4.053   0.373   0.019 -0.0448  0.5829 -0.7146
 1011SOD     NA14493   1.677   2.322   9.046 -0.2847  0.3028  0.1958
 1012SOL     OW14494   0.183   4.618   6.349  0.4104  0.3788  0.0751
 1012SOL    HW114495   0.245   4.578   6.287  0.6429 -0.0029  0.5593
 1012SOL    HW214496   0.186   4.544   6.409  1.5886 -0.8038 -1.4232
 1013SOL     OW14497   0.628   0.150   2.949 -0.3381  0.5147  0.2633
 1013SOL    HW114498   0.649   0.060   2.976 -1.4418 -0.4246 -1.9955
 1013SOL    HW214499   0.655   0.154   2.857  0.2748 -1.0778  0.3665
 1014SOL     OW14500   3.186   0.563   7.014  0.1063 -0.4136 -0.2398
 1014SOL    HW114501   3.119   0.594   6.953 -0.2001  2.6058  1.6659
 1014SOL    HW214502   3.216   0.648   7.046  0.5328 -0.8263  0.4433
 1015SOL     OW14503   4.204   1.883  16.160 -0.2607  1.0463 -0.5053
 1015SOL    HW114504   4.184   1.789  16.163  2.4206  0.4644 -0.1007
 1015SOL    HW214505   4.123   1.923  16.190 -0.6966  1.3271 -2.1047
 1016SOL     OW14506   3.505   0.025   2.631  0.2063 -0.0686  0.0020
 1016SOL    HW114507   3.440   4.721   2.695  0.8414 -1.3622  0.0768
 1016SOL    HW214508   3.455   0.046   2.553  0.9147  0.5206 -0.2910
 1017SOL     OW14509   4.565   2.650   7.791 -0.3866  0.3246 -0.6664
 1017SOL    HW114510   4.563   2.691   7.704 -0.8421  0.3104 -0.6662
 1017SOL    HW214511   4.549   2.720   7.855 -0.1748  0.2252 -0.5054
 1018SOL     OW14512   2.492   2.861  13.532 -0.3963  0.2242 -0.4047
 1018SOL    HW114513   2.486   2.766  13.524 -0.7772  0.2500 -0.4466
 1018SOL    HW214514   2.398   2.879  13.528 -0.3566  0.5545  0.2586
 1019SOL     OW14515   1.563   3.263   8.215 -0.3620 -0.0547  0.1236
 1019SOL    HW114516   1.546   3.181   8.262  1.3553 -0.8114 -0.5625
 1019SOL    HW214517   1.509   3.329   8.258  1.1172  0.9059  0.5006
 1020SOL     OW14518   2.770   1.536   3.420 -0.6675 -0.1211 -0.0727
 1020SOL    HW114519   2.701   1.506   3.479 -0.7218 -1.8103 -0.9915
 1020SOL    HW214520   2.848   1.489   3.450 -0.3614 -0.8097 -1.9096
 1021SOL     OW14521   4.310   4.173  13.242  0.6718  0.0187 -0.2112
 1021SOL    HW114522   4.324   4.251  13.296  1.3190 -1.4257  1.7216
 1021SOL    HW214523   4.231   4.143  13.287  0.4628  2.0711  0.7848
 1022SOL     OW14524   1.999   4.278   8.036 -0.4952 -0.3501  0.1225
 1022SOL    HW114525   1.973   4.368   8.014  0.4479  0.1100  0.8903
 1022SOL    HW214526   1.973   4.270   8.128 -0.9390  2.1046  0.2099
 1023SOL     OW14527   2.562   2.450   7.486 -0.4021  0.5536  0.3695
 1023SOL    HW114528   2.630   2.415   7.430 -1.7296  1.8410 -2.0386
 1023SOL    HW214529   2.597   2.539   7.487 -1.2262  0.8881 -0.1313
 1024SOL     OW14530   2.509   1.317   5.946  0.3022 -0.0586 -0.1143
 1024SOL    HW114531   2.457   1.393   5.972  1.3161 -0.2714  2.5253
 1024SOL    HW214532   2.437   1.256   5.930 -0.9006  1.3717 -0.1559
 1025SOL     OW14533   2.415   1.654   0.705  0.1648 -0.5320  0.0657
 1025SOL    HW114534   2.399   1.566   0.672 -0.1389 -0.3480 -0.2860
 1025SOL    HW214535   2.414   1.703   0.622 -0.3952  0.1759  0.4923
 1026SOL     OW14536   4.509   0.086   8.272 -0.0945  0.2346  0.1433
 1026SOL    HW114537   4.537   0.152   8.336 -3.7341  1.8449  0.1267
 1026SOL    HW214538   4.438   0.126   8.222 -0.5337 -0.1525  0.4600
 1027SOL     OW14539   1.582   1.088   3.645 -0.2228  1.1959 -0.1371
 1027SOL    HW114540   1.594   1.157   3.710  2.8864  1.3296 -0.8813
 1027SOL    HW214541   1.548   1.141   3.573  0.7637 -0.1071 -1.5747
 1028SOL     OW14542   0.980   3.200  17.611 -0.2818  0.6339  0.1889
 1028SOL    HW114543   1.014   3.261  17.546  2.5264 -2.6987 -1.4460
 1028SOL    HW214544   0.887   3.203  17.585 -0.0993  4.6710 -0.0658
 1029SOL     OW14545   1.287   3.158  13.619  0.3015 -0.5714  0.2010
 1029SOL    HW114546   1.284   3.228  13.685 -0.1257  0.2838 -0.7311
 1029SOL    HW214547   1.364   3.188  13.572 -1.7328  4.5456  0.2138
 1030SOL     OW14548   2.752   3.996   2.490  0.1080 -0.2324  0.1255
 1030SOL    HW114549   2.797   4.077   2.514  0.0183  0.0849 -0.7757
 1030SOL    HW214550   2.811   3.959   2.424 -2.1350 -0.5537 -1.7134
 1031SOL     OW14551   0.666   3.348   5.596  0.3032  0.4260  0.2594
 1031SOL    HW114552   0.733   3.330   5.530 -0.4672 -1.3214 -0.0691
 1031SOL    HW214553   0.663   3.264   5.643  2.1091  0.4286  0.3914
 1032SOL     OW14554   3.446   2.720   6.526  0.1634 -0.2417  0.3941
 1032SOL    HW114555   3.447   2.805   6.570 -2.3116  0.3498 -0.6955
 1032SOL    HW214556   3.511   2.738   6.459 -0.6381 -1.2868 -0.6581
 1033SOL     OW14557   4.657   2.532   9.238 -0.8442 -0.6576  0.3278
 1033SOL    HW114558   4.681   2.440   9.241  0.1337 -0.4163 -0.3505
 1033SOL    HW214559   4.706   2.569   9.165 -0.7890 -0.4150  0.4855
 1034SOL     OW14560   1.104   1.644   8.358  0.3110 -0.0003 -0.0052
 1034SOL    HW114561   1.183   1.613   8.402  1.5140  0.9719 -1.4799
 1034SOL    HW214562   1.127   1.642   8.265 -3.1463  2.8400 -0.9460
 1035SOL     OW14563   2.049   0.706   8.031 -0.2510 -0.3779 -0.2735
 1035SOL    HW114564   2.049   0.690   8.125  1.1574 -0.6104 -0.3114
 1035SOL    HW214565   2.056   0.801   8.038  1.8831 -0.5488  0.2028
 1036SOL     OW14566   2.060   3.766   7.702  0.2947 -0.2820  0.0652
 1036SOL    HW114567   2.139   3.750   7.650 -1.5683 -0.0433 -2.8197
 1036SOL    HW214568   2.085   3.735   7.789  1.0069 -0.3146 -0.1516
 1037SOL     OW14569   0.492   0.372   9.165  0.2476  0.0898  0.4607
 1037SOL    HW114570   0.493   0.277   9.182  0.6691 -0.1955 -1.1362
 1037SOL    HW214571   0.401   0.389   9.141  0.8622  0.5423 -1.6025
 1038SOL     OW14572   3.139   2.842   7.399  0.7610  0.2036 -0.3890
 1038SOL    HW114573   3.166   2.908   7.335  0.8669  1.5405  1.0567
 1038SOL    HW214574   3.049   2.873   7.408  0.7022 -0.6331  1.9310
 1039SOL     OW14575   4.472   4.173   9.371 -0.4122 -0.4522 -0.1060
 1039SOL    HW114576   4.565   4.170   9.350  0.2883 -1.0614  3.0441
 1039SOL    HW214577   4.443   4.197   9.283  0.0035  0.0423 -0.1068
 1040SOL     OW14578   0.271   4.360   1.992 -0.1445 -0.5140 -0.4381
 1040SOL    HW114579   0.262   4.417   2.068  0.0934  0.3740 -1.0695
 1040SOL    HW214580   0.247   4.425   1.926  1.0162  1.7047  1.3471
 1041SOL     OW14581   0.894   1.129  17.231 -0.0564 -0.3733 -0.7638
 1041SOL    HW114582   0.814   1.077  17.220 -0.2597 -0.0510 -0.8258
 1041SOL    HW214583   0.861   1.192  17.296 -0.1952 -0.1360 -1.0617
 1042SOL     OW14584   2.961   3.630   1.398 -0.0471 -0.5947  0.6239
 1042SOL    HW114585   3.052   3.621   1.427  0.6889 -1.2986 -1.9089
 1042SOL    HW214586   2.965   3.623   1.303  2.0115  3.2388  0.4306
 1043SOL     OW14587   0.850   0.493   9.733  0.3542  0.0162 -0.1429
 1043SOL    HW114588   0.781   0.428   9.713 -1.6625  2.2263 -0.3648
 1043SOL    HW214589   0.802   0.569   9.767 -0.8101 -0.2640 -1.1570
 1044SOL     OW14590   0.053   3.333   5.156  0.0916  0.3719 -0.1426
 1044SOL    HW114591   0.094   3.301   5.236  0.5840  2.1691  0.3409
 1044SOL    HW214592   4.686   3.308   5.168 -0.3423  1.0985 -1.8246
 1045SOL     OW14593   0.842   0.326   1.644  0.1403 -0.5346 -0.0179
 1045SOL    HW114594   0.769   0.288   1.693 -0.9655  0.3868 -0.9402
 1045SOL    HW214595   0.854   0.262   1.575 -0.5051  0.4075 -0.9981
 1046SOL     OW14596   4.286   2.558   8.609  0.4379  0.0307 -0.1755
 1046SOL    HW114597   4.373   2.598   8.620  0.8896 -0.6840 -1.2207
 1046SOL    HW214598   4.304   2.558   8.515  0.5013  1.5738 -0.1669
 1047SOL     OW14599   2.599   3.909   0.929  0.1274 -0.5546 -0.5384
 1047SOL    HW114600   2.601   3.958   1.011 -1.9751  2.0294 -2.0204
 1047SOL    HW214601   2.520   3.862   0.956  0.3178  0.0510  1.0536
 1048SOL     OW14602   3.207   3.214   3.579  0.4619  0.1807  0.2595
 1048SOL    HW114603   3.162   3.207   3.663  3.5664 -0.3619  1.8732
 1048SOL    HW214604   3.241   3.301   3.599  0.8376 -0.0900  0.7805
 1049SOL     OW14605   1.625   2.444   2.708 -0.3707  0.2212 -0.2359
 1049SOL    HW114606   1.581   2.469   2.627 -0.2514 -0.2132 -0.4358
 1049SOL    HW214607   1.713   2.478   2.691 -0.4156 -0.8379 -2.4765
 1050SOL     OW14608   3.945   3.321   5.232 -0.1932 -0.4222 -0.0070
 1050SOL    HW114609   3.934   3.394   5.171  0.9817 -0.6838 -0.5289
 1050SOL    HW214610   3.863   3.331   5.280  0.9460 -1.5049  2.1482
 1051SOL     OW14611   3.055   4.476   8.126  0.3280  0.0692  0.2782
 1051SOL    HW114612   3.086   4.433   8.205 -0.2665  0.1460  0.5538
 1051SOL    HW214613   3.019   4.400   8.080 -0.3379 -0.4511  1.6533
 1052SOL     OW14614   0.673   2.406   3.343  0.3004  0.5392  0.3515
 1052SOL    HW114615   0.585   2.385   3.373 -0.2396  2.4127  0.0778
 1052SOL    HW214616   0.703   2.319   3.316  0.0470 -0.3277  2.8810
 1053SOL     OW14617   3.467   0.662   2.703  0.0143 -0.1131  0.4029
 1053SOL    HW114618   3.552   0.694   2.733 -0.4381  1.2807  0.1714
 1053SOL    HW214619   3.462   0.578   2.750  1.0886 -0.8285 -0.7499
 1054SOL     OW14620   1.840   1.219  12.340 -0.2978  0.1228 -0.1895
 1054SOL    HW114621   1.832   1.128  12.369 -2.8218  0.2314 -0.5671
 1054SOL    HW214622   1.905   1.252  12.402 -0.0763  0.8226 -0.7927
 1055SOL     OW14623   0.820   0.497   2.004 -0.1472 -0.4470 -0.2395
 1055SOL    HW114624   0.775   0.540   2.077  2.7613  0.7745  0.8498
 1055SOL    HW214625   0.802   0.406   2.024  0.8472 -0.7829 -0.8546
 1056SOL     OW14626   3.298   1.311   0.301  0.2552  0.3254  0.3195
 1056SOL    HW114627   3.320   1.279   0.213  1.1174  0.4935  0.4726
 1056SOL    HW214628   3.214   1.265   0.304  0.1347  0.3499 -2.5282
 1057SOL     OW14629   0.373   2.407  14.591  0.4716  0.5787  0.0636
 1057SOL    HW114630   0.321   2.482  14.620  0.1382  0.7038 -0.8273
 1057SOL    HW214631   0.385   2.358  14.672 -1.9363 -1.7594 -0.9702
 1058SOL     OW14632   4.008   3.092   9.957 -0.7579  0.5202 -0.3235
 1058SOL    HW114633   3.948   3.161   9.929 -2.7814 -1.5775 -1.0749
 1058SOL    HW214634   4.096   3.131   9.958 -0.6160  0.2548 -2.5228
 1059SOL     OW14635   2.636   2.667   9.177  0.2361  0.9668  0.4974
 1059SOL    HW114636   2.586   2.749   9.180 -2.2927 -0.5327 -0.3514
 1059SOL    HW214637   2.669   2.676   9.087 -0.4053 -2.8704 -0.1129
 1060SOL     OW14638   4.100   1.081   4.176 -1.0454  0.2411 -0.5260
 1060SOL    HW114639   4.120   1.057   4.266 -4.3960 -0.6336 -0.0403
 1060SOL    HW214640   4.175   1.040   4.132  0.5521  1.6279  0.8900
 1061SOL     OW14641   4.708   4.359  15.850  0.0854 -0.3440  0.6323
 1061SOL    HW114642   0.071   4.388  15.826 -0.1984 -0.3300 -0.4053
 1061SOL    HW214643   4.667   4.385  15.767 -1.6246 -3.0293  0.6163
 1062SOL     OW14644   1.588   1.501   8.170  0.2567  0.0307  0.1654
 1062SOL    HW114645   1.664   1.498   8.228 -0.0608 -0.5734  0.5444
 1062SOL    HW214646   1.606   1.422   8.119  0.5582  0.3942 -0.2977
 1063SOL     OW14647   1.435   3.307   9.359 -0.0315  0.6792 -0.0048
 1063SOL    HW114648   1.515   3.254   9.351  1.4578  2.7319  1.2114
 1063SOL    HW214649   1.368   3.241   9.343  1.8943 -0.5874 -2.9280
 1064SOL     OW14650   1.643   2.470  10.418 -0.3859 -0.0446  0.6588
 1064SOL    HW114651   1.688   2.441  10.339 -0.0156  1.1646  0.4265
 1064SOL    HW214652   1.561   2.491  10.372  0.1340  0.3081 -0.1129
 1065SOL     OW14653   1.383   0.516   3.191 -0.1387 -0.0355 -0.3145
 1065SOL    HW114654   1.340   0.596   3.160 -2.6868 -1.0229  0.6311
 1065SOL    HW214655   1.320   0.495   3.260  1.3957  0.9286  1.3559
 1066SOL     OW14656   1.627   4.629   7.556  0.7666  0.2346 -0.6117
 1066SOL    HW114657   1.710   4.600   7.518  1.4595 -1.1210  1.9395
 1066SOL    HW214658   1.594   4.694   7.494  0.2474  0.5813  0.0220
 1067SOL     OW14659   2.079   1.995   1.508 -0.5748  0.4023 -0.5910
 1067SOL    HW114660   2.035   1.918   1.546  1.1934 -0.8794 -1.1248
 1067SOL    HW214661   2.047   1.986   1.418 -2.2682 -2.3566  0.2762
 1068SOL     OW14662   3.899   1.797  12.182 -0.4408  0.0698  0.3481
 1068SOL    HW114663   3.916   1.729  12.117  1.2562 -0.0220  0.9055
 1068SOL    HW214664   3.984   1.797  12.225 -0.0828 -0.7405 -0.3680
 1069SOL     OW14665   3.853   2.439  13.325  0.3631  0.1354  0.2444
 1069SOL    HW114666   3.937   2.470  13.292  0.2904  0.3196  0.2293
 1069SOL    HW214667   3.838   2.365  13.266  1.7082  0.0267  0.0385
 1070SOL     OW14668   3.892   1.886   1.895 -0.1960  0.0208 -0.1957
 1070SOL    HW114669   3.840   1.875   1.816  0.7504  1.7456 -1.0435
 1070SOL    HW214670   3.976   1.854   1.862  0.2102 -0.4221  1.2480
 1071SOL     OW14671   4.369   0.175  12.129 -0.2233 -0.0089  0.3302
 1071SOL    HW114672   4.359   0.113  12.057 -0.2407 -0.4491  0.7102
 1071SOL    HW214673   4.384   0.254  12.076 -2.4515 -0.4920 -0.9918
 1072SOL     OW14674   3.421   3.316   9.349 -0.4684  0.0082  0.1367
 1072SOL    HW114675   3.506   3.304   9.392  0.4493 -1.5981 -2.1146
 1072SOL    HW214676   3.397   3.235   9.304  1.8966 -0.8979  0.5120
 1073SOL     OW14677   0.664   2.731   7.794  0.5460  0.0117  0.4330
 1073SOL    HW114678   0.683   2.638   7.805 -0.4912 -0.0909  1.3423
 1073SOL    HW214679   0.694   2.737   7.704  0.4345 -0.5302  0.3651
 1074SOL     OW14680   4.655   1.140   6.847 -0.2324 -0.4940 -0.2318
 1074SOL    HW114681   4.644   1.047   6.868 -0.1774 -0.2511  0.8872
 1074SOL    HW214682   4.648   1.170   6.938  1.7068  3.3749 -1.3748
 1075SOL     OW14683   1.562   1.944   7.402  0.4462  0.5722 -0.0606
 1075SOL    HW114684   1.572   1.961   7.308  2.3565 -1.6450 -0.2524
 1075SOL    HW214685   1.534   1.853   7.407  0.1137  0.5390 -2.1949
 1076SOL     OW14686   3.617   0.418  14.966  0.7819  0.1359  0.6514
 1076SOL    HW114687   3.590   0.489  14.909 -0.5986 -0.0497  1.0812
 1076SOL    HW214688   3.579   0.443  15.050  0.7935 -0.7824  0.9395
 1077SOL     OW14689   4.490   4.397  10.465 -0.1411  0.2968  0.6095
 1077SOL    HW114690   4.475   4.448  10.545 -3.4219  1.1771 -0.5872
 1077SOL    HW214691   4.423   4.330  10.470 -1.9102  1.9664 -0.9577
 1078SOL     OW14692   0.114   0.424   6.581  0.1997 -0.0692 -0.5100
 1078SOL    HW114693   0.201   0.465   6.578  0.2085  0.0112  0.7911
 1078SOL    HW214694   0.124   0.365   6.655 -0.4016 -2.1312 -2.0665
 1079SOL     OW14695   0.514   3.889   3.376 -0.3894 -0.0077 -0.2272
 1079SOL    HW114696   0.453   3.934   3.318 -1.0158  0.1645  0.5591
 1079SOL    HW214697   0.452   3.847   3.436  0.7996  1.9358  2.3986
 1080SOL     OW14698   4.094   0.431   9.067  1.0525 -0.3969  0.1784
 1080SOL    HW114699   4.049   0.484   9.002 -0.3790 -0.5368  1.0298
 1080SOL    HW214700   4.021   0.382   9.106 -0.5569  0.9318 -1.2000
 1081SOL     OW14701   0.063   0.182   0.827 -0.1356 -0.7922  0.9089
 1081SOL    HW114702   4.714   0.243   0.823  1.7058  1.4601  1.4081
 1081SOL    HW214703   0.101   0.184   0.739 -0.2441  4.3927  0.9847
 1082SOL     OW14704   4.001   2.708   3.254  0.3937  0.7847  0.3050
 1082SOL    HW114705   3.908   2.726   3.236  0.0597 -0.6779  0.5169
 1082SOL    HW214706   4.038   2.655   3.183  0.4292 -0.7244  1.4440
 1083SOL     OW14707   0.336   4.266   0.955 -0.0799  0.2031 -1.0845
 1083SOL    HW114708   0.325   4.171   0.953  0.4001  0.1485 -1.1806
 1083SOL    HW214709   0.414   4.266   0.899  1.9293  0.6145  1.6897
 1084SOL     OW14710   4.404   1.522   4.236 -0.4810 -0.1106 -0.4366
 1084SOL    HW114711   4.315   1.529   4.201 -0.3094  0.7645 -0.6804
 1084SOL    HW214712   4.442   1.444   4.194 -0.9025  0.6056 -2.1507
 1085SOL     OW14713   0.265   2.369  17.580  0.3601 -0.2658 -0.2374
 1085SOL    HW114714   0.320   2.352  17.504  0.5030 -1.8725  0.2368
 1085SOL    HW214715   0.222   2.284  17.587 -0.3328  0.1761  0.8237
 1086SOL     OW14716   3.923   0.740   2.816 -0.2272  0.0887  0.6299
 1086SOL    HW114717   3.995   0.783   2.862 -0.1188  2.0649 -1.4192
 1086SOL    HW214718   3.956   0.712   2.731  1.2101 -0.0611  1.2407
 1087SOL     OW14719   4.681   1.849  14.968  0.2576 -0.0065 -0.2105
 1087SOL    HW114720   4.700   1.837  14.875  1.6452 -0.7736  0.1816
 1087SOL    HW214721   0.019   1.786  15.003 -2.1110 -2.0845  0.2391
 1088SOL     OW14722   1.076   0.278   2.995 -0.2601  0.4308 -0.4096
 1088SOL    HW114723   1.145   0.263   3.060 -0.8559 -0.4079  0.0262
 1088SOL    HW214724   1.001   0.297   3.050 -0.9417 -0.1276 -1.1437
 1089SOL     OW14725   4.407   1.152   7.683  0.3202 -0.3600  0.6333
 1089SOL    HW114726   4.354   1.072   7.676  0.4291 -0.4700  1.0863
 1089SOL    HW214727   4.473   1.120   7.745  1.9393  2.6079  0.4112
 1090SOL     OW14728   1.221   3.935   7.955 -0.2070  0.5405 -0.0122
 1090SOL    HW114729   1.236   4.029   7.947 -0.1534  0.2606 -3.2474
 1090SOL    HW214730   1.240   3.901   7.868  0.9659 -0.3247  0.5768
 1091SOL     OW14731   2.602   0.213   7.069 -0.0158 -0.0980 -0.3932
 1091SOL    HW114732   2.626   0.301   7.098  1.3618 -0.7567  0.4787
 1091SOL    HW214733   2.583   0.163   7.148 -1.9009 -0.8876 -1.3373
 1092SOL     OW14734   2.753   4.415  15.649 -0.0534  0.5276 -0.6091
 1092SOL    HW114735   2.776   4.492  15.597  3.6972  1.0908  1.8692
 1092SOL    HW214736   2.838   4.389  15.684 -0.7313 -2.1263 -0.9418
 1093SOL     OW14737   3.737   4.017   3.405 -0.1188  0.2753 -0.5522
 1093SOL    HW114738   3.728   4.098   3.455 -0.3252 -0.7230  1.0269
 1093SOL    HW214739   3.698   4.035   3.319 -4.0647 -3.1647  0.5354
 1094SOL     OW14740   4.099   2.696   3.511  0.2799  0.4398 -0.5637
 1094SOL    HW114741   4.082   2.732   3.424 -1.6919 -1.2814 -0.8878
 1094SOL    HW214742   4.031   2.747   3.554 -1.8553 -2.0298 -1.0296
 1095SOL     OW14743   2.596   4.404  15.232 -0.1252 -0.8212  0.7108
 1095SOL    HW114744   2.640   4.373  15.311  0.9556  2.3095  1.3548
 1095SOL    HW214745   2.541   4.475  15.265 -1.4595 -1.3203 -0.4107
 1096SOL     OW14746   2.489   2.614   2.095 -0.3154 -0.6253  0.6990
 1096SOL    HW114747   2.558   2.561   2.135 -0.2758 -0.8890  0.2818
 1096SOL    HW214748   2.520   2.616   2.005  2.2823  3.3094  1.6557
 1097SOL     OW14749   2.183   3.375  10.336  0.2658 -0.0987  0.4016
 1097SOL    HW114750   2.188   3.279  10.343 -2.6211 -0.4865 -2.4032
 1097SOL    HW214751   2.254   3.405  10.392  0.2589  1.7358 -0.5610
 1098SOL     OW14752   2.296   1.195   5.843  0.7467 -0.2961  0.0573
 1098SOL    HW114753   2.242   1.153   5.776 -1.0995 -1.3098  2.1845
 1098SOL    HW214754   2.236   1.209   5.916 -0.0346  0.7377 -0.7913
 1099SOL     OW14755   2.909   0.745   5.369 -0.4317  0.2465 -0.0374
 1099SOL    HW114756   2.877   0.818   5.316 -0.8320  0.3037  0.2812
 1099SOL    HW214757   2.844   0.742   5.439 -1.5257 -1.1286 -1.1175
 1100SOL     OW14758   1.285   0.639  13.205  0.7828  0.4113  0.2340
 1100SOL    HW114759   1.209   0.672  13.158  1.3832 -0.2536 -1.2052
 1100SOL    HW214760   1.257   0.550  13.228 -0.2537 -0.2570 -3.6725
 1101SOL     OW14761   4.675   4.348  14.679  0.0822  0.1844 -0.2831
 1101SOL    HW114762   0.028   4.334  14.625  0.4322  0.3493  0.1644
 1101SOL    HW214763   4.610   4.300  14.628  0.1950  0.4398 -0.6671
 1102SOL     OW14764   3.592   1.578   7.450  0.9493 -0.4083 -0.0711
 1102SOL    HW114765   3.615   1.527   7.372 -0.2840 -0.7237 -0.2285
 1102SOL    HW214766   3.546   1.655   7.416 -0.2740 -0.5333  1.3143
 1103SOL     OW14767   3.768   1.529  10.156 -0.7057 -0.5897  0.2141
 1103SOL    HW114768   3.680   1.495  10.175 -0.9497 -0.0503  0.0496
 1103SOL    HW214769   3.762   1.622  10.176  2.3408 -0.0448 -1.4384
 1104SOL     OW14770   2.149   0.858   3.948 -0.3374 -0.1473 -0.3442
 1104SOL    HW114771   2.133   0.861   4.042 -0.5153  1.4488 -0.4245
 1104SOL    HW214772   2.073   0.804   3.926  1.6266 -1.4755 -3.8612
 1105SOL     OW14773   3.506   0.933   7.833  0.0404  0.0091  0.3908
 1105SOL    HW114774   3.423   0.925   7.787 -0.8461  1.6268  1.7241
 1105SOL    HW214775   3.529   0.841   7.843 -0.7672 -0.0205  1.9333
 1106SOL     OW14776   4.455   1.096   2.998  0.1551 -0.0020  0.3363
 1106SOL    HW114777   4.442   1.009   3.034  2.3263 -1.0323 -1.3279
 1106SOL    HW214778   4.459   1.150   3.076  1.3083 -1.0286  0.9774
 1107SOL     OW14779   3.949   2.546   5.457  0.2555 -0.1212 -0.5999
 1107SOL    HW114780   3.958   2.451   5.460 -0.0984 -0.1598 -0.7996
 1107SOL    HW214781   3.862   2.560   5.421 -0.3607 -0.6017  0.6851
 1108SOL     OW14782   3.490   1.720  14.100 -1.0117 -0.4174  0.2434
 1108SOL    HW114783   3.425   1.650  14.107  0.5815 -1.8674  0.7264
 1108SOL    HW214784   3.448   1.798  14.136 -2.0193 -1.3833  1.1630
 1109SOL     OW14785   2.504   2.182   3.295 -0.0486  0.1751 -0.5872
 1109SOL    HW114786   2.519   2.121   3.368  3.2907  0.5842 -0.9393
 1109SOL    HW214787   2.486   2.267   3.334  0.2756 -0.0596  0.0815
 1110SOL     OW14788   4.431   2.855   6.529  0.2249 -0.1154 -0.4250
 1110SOL    HW114789   4.346   2.892   6.553  0.2535 -0.8741  0.8270
 1110SOL    HW214790   4.474   2.936   6.500  0.8222  0.6323  2.6027
 1111SOL     OW14791   1.400   3.952   7.405 -0.4233 -0.2783 -0.2590
 1111SOL    HW114792   1.481   3.909   7.432  0.2570  0.8622 -0.4703
 1111SOL    HW214793   1.401   4.035   7.452 -0.8596  0.1852 -1.0596
 1112SOL     OW14794   1.948   2.961   8.571  0.0348 -0.6460 -0.6002
 1112SOL    HW114795   1.947   2.980   8.477  0.9750  2.5160  0.0075
 1112SOL    HW214796   1.949   2.866   8.570  0.7686 -0.6475  1.5816
 1113SOL     OW14797   1.033   1.472   1.857 -0.6821 -0.4196  0.2146
 1113SOL    HW114798   0.976   1.513   1.793  1.7292  0.0603 -1.6169
 1113SOL    HW214799   1.115   1.497   1.815 -0.4863  0.2685  1.0170
 1114SOL     OW14800   2.708   3.306   4.508 -0.9223  0.0441 -0.2195
 1114SOL    HW114801   2.784   3.355   4.539 -2.3200  1.1429  1.4444
 1114SOL    HW214802   2.710   3.227   4.562  0.0595  0.7943  0.8271
 1115SOL     OW14803   1.291   2.396   4.915 -0.2812 -0.0733  0.2771
 1115SOL    HW114804   1.297   2.342   4.836 -1.2096  2.2053 -1.3642
 1115SOL    HW214805   1.225   2.460   4.888  0.2297  0.1768 -0.3939
 1116SOL     OW14806   2.486   4.303   3.745  0.1000  0.3772 -0.1158
 1116SOL    HW114807   2.570   4.318   3.702  0.7184 -0.9221  0.6343
 1116SOL    HW214808   2.474   4.380   3.800  3.4268  0.7004  0.1648
 1117SOL     OW14809   4.020   0.715   4.905 -0.3296  0.0707 -0.5747
 1117SOL    HW114810   4.099   0.661   4.910 -0.1386  0.3161 -0.9161
 1117SOL    HW214811   3.970   0.648   4.857 -0.6110 -0.0411 -0.1292
 1118SOL     OW14812   2.239   0.622  10.083 -0.2690  0.0155  0.2698
 1118SOL    HW114813   2.247   0.617  10.178  0.6253 -1.7645  0.0975
 1118SOL    HW214814   2.300   0.550  10.067  0.1290  0.3694  0.1735
 1119SOL     OW14815   1.612   0.636   6.098  0.4709 -0.0687  0.0116
 1119SOL    HW114816   1.570   0.717   6.070  0.7562 -0.0630 -0.3955
 1119SOL    HW214817   1.566   0.621   6.181  2.4600 -1.7791  0.8213
 1120SOL     OW14818   1.491   0.837   3.695  0.0594 -0.6036  0.5531
 1120SOL    HW114819   1.532   0.922   3.675 -2.0446  0.5988  1.3622
 1120SOL    HW214820   1.453   0.850   3.782 -2.4997 -0.7686 -0.5283
 1121SOL     OW14821   2.968   1.458   0.244 -0.1341  0.2201  0.0663
 1121SOL    HW114822   2.902   1.468   0.175 -0.6057 -0.4979  0.4097
 1121SOL    HW214823   2.967   1.537   0.298  1.0184  0.8388 -0.8261
 1122SOL     OW14824   4.547   4.273   9.657 -0.0153  0.5307  0.3040
 1122SOL    HW114825   4.495   4.241   9.583 -1.0285  0.8985  0.8549
 1122SOL    HW214826   4.534   4.195   9.711  0.3779  0.8557  0.8624
 1123SOL     OW14827   3.172   0.357   9.950  0.6980 -0.0437 -0.2943
 1123SOL    HW114828   3.258   0.318   9.964 -0.0428 -0.9372  1.6390
 1123SOL    HW214829   3.121   0.289   9.994 -1.5270  1.0618 -1.1783
 1124SOL     OW14830   4.138   4.445   3.202 -0.0129 -0.1926  0.2161
 1124SOL    HW114831   4.082   4.427   3.277 -0.6724  1.3515  0.1078
 1124SOL    HW214832   4.074   4.442   3.130  0.5564 -1.4708 -0.2376
 1125SOL     OW14833   2.549   4.510  10.136 -0.2721 -0.0754 -0.1130
 1125SOL    HW114834   2.583   4.422  10.121  0.1790  0.2535 -0.9839
 1125SOL    HW214835   2.632   4.552  10.157 -0.7865 -0.1714  2.1759
 1126SOL     OW14836   3.592   2.969   5.584  0.0724  0.2363 -0.1019
 1126SOL    HW114837   3.672   2.985   5.634  0.1987 -2.4634  0.5752
 1126SOL    HW214838   3.543   3.041   5.623  0.4993  0.5480 -0.1421
 1127SOL     OW14839   0.167   0.262   8.139 -0.2344  0.2109 -0.1724
 1127SOL    HW114840   0.150   0.218   8.222  0.0841  1.8133  0.7352
 1127SOL    HW214841   0.261   0.248   8.134 -0.2657  0.0776 -0.3807
 1128SOL     OW14842   3.299   0.796   7.094  0.2280 -0.2967 -0.3808
 1128SOL    HW114843   3.319   0.859   7.025  1.6891 -0.3166  0.0152
 1128SOL    HW214844   3.335   0.844   7.169 -0.5144 -0.9721  0.4032
 1129SOL     OW14845   1.389   2.163   5.938 -0.4500  0.5484  0.7144
 1129SOL    HW114846   1.384   2.160   6.034  1.5318  1.4489  0.8592
 1129SOL    HW214847   1.449   2.091   5.922  0.3798  1.3932 -0.0262
 1130SOL     OW14848   1.597   0.283   6.748  0.5605 -0.1038  0.2972
 1130SOL    HW114849   1.564   0.196   6.727  0.9188 -0.7155  2.3011
 1130SOL    HW214850   1.617   0.261   6.839 -2.2796  0.7825  1.1606
 1131SOL     OW14851   0.552   1.918   7.579 -0.6360 -0.7151  0.7589
 1131SOL    HW114852   0.471   1.874   7.553 -0.7626  0.2895 -0.5791
 1131SOL    HW214853   0.540   1.944   7.670 -0.8373  0.7568  0.3103
 1132SOL     OW14854   4.308   2.549   8.049 -0.1970 -0.6079 -0.1426
 1132SOL    HW114855   4.292   2.557   7.955 -1.3930 -0.1570  0.0944
 1132SOL    HW214856   4.320   2.642   8.069 -1.1820 -0.7189  0.9464
 1133SOL     OW14857   2.299   3.754   5.576  0.4018  0.6945 -0.3079
 1133SOL    HW114858   2.332   3.690   5.513 -1.7715  0.8767 -1.6392
 1133SOL    HW214859   2.310   3.835   5.525 -0.4139  0.5302 -0.7322
 1134SOL     OW14860   1.708   2.470   7.918  0.2610 -0.3105  0.2177
 1134SOL    HW114861   1.762   2.484   7.997  3.5001  0.3737 -2.1083
 1134SOL    HW214862   1.752   2.534   7.863 -0.5071  0.3972  0.4356
 1135SOL     OW14863   1.167   2.267   7.539  0.4318 -0.1878 -0.3176
 1135SOL    HW114864   1.196   2.210   7.467 -0.6677  0.6222 -1.4023
 1135SOL    HW214865   1.241   2.252   7.598  0.2438  2.8439  0.6892
 1136SOL     OW14866   0.404   1.270   6.931  0.0538 -0.6944  0.3005
 1136SOL    HW114867   0.330   1.238   6.880  0.0333 -0.7230  0.3484
 1136SOL    HW214868   0.383   1.362   6.945 -0.0768 -0.5506 -0.8508
 1137SOL     OW14869   1.410   1.744  10.373 -0.2238 -0.0463 -0.0034
 1137SOL    HW114870   1.462   1.689  10.432 -1.0059 -0.5089  0.2506
 1137SOL    HW214871   1.334   1.746  10.431 -0.6667 -3.0518 -0.4991
 1138SOL     OW14872   1.089   0.200   3.273 -0.4531 -0.4701 -0.0566
 1138SOL    HW114873   1.000   0.176   3.301 -1.8281  2.1323 -2.2731
 1138SOL    HW214874   1.140   0.132   3.317 -0.5766 -1.0516 -0.8027
 1139SOL     OW14875   1.827   1.853   2.381 -0.0016  0.4079  0.7441
 1139SOL    HW114876   1.823   1.814   2.294 -0.1458 -1.3470  1.5412
 1139SOL    HW214877   1.895   1.921   2.379 -0.8462  1.2616  1.1189
 1140SOL     OW14878   2.953   4.675  12.982  0.2784 -0.0268  0.0197
 1140SOL    HW114879   3.022   0.011  13.006  1.8543 -1.7703 -0.0728
 1140SOL    HW214880   2.987   4.637  12.900 -2.0418 -3.1174  0.4869
 1141SOL     OW14881   3.977   1.542  14.705 -0.5365 -0.7515 -0.1773
 1141SOL    HW114882   3.949   1.537  14.614  0.5923 -2.2252 -0.4545
 1141SOL    HW214883   3.901   1.584  14.745  0.7567 -0.3690  1.8829
 1142SOL     OW14884   3.899   3.835   8.227  0.0229 -0.1377  0.2561
 1142SOL    HW114885   3.841   3.911   8.226  1.1318  0.7267  0.9726
 1142SOL    HW214886   3.885   3.799   8.315 -3.1451  0.0445 -0.1824
 1143SOL     OW14887   3.680   4.553   5.879  0.1682 -0.1286 -0.5510
 1143SOL    HW114888   3.711   4.632   5.836  0.2891 -0.0766 -0.3697
 1143SOL    HW214889   3.593   4.546   5.841 -0.0405 -1.6208  0.1672
 1144SOL     OW14890   0.022   4.596   4.674  0.5742  0.7634  0.2609
 1144SOL    HW114891   0.093   4.661   4.676  0.0436  1.3972 -1.2242
 1144SOL    HW214892   4.666   4.648   4.675  0.3005  0.3645 -1.7895
 1145SOL     OW14893   2.768   3.289   6.792  0.3682 -0.2362 -0.8422
 1145SOL    HW114894   2.695   3.344   6.766 -1.1902  0.0261  4.1101
 1145SOL    HW214895   2.804   3.259   6.709 -1.2390  0.4899 -1.7870
 1146SOL     OW14896   2.364   1.188  10.389  0.0742  0.2514 -0.0239
 1146SOL    HW114897   2.312   1.126  10.440 -0.7030  1.5191  0.7310
 1146SOL    HW214898   2.384   1.257  10.452  0.0534 -0.3113  0.6017
 1147SOL     OW14899   0.767   2.149   4.810 -0.2480  0.4919  0.7319
 1147SOL    HW114900   0.817   2.186   4.737 -2.5259  1.4946 -0.3148
 1147SOL    HW214901   0.730   2.228   4.849  1.2146  1.2538  0.5722
 1148SOL     OW14902   1.409   1.050  15.615  0.3502 -0.5448 -0.2016
 1148SOL    HW114903   1.406   0.979  15.551 -0.6921  0.0674 -0.8206
 1148SOL    HW214904   1.500   1.080  15.610  0.7690 -1.9528 -0.9048
 1149SOL     OW14905   1.092   3.552  11.375 -0.1650  0.4303  0.3591
 1149SOL    HW114906   1.117   3.641  11.350 -0.6132  0.7560  1.0609
 1149SOL    HW214907   1.180   3.523  11.400 -0.0173  1.1823  0.7123
 1150SOL     OW14908   3.712   1.804   6.953 -0.2467 -0.1562  0.3000
 1150SOL    HW114909   3.730   1.896   6.932 -0.7467  0.0346  0.7025
 1150SOL    HW214910   3.617   1.805   6.945 -0.1274  3.4426 -0.8163
 1151SOL     OW14911   1.482   2.999   0.269 -0.5349  0.1714  0.2698
 1151SOL    HW114912   1.467   2.981   0.177  1.2906  0.4120 -0.0664
 1151SOL    HW214913   1.577   3.010   0.271 -0.0833 -3.6740 -0.3291
 1152SOL     OW14914   2.063   0.047   7.566 -0.3639 -0.0054 -0.0362
 1152SOL    HW114915   2.129   4.703   7.559  0.1675  0.4139  0.9234
 1152SOL    HW214916   2.031   0.034   7.655  0.8090 -0.5975  0.2900
 1153SOL     OW14917   0.418   1.795  14.573  0.5306  0.4770 -0.5096
 1153SOL    HW114918   0.359   1.729  14.536 -0.3838  0.9581  0.1110
 1153SOL    HW214919   0.409   1.764  14.663 -1.6306  0.6908 -0.6533
 1154SOL     OW14920   0.671   1.031   7.445  0.0632 -0.7147  0.4064
 1154SOL    HW114921   0.576   1.032   7.452 -0.0074  2.5978 -0.7900
 1154SOL    HW214922   0.685   0.979   7.524 -0.1525  1.5534  1.9546
 1155SOL     OW14923   1.140   2.280   0.920  0.1862 -0.0549  0.0053
 1155SOL    HW114924   1.153   2.303   1.012 -1.8173  0.9697  0.0310
 1155SOL    HW214925   1.087   2.349   0.879  0.7697  0.1216 -0.4496
 1156SOL     OW14926   1.601   2.841   6.687 -0.6073 -0.4467 -0.3512
 1156SOL    HW114927   1.518   2.871   6.650 -0.0516  1.1405 -0.3312
 1156SOL    HW214928   1.578   2.811   6.775  2.5757  0.9828  0.9871
 1157SOL     OW14929   4.451   4.023   7.034  0.2242  0.3665  0.4194
 1157SOL    HW114930   4.476   4.100   6.982 -0.5421  0.9015  0.8306
 1157SOL    HW214931   4.480   4.044   7.123  2.2178 -0.7887  0.0176
 1158SOL     OW14932   2.855   0.574   3.234  0.6950  0.4169  0.3662
 1158SOL    HW114933   2.784   0.557   3.171  0.9585 -3.0390  1.0098
 1158SOL    HW214934   2.793   0.598   3.303  0.8982  0.8735  0.3894
 1159SOL     OW14935   0.078   4.060   6.682 -0.3547 -0.9439  0.6806
 1159SOL    HW114936   0.003   4.002   6.671  1.4083 -2.9358 -0.8475
 1159SOL    HW214937   0.153   4.017   6.640  0.2602 -0.4903  1.2971
 1160SOL     OW14938   3.416   2.046   4.192 -0.1309  0.3795 -0.0690
 1160SOL    HW114939   3.420   2.106   4.117 -0.7026  1.7141  0.9624
 1160SOL    HW214940   3.426   1.961   4.150 -1.1396 -0.4734  1.4220
 1161SOL     OW14941   1.260   1.849  17.594 -0.5344  0.3392  0.3151
 1161SOL    HW114942   1.283   1.790  17.665  0.8444  1.3299  0.6844
 1161SOL    HW214943   1.174   1.817  17.565  0.1859 -1.2495 -0.0240
 1162SOL     OW14944   0.902   0.912   0.999 -0.4258 -0.4154  0.1837
 1162SOL    HW114945   0.878   0.867   1.079  1.5159  2.8742  2.6246
 1162SOL    HW214946   0.984   0.956   1.021 -0.5276  0.2075 -0.6647
 1163SOL     OW14947   2.451   2.482   4.404  0.3536 -0.1345  0.5810
 1163SOL    HW114948   2.392   2.544   4.447  0.4172  1.7411 -2.0528
 1163SOL    HW214949   2.397   2.404   4.419 -1.0416  0.8367  0.4893
 1164SOL     OW14950   4.224   3.302   2.970  0.1069  0.4246  0.2356
 1164SOL    HW114951   4.139   3.257   2.969  0.7530 -0.7934  1.0328
 1164SOL    HW214952   4.264   3.281   2.886  0.2682 -2.2175  0.9710
 1165SOL     OW14953   4.688   3.627   8.467  0.1387 -0.2006 -0.2325
 1165SOL    HW114954   4.623   3.685   8.428 -1.7334 -0.5384  2.3434
 1165SOL    HW214955   4.630   3.591   8.534 -0.8278  2.5665  0.3985
 1166SOL     OW14956   2.889   3.455   4.256  0.4713  0.4438 -0.0638
 1166SOL    HW114957   2.822   3.394   4.227 -0.1550  2.0176 -1.8921
 1166SOL    HW214958   2.859   3.535   4.213 -1.2133  0.4077  1.0276
 1167SOL     OW14959   4.722   0.640   4.884  0.4977  0.1343  0.3247
 1167SOL    HW114960   0.091   0.658   4.872  0.8068 -0.4528  1.7964
 1167SOL    HW214961   4.712   0.662   4.977 -0.5242 -0.8643  0.4376
 1168SOL     OW14962   2.643   4.240  10.590  0.1199  0.2603 -0.0905
 1168SOL    HW114963   2.656   4.164  10.646  1.6306  0.7375  0.1981
 1168SOL    HW214964   2.548   4.234  10.595  0.1200 -0.6208 -0.9748
 1169SOL     OW14965   4.323   4.364   8.422  0.3517 -0.1793 -0.0993
 1169SOL    HW114966   4.390   4.315   8.471  0.5703  0.9040  0.6794
 1169SOL    HW214967   4.346   4.334   8.334 -0.0150 -0.3278 -0.1461
 1170SOL     OW14968   3.366   2.149  16.491 -0.3927  0.1174  0.3859
 1170SOL    HW114969   3.336   2.085  16.556 -2.6344  0.2457 -0.5202
 1170SOL    HW214970   3.370   2.090  16.415 -0.9411 -1.8300  1.8534
 1171SOL     OW14971   2.167   2.868   6.515 -0.4965  0.1883  0.2053
 1171SOL    HW114972   2.218   2.921   6.454 -0.3862 -1.0263 -0.7501
 1171SOL    HW214973   2.192   2.779   6.493  0.5393  1.3064 -3.0159
 1172SOL     OW14974   2.179   3.458   1.917  0.2247 -0.0761 -0.2766
 1172SOL    HW114975   2.192   3.388   1.853 -2.5183 -1.5509  0.8100
 1172SOL    HW214976   2.141   3.413   1.992 -0.3562  1.9437  0.6232
 1173SOL     OW14977   1.814   2.236   0.490  0.8297 -0.2211  0.3613
 1173SOL    HW114978   1.787   2.304   0.427 -0.2757 -0.1749  0.8912
 1173SOL    HW214979   1.866   2.289   0.550  0.7947 -0.6741  0.7862
 1174SOL     OW14980   2.896   1.480   4.048 -0.5181  0.2362  0.0111
 1174SOL    HW114981   2.872   1.406   3.993  1.5548 -1.1989  0.9951
 1174SOL    HW214982   2.954   1.530   3.990  0.5209  0.2367  1.0444
 1175SOL     OW14983   0.469   0.102   6.422 -0.2510 -0.7029  0.0112
 1175SOL    HW114984   0.494   0.142   6.339 -0.9391 -2.6440 -1.1364
 1175SOL    HW214985   0.510   0.015   6.422 -0.8502 -0.9916  0.9048
 1176SOL     OW14986   3.009   0.945   4.783 -0.4255 -0.3786  0.4287
 1176SOL    HW114987   3.015   0.958   4.688 -2.4777  2.6065  0.7284
 1176SOL    HW214988   3.096   0.970   4.815 -0.2938  2.6378 -2.2512
 1177SOL     OW14989   4.314   1.735   2.446 -0.5878  0.7850  0.1905
 1177SOL    HW114990   4.367   1.677   2.391  0.2615  0.5082  1.2909
 1177SOL    HW214991   4.249   1.772   2.388  1.2506  1.9662 -1.1101
 1178SOL     OW14992   2.474   3.980   2.518  0.0282 -0.7535 -0.0267
 1178SOL    HW114993   2.487   3.975   2.613 -1.7356 -1.6147  0.1689
 1178SOL    HW214994   2.558   4.022   2.497 -0.7678  1.1931  0.7298
 1179SOL     OW14995   3.711   1.438  11.576  0.1529 -0.6871 -0.9828
 1179SOL    HW114996   3.644   1.433  11.644  0.7548 -2.0527 -0.5001
 1179SOL    HW214997   3.703   1.530  11.550 -0.6875 -0.4778  0.0156
 1180SOL     OW14998   3.192   4.154   0.088 -0.2400 -0.3036 -0.6658
 1180SOL    HW114999   3.181   4.101   0.167 -0.0329 -3.4486 -2.7656
 1180SOL    HW215000   3.121   4.119   0.035  0.1764 -0.2426 -1.2587
 1181SOL     OW15001   2.617   4.472   1.649  0.4551  0.4659  0.2527
 1181SOL    HW115002   2.548   4.477   1.583  2.9546 -0.6180 -2.4526
 1181SOL    HW215003   2.693   4.436   1.604  0.6838 -0.5708  1.4590
 1182SOL     OW15004   1.760   1.580   6.485 -0.3662  0.8054  0.3505
 1182SOL    HW115005   1.745   1.513   6.551  0.3726  1.5918  1.3176
 1182SOL    HW215006   1.671   1.587   6.450 -0.4234 -1.4351  0.0479
 1183SOL     OW15007   0.323   0.257   3.696 -0.1542  0.1403 -0.0596
 1183SOL    HW115008   0.390   0.197   3.663  0.0181 -0.9008  2.1795
 1183SOL    HW215009   0.291   0.284   3.609 -1.7489  1.6670  0.9976
 1184SOL     OW15010   0.547   3.480   6.665  0.3820  0.3818 -0.4057
 1184SOL    HW115011   0.555   3.438   6.580  2.4469  0.7393 -0.3779
 1184SOL    HW215012   0.529   3.408   6.725 -0.7405 -0.4599 -1.7517
 1185SOL     OW15013   4.506   0.327  14.491 -0.6824 -0.1000  0.3851
 1185SOL    HW115014   4.479   0.336  14.400 -2.9235 -1.7281  0.9044
 1185SOL    HW215015   4.425   0.347  14.538 -0.2094  1.0684  0.7138
 1186SOL     OW15016   4.508   4.096   4.245  0.3017 -0.0908  0.1149
 1186SOL    HW115017   4.585   4.087   4.187  1.7533 -1.5902  2.2599
 1186SOL    HW215018   4.549   4.136   4.321  0.7641  2.0777 -1.2706
 1187SOL     OW15019   3.432   1.815   7.373 -0.3203 -1.0840  0.3504
 1187SOL    HW115020   3.485   1.881   7.417 -1.0303  0.5794 -1.3012
 1187SOL    HW215021   3.371   1.866   7.320  1.1757 -0.3544 -0.6808
 1188SOL     OW15022   0.637   0.716  14.789  0.3863 -0.1027  0.6844
 1188SOL    HW115023   0.574   0.747  14.724  0.3146 -0.6946  0.4729
 1188SOL    HW215024   0.670   0.640  14.741 -1.0255  0.2927 -0.9042
 1189SOL     OW15025   1.164   0.370   6.572  0.3120  0.4936  0.3670
 1189SOL    HW115026   1.122   0.287   6.548  0.6327  0.4967 -0.2202
 1189SOL    HW215027   1.198   0.343   6.656 -0.3086 -2.5332 -0.3565
 1190SOL     OW15028   4.402   1.071  11.912 -0.4270  0.1170 -0.4784
 1190SOL    HW115029   4.414   0.984  11.949  0.0807  1.7132  3.1090
 1190SOL    HW215030   4.345   1.114  11.976  1.1357 -0.1040  1.0350
 1191SOL     OW15031   3.882   1.885  13.435  0.3629 -0.0592 -0.3887
 1191SOL    HW115032   3.824   1.883  13.358  2.0637  0.5708 -1.6757
 1191SOL    HW215033   3.965   1.857  13.398  1.2168  3.0144 -0.7553
 1192SOL     OW15034   3.137   3.595   8.512 -0.3447 -0.0597 -0.2650
 1192SOL    HW115035   3.182   3.642   8.582  2.4154 -1.8441 -0.8460
 1192SOL    HW215036   3.215   3.568   8.463  0.3285  1.7759 -0.2115
 1193SOL     OW15037   0.481   1.677  15.105  0.2414 -0.4925  0.0165
 1193SOL    HW115038   0.574   1.694  15.116  0.4723 -1.4171 -0.5594
 1193SOL    HW215039   0.445   1.705  15.190  0.9194  0.4009  0.0043
 1194SOL     OW15040   1.640   0.140   0.838 -0.0090  0.2371  0.7185
 1194SOL    HW115041   1.707   0.072   0.838  0.0881  0.3399 -2.6135
 1194SOL    HW215042   1.683   0.221   0.868  1.5360 -0.3572  0.1055
 1195SOL     OW15043   1.822   4.124  10.237  0.0657 -0.3105 -0.4643
 1195SOL    HW115044   1.799   4.055  10.299  1.6876 -0.7371 -0.3386
 1195SOL    HW215045   1.886   4.178  10.283  0.7333 -0.3981 -1.2847
 1196SOL     OW15046   2.549   3.973  11.677 -0.2916  0.0668 -0.2989
 1196SOL    HW115047   2.529   3.907  11.610  0.8300  0.6883 -1.2296
 1196SOL    HW215048   2.643   3.981  11.689 -0.2042 -1.4096  0.0737
 1197SOL     OW15049   0.141   0.820   0.530 -0.4357 -0.5236  0.0118
 1197SOL    HW115050   0.056   0.776   0.518 -1.2742  0.8718  0.8584
 1197SOL    HW215051   0.116   0.863   0.612 -0.0248 -0.2099 -0.0300
 1198SOL     OW15052   4.006   1.771   5.907 -0.0544 -0.0780 -0.0578
 1198SOL    HW115053   4.066   1.737   5.973  0.5282 -0.2328 -0.6686
 1198SOL    HW215054   4.026   1.864   5.905 -1.2847  0.1010 -4.3146
 1199SOL     OW15055   1.073   0.344   5.061  0.4279 -0.4891  0.4691
 1199SOL    HW115056   1.075   0.398   4.982  0.2077 -0.5670  0.4089
 1199SOL    HW215057   1.094   0.265   5.011 -1.9713 -1.2312  0.6391
 1200SOL     OW15058   0.825   4.050  15.939  0.6744 -0.6150 -0.6898
 1200SOL    HW115059   0.883   4.122  15.962  1.2081 -0.8343 -1.3385
 1200SOL    HW215060   0.850   3.984  16.003 -2.8958 -1.2525  0.0877
 1201SOL     OW15061   3.397   1.394   0.563  0.1511  0.1125 -0.2483
 1201SOL    HW115062   3.310   1.354   0.565  1.5840 -3.0293 -0.7986
 1201SOL    HW215063   3.424   1.384   0.472  0.3913 -1.3513 -0.0164
 1202SOL     OW15064   0.969   0.465  11.937  0.1630  0.4676  0.1848
 1202SOL    HW115065   0.951   0.425  12.022 -0.1686 -1.2876 -0.6966
 1202SOL    HW215066   0.935   0.553  11.952 -1.3594 -0.3990  1.7707
 1203SOL     OW15067   4.524   4.151  14.165  0.0468  0.5358  0.0038
 1203SOL    HW115068   4.509   4.241  14.193  1.0674  0.8391 -0.3911
 1203SOL    HW215069   4.445   4.139  14.113  0.4633 -1.5024 -0.1534
 1204SOL     OW15070   3.651   0.274   2.629  0.3951  0.2559 -0.3767
 1204SOL    HW115071   3.607   0.190   2.620  0.3592  0.0984  1.1780
 1204SOL    HW215072   3.739   0.238   2.643 -0.7423 -2.7456 -1.0017
 1205SOL     OW15073   2.149   2.436   8.601 -0.8312  0.0897 -0.0300
 1205SOL    HW115074   2.164   2.368   8.667 -0.4367 -0.7730 -1.0214
 1205SOL    HW215075   2.216   2.498   8.632  0.6288 -2.9190  2.8569
 1206SOL     OW15076   2.234   4.084   8.872  0.2573 -0.2016 -0.1576
 1206SOL    HW115077   2.260   4.135   8.795 -0.1586 -1.0516 -0.8581
 1206SOL    HW215078   2.192   4.008   8.833 -0.8595  0.8994 -1.1125
 1207SOL     OW15079   3.411   2.996   3.991  0.5366  0.1588  0.2355
 1207SOL    HW115080   3.404   3.022   3.899 -0.2917 -0.4653  0.1319
 1207SOL    HW215081   3.437   3.076   4.038  4.0932 -0.3041 -0.9228
 1208SOL     OW15082   1.308   2.993   2.592 -0.1396  0.1714 -0.4207
 1208SOL    HW115083   1.260   3.069   2.627  2.3118  0.9249  1.3474
 1208SOL    HW215084   1.314   3.024   2.502 -0.2566 -0.9024 -0.7906
 1209SOL     OW15085   4.369   2.262   9.921  0.2943 -0.8475 -0.1677
 1209SOL    HW115086   4.438   2.326   9.904  1.8668 -2.7934 -1.0698
 1209SOL    HW215087   4.374   2.204   9.845  0.5751 -0.1688 -0.6640
 1210SOL     OW15088   4.272   3.805   4.049 -0.8037  0.5162  0.0822
 1210SOL    HW115089   4.342   3.776   4.107 -0.0361  0.8707 -0.6679
 1210SOL    HW215090   4.252   3.719   4.013  0.5197  0.8478 -1.4286
 1211SOL     OW15091   2.003   4.013   6.374 -0.2027  0.0565 -0.6892
 1211SOL    HW115092   2.069   3.945   6.356 -1.5140 -1.1373 -0.9531
 1211SOL    HW215093   1.925   3.959   6.369 -0.9691  0.7485  4.0262
 1212SOL     OW15094   4.119   4.512   4.249  0.0925  0.0962 -0.2000
 1212SOL    HW115095   4.164   4.597   4.251  2.3209 -1.0599 -1.5514
 1212SOL    HW215096   4.185   4.460   4.294 -1.2145  0.5937  2.3103
 1213SOL     OW15097   3.264   4.645   3.268  0.1225  0.6086 -0.6150
 1213SOL    HW115098   3.277   4.572   3.208  0.0472 -0.3381  0.5205
 1213SOL    HW215099   3.354   4.669   3.289  0.5105  0.5255 -2.1482
 1214SOL     OW15100   3.644   1.497   3.217 -0.4111  0.2272 -0.1910
 1214SOL    HW115101   3.678   1.525   3.132 -0.8688 -0.9557 -0.7618
 1214SOL    HW215102   3.585   1.573   3.226  0.5005  1.2171 -2.5839
 1215SOL     OW15103   0.128   1.981   4.762 -0.5637  0.2794 -0.0077
 1215SOL    HW115104   0.120   1.952   4.852  1.0995 -1.6246 -0.4484
 1215SOL    HW215105   0.212   1.939   4.742 -0.8093 -0.3468  0.2740
 1216SOL     OW15106   4.187   3.468   8.043 -0.0124  0.6313  0.5297
 1216SOL    HW115107   4.120   3.518   8.090 -1.2235 -2.1141  1.7094
 1216SOL    HW215108   4.208   3.407   8.114  1.0359 -0.3698 -0.6328
 1217SOL     OW15109   1.442   3.107   6.983  0.2062  0.1449  0.4280
 1217SOL    HW115110   1.509   3.054   7.028  0.0127  0.1953  0.7745
 1217SOL    HW215111   1.496   3.179   6.951 -0.8317 -0.1750 -2.0198
 1218SOL     OW15112   1.680   1.260   8.725  0.0201  0.2200  0.3917
 1218SOL    HW115113   1.731   1.249   8.645 -0.3223  0.0261  0.2008
 1218SOL    HW215114   1.592   1.236   8.695 -0.9414  1.4935  2.2009
 1219SOL     OW15115   3.192   3.230   7.258 -0.3475  0.5216  0.0171
 1219SOL    HW115116   3.097   3.243   7.250 -0.2111  1.3792 -0.1568
 1219SOL    HW215117   3.193   3.140   7.225 -0.6199  0.8020 -0.7419
 1220SOL     OW15118   4.677   1.133  12.603  0.0721  0.0583 -0.0826
 1220SOL    HW115119   4.586   1.148  12.579  0.8824  3.3783 -1.2330
 1220SOL    HW215120   4.716   1.090  12.527 -0.9469  0.8883 -1.0794
 1221SOL     OW15121   1.325   0.883  10.603  0.1330 -0.1120 -0.3495
 1221SOL    HW115122   1.416   0.880  10.633  0.2331 -0.2385 -0.6711
 1221SOL    HW215123   1.343   0.854  10.514 -0.4118 -2.4085  0.3012
 1222SOL     OW15124   1.472   1.985  13.619 -0.1757 -0.2497  0.6424
 1222SOL    HW115125   1.417   1.945  13.686  0.2525  0.3424  1.3523
 1222SOL    HW215126   1.506   2.061  13.667 -0.2628 -0.2717  0.7385
 1223SOL     OW15127   4.170   0.989   4.749 -0.9039  0.2599  0.7408
 1223SOL    HW115128   4.250   0.975   4.801 -1.0134 -0.0450  0.8269
 1223SOL    HW215129   4.167   0.903   4.707  0.8180  0.6011 -0.0910
 1224SOL     OW15130   1.537   2.936   5.866 -0.1571 -0.5155 -0.1458
 1224SOL    HW115131   1.462   2.994   5.878  1.0301  1.1830 -0.9743
 1224SOL    HW215132   1.498   2.849   5.856  1.1416 -1.1622  0.3219
 1225SOL     OW15133   0.015   2.588   2.883  0.2446 -0.7306 -0.0756
 1225SOL    HW115134   4.661   2.543   2.915  1.1565 -0.4820  2.4922
 1225SOL    HW215135   0.027   2.541   2.800 -0.6132 -0.6297 -0.2583
 1226SOL     OW15136   3.232   1.101   3.282 -0.1995 -0.5372 -0.3127
 1226SOL    HW115137   3.163   1.127   3.221 -1.1839  0.0340  1.0539
 1226SOL    HW215138   3.211   1.008   3.278 -0.3264 -0.4650 -1.4073
 1227SOL     OW15139   3.102   0.618   3.117  0.1140  0.5875 -0.1983
 1227SOL    HW115140   3.057   0.648   3.038 -0.6303  1.9203  0.7353
 1227SOL    HW215141   3.037   0.641   3.184  3.0498  1.7833  2.2324
 1228SOL     OW15142   3.130   2.330   9.109  0.4122  0.1131 -0.2127
 1228SOL    HW115143   3.107   2.384   9.184 -2.5327 -2.7601  0.9586
 1228SOL    HW215144   3.169   2.255   9.154 -0.4904 -0.2575 -0.0541
 1229SOL     OW15145   1.412   1.988   3.101  0.3829 -0.6321  0.5912
 1229SOL    HW115146   1.390   2.065   3.049  2.2360 -0.7177 -0.3325
 1229SOL    HW215147   1.334   1.977   3.156  0.3232  1.0753  0.8373
 1230SOL     OW15148   3.026   2.544  10.037 -0.1918 -0.2821 -0.1731
 1230SOL    HW115149   3.063   2.609  10.097  0.9831 -1.5986  0.5208
 1230SOL    HW215150   2.933   2.568  10.033 -0.0054  0.3488 -0.7265
 1231SOL     OW15151   0.053   2.280   7.992  0.3161 -0.0185  0.6999
 1231SOL    HW115152   0.035   2.302   8.083  0.6493  0.3794  0.6650
 1231SOL    HW215153   4.705   2.321   7.945  0.0044 -2.9423 -1.3689
 1232SOL     OW15154   4.706   0.316   9.032  0.5804 -0.1643  0.0357
 1232SOL    HW115155   4.712   0.254   9.105  1.8330 -3.3080 -2.7242
 1232SOL    HW215156   0.026   0.261   8.968  1.5736  2.7207 -1.7482
 1233SOL     OW15157   3.099   3.129   7.530 -0.0434 -0.3735  0.0318
 1233SOL    HW115158   3.024   3.074   7.507 -0.2645  0.2758 -0.7982
 1233SOL    HW215159   3.071   3.208   7.484 -1.4118 -0.6880  0.3018
 1234SOL     OW15160   2.324   1.738   4.451  0.2604  0.0120  0.2324
 1234SOL    HW115161   2.247   1.739   4.507 -0.7517  1.1177 -1.1727
 1234SOL    HW215162   2.329   1.645   4.426 -0.4183  0.5916 -2.0949
 1235SOL     OW15163   1.683   2.401   9.294 -0.2213  0.1788  0.3593
 1235SOL    HW115164   1.740   2.468   9.332 -0.6235  0.6913  0.0525
 1235SOL    HW215165   1.714   2.327   9.347  1.7575 -0.6250 -1.8968
 1236SOL     OW15166   2.700   2.183   2.713 -0.1139 -0.0657 -0.7777
 1236SOL    HW115167   2.711   2.124   2.787  0.4124 -0.0009 -0.8005
 1236SOL    HW215168   2.790   2.203   2.687  0.4705  0.6461  1.8188
 1237SOL     OW15169   0.556   0.428  11.048  0.1126  0.3568 -1.0609
 1237SOL    HW115170   0.641   0.471  11.063  0.0496  0.7060 -1.7394
 1237SOL    HW215171   0.516   0.494  10.992 -1.0920  0.5878  0.0920
 1238SOL     OW15172   3.463   3.942   6.486  0.1501  0.1334  0.3600
 1238SOL    HW115173   3.407   4.010   6.523 -2.3671 -2.2056  0.7989
 1238SOL    HW215174   3.437   3.942   6.394  2.4551  3.1144 -0.3115
 1239SOL     OW15175   3.325   1.953   2.763  0.2989 -0.2089 -0.2411
 1239SOL    HW115176   3.383   1.885   2.728 -0.8695 -0.6854 -1.2490
 1239SOL    HW215177   3.266   1.972   2.691 -1.3222  0.6654  1.3222
 1240SOL     OW15178   2.563   0.402   5.525 -0.5590  0.0605  0.2433
 1240SOL    HW115179   2.608   0.329   5.568  1.6594  0.0747 -2.1048
 1240SOL    HW215180   2.607   0.389   5.442  1.0544 -1.4284  1.3200
 1241SOL     OW15181   3.814   1.680   4.695 -0.1079  0.0525  0.0966
 1241SOL    HW115182   3.736   1.735   4.687  0.1008  0.6209  2.1639
 1241SOL    HW215183   3.813   1.639   4.608  0.8278 -1.2083  0.6734
 1242SOL     OW15184   0.871   3.196   2.581  0.2920  0.1146 -0.2025
 1242SOL    HW115185   0.779   3.202   2.608  0.7916 -2.0945  1.9866
 1242SOL    HW215186   0.862   3.179   2.488 -0.0712 -1.1538  0.0634
 1243SOL     OW15187   2.878   4.126   6.215 -0.0944 -0.0857 -0.2721
 1243SOL    HW115188   2.957   4.094   6.259  0.1150 -0.3800 -0.8662
 1243SOL    HW215189   2.855   4.054   6.157 -1.1858  0.9248 -1.1154
 1244SOL     OW15190   4.156   4.162   4.886 -0.0849 -0.5649  0.3978
 1244SOL    HW115191   4.196   4.161   4.973 -0.2297 -0.2309  0.4694
 1244SOL    HW215192   4.161   4.254   4.862 -1.4776  0.2598  3.2440
 1245SOL     OW15193   1.945   0.243   8.898  0.0623  0.3587 -0.0982
 1245SOL    HW115194   1.968   0.172   8.957  0.3937  0.8724  0.3860
 1245SOL    HW215195   2.006   0.314   8.921  1.6895 -1.2336  0.5278
 1246SOL     OW15196   0.112   2.808   2.348  0.5599  0.3102  0.8201
 1246SOL    HW115197   0.128   2.842   2.436  1.4715  2.2329 -0.0659
 1246SOL    HW215198   0.023   2.776   2.341  0.2268  1.2732  0.6067
 1247SOL     OW15199   2.350   0.792   3.788  0.3124 -0.0813  0.1725
 1247SOL    HW115200   2.322   0.704   3.765  1.8440 -0.4511 -0.3054
 1247SOL    HW215201   2.284   0.827   3.848 -0.3028 -0.1617 -0.4668
 1248SOL     OW15202   2.212   3.808   6.725  0.0635  0.4474 -0.6028
 1248SOL    HW115203   2.133   3.760   6.749 -1.1402  2.2405 -0.9711
 1248SOL    HW215204   2.267   3.787   6.800 -1.4480  1.4234  0.7526
 1249SOL     OW15205   3.953   4.238   7.388  0.3763 -0.3169  0.5497
 1249SOL    HW115206   4.046   4.216   7.395  0.7830  2.3404  3.6836
 1249SOL    HW215207   3.921   4.173   7.326  1.1213  0.2607 -0.4441
 1250SOL     OW15208   1.513   3.300   7.323  0.7565  0.1811  0.5069
 1250SOL    HW115209   1.567   3.272   7.397  0.5589  2.6097  1.5696
 1250SOL    HW215210   1.435   3.246   7.338  1.2379 -0.4203  0.8434
 1251SOL     OW15211   3.356   0.161   2.874  0.0210 -0.4134  0.1957
 1251SOL    HW115212   3.319   0.168   2.962 -1.0434 -1.6251 -0.1440
 1251SOL    HW215213   3.278   0.176   2.820  0.8247  0.8638 -0.6227
 1252SOL     OW15214   3.788   3.364  10.151  0.1689 -0.2114 -0.0582
 1252SOL    HW115215   3.747   3.449  10.165 -0.6041 -0.6498  0.3273
 1252SOL    HW215216   3.755   3.307  10.220  1.7120  1.1617  1.8353
 1253SOL     OW15217   1.180   0.392   2.782 -0.3830 -0.2946 -0.5336
 1253SOL    HW115218   1.136   0.346   2.854  0.0964 -0.4921 -0.3650
 1253SOL    HW215219   1.254   0.432   2.826 -2.9050  2.1814  1.4855
 1254SOL     OW15220   1.428   3.596   7.529 -0.2634 -0.0459 -0.5188
 1254SOL    HW115221   1.335   3.584   7.550 -0.1697  1.1487  0.5691
 1254SOL    HW215222   1.464   3.592   7.618 -1.9674 -1.4760  0.1302
 1255SOL     OW15223   2.741   0.392   5.303 -1.1360  0.2232  0.3964
 1255SOL    HW115224   2.747   0.313   5.250 -0.3065  1.1828 -0.9390
 1255SOL    HW215225   2.827   0.429   5.288 -0.6854 -0.5128  1.1868
 1256SOL     OW15226   0.201   0.073   7.136  0.2176  0.2762  0.1309
 1256SOL    HW115227   0.138   0.005   7.114 -0.8403  1.7110 -1.3175
 1256SOL    HW215228   0.194   0.076   7.232 -1.5171 -1.3792  0.0372
 1257SOL     OW15229   2.101   0.396   8.509  0.0078 -0.8855  0.1253
 1257SOL    HW115230   2.159   0.441   8.571  0.2447  0.8357 -1.3529
 1257SOL    HW215231   2.157   0.352   8.445  1.4646  0.5217  0.4287
 1258SOL     OW15232   4.213   1.498  14.821 -0.6899  0.3186 -0.3774
 1258SOL    HW115233   4.127   1.520  14.786 -1.5992 -0.8558  1.1294
 1258SOL    HW215234   4.202   1.404  14.830 -1.7914  0.3356 -1.5871
 1259SOL     OW15235   2.836   4.652  11.386 -0.2861 -0.0677 -0.5461
 1259SOL    HW115236   2.745   4.649  11.417 -0.0658 -1.3096 -0.0151
 1259SOL    HW215237   2.822   4.659  11.292  1.5226  0.6559 -0.7547
 1260SOL     OW15238   2.482   4.622  11.055  0.2642 -0.5765  0.4126
 1260SOL    HW115239   2.575   4.641  11.043  0.6133 -1.4407  1.7683
 1260SOL    HW215240   2.460   4.685  11.124 -0.3818 -0.2502 -0.0831
 1261SOL     OW15241   0.636   2.163   6.308 -0.1749 -0.5750 -0.3593
 1261SOL    HW115242   0.593   2.236   6.263 -1.8551 -0.7032  1.0060
 1261SOL    HW215243   0.637   2.198   6.398 -1.0872  0.0828 -0.6028
 1262SOL     OW15244   2.272   3.718   7.281 -0.0927  0.2753 -0.1487
 1262SOL    HW115245   2.315   3.648   7.233 -0.6282  0.2787 -0.6307
 1262SOL    HW215246   2.303   3.801   7.244 -0.9026  0.3742 -0.5764
 1263SOL     OW15247   4.520   3.617   2.568  0.8912 -0.0935 -0.1659
 1263SOL    HW115248   4.554   3.598   2.481 -1.4665  2.8699 -1.7510
 1263SOL    HW215249   4.428   3.618   2.543  1.0538 -2.0721 -0.7981
 1264SOL     OW15250   2.506   1.948   9.727  0.4241 -0.0650 -0.4493
 1264SOL    HW115251   2.468   1.863   9.706 -1.4820  0.3102  1.4409
 1264SOL    HW215252   2.463   1.955   9.812  0.4968 -3.1315 -0.1725
 1265SOL     OW15253   4.488   1.877   3.875 -0.4964 -0.8244 -0.2297
 1265SOL    HW115254   4.396   1.896   3.888  0.0393  1.7533 -0.1993
 1265SOL    HW215255   4.514   1.811   3.939  0.0219  1.3987  1.8829
 1266SOL     OW15256   0.604   0.498   3.483  0.1063 -0.4816  0.4159
 1266SOL    HW115257   0.555   0.562   3.535 -0.2816  0.2345 -0.8374
 1266SOL    HW215258   0.536   0.432   3.473 -0.6350  0.0369  2.0896
 1267SOL     OW15259   2.681   2.931   6.964  0.1034 -0.2416  0.3116
 1267SOL    HW115260   2.736   2.958   7.037  0.4087  1.3887 -0.5143
 1267SOL    HW215261   2.623   2.881   7.022 -1.8023  2.1748  0.4857
 1268SOL     OW15262   4.377   1.653   4.493 -0.0620 -0.3720  0.4769
 1268SOL    HW115263   4.288   1.619   4.497  0.8143 -2.7187  0.3501
 1268SOL    HW215264   4.414   1.614   4.414  2.5497  0.1182  1.4404
 1269SOL     OW15265   3.116   0.008   1.999  0.2266  0.1251  0.5551
 1269SOL    HW115266   3.074   0.047   1.923 -0.7122  2.5008  2.2780
 1269SOL    HW215267   3.113   4.642   1.967 -2.2838  0.3441  0.1727
 1270SOL     OW15268   3.129   3.590   2.803 -0.1760 -0.9997 -0.3189
 1270SOL    HW115269   3.034   3.585   2.798 -0.1891 -0.8733 -0.1979
 1270SOL    HW215270   3.159   3.512   2.849  0.0176 -0.8172 -0.1380
 1271SOL     OW15271   0.471   0.900   2.876  0.0046 -0.1260  0.6542
 1271SOL    HW115272   0.487   0.886   2.783 -1.1469  0.8010  0.3231
 1271SOL    HW215273   0.408   0.968   2.898 -0.2730  0.0913 -0.8713
 1272SOL     OW15274   3.929   0.658   1.428  0.1512 -0.1682  0.3359
 1272SOL    HW115275   3.912   0.621   1.515 -1.0955 -1.6190 -0.5311
 1272SOL    HW215276   3.844   0.701   1.415 -1.0130 -1.9287  2.1718
 1273SOL     OW15277   2.392   0.851   1.240  0.7703  0.3321 -0.6012
 1273SOL    HW115278   2.483   0.867   1.215  1.9360 -2.2027  2.0290
 1273SOL    HW215279   2.346   0.902   1.174  0.5611 -0.9715 -1.4759
 1274SOL     OW15280   3.454   3.141   5.746  0.3668  0.4549 -0.1878
 1274SOL    HW115281   3.402   3.164   5.670  1.0224 -1.1006 -1.0906
 1274SOL    HW215282   3.435   3.206   5.815 -0.1343  2.3662 -2.1194
 1275SOL     OW15283   4.066   1.766  14.915  0.1089  0.3258 -0.4458
 1275SOL    HW115284   4.057   1.818  14.836 -1.2082 -2.6120 -2.2240
 1275SOL    HW215285   3.999   1.793  14.979  0.0600  0.5289 -0.5831
 1276SOL     OW15286   3.664   4.248   7.222  0.0201 -0.0453 -0.7037
 1276SOL    HW115287   3.639   4.188   7.292  0.3782 -0.6819 -1.1158
 1276SOL    HW215288   3.642   4.326   7.272 -1.8290 -0.8263 -0.3004
 1277SOL     OW15289   4.399   1.496   6.100  0.9992  0.0721  0.0489
 1277SOL    HW115290   4.362   1.509   6.187  1.6928  1.0224  0.2093
 1277SOL    HW215291   4.434   1.584   6.083 -1.2562  0.8266 -0.6881
 1278SOL     OW15292   0.250   2.884   4.104 -0.0108  0.2067 -0.1382
 1278SOL    HW115293   0.317   2.820   4.078  0.8306  0.5112  1.2585
 1278SOL    HW215294   0.250   2.954   4.038  1.6323  0.3743  0.0330
 1279SOL     OW15295   4.104   0.454   8.035  1.0550 -0.0533 -0.1711
 1279SOL    HW115296   4.162   0.441   8.110 -1.9431  3.4493  2.7228
 1279SOL    HW215297   4.116   0.548   8.024 -1.5167  0.4014  0.8419
 1280SOL     OW15298   2.578   4.377  10.881  0.2907  0.0886  0.4421
 1280SOL    HW115299   2.591   4.287  10.851  0.9515  0.8350 -1.5702
 1280SOL    HW215300   2.658   4.390  10.932  0.0069  0.1751  0.8677
 1281SOL     OW15301   0.010   4.335   7.154  0.1192 -0.3547  0.0154
 1281SOL    HW115302   0.104   4.324   7.169 -0.5415 -1.4573  3.2954
 1281SOL    HW215303   4.717   4.370   7.241  0.8483  0.9135 -0.3456
 1282SOL     OW15304   3.202   1.433   5.782  0.1088  0.4758  0.1356
 1282SOL    HW115305   3.237   1.349   5.814  0.1333  0.1384 -0.7746
 1282SOL    HW215306   3.286   1.479   5.786  1.2486 -1.7084  1.4837
 1283SOL     OW15307   0.847   1.375   5.800 -0.0456  0.1769 -0.3010
 1283SOL    HW115308   0.913   1.354   5.734 -0.9132 -1.3182 -0.6708
 1283SOL    HW215309   0.772   1.417   5.759  1.0760  3.7179  1.2116
 1284SOL     OW15310   3.562   1.793   1.428  0.0125  0.4242  0.8638
 1284SOL    HW115311   3.528   1.858   1.366  0.8955 -0.3774 -0.4429
 1284SOL    HW215312   3.482   1.779   1.479 -0.2815  0.0841  0.3071
 1285SOL     OW15313   0.605   0.716   6.137 -0.0706 -0.7109 -0.5919
 1285SOL    HW115314   0.669   0.781   6.107 -0.2827  0.6934  1.9679
 1285SOL    HW215315   0.528   0.772   6.148  0.6026  0.0025  0.4979
 1286SOL     OW15316   2.845   4.503   3.412  0.0839  0.4666 -0.2321
 1286SOL    HW115317   2.905   4.577   3.402  1.3699 -0.6462 -0.8876
 1286SOL    HW215318   2.893   4.452   3.478 -0.1705 -0.7982 -1.0209
 1287SOL     OW15319   0.315   3.216  10.573 -0.0781  0.6907 -0.3737
 1287SOL    HW115320   0.295   3.180  10.487  0.4776 -2.1248  0.6843
 1287SOL    HW215321   0.383   3.159  10.608 -1.1337 -0.6193 -0.4287
 1288SOL     OW15322   3.178   2.708   0.535  0.0799 -0.5344 -0.1844
 1288SOL    HW115323   3.200   2.795   0.502 -1.2058 -1.0234 -2.2943
 1288SOL    HW215324   3.266   2.675   0.516 -0.1793 -1.6427  0.5844
 1289SOL     OW15325   3.418   0.982  17.286  0.1221  0.3436  0.4497
 1289SOL    HW115326   3.420   0.904  17.231  0.4961 -0.5988  1.7986
 1289SOL    HW215327   3.326   1.003  17.271  0.0919 -0.2399 -0.2313
 1290SOL     OW15328   4.181   3.387  11.216  0.2089 -0.1101  0.1537
 1290SOL    HW115329   4.151   3.472  11.248 -2.5523 -1.3184  0.8487
 1290SOL    HW215330   4.208   3.348  11.299  0.6607 -0.2126 -0.0441
 1291SOL     OW15331   1.246   2.115  10.869 -0.2707  0.0724 -0.8396
 1291SOL    HW115332   1.248   2.176  10.796  0.7212  1.0208 -0.0269
 1291SOL    HW215333   1.296   2.158  10.939  1.1322 -0.9824 -1.2019
 1292SOL     OW15334   1.165   2.607  10.266 -0.1739 -0.4206  0.1574
 1292SOL    HW115335   1.146   2.698  10.289 -1.3067 -0.1021 -2.1337
 1292SOL    HW215336   1.075   2.576  10.257 -1.2355  2.8340 -0.5847
 1293SOL     OW15337   2.136   1.573   3.097 -0.3288 -0.7245 -0.3795
 1293SOL    HW115338   2.096   1.530   3.172  1.2767 -1.1960  0.1937
 1293SOL    HW215339   2.101   1.524   3.023  0.2899 -0.9185 -0.5413
 1294SOL     OW15340   3.881   0.173   2.612  0.3093  0.1476 -0.0074
 1294SOL    HW115341   3.949   0.175   2.545  0.3216 -3.0946 -0.0681
 1294SOL    HW215342   3.931   0.177   2.693  0.8268  2.0538 -0.4294
 1295SOL     OW15343   1.176   4.406   0.697  0.5993  0.1658  0.0334
 1295SOL    HW115344   1.142   4.478   0.644 -0.7513 -0.2865  0.2807
 1295SOL    HW215345   1.098   4.367   0.738  1.5144 -0.1888  1.4448
 1296SOL     OW15346   0.515   1.412  13.511  0.3236 -0.3495  0.2202
 1296SOL    HW115347   0.598   1.419  13.464  0.6220  2.3638  1.1075
 1296SOL    HW215348   0.541   1.421  13.603 -0.1189  0.9512  0.2244
 1297SOL     OW15349   4.196   3.766   7.531 -0.4700 -0.2531  0.3783
 1297SOL    HW115350   4.173   3.683   7.489  0.1083 -0.3698  0.2963
 1297SOL    HW215351   4.174   3.753   7.623 -0.2390 -1.2532  0.2952
 1298SOL     OW15352   4.063   1.675   1.521 -0.6272  0.1677 -0.2245
 1298SOL    HW115353   4.147   1.653   1.479 -0.4889  2.6692 -1.2907
 1298SOL    HW215354   4.026   1.738   1.459  0.4608  0.2797 -0.7662
 1299SOL     OW15355   4.322   3.494   6.628 -0.8089  0.2729  0.3274
 1299SOL    HW115356   4.229   3.492   6.648 -0.8662  1.8054  0.1851
 1299SOL    HW215357   4.322   3.504   6.533  1.0043 -0.3772  0.2458
 1300SOL     OW15358   0.555   4.605   4.886  0.6745 -0.0244 -0.0483
 1300SOL    HW115359   0.509   4.685   4.860 -1.7178 -1.0525  1.0501
 1300SOL    HW215360   0.586   4.578   4.800 -2.2118 -1.3106 -0.6766
 1301SOL     OW15361   4.156   2.940  15.629 -0.1357 -0.1971  0.5563
 1301SOL    HW115362   4.206   3.019  15.608 -0.7527  0.4009  1.3521
 1301SOL    HW215363   4.169   2.941  15.724 -2.8418  1.3376  0.8920
 1302SOL     OW15364   2.210   3.752   6.033 -0.2455 -0.5335  0.6705
 1302SOL    HW115365   2.209   3.670   5.985 -1.2233  0.2367 -0.6500
 1302SOL    HW215366   2.223   3.819   5.965 -0.3232 -0.8304  0.3607
 1303SOL     OW15367   0.462   3.532   3.692 -0.2986 -0.2086  0.0780
 1303SOL    HW115368   0.409   3.493   3.761 -1.8763  1.4482 -0.2224
 1303SOL    HW215369   0.540   3.551   3.745  0.5565 -1.0514 -0.8631
 1304SOL     OW15370   2.951   0.981   0.623  0.1322  0.0053  0.2363
 1304SOL    HW115371   3.003   1.011   0.548  0.5981 -1.4033 -0.0037
 1304SOL    HW215372   2.873   0.958   0.573 -0.7248 -0.2686  1.6875
 1305SOL     OW15373   0.318   2.770   4.758  0.3551 -0.3042  0.0916
 1305SOL    HW115374   0.391   2.789   4.700  1.0954 -1.7364  0.5423
 1305SOL    HW215375   0.271   2.853   4.751  1.9692  0.7132  1.2894
 1306SOL     OW15376   3.706   3.744   8.008 -0.1606 -0.5620 -0.2370
 1306SOL    HW115377   3.765   3.740   8.083 -1.0014 -0.3461  0.4339
 1306SOL    HW215378   3.622   3.781   8.036  0.4600 -0.8778  1.9630
 1307SOL     OW15379   2.226   0.777   3.449 -0.0454 -0.0448 -0.7415
 1307SOL    HW115380   2.279   0.702   3.422 -2.0311 -1.6997 -0.0361
 1307SOL    HW215381   2.172   0.781   3.370  0.3257  1.8537 -0.8914
 1308SOL     OW15382   3.700   0.824  15.085 -0.1299 -0.2330 -0.0159
 1308SOL    HW115383   3.722   0.825  14.992 -2.1106  0.9392 -0.4839
 1308SOL    HW215384   3.778   0.859  15.128 -0.4122 -0.1438  0.4263
 1309SOL     OW15385   3.587   1.138  15.223 -0.3500  0.4398  0.0965
 1309SOL    HW115386   3.579   1.224  15.265 -1.5543 -0.4990  1.7643
 1309SOL    HW215387   3.682   1.134  15.220 -0.3716  1.6283 -2.0336
 1310SOL     OW15388   2.907   1.982   8.434 -0.3190 -0.5671 -0.4457
 1310SOL    HW115389   2.814   1.981   8.412 -0.1085 -0.2501 -1.3530
 1310SOL    HW215390   2.900   2.056   8.494 -2.4925 -1.3384  0.2706
 1311SOL     OW15391   0.783   2.762   0.718  0.3405 -0.3916  0.2970
 1311SOL    HW115392   0.721   2.689   0.717 -2.3464  1.8561  1.4110
 1311SOL    HW215393   0.782   2.781   0.624  0.2216  0.0240  0.3819
 1312SOL     OW15394   3.341   2.987   7.939 -0.1305 -0.1175 -0.2908
 1312SOL    HW115395   3.300   3.028   7.863  0.2441 -1.9892 -1.4917
 1312SOL    HW215396   3.303   3.035   8.013 -0.5643 -1.7420  0.5646
 1313SOL     OW15397   4.005   3.845   4.228  0.0950 -0.8419  0.1733
 1313SOL    HW115398   4.039   3.794   4.155  2.3487 -0.0234  0.6688
 1313SOL    HW215399   4.044   3.790   4.296 -3.0223 -3.2725  0.0052
 1314SOL     OW15400   2.315   1.403   4.380  0.2220  0.1230  0.1910
 1314SOL    HW115401   2.347   1.404   4.470 -0.7938  2.9094  0.5152
 1314SOL    HW215402   2.359   1.324   4.349 -1.7473  0.1728 -2.6587
 1315SOL     OW15403   1.645   3.008   8.572 -0.6548  0.2370  0.4005
 1315SOL    HW115404   1.736   3.033   8.557 -0.1425 -2.5954 -1.2895
 1315SOL    HW215405   1.615   3.082   8.625  0.4205  0.4932  0.6392
 1316SOL     OW15406   1.119   1.324   3.111 -0.4676 -0.2500 -0.0380
 1316SOL    HW115407   1.101   1.239   3.151 -0.5572  0.2116  0.9004
 1316SOL    HW215408   1.214   1.334   3.115 -0.2738 -1.7586 -0.9704
 1317SOL     OW15409   0.255   2.132   3.910 -0.2451  0.5633  0.4397
 1317SOL    HW115410   0.189   2.068   3.883  0.9640  0.0013 -1.1192
 1317SOL    HW215411   0.288   2.090   3.990 -0.1546  0.1207  0.1696
 1318SOL     OW15412   1.797   0.964   7.714  0.3725  0.0490 -0.0604
 1318SOL    HW115413   1.730   0.932   7.774 -1.0696 -0.9662 -2.2081
 1318SOL    HW215414   1.827   0.879   7.682  3.0305  1.2804 -0.8101
 1319SOL     OW15415   0.427   0.636   5.320 -0.0602  0.5290  0.1527
 1319SOL    HW115416   0.345   0.604   5.357  1.1787  0.0500  2.4912
 1319SOL    HW215417   0.470   0.555   5.294 -0.1593  0.8426 -0.9825
 1320SOL     OW15418   2.362   4.417   4.625  0.0653 -0.0308 -0.1656
 1320SOL    HW115419   2.364   4.511   4.613  0.5676  0.1171  1.0687
 1320SOL    HW215420   2.271   4.413   4.653  0.7226  0.0330  1.9431
 1321SOL     OW15421   0.912   3.212   3.999  0.0070  0.0085  0.0529
 1321SOL    HW115422   0.932   3.174   3.913 -2.4422  1.3304 -1.1092
 1321SOL    HW215423   0.886   3.130   4.042 -1.3534  0.4775  0.1393
 1322SOL     OW15424   0.172   0.088   1.051  0.6265  0.1779  0.1947
 1322SOL    HW115425   0.173   0.161   1.113 -1.8934 -0.5953  1.1395
 1322SOL    HW215426   0.153   0.125   0.965  0.7135  0.1659  0.1707
 1323SOL     OW15427   4.722   2.320  12.460  0.1880  0.0205  0.0448
 1323SOL    HW115428   4.631   2.347  12.475  0.5751  0.7251  1.1508
 1323SOL    HW215429   4.723   2.270  12.378  1.9565 -1.1780  0.7887
 1324SOL     OW15430   0.651   0.920   1.248 -0.1168 -1.2200  0.1209
 1324SOL    HW115431   0.719   0.874   1.296 -0.6463 -1.0933  0.9790
 1324SOL    HW215432   0.650   1.006   1.290  1.6545 -1.0579 -0.1604
 1325SOL     OW15433   3.080   4.165  13.527  0.4480 -0.2075  0.0758
 1325SOL    HW115434   3.015   4.182  13.459  0.0634  1.0542  0.7476
 1325SOL    HW215435   3.150   4.160  13.462  0.3426 -1.0250  0.0274
 1326SOL     OW15436   0.644   0.697   3.044 -0.7350 -0.0797 -0.2339
 1326SOL    HW115437   0.565   0.721   2.997  0.5875  3.7622 -0.4552
 1326SOL    HW215438   0.709   0.708   2.974 -2.3987 -1.4947 -2.0316
 1327SOL     OW15439   0.336   3.047   5.086  0.4585 -0.0050 -0.2470
 1327SOL    HW115440   0.406   2.987   5.059  2.3293  0.7370  2.9466
 1327SOL    HW215441   0.371   3.136   5.083 -0.1961  0.2331 -0.7115
 1328SOL     OW15442   0.677   1.947   8.862 -0.4161 -0.1273  0.3510
 1328SOL    HW115443   0.728   2.027   8.876  1.5483 -0.7989 -2.9324
 1328SOL    HW215444   0.590   1.982   8.883  0.3203  1.1480  1.2180
 1329SOL     OW15445   1.539   2.178  13.392  0.2045 -0.3477  0.0934
 1329SOL    HW115446   1.509   2.169  13.302 -0.9077  1.1077  0.3136
 1329SOL    HW215447   1.567   2.088  13.408  0.1336 -0.3789  0.0387
 1330SOL     OW15448   4.371   3.815   0.448 -0.2514  0.9309 -0.3475
 1330SOL    HW115449   4.397   3.857   0.530  1.6104 -1.8491  0.5125
 1330SOL    HW215450   4.348   3.729   0.484  0.0996  1.1469  0.4090
 1331SOL     OW15451   2.489   0.021   3.300 -0.5875  0.1462 -0.0625
 1331SOL    HW115452   2.526   4.718   3.384  0.7293  0.9263 -0.3820
 1331SOL    HW215453   2.415   4.686   3.299  0.2678 -0.8713 -3.5778
 1332SOL     OW15454   0.233   3.261   4.878  0.2593 -0.4800 -0.4028
 1332SOL    HW115455   0.155   3.295   4.924  1.6805  1.4307  0.5874
 1332SOL    HW215456   0.296   3.281   4.947 -2.2657 -1.1175  2.1169
 1333SOL     OW15457   2.980   4.004   5.868  0.2520  0.3584  0.7948
 1333SOL    HW115458   2.996   4.045   5.783  0.9121 -1.3764  0.1003
 1333SOL    HW215459   3.033   4.060   5.926  1.3322  0.0530  0.1005
 1334SOL     OW15460   2.780   0.646  12.230 -0.1665  0.4728  0.0786
 1334SOL    HW115461   2.816   0.606  12.309 -0.4724 -1.6483 -0.8532
 1334SOL    HW215462   2.839   0.717  12.207 -0.5963  0.7971 -0.0373
 1335SOL     OW15463   3.549   3.483   7.975 -0.3374  0.1998  0.0181
 1335SOL    HW115464   3.562   3.391   7.953 -1.5509 -0.6420  2.6751
 1335SOL    HW215465   3.530   3.520   7.889  1.4062  0.5191 -0.2144
 1336SOL     OW15466   0.922   2.536   3.354  0.4102 -0.3698 -0.1750
 1336SOL    HW115467   0.918   2.560   3.261 -1.5292 -3.3558 -0.8555
 1336SOL    HW215468   0.843   2.486   3.371  0.3220 -0.6886 -1.5540
 1337SOL     OW15469   4.694   1.445   0.178 -0.8956 -0.0340  0.1723
 1337SOL    HW115470   4.702   1.521   0.235 -0.5493  0.9942 -1.2380
 1337SOL    HW215471   4.662   1.376   0.235 -0.7508  0.3443  0.7095
 1338SOL     OW15472   0.268   1.504   5.652 -0.0501 -0.2615 -0.5006
 1338SOL    HW115473   0.358   1.525   5.628  0.6351  0.6398  2.9939
 1338SOL    HW215474   0.271   1.439   5.722  2.4794  0.5869  0.1674
 1339SOL     OW15475   1.673   4.187   1.368 -0.1091  0.2250 -0.0450
 1339SOL    HW115476   1.657   4.103   1.327 -1.4902  0.7909 -0.6568
 1339SOL    HW215477   1.589   4.213   1.406  0.3674  0.5065  0.8154
 1340SOL     OW15478   1.615   0.315  11.512 -0.8065 -0.0587  0.1382
 1340SOL    HW115479   1.630   0.276  11.598  0.5725 -0.4610 -0.2885
 1340SOL    HW215480   1.687   0.279  11.461 -0.3774 -0.4373  1.0140
 1341SOL     OW15481   2.525   2.041  14.856  0.4487  0.7668 -0.4959
 1341SOL    HW115482   2.478   2.068  14.935  3.7148  1.2047  1.3182
 1341SOL    HW215483   2.467   2.070  14.786  1.3839 -1.5634 -2.2135
 1342SOL     OW15484   1.868   0.894  17.399  0.6827 -0.2423 -0.0026
 1342SOL    HW115485   1.820   0.953  17.456  1.9683  1.0396 -0.2386
 1342SOL    HW215486   1.945   0.939  17.363 -1.1388  0.4129 -3.0178
 1343SOL     OW15487   4.436   1.485   5.319  0.3121 -0.6833 -0.2813
 1343SOL    HW115488   4.502   1.464   5.252 -0.0288  0.6262 -1.0304
 1343SOL    HW215489   4.412   1.396   5.342 -2.9016  0.4410  0.6786
 1344SOL     OW15490   1.328   2.974   6.755 -0.4636  0.5381  0.0599
 1344SOL    HW115491   1.255   2.924   6.791 -0.1267  0.4500  0.6316
 1344SOL    HW215492   1.365   3.017   6.832  0.7862 -1.1962  0.4401
 1345SOL     OW15493   4.507   4.519  11.727  0.3820  0.0561  0.5685
 1345SOL    HW115494   4.500   4.587  11.793  3.6349  1.5794 -0.6611
 1345SOL    HW215495   4.603   4.514  11.723  0.3373  1.0538 -1.6259
 1346SOL     OW15496   2.085   4.236   0.153  0.2605  0.0384  0.0570
 1346SOL    HW115497   2.141   4.277   0.087 -1.8505  1.0717 -1.0850
 1346SOL    HW215498   2.151   4.202   0.215 -0.2875  1.3502  1.3678
 1347SOL     OW15499   0.822   2.539   5.185 -0.1026 -0.1136 -0.4193
 1347SOL    HW115500   0.790   2.521   5.096  1.0399 -2.2287 -0.4001
 1347SOL    HW215501   0.784   2.625   5.201  0.7656  0.4827 -1.5987
 1348SOL     OW15502   4.619   0.731   7.661 -0.0601 -0.1506  0.7595
 1348SOL    HW115503   4.579   0.795   7.719  3.0212  2.2452  0.1748
 1348SOL    HW215504   4.713   0.732   7.678  0.5184  1.6534 -2.4288
 1349SOL     OW15505   4.323   0.118  13.753 -0.0514  0.4851  0.1980
 1349SOL    HW115506   4.411   0.102  13.787  0.4417  1.8287 -0.4286
 1349SOL    HW215507   4.329   0.074  13.668  1.0740 -1.1794  1.1493
 1350SOL     OW15508   1.419   3.570   1.953 -0.0800  0.5706 -0.1055
 1350SOL    HW115509   1.507   3.561   1.916 -0.8929  1.7135 -2.2446
 1350SOL    HW215510   1.398   3.479   1.973 -1.1790  0.4773 -1.7881
 1351SOL     OW15511   4.055   1.344   1.602 -0.2031 -0.2618 -0.6204
 1351SOL    HW115512   4.125   1.286   1.632  0.2200  0.6300  0.1146
 1351SOL    HW215513   4.113   1.410   1.564  1.4881  0.7500  3.7531
 1352SOL     OW15514   4.002   3.120   9.075 -0.4577  0.1399  0.2384
 1352SOL    HW115515   3.932   3.185   9.072 -1.6408 -1.1140  0.7587
 1352SOL    HW215516   4.069   3.155   9.134  0.2476  0.2253 -0.6155
 1353SOL     OW15517   3.609   2.619   7.521 -0.1210 -0.2919 -0.6676
 1353SOL    HW115518   3.532   2.591   7.471  0.8977 -0.2694 -2.2746
 1353SOL    HW215519   3.584   2.707   7.549 -1.0052 -0.6413 -0.3795
 1354SOL     OW15520   1.176   3.870   5.219  0.0448  0.1813  0.3918
 1354SOL    HW115521   1.150   3.882   5.310  0.9930 -2.4580  0.9794
 1354SOL    HW215522   1.232   3.943   5.192  0.2014 -0.7880 -1.8893
 1355SOL     OW15523   1.665   2.717   3.778  0.0512  0.3817  0.1246
 1355SOL    HW115524   1.582   2.671   3.762 -0.2795  1.2364 -0.6574
 1355SOL    HW215525   1.718   2.677   3.709 -1.4025  0.8406 -1.2851
 1356SOL     OW15526   1.526   3.888   0.516 -0.3685  0.4124 -0.1484
 1356SOL    HW115527   1.515   3.983   0.526  0.9670  0.8054 -2.5635
 1356SOL    HW215528   1.577   3.888   0.436 -1.2558 -1.5019 -0.7146
 1357SOL     OW15529   0.230   0.998   1.296 -0.4375 -0.0211 -0.0994
 1357SOL    HW115530   0.158   0.985   1.234 -0.2255  1.5219 -0.6695
 1357SOL    HW215531   0.267   0.910   1.299  0.6579  0.4274 -0.8859
 1358SOL     OW15532   2.875   0.145   8.544  0.2151  0.3787  0.1881
 1358SOL    HW115533   2.888   0.224   8.596  2.3082  2.1328 -2.9490
 1358SOL    HW215534   2.882   0.171   8.452 -0.5070  0.6039  0.1973
 1359SOL     OW15535   1.688   3.836  10.075 -0.6480  0.1268  0.2539
 1359SOL    HW115536   1.679   3.932  10.072  0.3127  0.2202  0.3141
 1359SOL    HW215537   1.662   3.837  10.167 -0.2871 -0.7667  0.3642
 1360SOL     OW15538   0.463   4.680   6.110  0.0721  0.1380  0.2496
 1360SOL    HW115539   0.414   4.599   6.124 -1.7360  1.1462 -0.1745
 1360SOL    HW215540   0.544   4.660   6.157 -1.5899  0.3387  3.1732
 1361SOL     OW15541   2.962   0.220  10.865  0.5004  0.1125  0.6206
 1361SOL    HW115542   3.015   0.299  10.855 -0.7136  0.7136 -1.0275
 1361SOL    HW215543   2.977   0.186  10.777  0.8224  0.3761  0.5722
 1362SOL     OW15544   3.475   0.168   7.112 -0.1342  0.3186 -0.3866
 1362SOL    HW115545   3.398   0.220   7.088 -2.0897 -2.6915 -0.6702
 1362SOL    HW215546   3.543   0.234   7.122 -0.3460  0.1126  2.5854
 1363SOL     OW15547   4.250   4.692   5.043  0.1076 -0.4435 -0.3908
 1363SOL    HW115548   4.345   4.703   5.045  0.2125 -1.3513 -0.4642
 1363SOL    HW215549   4.247   4.597   5.048  0.7667 -0.4667 -0.4192
 1364SOL     OW15550   1.055   0.082  14.490  0.4972 -0.0719  0.0810
 1364SOL    HW115551   0.992   0.152  14.476 -0.2804 -0.4824  1.5070
 1364SOL    HW215552   1.030   0.025  14.417  0.3676 -1.2930  1.0565
 1365SOL     OW15553   2.382   2.589   8.621  0.0391  0.8137  0.0294
 1365SOL    HW115554   2.351   2.615   8.535  1.2859  0.6263 -0.4736
 1365SOL    HW215555   2.463   2.546   8.594  0.0537  1.2214 -0.5662
 1366SOL     OW15556   3.259   2.541   5.001 -0.9189 -0.1519 -0.5518
 1366SOL    HW115557   3.276   2.622   5.050  0.5285 -0.1662 -1.0412
 1366SOL    HW215558   3.188   2.507   5.056 -0.3721  0.2914  0.4060
 1367SOL     OW15559   1.842   3.158  15.082 -0.1939 -0.6839  0.3040
 1367SOL    HW115560   1.870   3.180  15.171 -1.0908 -1.3610  0.7530
 1367SOL    HW215561   1.784   3.232  15.062 -0.1398 -0.1285  2.1050
 1368SOL     OW15562   1.962   2.304   3.422  0.1865 -0.1724  0.5251
 1368SOL    HW115563   1.945   2.348   3.338 -0.3446 -0.0485  0.6978
 1368SOL    HW215564   2.041   2.256   3.398 -1.5646 -2.5331 -0.4139
 1369SOL     OW15565   0.059   1.356  15.063 -0.8355 -0.0275 -0.3220
 1369SOL    HW115566   0.013   1.373  14.981 -2.8473  1.4764  1.0886
 1369SOL    HW215567   0.018   1.274  15.091 -1.0427  0.4361  0.7583
 1370SOL     OW15568   2.010   0.112   3.076  0.3162  0.1698 -0.5403
 1370SOL    HW115569   2.003   0.040   3.140  0.7902  0.3025 -0.3380
 1370SOL    HW215570   1.929   0.102   3.026 -0.1763 -1.9862  0.6456
 1371SOL     OW15571   0.695   3.679   1.281  0.0597 -0.0082 -0.2221
 1371SOL    HW115572   0.707   3.648   1.371 -1.7038  0.4663  0.1841
 1371SOL    HW215573   0.763   3.630   1.236 -0.0035 -0.0007 -0.3257
 1372SOL     OW15574   2.480   0.742   9.892 -0.3023  0.3309 -0.2464
 1372SOL    HW115575   2.435   0.700   9.819 -0.8452 -1.6255  1.2047
 1372SOL    HW215576   2.566   0.702   9.885 -0.6559 -0.2812 -1.0395
 1373SOL     OW15577   3.076   0.522   2.204 -0.1159 -0.1392 -0.4296
 1373SOL    HW115578   3.039   0.461   2.141  0.0459 -0.9186  0.2329
 1373SOL    HW215579   3.169   0.500   2.193  0.3793  0.5356  2.4345
 1374SOL     OW15580   1.166   1.292   6.107 -0.3020  0.0800  0.0004
 1374SOL    HW115581   1.135   1.208   6.143  1.6542 -1.3383 -1.6058
 1374SOL    HW215582   1.238   1.311   6.168  0.3079 -1.5596 -0.1855
 1375SOL     OW15583   4.201   1.122  10.888  0.3571  0.1239 -0.4127
 1375SOL    HW115584   4.194   1.090  10.977  1.2014  1.1841  0.0422
 1375SOL    HW215585   4.113   1.111  10.853 -0.2083  0.3144  0.9908
 1376SOL     OW15586   3.751   1.093   6.699 -0.5406 -0.2520  0.4146
 1376SOL    HW115587   3.669   1.044   6.708 -0.0341 -1.4835 -1.7638
 1376SOL    HW215588   3.733   1.180   6.735 -0.3530  0.7085 -1.8670
 1377SOL     OW15589   3.858   0.779   6.961 -0.7495 -0.2166 -0.2246
 1377SOL    HW115590   3.812   0.862   6.953  0.4966  0.5161  0.2631
 1377SOL    HW215591   3.823   0.749   7.045  1.0285  0.5815  0.7929
 1378SOL     OW15592   1.319   3.336   3.593  0.6624  0.0946  0.1738
 1378SOL    HW115593   1.382   3.309   3.525  0.6397  1.6902 -0.4925
 1378SOL    HW215594   1.260   3.390   3.541  0.2607 -0.8405 -0.3475
 1379SOL     OW15595   2.272   1.398  10.562  0.2102 -0.1910 -0.7373
 1379SOL    HW115596   2.235   1.433  10.480  2.1982 -0.1782 -1.6146
 1379SOL    HW215597   2.199   1.340  10.584 -2.5708  3.7854  0.4595
 1380SOL     OW15598   1.608   3.548   1.085 -0.3215  0.2833 -0.5266
 1380SOL    HW115599   1.649   3.474   1.041  2.3793  1.2362  0.3821
 1380SOL    HW215600   1.519   3.519   1.102 -0.1781  0.0577 -0.1556
 1381SOL     OW15601   2.434   0.381   2.979  0.4840 -0.0403 -0.4601
 1381SOL    HW115602   2.392   0.462   3.007 -0.8654 -1.0033  0.2954
 1381SOL    HW215603   2.356   0.353   2.930 -0.5104 -1.8594  2.2161
 1382SOL     OW15604   1.999   1.344  13.310 -0.0987  0.3315 -0.5017
 1382SOL    HW115605   1.958   1.401  13.374  2.2639  0.2078  1.1325
 1382SOL    HW215606   1.924   1.292  13.284  0.6714 -0.1520 -1.8007
 1383SOL     OW15607   3.881   0.943   7.923  0.4673 -0.9564 -0.0383
 1383SOL    HW115608   3.813   0.890   7.881  1.1542  0.0703 -2.4588
 1383SOL    HW215609   3.839   0.973   8.004 -1.9337  1.7877 -2.3437
 1384SOL     OW15610   1.718   2.200   8.146 -0.2965 -0.0087  0.1643
 1384SOL    HW115611   1.670   2.217   8.227 -0.2636  1.1346 -0.0537
 1384SOL    HW215612   1.648   2.172   8.088 -0.7322  1.4782 -0.0250
 1385SOL     OW15613   2.644   2.824  10.192  0.0804  0.1345  0.3732
 1385SOL    HW115614   2.683   2.842  10.278  0.1116 -0.5925  0.5114
 1385SOL    HW215615   2.582   2.895  10.176  0.1077  0.1407  0.2988
 1386SOL     OW15616   1.659   0.970   9.924 -0.5973  0.7901 -0.4630
 1386SOL    HW115617   1.740   1.007   9.888  0.8861 -0.8790  1.1468
 1386SOL    HW215618   1.627   0.938   9.840  0.9179  2.2263 -1.5970
 1387SOL     OW15619   4.353   3.524   8.670  0.2576  0.3784 -0.2393
 1387SOL    HW115620   4.367   3.432   8.649  1.4117  0.4654  0.1821
 1387SOL    HW215621   4.425   3.539   8.730  0.7998  0.7626 -0.9897
 1388SOL     OW15622   2.073   2.695   5.621 -0.3329 -0.0538 -0.0260
 1388SOL    HW115623   2.154   2.728   5.661 -1.0870 -0.1682  1.5803
 1388SOL    HW215624   2.080   2.734   5.533  0.5072 -0.3299 -0.0764
 1389SOL     OW15625   2.985   4.040  17.659 -0.5087  0.2083  0.6012
 1389SOL    HW115626   2.917   4.054  17.593 -1.6482  1.0988  1.9270
 1389SOL    HW215627   2.957   3.969   0.018  0.8245 -0.5073  0.3643
 1390SOL     OW15628   2.433   3.098   8.879  0.9903 -0.0191 -0.5031
 1390SOL    HW115629   2.395   3.107   8.791 -0.5107  1.5510  0.3208
 1390SOL    HW215630   2.519   3.138   8.863  0.5516  1.1810  0.1197
 1391SOL     OW15631   4.425   0.123   3.649  0.0580  0.4382  0.1790
 1391SOL    HW115632   4.517   0.126   3.678  0.8280 -1.5915 -2.0134
 1391SOL    HW215633   4.382   0.106   3.732  1.2945  3.0414  1.3454
 1392SOL     OW15634   2.494   0.183   2.145  0.7012  0.2883  0.9743
 1392SOL    HW115635   2.538   0.139   2.218  1.6960 -0.1529  0.1129
 1392SOL    HW215636   2.467   0.265   2.185 -2.8638  0.1840 -1.2444
 1393SOL     OW15637   0.754   2.707  14.665  0.0139  0.2089  0.2244
 1393SOL    HW115638   0.725   2.779  14.610  0.1926  0.6867  0.7586
 1393SOL    HW215639   0.846   2.731  14.675  0.3828 -1.4524  0.8375
 1394SOL     OW15640   0.570   2.949   2.341 -0.2678  0.5376  0.2492
 1394SOL    HW115641   0.525   2.940   2.425 -1.1405  0.5217 -0.2183
 1394SOL    HW215642   0.541   2.875   2.288 -0.6278  0.5619  0.4112
 1395SOL     OW15643   1.807   2.528   9.685 -0.7304  0.1403  0.6050
 1395SOL    HW115644   1.772   2.616   9.701 -0.9273 -0.1690  1.8404
 1395SOL    HW215645   1.804   2.530   9.589 -0.8319 -2.5512  0.5716
 1396SOL     OW15646   3.168   0.014   3.879 -0.3633 -0.4649 -0.6849
 1396SOL    HW115647   3.226   0.090   3.877 -1.4672  0.3980 -0.1740
 1396SOL    HW215648   3.225   4.677   3.833  0.7077 -0.1645  0.2537
 1397SOL     OW15649   0.220   1.910   2.986 -0.1199  0.4383  0.1364
 1397SOL    HW115650   0.243   1.938   3.074  0.8179 -3.0460  0.9797
 1397SOL    HW215651   0.303   1.924   2.941  0.5016 -0.8570  0.8864
 1398SOL     OW15652   1.291   2.534  16.435  0.4822  0.5736 -0.1490
 1398SOL    HW115653   1.328   2.482  16.506  0.2729  0.5044 -0.0911
 1398SOL    HW215654   1.200   2.506  16.447  0.5880 -0.7836 -2.4504
 1399SOL     OW15655   4.481   1.593  14.759 -0.0148  0.1840  0.0018
 1399SOL    HW115656   4.408   1.531  14.758 -0.7027  0.9935  0.3325
 1399SOL    HW215657   4.439   1.655  14.818  1.0180  0.9879 -0.1137
 1400SOL     OW15658   1.947   2.294   8.415 -0.0009  0.4281  0.3720
 1400SOL    HW115659   1.965   2.240   8.338  2.5557  2.3825 -0.3959
 1400SOL    HW215660   2.033   2.330   8.438 -0.6761  1.4280  1.3628
 1401SOL     OW15661   4.117   0.451  12.221  0.7181 -0.3848  0.0945
 1401SOL    HW115662   4.209   0.462  12.246  0.1287  1.6701  1.3481
 1401SOL    HW215663   4.096   0.542  12.199 -0.1902 -0.6079  0.0373
 1402SOL     OW15664   2.400   1.731   6.267  0.3028 -0.1551 -0.1911
 1402SOL    HW115665   2.476   1.762   6.218 -1.3631  3.2070 -0.6819
 1402SOL    HW215666   2.392   1.800   6.333  3.5868 -1.4226  1.5232
 1403SOL     OW15667   4.138   1.237   0.771 -0.6655 -0.1558  0.6233
 1403SOL    HW115668   4.200   1.184   0.822 -0.7004  0.4316  1.2744
 1403SOL    HW215669   4.099   1.288   0.842 -0.1524 -1.1632  1.6553
 1404SOL     OW15670   1.821   2.530   6.807  0.4215 -0.4549 -0.1368
 1404SOL    HW115671   1.849   2.603   6.751 -1.3996 -0.9229 -1.6336
 1404SOL    HW215672   1.854   2.451   6.765  0.5765 -0.6588  0.3703
 1405SOL     OW15673   1.258   2.475   6.040  0.4920 -0.2098 -0.1517
 1405SOL    HW115674   1.220   2.523   5.967 -1.1157 -0.6924  0.3826
 1405SOL    HW215675   1.231   2.391   6.005 -2.7156  0.0056  1.8324
 1406SOL     OW15676   1.910   2.217   2.293 -0.5143  0.4390 -0.0512
 1406SOL    HW115677   1.893   2.302   2.252 -1.3905 -0.0973 -0.8034
 1406SOL    HW215678   1.828   2.210   2.341 -1.0973 -0.2170 -1.1373
 1407SOL     OW15679   3.190   2.472   1.621  0.0343 -0.5286  0.1491
 1407SOL    HW115680   3.244   2.456   1.543 -0.5876  1.8289 -0.7519
 1407SOL    HW215681   3.255   2.483   1.690 -0.5200 -0.0366  0.5891
 1408SOL     OW15682   0.224   2.389   3.302 -0.4164  0.5061  0.0634
 1408SOL    HW115683   0.190   2.458   3.358 -0.1577  0.7273 -0.0569
 1408SOL    HW215684   0.155   2.323   3.291 -0.8629  1.0989 -0.7105
 1409SOL     OW15685   1.064   2.933   1.511 -0.5808  0.0581  0.0305
 1409SOL    HW115686   1.078   2.913   1.418  3.6315 -5.0154  1.7587
 1409SOL    HW215687   0.968   2.929   1.520 -0.6097  0.1222 -0.2421
 1410SOL     OW15688   1.591   1.525   1.538 -0.1611  0.4061  0.0482
 1410SOL    HW115689   1.649   1.597   1.513 -1.2653  0.3536 -2.6896
 1410SOL    HW215690   1.514   1.548   1.486 -1.6417 -1.4997  1.4254
 1411SOL     OW15691   1.078   2.857  16.884 -0.0336  0.3219 -0.0998
 1411SOL    HW115692   1.006   2.876  16.944  1.0293  1.8589  0.7093
 1411SOL    HW215693   1.146   2.842  16.950 -0.4105 -0.4324  0.1125
 1412SOL     OW15694   1.839   2.760  14.351  0.1635 -0.0018 -0.0438
 1412SOL    HW115695   1.918   2.721  14.390 -1.4171 -1.3947  1.7539
 1412SOL    HW215696   1.775   2.690  14.365  0.1581  0.1639  0.7631
 1413SOL     OW15697   1.457   3.624   1.604 -1.0782  0.3172 -0.1163
 1413SOL    HW115698   1.381   3.635   1.662 -1.5828 -0.6842 -0.6049
 1413SOL    HW215699   1.415   3.606   1.520  2.0053 -1.3681 -1.2808
 1414SOL     OW15700   4.243   0.488   8.536  0.0307  0.2912 -0.2586
 1414SOL    HW115701   4.210   0.574   8.507  0.2098  0.5150  0.1939
 1414SOL    HW215702   4.331   0.510   8.566 -0.1276  1.1179 -0.3927
 1415SOL     OW15703   1.258   4.040   8.743  0.5189 -0.6299  0.5146
 1415SOL    HW115704   1.193   4.043   8.813 -1.3273  0.6228 -1.2536
 1415SOL    HW215705   1.335   4.027   8.798  0.5547  1.2900  0.9120
 1416SOL     OW15706   4.342   0.379   5.155  0.4835  0.5804 -0.7358
 1416SOL    HW115707   4.365   0.305   5.212  0.5929  0.9414 -0.3120
 1416SOL    HW215708   4.282   0.336   5.094  0.1120 -0.3834  0.2980
 1417SOL     OW15709   3.408   2.132   5.541 -0.1575  0.8616  0.6674
 1417SOL    HW115710   3.436   2.199   5.478 -0.6916 -0.2837 -0.8041
 1417SOL    HW215711   3.374   2.195   5.603  1.8263  1.7735  0.8444
 1418SOL     OW15712   3.561   3.540   4.277  0.0658 -0.2206 -0.3399
 1418SOL    HW115713   3.492   3.512   4.338  0.9169 -0.2620  0.6008
 1418SOL    HW215714   3.537   3.627   4.245  0.1598  0.9466  2.7660
 1419SOL     OW15715   1.342   0.619  15.121  0.1466  0.0894  0.0827
 1419SOL    HW115716   1.418   0.631  15.063 -0.6687 -2.7930 -1.5820
 1419SOL    HW215717   1.382   0.568  15.192 -0.6124 -0.0858  0.3748
 1420SOL     OW15718   1.502   1.612   2.334  0.3011  1.1858 -0.0967
 1420SOL    HW115719   1.578   1.602   2.277  0.2630  2.8028 -0.4244
 1420SOL    HW215720   1.500   1.708   2.333  0.7596  1.1980  0.3130
 1421SOL     OW15721   2.394   4.237   2.982 -0.0204 -0.2402  0.0766
 1421SOL    HW115722   2.369   4.329   2.987 -0.2850 -0.3089  0.0482
 1421SOL    HW215723   2.313   4.198   2.950  0.4193 -1.8894  0.9936
 1422SOL     OW15724   3.237   4.337   3.363 -0.7990 -0.0076  0.4048
 1422SOL    HW115725   3.290   4.399   3.312  0.6030 -0.3047  1.5111
 1422SOL    HW215726   3.193   4.295   3.289 -1.1083 -0.2862  0.7503
 1423SOL     OW15727   3.706   3.342   9.397 -0.1628  0.7433  0.5125
 1423SOL    HW115728   3.796   3.311   9.387 -0.6418  0.0974 -1.6833
 1423SOL    HW215729   3.698   3.349   9.492  0.6395 -0.5102  0.6791
 1424SOL     OW15730   1.139   2.951   5.752 -0.1342 -0.6403 -0.5842
 1424SOL    HW115731   1.134   2.870   5.701  1.0798 -1.1648  0.1308
 1424SOL    HW215732   1.056   2.986   5.717 -0.0374 -0.8844 -1.0635
 1425SOL     OW15733   0.530   2.169   0.368 -0.3488 -0.5165  0.1145
 1425SOL    HW115734   0.512   2.077   0.350  0.3535 -0.3652 -1.3425
 1425SOL    HW215735   0.443   2.210   0.370 -1.0485 -2.0286  0.6964
 1426SOL     OW15736   4.188   2.814   6.329  0.7391  0.4959  0.3290
 1426SOL    HW115737   4.204   2.871   6.404  0.3101 -1.7308  2.1238
 1426SOL    HW215738   4.266   2.802   6.275  0.5225 -2.3099  0.6032
 1427SOL     OW15739   3.590   0.275  14.097  0.6783  0.8549  1.1854
 1427SOL    HW115740   3.637   0.309  14.021  1.4425  0.8564  1.6656
 1427SOL    HW215741   3.589   0.180  14.090 -2.1733  1.1862 -3.1700
 1428SOL     OW15742   1.998   0.025   1.423 -0.0052 -0.6878  0.7498
 1428SOL    HW115743   2.086   0.031   1.459  0.7310 -2.7742 -0.6586
 1428SOL    HW215744   2.013   4.690   1.349  1.3636 -0.9629  1.2643
 1429SOL     OW15745   3.827   4.572   8.106 -0.0125  0.3460  0.3520
 1429SOL    HW115746   3.756   4.536   8.159  2.1168 -0.0144  2.9729
 1429SOL    HW215747   3.771   4.588   8.030 -0.2074 -0.8990  0.2348
 1430SOL     OW15748   0.151   4.302  14.521 -0.3919  0.8284 -0.1049
 1430SOL    HW115749   0.094   4.305  14.444 -0.5088 -0.4667 -0.0709
 1430SOL    HW215750   0.190   4.385  14.492  0.6005  0.4389  0.1099
 1431SOL     OW15751   0.972   0.550   6.620 -0.1027 -0.8917 -0.5949
 1431SOL    HW115752   1.041   0.487   6.601  1.0945  0.4451 -0.6659
 1431SOL    HW215753   1.012   0.633   6.595  0.7115 -0.8253  0.9219
 1432SOL     OW15754   4.226   0.742   8.440 -0.2816  0.1867 -0.6864
 1432SOL    HW115755   4.163   0.792   8.493 -1.3725  0.5979 -2.3741
 1432SOL    HW215756   4.264   0.812   8.387  1.7183 -1.1947 -1.0425
 1433SOL     OW15757   1.885   4.373   8.967 -0.2907 -0.1035 -0.4331
 1433SOL    HW115758   1.816   4.357   9.031  1.5883  0.3149  1.6841
 1433SOL    HW215759   1.926   4.287   8.972  0.1294  0.1788  0.9175
 1434SOL     OW15760   4.666   0.795   4.129 -0.1947  0.1084 -0.0948
 1434SOL    HW115761   4.573   0.817   4.127 -0.7867 -2.2921  0.6082
 1434SOL    HW215762   4.667   0.703   4.104  0.2548  0.4765 -1.4318
 1435SOL     OW15763   0.092   2.125   4.434  0.2036  0.2087 -0.0491
 1435SOL    HW115764   0.139   2.131   4.518  0.4711  0.3907 -0.2121
 1435SOL    HW215765   0.004   2.095   4.458  0.1213  0.9016  0.5211
 1436SOL     OW15766   3.717   3.167  15.868 -0.3054  0.1892 -0.5483
 1436SOL    HW115767   3.800   3.144  15.909 -1.7275 -2.3403  0.9392
 1436SOL    HW215768   3.668   3.208  15.940  0.6414 -1.7156  1.1945
 1437SOL     OW15769   3.941   3.388   6.514  0.6544  0.1472  0.0634
 1437SOL    HW115770   3.994   3.418   6.588 -0.5153  1.7836  0.2245
 1437SOL    HW215771   3.848   3.401   6.533  1.3025  1.4205  2.4059
 1438SOL     OW15772   2.223   2.481   2.056  0.8075  0.8136  0.0772
 1438SOL    HW115773   2.299   2.526   2.094  0.4683  1.3892  0.0774
 1438SOL    HW215774   2.269   2.462   1.974  1.1021 -1.5253  0.7925
 1439SOL     OW15775   3.096   4.681   5.917  0.0076  0.3472 -0.0643
 1439SOL    HW115776   3.009   4.660   5.883 -0.0655 -0.5697  0.7026
 1439SOL    HW215777   3.150   4.637   5.851  0.3851 -1.1003  1.2131
 1440SOL     OW15778   0.892   1.806   8.478  0.0927 -0.3941  0.1019
 1440SOL    HW115779   0.816   1.748   8.471 -0.0227 -0.2338  0.0294
 1440SOL    HW215780   0.966   1.748   8.456  0.2105 -0.1485 -0.1577
 1441SOL     OW15781   2.982   3.153   7.794 -0.4187 -0.4675 -0.0506
 1441SOL    HW115782   2.891   3.179   7.776 -0.8326 -0.1520  2.5669
 1441SOL    HW215783   3.027   3.171   7.711  1.4928  0.1145  1.1356
 1442SOL     OW15784   2.727   1.439   5.717 -0.3107 -0.6942 -0.6887
 1442SOL    HW115785   2.818   1.440   5.687 -0.3833 -3.2117 -0.9717
 1442SOL    HW215786   2.683   1.387   5.649 -1.1374 -0.9430  0.0365
 1443SOL     OW15787   0.816   2.626   6.674  0.0327 -0.2647 -0.4111
 1443SOL    HW115788   0.837   2.717   6.694 -0.0828 -0.0060 -1.4788
 1443SOL    HW215789   0.782   2.649   6.588 -0.4640 -0.5907 -0.3025
 1444SOL     OW15790   3.763   3.212   5.487  0.4794 -0.1613  0.1221
 1444SOL    HW115791   3.843   3.161   5.501  1.0426  0.7025  0.0169
 1444SOL    HW215792   3.702   3.141   5.465 -2.6001  2.2010  1.2574
 1445SOL     OW15793   1.488   0.564   8.110 -0.0117  0.0383  0.8411
 1445SOL    HW115794   1.568   0.534   8.154  0.8256  0.1353 -0.6079
 1445SOL    HW215795   1.478   0.485   8.058  1.8384  0.1320  0.3104
 1446SOL     OW15796   3.185   4.419  13.854  0.3850  0.4824  0.2961
 1446SOL    HW115797   3.167   4.325  13.847 -2.1048  0.9611  0.0351
 1446SOL    HW215798   3.217   4.441  13.767 -0.9400  1.0034 -0.0731
 1447SOL     OW15799   1.050   3.529  13.747  0.3302 -0.1423 -0.7302
 1447SOL    HW115800   0.991   3.523  13.822 -0.8036 -0.2915 -1.6260
 1447SOL    HW215801   1.121   3.470  13.772  0.8253  0.9487  0.4651
 1448SOL     OW15802   0.079   0.123   6.731  0.6015 -0.1302 -0.2113
 1448SOL    HW115803   0.174   0.115   6.727  0.4620 -2.4933  1.1406
 1448SOL    HW215804   0.055   0.142   6.640  0.5759  0.0521 -0.1658
 1449SOL     OW15805   1.248   2.242  17.237 -0.8946 -0.6618  0.1892
 1449SOL    HW115806   1.165   2.215  17.276 -0.1834 -1.5008  1.1181
 1449SOL    HW215807   1.274   2.152  17.219  0.8242 -0.0408 -0.4420
 1450SOL     OW15808   4.606   0.045   7.358 -0.8196 -0.2603  0.1306
 1450SOL    HW115809   4.577   4.691   7.405  1.0210  0.0640  1.7872
 1450SOL    HW215810   4.574   0.019   7.271 -2.5981 -1.3721  1.1119
 1451SOL     OW15811   0.631   0.628   2.231 -0.4683  0.0192  0.2409
 1451SOL    HW115812   0.562   0.588   2.178  1.0977 -0.4018 -1.4664
 1451SOL    HW215813   0.596   0.716   2.246  0.0363  0.4676 -1.2425
 1452SOL     OW15814   2.247   3.104   2.491 -0.1294  0.2404 -0.5743
 1452SOL    HW115815   2.281   3.153   2.565  0.4756 -1.5867  0.3716
 1452SOL    HW215816   2.287   3.143   2.414 -0.6560 -2.4185 -2.2330
 1453SOL     OW15817   2.915   0.397   9.187  0.1384  0.5252 -0.5227
 1453SOL    HW115818   2.971   0.428   9.259 -2.2879  0.0229  1.6050
 1453SOL    HW215819   2.842   0.458   9.205 -1.7236 -1.0151 -2.9456
 1454SOL     OW15820   3.104   2.021   4.165  0.3108 -0.8765 -0.3370
 1454SOL    HW115821   3.141   2.089   4.221  1.0326 -1.5378 -0.0034
 1454SOL    HW215822   3.015   2.048   4.144 -1.1518 -3.0296  3.3064
 1455SOL     OW15823   1.665   0.128   5.329 -0.1943 -0.0941 -0.1584
 1455SOL    HW115824   1.593   0.178   5.367 -0.5515  0.0430 -1.0156
 1455SOL    HW215825   1.742   0.176   5.361  0.8360 -0.3506 -2.2384
 1456SOL     OW15826   2.317   1.881  15.189  0.2922 -0.2970  0.1120
 1456SOL    HW115827   2.322   1.953  15.253 -1.3210  1.3639 -1.6397
 1456SOL    HW215828   2.283   1.930  15.115 -1.2510 -0.5391  0.6622
 1457SOL     OW15829   2.376   3.326   0.510 -0.0516  0.0820 -0.2363
 1457SOL    HW115830   2.369   3.363   0.598  2.7899  1.5899 -0.6544
 1457SOL    HW215831   2.294   3.278   0.493 -0.6395  1.9759 -2.7563
 1458SOL     OW15832   4.293   4.238  10.180  0.3467  0.0752 -0.5262
 1458SOL    HW115833   4.247   4.249  10.097 -1.1191  0.2383  0.3070
 1458SOL    HW215834   4.357   4.307  10.164 -1.4275  1.4290 -1.8493
 1459SOL     OW15835   1.658   2.044   3.914 -0.2705  0.1209 -0.0736
 1459SOL    HW115836   1.639   2.021   3.823 -1.9330  0.5597  0.1655
 1459SOL    HW215837   1.697   2.128   3.888 -0.6614 -0.1492 -1.5278
 1460SOL     OW15838   1.135   1.384   4.909  0.3319  0.4181  0.2150
 1460SOL    HW115839   1.071   1.456   4.913  0.5625  0.7377 -1.9005
 1460SOL    HW215840   1.191   1.400   4.985 -1.0623  2.7374  0.7494
 1461SOL     OW15841   3.976   4.043   3.181  0.2562  0.1383 -0.0611
 1461SOL    HW115842   3.929   4.050   3.098 -0.4844 -0.1764  0.3368
 1461SOL    HW215843   3.913   4.003   3.240 -0.4450 -0.9640 -1.5437
 1462SOL     OW15844   3.070   1.720   4.268 -0.0565  0.2781 -0.5966
 1462SOL    HW115845   3.003   1.714   4.337  0.2049  1.4484 -0.2348
 1462SOL    HW215846   3.046   1.804   4.230  0.4530  0.1309 -1.2363
 1463SOL     OW15847   1.794   4.447   6.470  0.2687 -0.7918  0.4692
 1463SOL    HW115848   1.821   4.392   6.396  0.2376 -0.5789  0.2980
 1463SOL    HW215849   1.871   4.443   6.527  0.0465  2.4761  0.9584
 1464SOL     OW15850   3.945   4.511   9.780  0.3775  0.8230  0.0062
 1464SOL    HW115851   3.853   4.536   9.769 -0.2511 -0.8171  1.5830
 1464SOL    HW215852   3.942   4.469   9.866 -0.8486 -1.4081 -1.1059
 1465SOL     OW15853   3.888   3.652   0.850  1.1424  0.4860 -0.1112
 1465SOL    HW115854   3.806   3.697   0.827  0.4089 -1.8704 -2.1677
 1465SOL    HW215855   3.956   3.700   0.802  1.5538 -0.2430 -0.2582
 1466SOL     OW15856   3.121   2.535   4.452 -0.2028 -0.4898  0.0128
 1466SOL    HW115857   3.149   2.524   4.543 -0.4963 -1.0066  0.0392
 1466SOL    HW215858   3.028   2.555   4.460 -0.3655 -1.7920  1.3656
 1467SOL     OW15859   1.063   3.031  14.586 -0.2234 -0.2184  0.4135
 1467SOL    HW115860   1.079   3.111  14.635  2.2739 -0.2161 -0.4177
 1467SOL    HW215861   0.996   3.061  14.524  0.2902  0.5487  0.2371
 1468SOL     OW15862   0.511   2.676   4.114  0.3008 -0.3232  0.3699
 1468SOL    HW115863   0.575   2.736   4.075  0.7950 -1.0960 -0.0093
 1468SOL    HW215864   0.573   2.605   4.131 -1.6622 -2.0261  0.3441
 1469SOL     OW15865   2.480   4.271   5.288 -0.1344 -0.6034 -0.2642
 1469SOL    HW115866   2.399   4.242   5.246  0.4790 -1.6104 -0.7261
 1469SOL    HW215867   2.488   4.360   5.253 -1.5847  0.1653  1.3523
 1470SOL     OW15868   1.399   4.164   7.557  0.3830  0.0815  0.3255
 1470SOL    HW115869   1.424   4.134   7.645 -0.1041  1.2915  0.8809
 1470SOL    HW215870   1.427   4.254   7.571  2.9905 -0.6633 -0.1740
 1471SOL     OW15871   3.748   0.934   4.113  0.5640 -0.4746  0.1656
 1471SOL    HW115872   3.817   0.874   4.087  1.3754  0.1192  0.9459
 1471SOL    HW215873   3.684   0.922   4.043  2.1029  0.3354 -1.3858
 1472SOL     OW15874   0.618   2.388  12.990 -0.1767 -0.5912  0.2330
 1472SOL    HW115875   0.557   2.459  12.970  1.8864  0.9078 -0.8445
 1472SOL    HW215876   0.570   2.312  12.959  0.3915 -0.5853 -0.6460
 1473SOL     OW15877   3.923   1.708  10.465 -0.1519 -0.4524  0.3163
 1473SOL    HW115878   3.881   1.753  10.392  0.0748 -1.8912 -0.6894
 1473SOL    HW215879   4.003   1.759  10.477  0.1958 -1.4881  2.4528
 1474SOL     OW15880   0.313   2.831   7.177  0.2071  0.1877 -0.3189
 1474SOL    HW115881   0.247   2.763   7.162  0.2813  0.8279 -3.3778
 1474SOL    HW215882   0.309   2.879   7.095 -1.4669 -0.1923 -0.4645
 1475SOL     OW15883   3.920   3.936  14.180  0.0521 -0.6565  0.3045
 1475SOL    HW115884   3.999   3.981  14.210 -0.9159  1.2872 -0.0715
 1475SOL    HW215885   3.962   3.855  14.150  1.3256  0.5646 -1.1967
 1476SOL     OW15886   3.689   4.098  15.175 -0.1133  0.1346 -0.8512
 1476SOL    HW115887   3.752   4.102  15.247  0.1215 -2.6441 -0.9332
 1476SOL    HW215888   3.609   4.121  15.222  0.8342  0.1884  0.7415
 1477SOL     OW15889   1.548   0.626   9.349  0.1189  0.1689 -0.3305
 1477SOL    HW115890   1.631   0.610   9.305 -0.6853  1.5934 -2.3959
 1477SOL    HW215891   1.514   0.687   9.283 -4.2395 -0.9560  0.9173
 1478SOL     OW15892   4.653   2.798   3.690  0.0302 -0.3094 -0.1633
 1478SOL    HW115893   4.615   2.736   3.628  1.5711 -0.7220 -0.6946
 1478SOL    HW215894   4.705   2.737   3.743  1.2974  0.0158 -1.0293
 1479SOL     OW15895   4.648   1.265   4.382  0.4438  0.2027  0.3757
 1479SOL    HW115896   4.689   1.179   4.398  0.4340 -0.1028 -1.2276
 1479SOL    HW215897   4.580   1.262   4.449 -1.3131 -0.4975 -1.4424
 1480SOL     OW15898   1.483   2.469  17.360 -0.3602 -0.5117 -0.2306
 1480SOL    HW115899   1.406   2.455  17.304  0.6041  0.5666 -1.8113
 1480SOL    HW215900   1.550   2.413  17.322  0.0259 -0.3516  0.2146
 1481SOL     OW15901   2.094   2.833  17.379 -0.2401  0.4948  0.3202
 1481SOL    HW115902   2.152   2.817  17.453  2.5154 -1.8294 -2.3648
 1481SOL    HW215903   2.143   2.880  17.312  0.7951 -1.1604 -0.0653
 1482SOL     OW15904   4.359   2.242  12.468 -0.4974  0.4644 -0.2402
 1482SOL    HW115905   4.340   2.320  12.521  2.5356  1.0270  0.0499
 1482SOL    HW215906   4.366   2.172  12.533 -0.4837 -2.1469 -3.0950
 1483SOL     OW15907   4.649   3.517   4.803  0.1115 -0.2094  0.9006
 1483SOL    HW115908   4.631   3.423   4.807  0.4082 -0.3647 -1.4840
 1483SOL    HW215909   4.571   3.551   4.760 -0.4645  1.0876  2.9942
 1484SOL     OW15910   1.797   1.734   8.309  0.0046  0.4130  0.2215
 1484SOL    HW115911   1.807   1.640   8.320  1.1382  0.3783 -1.1944
 1484SOL    HW215912   1.793   1.761   8.401 -1.5208  2.9944 -0.5797
 1485SOL     OW15913   2.661   4.299   4.105 -0.1572 -0.2171 -0.0824
 1485SOL    HW115914   2.669   4.265   4.016  0.4183  0.7788 -0.4076
 1485SOL    HW215915   2.567   4.313   4.114 -0.3767 -0.6809 -1.7434
 1486SOL     OW15916   4.201   1.986   5.069 -0.1482 -0.5173 -0.3101
 1486SOL    HW115917   4.141   1.919   5.102 -0.6119  0.7622  1.3865
 1486SOL    HW215918   4.217   1.961   4.978 -0.7384  0.4048 -0.6672
 1487SOL     OW15919   2.919   3.399   3.440  0.2496  0.4103 -0.1154
 1487SOL    HW115920   2.910   3.307   3.417 -2.4246  0.7217 -0.3894
 1487SOL    HW215921   2.944   3.396   3.532  3.8664 -0.6798 -1.1294
 1488SOL     OW15922   0.933   3.738   7.773  0.0186  0.8000  0.3788
 1488SOL    HW115923   0.862   3.797   7.749  0.5181  0.4991 -1.8359
 1488SOL    HW215924   0.926   3.688   7.692 -1.2136  0.3244  0.7758
 1489SOL     OW15925   1.636   2.037   0.556  0.7399 -0.3609 -0.8168
 1489SOL    HW115926   1.568   2.094   0.591 -0.6717 -1.6374 -1.4644
 1489SOL    HW215927   1.714   2.091   0.542  0.9642 -0.4589  0.0606
 1490SOL     OW15928   3.030   3.340  16.001 -0.4232  0.3432  0.2733
 1490SOL    HW115929   2.958   3.299  16.048  0.5352  0.1616  1.6023
 1490SOL    HW215930   3.104   3.279  16.002 -1.3346 -0.7184  1.5960
 1491SOL     OW15931   0.911   0.257   9.323  0.0673  0.3060  0.0466
 1491SOL    HW115932   0.856   0.194   9.369  1.3803 -0.0443  1.1558
 1491SOL    HW215933   0.952   0.295   9.401  0.8111 -0.1360 -0.1320
 1492SOL     OW15934   1.800   3.864  12.976 -0.2927  0.2580 -0.7705
 1492SOL    HW115935   1.757   3.779  12.964  2.6661 -1.1819 -1.0499
 1492SOL    HW215936   1.739   3.925  12.934  0.3602  1.4607  0.0358
 1493SOL     OW15937   4.191   0.414   4.639 -0.0099 -0.2928 -0.3820
 1493SOL    HW115938   4.161   0.402   4.729 -1.4104 -2.1559 -1.1058
 1493SOL    HW215939   4.261   0.478   4.646  0.6572 -0.8374 -1.9431
 1494SOL     OW15940   1.392   1.468   4.261  0.5071 -0.3890  0.5076
 1494SOL    HW115941   1.397   1.381   4.301 -0.0801 -1.0729 -0.8803
 1494SOL    HW215942   1.357   1.458   4.172  4.0650 -0.2187 -0.9391
 1495SOL     OW15943   1.912   0.135   5.114 -0.2459 -0.3186 -0.5063
 1495SOL    HW115944   1.949   0.223   5.124 -1.9496  0.4468 -0.9355
 1495SOL    HW215945   1.976   0.080   5.159 -0.5182 -0.7295 -0.6215
 1496SOL     OW15946   3.187   3.395   1.635 -0.1575 -0.5464  0.4392
 1496SOL    HW115947   3.270   3.406   1.681  0.2735 -0.9472 -0.2365
 1496SOL    HW215948   3.187   3.474   1.581  0.6903 -1.0591 -0.3057
 1497SOL     OW15949   0.724   0.103   3.503  0.0501 -0.1437  0.3472
 1497SOL    HW115950   0.755   0.184   3.544 -1.2559  1.1161 -1.1890
 1497SOL    HW215951   0.722   0.041   3.576 -1.6726  0.9073  1.1815
 1498SOL     OW15952   3.209   2.857   3.371 -0.4084  0.2299 -0.1698
 1498SOL    HW115953   3.169   2.871   3.285 -1.2081  2.2581  0.5408
 1498SOL    HW215954   3.153   2.917   3.420  1.2104  0.8073  0.9682
 1499SOL     OW15955   4.389   4.099   8.800  0.0030 -0.3114 -0.4020
 1499SOL    HW115956   4.329   4.173   8.799 -0.6131 -0.8163 -0.4034
 1499SOL    HW215957   4.326   4.034   8.829 -1.9459  1.1946 -1.2960
 1500SOL     OW15958   3.579   0.297  17.621  0.4259 -0.1359 -0.4494
 1500SOL    HW115959   3.531   0.234  17.674  1.3525  0.1475  0.7307
 1500SOL    HW215960   3.531   0.377  17.641 -0.6362 -0.7565 -0.5333
 1501SOL     OW15961   0.133   1.397   9.783 -0.5887  0.6545  0.8878
 1501SOL    HW115962   0.105   1.458   9.715 -1.0039 -2.3990 -1.6878
 1501SOL    HW215963   0.047   1.362   9.807 -0.5156 -0.7525 -0.9351
 1502SOL     OW15964   4.375   0.111   2.379  0.3491 -0.1888  0.0690
 1502SOL    HW115965   4.427   0.114   2.299 -3.0298  0.3385 -2.1195
 1502SOL    HW215966   4.420   0.179   2.429  0.5557  0.1817 -0.6134
 1503SOL     OW15967   1.322   0.860   8.252 -0.1043  0.5225 -0.2159
 1503SOL    HW115968   1.313   0.768   8.277 -1.4858  1.3199  2.2249
 1503SOL    HW215969   1.415   0.879   8.257  0.3653 -1.8366  0.0323
 1504SOL     OW15970   3.575   3.637  15.524  0.1783  0.0893  0.1541
 1504SOL    HW115971   3.504   3.575  15.542  0.2949  0.4206  1.8187
 1504SOL    HW215972   3.610   3.601  15.443  0.1565 -0.5223  0.4172
 1505SOL     OW15973   4.212   2.993  14.483 -0.0818 -0.6373 -0.3449
 1505SOL    HW115974   4.292   3.030  14.444 -0.0570 -0.4078 -0.0761
 1505SOL    HW215975   4.247   2.911  14.520 -0.2768 -0.5197  0.0956
 1506SOL     OW15976   2.482   1.676  14.015  0.2840  0.3028  0.2704
 1506SOL    HW115977   2.390   1.656  13.998  0.2542  0.2222  0.5240
 1506SOL    HW215978   2.472   1.764  14.049  1.7654  1.4488 -2.2413
 1507SOL     OW15979   0.946   0.626   6.059  0.0093 -0.2039  0.3261
 1507SOL    HW115980   0.941   0.543   6.012 -0.5242 -0.4701  0.8611
 1507SOL    HW215981   0.895   0.600   6.136 -0.8744  2.4164  0.6196
 1508SOL     OW15982   1.595   1.739  10.642  0.1878  0.1511  0.8308
 1508SOL    HW115983   1.515   1.744  10.695 -0.6665 -0.3013 -0.4028
 1508SOL    HW215984   1.638   1.664  10.682 -1.8206 -1.2771  0.3205
 1509SOL     OW15985   0.253   2.872   7.450  0.4367 -0.0953 -0.2740
 1509SOL    HW115986   0.249   2.779   7.471 -0.9252 -0.0425 -0.2856
 1509SOL    HW215987   0.288   2.870   7.361  0.7221  0.7858 -0.1828
 1510SOL     OW15988   3.913   2.954   4.354  0.5147  0.0422  0.2237
 1510SOL    HW115989   3.823   2.960   4.322  0.5162 -4.5766 -0.5507
 1510SOL    HW215990   3.927   3.039   4.396  0.6092  0.9265 -1.5976
 1511SOL     OW15991   3.591   1.842   3.941 -0.1605  0.3024 -0.3871
 1511SOL    HW115992   3.656   1.815   3.876  2.7402  0.7798  2.3234
 1511SOL    HW215993   3.634   1.816   4.022 -0.5676 -1.3487 -0.6988
 1512SOL     OW15994   3.662   2.559   1.922 -0.3494  0.3047 -0.1716
 1512SOL    HW115995   3.753   2.540   1.946 -0.0609  1.2488 -0.5252
 1512SOL    HW215996   3.638   2.630   1.982  1.8189  0.4609  0.5051
 1513SOL     OW15997   1.477   3.735   5.437 -0.1880  0.2021 -0.0604
 1513SOL    HW115998   1.384   3.748   5.455  0.3811  0.0420  2.9902
 1513SOL    HW215999   1.512   3.816   5.474  0.4684 -0.1330  0.0661
 1514SOL     OW16000   4.393   0.599   7.706 -0.1158  0.3568 -0.2460
 1514SOL    HW116001   4.339   0.671   7.738  0.0648  0.7784 -0.9159
 1514SOL    HW216002   4.469   0.645   7.672 -0.1353 -0.3561 -1.2511
 1515SOL     OW16003   0.577   0.614   7.714 -0.1020  0.9684  0.4022
 1515SOL    HW116004   0.504   0.625   7.654  0.9533 -1.4298 -1.3312
 1515SOL    HW216005   0.631   0.537   7.695  0.7286  1.0476  2.4352
 1516SOL     OW16006   3.922   3.488   4.676  0.5039  0.0840  0.4414
 1516SOL    HW116007   3.956   3.472   4.588 -1.6227  0.1194 -0.3753
 1516SOL    HW216008   3.872   3.408   4.696 -0.0952  0.5481  0.8003
 1517SOL     OW16009   2.431   4.339  11.907 -0.0472  0.3462  0.2458
 1517SOL    HW116010   2.348   4.310  11.945  0.2609 -0.7997  0.0320
 1517SOL    HW216011   2.429   4.279  11.833 -3.9856 -0.6285  1.1232
 1518SOL     OW16012   2.666   0.797   0.013  0.2959 -0.2275  0.4192
 1518SOL    HW116013   2.700   0.870  17.662 -0.8199  1.1189  1.6061
 1518SOL    HW216014   2.680   0.829   0.102 -0.6419 -1.0408  0.8609
 1519SOL     OW16015   2.641   2.798   7.561  0.0152 -0.4722  0.0922
 1519SOL    HW116016   2.586   2.773   7.636  0.1873 -0.4934  0.2114
 1519SOL    HW216017   2.602   2.880   7.532 -0.8521 -0.9206 -0.0157
 1520SOL     OW16018   3.356   3.938   5.741  0.3066 -0.0756  0.0925
 1520SOL    HW116019   3.390   3.862   5.694  1.5275 -0.1962  1.1545
 1520SOL    HW216020   3.359   4.003   5.671 -2.2896 -0.3960 -0.3224
 1521SOL     OW16021   0.867   1.446  16.327 -0.2955 -0.8780 -0.4318
 1521SOL    HW116022   0.868   1.413  16.237  0.9900 -0.6848 -0.4879
 1521SOL    HW216023   0.908   1.379  16.382  3.1194  0.2316 -1.6230
 1522SOL     OW16024   3.018   2.030   5.511 -0.4600 -0.1749 -0.2119
 1522SOL    HW116025   3.066   2.113   5.519  1.6468 -1.2638 -1.5202
 1522SOL    HW216026   2.964   2.036   5.590 -0.4428  0.4896 -0.2549
 1523SOL     OW16027   1.875   4.301   6.244 -0.4086  0.5251  0.3443
 1523SOL    HW116028   1.966   4.296   6.216 -0.6834  1.5830 -0.7064
 1523SOL    HW216029   1.852   4.208   6.241 -0.3883  0.5756 -1.3097
 1524SOL     OW16030   0.217   3.439  11.747  0.2014  0.1538 -0.4557
 1524SOL    HW116031   0.247   3.394  11.668 -0.7690 -0.2673 -0.5817
 1524SOL    HW216032   0.197   3.528  11.717 -0.2613 -0.0748 -0.8215
 1525SOL     OW16033   0.741   2.285   2.559  1.1726  0.3871 -0.6839
 1525SOL    HW116034   0.689   2.362   2.582  2.8006  1.3322 -0.1619
 1525SOL    HW216035   0.711   2.257   2.473 -1.0776 -1.0369  0.5611
 1526SOL     OW16036   3.313   3.114   2.060 -0.0408  0.3561 -0.2949
 1526SOL    HW116037   3.249   3.157   2.003 -2.3613 -0.0778  1.9880
 1526SOL    HW216038   3.398   3.146   2.027 -0.0232  0.4649 -0.1453
 1527SOL     OW16039   1.531   2.971   0.782  0.1313 -0.4487 -0.2418
 1527SOL    HW116040   1.560   3.052   0.824 -0.5057 -1.3506  1.9129
 1527SOL    HW216041   1.480   3.011   0.711  0.6255 -0.2844 -0.5055
 1528SOL     OW16042   1.128   1.471   5.696  0.1097 -0.2015  0.4796
 1528SOL    HW116043   1.056   1.521   5.658  0.5242 -0.2366 -0.3494
 1528SOL    HW216044   1.185   1.541   5.727 -1.0504  0.6265  0.7578
 1529SOL     OW16045   4.204   4.140   2.663 -0.1225  0.6913 -0.4963
 1529SOL    HW116046   4.290   4.150   2.623  0.3653 -0.5035  0.2591
 1529SOL    HW216047   4.219   4.136   2.757  3.0435  1.4266 -0.9824
 1530SOL     OW16048   1.209   1.319  16.981  0.5547 -0.0521 -0.4385
 1530SOL    HW116049   1.124   1.299  16.942  0.9321  0.4179 -1.5335
 1530SOL    HW216050   1.192   1.304  17.074 -1.3351 -0.4023 -0.8479
 1531SOL     OW16051   1.264   4.307   2.279 -0.2898 -0.0174  0.1679
 1531SOL    HW116052   1.272   4.310   2.184 -0.6924 -1.3817  0.0946
 1531SOL    HW216053   1.175   4.273   2.291 -0.0699 -0.8234 -0.5016
 1532SOL     OW16054   4.238   3.113   5.740 -0.2957  0.6629 -0.3767
 1532SOL    HW116055   4.303   3.181   5.720 -0.5913  1.1560  0.3552
 1532SOL    HW216056   4.162   3.135   5.686 -0.3900 -0.3173 -0.6598
 1533SOL     OW16057   4.601   2.317  15.814 -0.1266  0.4014  0.0779
 1533SOL    HW116058   4.634   2.368  15.888  0.6721 -1.6070  1.0925
 1533SOL    HW216059   4.540   2.258  15.858  4.9011 -4.7566  0.1535
 1534SOL     OW16060   2.435   0.413   4.725 -0.4944  0.6377 -0.0161
 1534SOL    HW116061   2.447   0.500   4.688  0.2446  0.5756  0.0648
 1534SOL    HW216062   2.343   0.392   4.709 -0.7606 -0.1799  2.6207
 1535SOL     OW16063   1.913   1.841   2.858  0.0915  0.0484 -0.1532
 1535SOL    HW116064   1.865   1.775   2.807  1.5914 -0.0506 -1.4490
 1535SOL    HW216065   1.951   1.895   2.789  1.3471  0.5758  0.9531
 1536SOL     OW16066   3.349   0.243   5.017 -0.1083  0.0740 -0.4953
 1536SOL    HW116067   3.281   0.310   5.006  1.4055  1.5832 -0.5542
 1536SOL    HW216068   3.330   0.186   4.942  1.5980 -0.2740 -0.6541
 1537SOL     OW16069   1.700   2.727   1.736  0.0014 -0.3352 -0.0795
 1537SOL    HW116070   1.736   2.672   1.806 -0.9484 -1.1145 -0.2105
 1537SOL    HW216071   1.612   2.743   1.768  0.2669  1.7186 -0.3653
 1538SOL     OW16072   1.570   0.382   3.968  0.5013  0.2827 -0.1685
 1538SOL    HW116073   1.653   0.356   4.008  0.6277 -0.7025 -1.0446
 1538SOL    HW216074   1.591   0.397   3.875 -0.0690  0.6356 -0.2372
 1539SOL     OW16075   1.059   3.214   9.134 -0.5578 -0.4702 -0.4246
 1539SOL    HW116076   0.973   3.215   9.177 -0.7385 -3.6622 -0.6801
 1539SOL    HW216077   1.054   3.171   9.049 -1.2110 -1.4044  0.0903
 1540SOL     OW16078   0.929   1.290   8.038  0.7273  0.0043 -0.5040
 1540SOL    HW116079   0.926   1.366   7.980 -1.4525 -1.4603 -2.3401
 1540SOL    HW216080   0.863   1.323   8.100  0.3808 -0.0216 -0.8569
 1541SOL     OW16081   0.802   2.652   8.482  0.4707 -0.2792 -0.2662
 1541SOL    HW116082   0.709   2.648   8.507  0.4510  1.5946  0.0238
 1541SOL    HW216083   0.836   2.589   8.545 -1.9534 -0.2141  1.1193
 1542SOL     OW16084   4.116   3.004   8.838 -0.1524  0.2589 -0.2956
 1542SOL    HW116085   4.141   2.919   8.874 -1.4608 -0.0951 -0.2133
 1542SOL    HW216086   4.096   3.047   8.920  0.1383  0.7655 -0.4947
 1543SOL     OW16087   4.380   1.381  10.056  0.2715 -0.1632  0.2112
 1543SOL    HW116088   4.373   1.304  10.000  0.3692  0.2942 -0.4299
 1543SOL    HW216089   4.476   1.389  10.060  0.5621 -3.0026 -1.4804
 1544SOL     OW16090   2.268   4.055   7.578 -0.4602  0.0287  0.1552
 1544SOL    HW116091   2.214   4.092   7.648 -0.7457 -1.2265  0.5963
 1544SOL    HW216092   2.275   4.123   7.511 -0.8671  1.2090  1.3012
 1545SOL     OW16093   2.595   1.678   8.249  0.5042  0.0158 -0.1844
 1545SOL    HW116094   2.617   1.675   8.342  1.0015  1.0167 -0.2717
 1545SOL    HW216095   2.507   1.715   8.240  0.8442  0.5410 -1.3560
 1546SOL     OW16096   2.922   2.049  13.166  0.2470  0.0996  0.3263
 1546SOL    HW116097   2.887   1.970  13.125  1.0404  0.0387 -0.2344
 1546SOL    HW216098   2.847   2.072  13.221  0.8921  1.5247  0.6280
 1547SOL     OW16099   3.503   3.834   5.408  0.9744 -0.0672  0.3907
 1547SOL    HW116100   3.532   3.853   5.319 -2.1341 -0.8786 -0.7897
 1547SOL    HW216101   3.470   3.745   5.393  0.6997 -0.2259  1.8690
 1548SOL     OW16102   1.605   0.346   7.815  0.5930 -0.1203 -0.3966
 1548SOL    HW116103   1.621   0.296   7.895 -0.8334  1.3744  0.8270
 1548SOL    HW216104   1.651   0.305   7.742  0.9825  2.4987 -1.6387
 1549SOL     OW16105   4.448   4.500   2.640 -0.2014 -0.0821 -0.1737
 1549SOL    HW116106   4.434   4.536   2.552 -2.9832  0.9425  0.6642
 1549SOL    HW216107   4.482   4.417   2.607 -2.3085 -1.6162  1.4671
 1550SOL     OW16108   0.442   4.599   0.377  0.0057 -0.0741 -0.2583
 1550SOL    HW116109   0.473   4.644   0.456 -0.4937  2.5784 -1.5761
 1550SOL    HW216110   0.385   4.664   0.336  2.7572  2.4328 -0.1413
 1551SOL     OW16111   0.947   2.761  17.602 -0.6597 -0.1267  0.2761
 1551SOL    HW116112   0.920   2.724  17.518 -1.6142  0.1299  0.4616
 1551SOL    HW216113   0.886   2.721  17.664  0.4324 -1.3908  0.5176
 1552SOL     OW16114   0.568   0.081   4.018 -0.4624  0.2647  0.0846
 1552SOL    HW116115   0.553   0.169   4.052  2.2869  1.0568 -0.7674
 1552SOL    HW216116   0.546   0.021   4.089  1.4221 -1.1725 -0.5317
 1553SOL     OW16117   1.043   0.244   8.330 -0.1389  0.6125  0.5581
 1553SOL    HW116118   1.080   0.192   8.260 -2.3462 -1.7791  1.2079
 1553SOL    HW216119   1.048   0.336   8.304  2.7404  0.1059 -0.6536
 1554SOL     OW16120   4.539   2.138   5.651  0.4388 -0.4505 -0.1475
 1554SOL    HW116121   4.627   2.104   5.668  0.0534  0.2010  3.1041
 1554SOL    HW216122   4.530   2.095   5.566  1.1667  0.2405 -0.5808
 1555SOL     OW16123   2.782   2.905  10.876  0.3531 -0.7350  0.1009
 1555SOL    HW116124   2.796   2.849  10.799  0.0820 -1.4694  0.5867
 1555SOL    HW216125   2.688   2.919  10.870  0.2682 -1.0454  0.7104
 1556SOL     OW16126   2.860   3.274   4.868  0.0708  0.5815 -0.6176
 1556SOL    HW116127   2.812   3.195   4.844 -0.5835  0.6553  0.4771
 1556SOL    HW216128   2.795   3.310   4.929 -1.3594 -1.4554 -0.9460
 1557SOL     OW16129   2.794   3.546  11.849  0.1756 -0.0532  0.4656
 1557SOL    HW116130   2.764   3.586  11.767  2.6512  0.8838  0.0202
 1557SOL    HW216131   2.804   3.452  11.832  0.8832  0.2406 -0.7307
 1558SOL     OW16132   0.254   4.642   8.982  0.4728  0.2445  0.1891
 1558SOL    HW116133   0.228   0.009   8.991 -1.3233 -0.4334  1.7501
 1558SOL    HW216134   0.295   4.646   8.896 -0.7323 -1.3747 -0.4599
 1559SOL     OW16135   2.953   3.652   5.004 -0.2576 -0.4018  0.0111
 1559SOL    HW116136   2.936   3.614   4.918  1.7909  0.6537 -0.8760
 1559SOL    HW216137   3.048   3.642   5.006 -0.1084  0.7187 -0.8499
 1560SOL     OW16138   2.416   0.370   7.452 -0.2266 -0.2354  0.2824
 1560SOL    HW116139   2.395   0.442   7.392 -0.0296 -0.9694 -0.6752
 1560SOL    HW216140   2.504   0.396   7.479  0.2438 -0.1498 -1.3005
 1561SOL     OW16141   0.721   3.471   1.965 -0.1989  0.0013 -0.2352
 1561SOL    HW116142   0.639   3.425   1.982 -1.0858  1.5370 -0.3263
 1561SOL    HW216143   0.720   3.459   1.870 -1.1297 -1.9540  0.0221
 1562SOL     OW16144   2.805   1.074   4.966 -0.0278 -0.2732 -0.5483
 1562SOL    HW116145   2.881   1.112   4.924  0.1144 -0.0979 -0.1342
 1562SOL    HW216146   2.742   1.088   4.895 -1.9262  2.3711  1.6679
 1563SOL     OW16147   2.904   3.893   1.533 -0.4294  0.2469 -0.4274
 1563SOL    HW116148   2.924   3.805   1.499  0.9772 -0.3965  2.1178
 1563SOL    HW216149   2.973   3.893   1.599 -0.3192 -0.2364 -0.5396
 1564SOL     OW16150   3.014   1.470   5.605 -0.3931  0.7296  0.1072
 1564SOL    HW116151   3.084   1.468   5.670  0.2834 -0.5795 -0.6590
 1564SOL    HW216152   3.039   1.548   5.555 -0.2231  0.7408  0.2072
 1565SOL     OW16153   4.338   2.337   5.994 -0.1339 -0.3833 -0.4353
 1565SOL    HW116154   4.430   2.323   5.973  0.2127  0.4405  0.5550
 1565SOL    HW216155   4.289   2.320   5.914 -0.2153 -1.1174 -0.2233
 1566SOL     OW16156   2.506   0.283  10.174  0.7277  0.5701 -0.1686
 1566SOL    HW116157   2.537   0.203  10.131  0.7456  1.7038 -2.2573
 1566SOL    HW216158   2.459   0.334  10.108  2.3329 -1.5295 -2.9275
 1567SOL     OW16159   2.180   4.409   3.868  0.0537 -0.3866  0.0793
 1567SOL    HW116160   2.143   4.332   3.824  2.5034 -1.3536 -0.3062
 1567SOL    HW216161   2.219   4.374   3.948  1.5000 -0.3866 -0.6146
 1568SOL     OW16162   3.648   1.118   1.688 -0.0107 -0.3343  0.2940
 1568SOL    HW116163   3.679   1.173   1.616  0.7615 -1.2439 -0.0635
 1568SOL    HW216164   3.681   1.034   1.659 -1.5150 -1.0493  0.6167
 1569SOL     OW16165   0.748   2.602   2.329  0.8218 -0.1722 -0.2839
 1569SOL    HW116166   0.682   2.562   2.385  0.8464  1.4650  0.9229
 1569SOL    HW216167   0.692   2.649   2.267  0.5090  1.1076  0.9870
 1570SOL     OW16168   0.741   2.916  14.495 -0.4815  0.4073 -0.7183
 1570SOL    HW116169   0.776   3.005  14.484  0.2349  0.3432  1.0463
 1570SOL    HW216170   0.778   2.872  14.418 -2.6080 -0.0606 -1.4520
 1571SOL     OW16171   3.973   3.601  14.576 -0.5748  0.0285 -0.2643
 1571SOL    HW116172   4.019   3.527  14.537  0.1738  0.1309  0.4347
 1571SOL    HW216173   3.992   3.677  14.521 -1.3829  0.2200 -0.2856
 1572SOL     OW16174   2.760   1.217   4.525 -0.8468  0.3181  0.2896
 1572SOL    HW116175   2.717   1.295   4.492  3.0949  2.8234  1.0235
 1572SOL    HW216176   2.833   1.204   4.464 -0.7198  0.1197  0.4816
 1573SOL     OW16177   3.167   0.019   0.155 -0.2055  0.2447  0.0104
 1573SOL    HW116178   3.165   4.654   0.122 -0.2668  0.9795 -1.9292
 1573SOL    HW216179   3.077   0.025   0.188  0.5547  1.4064  1.8815
 1574SOL     OW16180   3.422   3.001   3.024  0.1346 -0.5271  0.4033
 1574SOL    HW116181   3.423   2.959   2.939  2.7661 -4.2371  2.2768
 1574SOL    HW216182   3.330   3.029   3.030  0.4179  0.5787 -0.4348
 1575SOL     OW16183   3.923   0.836  16.184  0.1827  0.2643 -0.6914
 1575SOL    HW116184   3.863   0.908  16.203 -0.6282 -0.5931 -0.0186
 1575SOL    HW216185   4.003   0.876  16.218  0.6111 -0.8726 -0.3342
 1576SOL     OW16186   0.077   4.334   0.538 -0.4398  0.6478  0.4335
 1576SOL    HW116187   0.018   4.388   0.486  0.1744  2.0799  1.2461
 1576SOL    HW216188   0.050   4.362   0.625 -0.0878  2.7346 -0.1335
 1577SOL     OW16189   4.510   1.741   0.208 -0.5789 -0.3854 -0.2789
 1577SOL    HW116190   4.595   1.768   0.243 -0.9592  1.1558 -0.5737
 1577SOL    HW216191   4.449   1.730   0.281  0.2533  1.8589  0.7431
 1578SOL     OW16192   2.054   2.237   9.421 -0.2389 -0.6342 -0.4517
 1578SOL    HW116193   2.145   2.213   9.436 -0.7042 -2.1093 -0.0151
 1578SOL    HW216194   2.046   2.237   9.326  0.3335  0.1572 -0.5024
 1579SOL     OW16195   0.733   2.897   5.480  0.3560 -0.6531  0.0637
 1579SOL    HW116196   0.731   2.808   5.514  0.4154 -1.0769 -1.0324
 1579SOL    HW216197   0.651   2.940   5.502  0.8387  0.2653  0.0518
 1580SOL     OW16198   2.029   1.220   2.733  0.7101 -0.2753 -0.1236
 1580SOL    HW116199   2.037   1.135   2.776  1.0496 -0.5613 -0.7467
 1580SOL    HW216200   2.085   1.194   2.660  0.0233  1.2454 -1.1988
 1581SOL     OW16201   3.721   3.159   8.062  0.5883 -0.0545  0.5370
 1581SOL    HW116202   3.697   3.073   8.098  0.2635 -0.5233 -0.7902
 1581SOL    HW216203   3.792   3.132   8.003 -0.8621  0.2515 -1.3739
 1582SOL     OW16204   2.939   0.312   7.366  0.4529 -0.4963  0.3800
 1582SOL    HW116205   2.999   0.372   7.322 -1.3896 -0.2388 -1.8010
 1582SOL    HW216206   2.962   0.229   7.324 -0.9338 -0.9262  0.4626
 1583SOL     OW16207   0.237   1.718   4.588  0.2055  0.0576  0.6970
 1583SOL    HW116208   0.315   1.677   4.552  0.7290  0.2178  1.6342
 1583SOL    HW216209   0.196   1.752   4.509 -1.5232 -0.8141  1.2171
 1584SOL     OW16210   3.237   3.698   1.525 -0.5995  0.1386 -0.3690
 1584SOL    HW116211   3.184   3.731   1.598 -0.5767  1.3433 -0.8884
 1584SOL    HW216212   3.315   3.753   1.536  0.0645 -0.9828  0.4430
 1585SOL     OW16213   3.355   3.387   7.742 -0.4643  0.3932 -0.3025
 1585SOL    HW116214   3.430   3.343   7.782 -1.3347 -0.6387  0.1785
 1585SOL    HW216215   3.304   3.392   7.823 -0.2709 -0.0147 -0.1575
 1586SOL     OW16216   3.511   0.742   6.874  0.3219  0.1524  0.5368
 1586SOL    HW116217   3.438   0.682   6.861  0.1718  0.4749 -0.0874
 1586SOL    HW216218   3.472   0.826   6.899  1.7221  0.5890  1.2840
 1587SOL     OW16219   0.195   1.071   8.762 -0.4346 -0.6178 -0.0298
 1587SOL    HW116220   0.226   1.161   8.756 -0.7940 -0.4047  1.2833
 1587SOL    HW216221   0.184   1.053   8.855  0.5116  0.3413  0.2635
 1588SOL     OW16222   3.229   0.676   9.642  0.3480  0.6399  0.4684
 1588SOL    HW116223   3.245   0.659   9.735 -0.1535  0.3656  0.5010
 1588SOL    HW216224   3.224   0.771   9.640  0.4627  0.6115 -0.9890
 1589SOL     OW16225   1.192   0.126   8.139  0.2066  0.3283 -0.7726
 1589SOL    HW116226   1.265   0.171   8.096  0.6392 -0.5243 -0.9279
 1589SOL    HW216227   1.236   0.086   8.214 -2.2909  0.5206  0.7968
 1590SOL     OW16228   1.249   4.240   9.226  0.1906 -0.1384  0.3236
 1590SOL    HW116229   1.158   4.272   9.224  0.6510  1.1571  0.0450
 1590SOL    HW216230   1.285   4.314   9.275 -0.3653 -0.2791  0.9541
 1591SOL     OW16231   0.487   3.975   0.812 -0.2869 -0.6437  0.1781
 1591SOL    HW116232   0.405   3.966   0.860 -1.1880  2.9181 -0.7116
 1591SOL    HW216233   0.488   4.069   0.793  1.1279 -0.5038  0.9330
 1592SOL     OW16234   2.726   1.815  14.504 -0.4360 -0.2248 -0.3702
 1592SOL    HW116235   2.763   1.866  14.575  0.6838 -0.6056 -0.6807
 1592SOL    HW216236   2.651   1.868  14.478 -1.0952 -0.4653  1.0642
 1593SOL     OW16237   1.417   1.864   0.871  0.3650 -0.0456  0.3140
 1593SOL    HW116238   1.510   1.840   0.866  1.0750  3.1934 -2.0949
 1593SOL    HW216239   1.379   1.803   0.808  1.9198  0.5243 -1.1578
 1594SOL     OW16240   1.923   0.428   2.816 -0.3204 -0.6299 -0.8710
 1594SOL    HW116241   1.925   0.457   2.907  1.2295 -0.0185 -1.1122
 1594SOL    HW216242   2.013   0.396   2.813  0.2008  0.9152 -1.4453
 1595SOL     OW16243   3.920   3.281  16.258 -0.2536  0.3801  0.2965
 1595SOL    HW116244   3.918   3.372  16.287 -0.8748  0.1090  1.1290
 1595SOL    HW216245   3.882   3.305  16.174 -3.3911  0.5602  1.7452
 1596SOL     OW16246   1.673   2.970   2.176  0.4655  0.4803  0.0260
 1596SOL    HW116247   1.737   2.992   2.108 -0.0458  2.9588  0.3734
 1596SOL    HW216248   1.679   3.053   2.223 -0.8982  0.5090  0.1479
 1597SOL     OW16249   2.395   2.226   5.198  0.9420 -0.1057  0.0724
 1597SOL    HW116250   2.307   2.243   5.166  0.8676  1.1055  0.9231
 1597SOL    HW216251   2.420   2.318   5.197  2.8263 -0.5854  2.2556
 1598SOL     OW16252   1.665   3.719  16.729 -0.5805 -0.3395 -0.5725
 1598SOL    HW116253   1.727   3.673  16.673 -0.2970 -0.6639  0.0035
 1598SOL    HW216254   1.632   3.788  16.672  0.2076  2.4559  2.3017
 1599SOL     OW16255   1.274   2.822   6.205 -0.1938 -0.0928  0.2635
 1599SOL    HW116256   1.227   2.845   6.125  0.0780 -0.7581 -0.0915
 1599SOL    HW216257   1.218   2.750   6.234 -3.6227  1.6560 -1.9876
 1600SOL     OW16258   0.502   0.848   6.823  0.3995  0.5858 -0.0433
 1600SOL    HW116259   0.584   0.815   6.788  0.4005 -0.3423  0.8414
 1600SOL    HW216260   0.494   0.801   6.906 -0.0780  0.1897 -0.3102
 1601SOL     OW16261   2.945   1.173   4.332 -0.2047  0.4252 -0.4000
 1601SOL    HW116262   2.966   1.261   4.302 -1.9512  1.1315  0.4958
 1601SOL    HW216263   2.992   1.117   4.270  1.6211  3.6557 -1.9235
 1602SOL     OW16264   0.864   2.475   8.683  0.1844 -0.6041 -0.7549
 1602SOL    HW116265   0.778   2.449   8.715  0.3230 -0.3180 -0.1577
 1602SOL    HW216266   0.921   2.463   8.758  1.8081 -0.9146 -2.0360
 1603SOL     OW16267   0.669   0.733   8.455 -0.4448 -0.1163 -0.1631
 1603SOL    HW116268   0.690   0.646   8.490 -1.3232  0.0200  0.7084
 1603SOL    HW216269   0.671   0.789   8.532 -2.0486 -1.1824  0.6547
 1604SOL     OW16270   0.271   1.168  11.812  0.1176  0.2556 -0.9577
 1604SOL    HW116271   0.296   1.189  11.902 -0.4494  0.5728 -0.8745
 1604SOL    HW216272   0.187   1.211  11.795 -0.4283 -0.6214 -0.5117
 1605SOL     OW16273   2.198   2.066   8.348 -0.0930 -0.5369 -0.0256
 1605SOL    HW116274   2.129   2.016   8.390  1.4764 -2.0747  0.7108
 1605SOL    HW216275   2.260   2.064   8.421  0.4992  3.4220 -0.4357
 1606SOL     OW16276   0.742   2.666   8.158 -0.1009  0.1639 -0.6645
 1606SOL    HW116277   0.656   2.659   8.200  0.0709 -1.6592 -0.6227
 1606SOL    HW216278   0.802   2.621   8.218 -1.5413  0.5778  1.0894
 1607SOL     OW16279   1.698   4.197   2.177 -0.2119 -0.1399 -0.3464
 1607SOL    HW116280   1.752   4.261   2.131 -1.6021  0.7003 -0.8166
 1607SOL    HW216281   1.646   4.164   2.104 -3.0180  0.8911  1.1662
 1608SOL     OW16282   1.501   2.746   8.445  0.3253 -0.4231  0.2247
 1608SOL    HW116283   1.423   2.779   8.400  2.0386  2.3131 -0.7352
 1608SOL    HW216284   1.447   2.678   8.486 -0.2297  0.7463  1.4064
 1609SOL     OW16285   0.334   3.807   7.519 -0.2873  0.3901  0.3074
 1609SOL    HW116286   0.263   3.848   7.568 -1.2164 -1.3305  0.3897
 1609SOL    HW216287   0.355   3.740   7.584 -0.4611  0.0072 -0.0371
 1610SOL     OW16288   0.699   0.807  14.458  0.0382  0.1318 -0.5068
 1610SOL    HW116289   0.689   0.867  14.532  1.6858 -0.0808 -0.1137
 1610SOL    HW216290   0.634   0.739  14.476  0.6501 -0.0901  0.8394
 1611SOL     OW16291   1.479   2.972   3.622  0.5946 -0.1246  0.1227
 1611SOL    HW116292   1.394   3.011   3.642  0.2232 -0.1701 -1.3431
 1611SOL    HW216293   1.481   2.903   3.688 -3.9453  1.0470  1.4612
 1612SOL     OW16294   0.230   1.992   1.027  0.6060 -0.2381  0.3011
 1612SOL    HW116295   0.202   1.998   1.119  0.9253 -2.8856  0.5631
 1612SOL    HW216296   0.156   2.015   0.970  0.1515 -0.6515  0.7237
 1613SOL     OW16297   0.593   4.285   8.459 -0.4328  0.1736  0.2384
 1613SOL    HW116298   0.678   4.285   8.503 -0.7247  1.6364  0.8049
 1613SOL    HW216299   0.610   4.308   8.368 -0.7867  0.8147  0.3332
 1614SOL     OW16300   2.519   0.483   8.331 -0.5439 -0.2096  0.0137
 1614SOL    HW116301   2.466   0.427   8.388  0.8671  1.8828  3.4265
 1614SOL    HW216302   2.579   0.515   8.399  0.0248 -0.5170 -0.3489
 1615SOL     OW16303   4.189   3.756   5.516 -0.2376  0.1148 -0.6640
 1615SOL    HW116304   4.116   3.731   5.574  0.5480 -0.3656  0.1126
 1615SOL    HW216305   4.253   3.786   5.581  0.8283  1.7030 -2.4679
 1616SOL     OW16306   2.655   4.216   3.493  0.2136 -0.0684  0.2783
 1616SOL    HW116307   2.702   4.175   3.421 -1.7770 -1.9949  0.0986
 1616SOL    HW216308   2.571   4.237   3.451  2.4185 -0.6340 -4.3528
 1617SOL     OW16309   4.532   3.265   1.618  0.2079 -0.5123 -0.3751
 1617SOL    HW116310   4.565   3.341   1.569 -0.6043  0.3644  0.4389
 1617SOL    HW216311   4.436   3.269   1.622  0.3166  0.9842  0.5797
 1618SOL     OW16312   1.093   1.937   5.256  0.4994 -0.3346 -0.5054
 1618SOL    HW116313   1.090   2.000   5.184 -0.7504  0.1441 -0.0355
 1618SOL    HW216314   1.093   1.987   5.337  0.4098 -2.4102  0.7716
 1619SOL     OW16315   2.681   2.359   6.629 -0.3359  0.5161  0.1767
 1619SOL    HW116316   2.613   2.420   6.656 -1.4082  0.0644 -1.4921
 1619SOL    HW216317   2.755   2.417   6.614  0.0770 -0.0755 -0.0859
 1620SOL     OW16318   2.193   4.712   8.543 -0.6869 -0.3883  0.3070
 1620SOL    HW116319   2.204   4.713   8.448 -0.2616  0.9551  0.3731
 1620SOL    HW216320   2.101   0.010   8.561 -0.4866 -0.2994  1.2306
 1621SOL     OW16321   1.119   2.967  17.655 -0.0402 -0.0449 -0.4011
 1621SOL    HW116322   1.060   3.040  17.635 -0.6647  0.0178  1.6646
 1621SOL    HW216323   1.049   2.902  17.660  0.7742 -0.8864  0.1588
 1622SOL     OW16324   2.640   1.087   7.103  0.1654 -0.3468 -0.6445
 1622SOL    HW116325   2.575   1.156   7.111 -0.3887 -0.9765  0.2526
 1622SOL    HW216326   2.645   1.065   7.196  1.7437  0.9838 -0.4186
 1623SOL     OW16327   1.629   4.073   8.729 -0.1767  0.2377 -0.2686
 1623SOL    HW116328   1.585   4.024   8.798  1.0124  1.1122  1.1135
 1623SOL    HW216329   1.566   4.144   8.715  0.2190  0.3771 -1.3229
 1624SOL     OW16330   4.668   0.232   7.776 -0.1401 -0.2332  0.0380
 1624SOL    HW116331   4.582   0.274   7.771  0.9178  2.0061  0.2849
 1624SOL    HW216332   4.632   0.146   7.795  1.4725 -0.6488  1.2186
 1625SOL     OW16333   1.401   4.213   0.022  0.3611  0.3616 -0.8142
 1625SOL    HW116334   1.307   4.220   0.037  0.2118 -0.2018 -1.4690
 1625SOL    HW216335   1.416   4.235  17.630 -1.8212  0.4660 -1.1241
 1626SOL     OW16336   4.166   1.928  17.136  0.0964  0.2116 -0.1900
 1626SOL    HW116337   4.181   1.849  17.188 -3.8971  0.4709  1.3856
 1626SOL    HW216338   4.235   1.984  17.171  0.5870 -0.1839 -0.5379
 1627SOL     OW16339   0.720   0.515   6.755 -0.3125 -0.4558 -0.0408
 1627SOL    HW116340   0.803   0.503   6.708 -0.8182 -0.6722 -0.8743
 1627SOL    HW216341   0.692   0.427   6.779 -0.3391 -0.4456 -0.0345
 1628SOL     OW16342   2.535   3.464  10.707 -0.7285  0.0899  0.1317
 1628SOL    HW116343   2.476   3.450  10.781 -0.9011 -1.2145 -0.2554
 1628SOL    HW216344   2.604   3.403  10.731  2.0657  2.8441 -0.8063
 1629SOL     OW16345   4.422   1.097   3.433 -0.1814  0.2987  0.3789
 1629SOL    HW116346   4.435   1.143   3.349  1.0273 -0.7461 -0.0117
 1629SOL    HW216347   4.406   1.007   3.405  0.0966  0.3380  0.0876
 1630SOL     OW16348   1.665   3.597   2.891 -0.2050 -0.1805  0.4950
 1630SOL    HW116349   1.674   3.504   2.873 -2.3502  0.3209 -3.0903
 1630SOL    HW216350   1.671   3.630   2.802 -1.3281 -3.4320 -0.7437
 1631SOL     OW16351   3.944   2.202   3.081 -0.6560 -0.1547 -0.4050
 1631SOL    HW116352   4.024   2.239   3.117 -0.5772  0.0816 -0.8242
 1631SOL    HW216353   3.880   2.218   3.150 -0.3953 -0.7072 -0.0341
 1632SOL     OW16354   0.356   3.593  13.522 -0.2056 -0.0516 -0.1946
 1632SOL    HW116355   0.401   3.603  13.438  1.4423 -2.6419  0.3657
 1632SOL    HW216356   0.408   3.658  13.569  2.8961 -1.7127 -1.3556
 1633SOL     OW16357   2.784   0.773   5.597 -0.5420 -0.1966  0.1259
 1633SOL    HW116358   2.826   0.726   5.670 -2.1097 -1.6443  0.0924
 1633SOL    HW216359   2.816   0.861   5.619  1.1561 -0.5390 -0.9190
 1634SOL     OW16360   2.408   1.009  12.883  0.9127  0.3695  0.3840
 1634SOL    HW116361   2.433   1.051  12.801  1.6427 -0.9702 -0.0780
 1634SOL    HW216362   2.314   1.016  12.898  0.5722  0.2682 -1.7992
 1635SOL     OW16363   0.177   3.354   2.343 -0.0251 -0.2574 -0.8393
 1635SOL    HW116364   0.209   3.283   2.287 -0.0205  1.1825 -2.6509
 1635SOL    HW216365   0.189   3.436   2.296  0.4211 -0.4760 -1.1011
 1636SOL     OW16366   1.562   4.681  14.951 -0.1266 -0.1685  0.6834
 1636SOL    HW116367   1.533   0.045  14.971 -1.1294 -0.5250  0.8244
 1636SOL    HW216368   1.561   4.691  14.856 -2.5596  1.7089  0.9133
 1637SOL     OW16369   0.930   0.411   5.884  0.1224 -0.2460 -0.3137
 1637SOL    HW116370   1.004   0.371   5.838  0.2604  0.1067 -0.3974
 1637SOL    HW216371   0.861   0.412   5.818 -0.3040 -0.1799  0.1338
 1638SOL     OW16372   3.340   0.815   1.194  0.0108  0.6816  0.6419
 1638SOL    HW116373   3.268   0.862   1.153  1.4773  3.0123  0.7338
 1638SOL    HW216374   3.403   0.883   1.218 -0.3948  0.8687  1.1603
 1639SOL     OW16375   2.539   4.058   8.619 -1.2730 -0.3114 -0.0689
 1639SOL    HW116376   2.465   4.111   8.588  0.0412  1.2897 -0.4582
 1639SOL    HW216377   2.523   3.971   8.583  1.8144 -2.2443  3.2202
 1640SOL     OW16378   3.820   1.487   4.485  0.1916 -0.3600 -0.4393
 1640SOL    HW116379   3.831   1.462   4.393  1.8693  0.7366 -0.5360
 1640SOL    HW216380   3.794   1.401   4.518  0.8612 -1.1408 -1.9335
 1641SOL     OW16381   4.719   3.022   0.621  0.0156 -0.3625  0.1712
 1641SOL    HW116382   0.035   3.108   0.616  0.4255 -0.4698  1.6016
 1641SOL    HW216383   0.001   2.998   0.529 -0.8353  2.1126 -0.5353
 1642SOL     OW16384   3.710   0.701   7.836  0.1705 -0.5192 -0.5862
 1642SOL    HW116385   3.642   0.669   7.777  0.7298 -0.6952 -1.1369
 1642SOL    HW216386   3.766   0.627   7.858  1.1780  0.5993  0.5461
 1643SOL     OW16387   1.187   3.055   3.962 -0.2287 -0.2681 -0.1621
 1643SOL    HW116388   1.223   3.115   4.028  2.1929  0.4503 -2.1462
 1643SOL    HW216389   1.270   3.014   3.938  0.2211 -1.1316  2.8069
 1644SOL     OW16390   2.653   1.601  11.253  0.4772 -0.4080  0.0805
 1644SOL    HW116391   2.742   1.571  11.230  1.3425  1.5738  0.8714
 1644SOL    HW216392   2.647   1.576  11.345 -1.5012  0.5510  0.2022
 1645SOL     OW16393   3.256   0.605   5.239 -0.2433 -0.4019  0.0452
 1645SOL    HW116394   3.262   0.670   5.310  1.9355  1.3299 -1.7070
 1645SOL    HW216395   3.291   0.655   5.165 -0.3534  0.2436  0.4244
 1646SOL     OW16396   3.516   3.142  12.298  0.1349 -0.0557  0.2417
 1646SOL    HW116397   3.554   3.178  12.378 -1.0481  1.3629  0.1499
 1646SOL    HW216398   3.590   3.147  12.237 -0.5856 -1.1997 -0.7447
 1647SOL     OW16399   2.939   0.982   9.776 -0.4147  0.4965  0.2849
 1647SOL    HW116400   3.001   0.973   9.848  0.6861  0.3459 -0.6744
 1647SOL    HW216401   2.897   1.063   9.803  1.7546  0.8557  2.5657
 1648SOL     OW16402   0.876   4.610  11.946  0.0015 -0.0339 -0.5131
 1648SOL    HW116403   0.843   4.529  11.908  2.3602 -0.0703 -2.4650
 1648SOL    HW216404   0.892   4.577  12.035  0.7037  1.8072  0.0485
 1649SOL     OW16405   3.779   1.467   2.190  0.1922 -0.1252 -0.3175
 1649SOL    HW116406   3.693   1.504   2.206  0.6646  1.0364 -0.4538
 1649SOL    HW216407   3.842   1.528   2.227  0.4262 -0.2684 -0.4730
 1650SOL     OW16408   2.749   3.240   1.551 -0.2272  0.1524 -0.2393
 1650SOL    HW116409   2.812   3.286   1.606  0.4680 -1.4370  0.2579
 1650SOL    HW216410   2.666   3.252   1.598 -0.9315 -1.5026 -1.0433
 1651SOL     OW16411   2.002   0.899   3.613 -0.4854  0.3429  0.4734
 1651SOL    HW116412   2.095   0.882   3.600 -0.2248  1.0560  1.4073
 1651SOL    HW216413   1.974   0.925   3.525  4.0206 -0.5475 -1.2139
 1652SOL     OW16414   2.668   1.542   7.078 -0.0553  0.0812  0.2411
 1652SOL    HW116415   2.688   1.635   7.092 -0.2816  0.1007  0.4250
 1652SOL    HW216416   2.731   1.517   7.010  1.3333 -0.3183  1.6648
 1653SOL     OW16417   3.356   0.666   8.703  0.3698 -0.1706  0.0194
 1653SOL    HW116418   3.424   0.697   8.764  0.7503 -3.7233  1.3947
 1653SOL    HW216419   3.328   0.741   8.651  0.0751 -0.4640 -0.2443
 1654SOL     OW16420   1.263   2.392   0.153 -0.3712  0.2755  0.3808
 1654SOL    HW116421   1.287   2.470   0.203  0.0359  0.4461 -0.0875
 1654SOL    HW216422   1.308   2.412   0.071  1.5501 -1.6930  0.9543
 1655SOL     OW16423   0.778   3.244   8.238  0.9866  0.6426 -0.4148
 1655SOL    HW116424   0.721   3.315   8.208  1.8331  0.6042 -2.1253
 1655SOL    HW216425   0.823   3.286   8.311 -1.3541 -1.3657  2.1676
 1656SOL     OW16426   3.552   1.975  12.360  0.1064 -0.1907  0.0366
 1656SOL    HW116427   3.577   2.008  12.446  0.0956  0.6906 -0.2943
 1656SOL    HW216428   3.457   1.985  12.363  0.1557  0.7072 -1.3162
 1657SOL     OW16429   3.462   0.660   3.188  0.4456  0.1363 -0.1540
 1657SOL    HW116430   3.379   0.677   3.232 -1.0727 -1.2824 -2.4966
 1657SOL    HW216431   3.486   0.747   3.158 -0.6462  0.5438  0.1539
 1658SOL     OW16432   4.607   1.514   9.667  0.0831 -0.5586  0.4016
 1658SOL    HW116433   4.694   1.534   9.633  0.0169 -3.9788 -1.7820
 1658SOL    HW216434   4.605   1.419   9.673 -0.1171 -0.6478 -1.0286
 1659SOL     OW16435   1.884   2.676  13.365  0.2629  0.3346  0.2088
 1659SOL    HW116436   1.793   2.660  13.388  0.4216  3.4297  2.9413
 1659SOL    HW216437   1.892   2.766  13.395 -1.0584  0.3699  0.4661
 1660SOL     OW16438   2.331   0.836  13.641  0.2735  0.4694  0.0054
 1660SOL    HW116439   2.338   0.762  13.702 -2.0085  0.5900  0.3885
 1660SOL    HW216440   2.305   0.906  13.699 -1.9066 -0.2713 -0.0917
 1661SOL     OW16441   3.707   0.140   3.464  0.5315  0.2006  0.2776
 1661SOL    HW116442   3.793   0.122   3.425 -0.9409  1.4343 -3.5148
 1661SOL    HW216443   3.714   0.234   3.476  0.7407  0.2181  0.0283
 1662SOL     OW16444   3.474   2.394   4.950 -0.3315 -0.5493 -0.4837
 1662SOL    HW116445   3.409   2.460   4.974  0.0436 -0.4453  0.2442
 1662SOL    HW216446   3.420   2.329   4.904  2.2906 -2.0262 -1.4881
 1663SOL     OW16447   0.022   0.206  11.707 -0.1536 -0.0186 -0.7497
 1663SOL    HW116448   0.103   0.194  11.757 -0.5750 -1.2514 -0.3784
 1663SOL    HW216449   0.054   0.276  11.649 -0.6339 -0.7296 -1.8754
 1664SOL     OW16450   4.601   2.518   6.235  0.0342  0.9802 -0.2772
 1664SOL    HW116451   4.680   2.493   6.186 -0.3457  1.3077 -1.0509
 1664SOL    HW216452   4.541   2.448   6.210  1.2531 -0.3629  0.5459
 1665SOL     OW16453   2.052   3.909  10.286 -0.5296  0.2081  0.4508
 1665SOL    HW116454   2.039   3.993  10.330  2.8336  0.1712  1.5529
 1665SOL    HW216455   2.111   3.859  10.343 -0.9089 -0.6136  0.1231
 1666SOL     OW16456   4.047   1.288   5.461  0.4642  0.1842 -0.0285
 1666SOL    HW116457   4.002   1.318   5.540  0.4434 -0.8551  0.3436
 1666SOL    HW216458   4.013   1.199   5.456 -1.1133  0.8488 -0.9515
 1667SOL     OW16459   1.294   3.178   6.263  0.8029 -0.3978  0.0539
 1667SOL    HW116460   1.202   3.155   6.260  0.7757 -0.1838 -1.0409
 1667SOL    HW216461   1.327   3.148   6.347  3.8985 -2.0374 -1.7085
 1668SOL     OW16462   1.155   0.428   9.131 -0.1673  0.4080  0.4131
 1668SOL    HW116463   1.246   0.424   9.101 -0.0932  1.8173  0.4569
 1668SOL    HW216464   1.167   0.485   9.207 -0.4531 -0.5050  1.1451
 1669SOL     OW16465   3.469   3.847   4.836 -0.3757 -1.1401  0.0831
 1669SOL    HW116466   3.529   3.852   4.761 -0.7586  3.0090  0.0506
 1669SOL    HW216467   3.446   3.754   4.827  0.1017 -1.3887  1.5647
 1670SOL     OW16468   2.337   4.285   9.029 -0.3500 -0.0492 -0.3878
 1670SOL    HW116469   2.417   4.234   9.041 -0.5506  0.1358  1.6636
 1670SOL    HW216470   2.282   4.220   8.986 -1.4581  1.2079 -0.8709
 1671SOL     OW16471   3.718   2.608   9.208  0.0593  0.0718 -0.4031
 1671SOL    HW116472   3.750   2.518   9.217  1.9054  0.5399 -2.1090
 1671SOL    HW216473   3.636   2.595   9.161 -0.4538 -2.4007  1.1936
 1672SOL     OW16474   3.225   1.389   7.867  0.2531  1.0364 -0.1694
 1672SOL    HW116475   3.187   1.452   7.805  0.4373  1.5477  0.2415
 1672SOL    HW216476   3.320   1.402   7.864  0.4352 -0.4864 -0.9851
 1673SOL     OW16477   0.861   2.905  17.020  0.1515  0.1299 -0.1789
 1673SOL    HW116478   0.889   2.889  17.111 -0.3857 -1.8035 -0.3515
 1673SOL    HW216479   0.793   2.972  17.021  0.2021  0.1843 -0.5990
 1674SOL     OW16480   2.847   2.041  14.916 -0.1838  0.5111  0.4664
 1674SOL    HW116481   2.793   1.978  14.869  1.8864 -1.3959  0.6442
 1674SOL    HW216482   2.790   2.118  14.921 -1.1732 -0.1493 -0.8357
 1675SOL     OW16483   2.828   4.682   1.806  0.0359 -0.1810  0.4441
 1675SOL    HW116484   2.785   4.688   1.721  0.3349  0.0693  0.3101
 1675SOL    HW216485   2.919   4.666   1.780 -0.1350  0.7314 -0.7176
 1676SOL     OW16486   1.293   2.967   8.975 -0.6284 -0.3899  0.3143
 1676SOL    HW116487   1.223   2.903   8.989  0.1404 -1.3834 -0.3539
 1676SOL    HW216488   1.248   3.051   8.976  0.9458  0.5314 -4.0528
 1677SOL     OW16489   2.056   4.414   5.184 -0.6746 -0.5314  0.3236
 1677SOL    HW116490   2.087   4.335   5.228  1.3419  1.2234  2.0659
 1677SOL    HW216491   2.050   4.386   5.093  1.3324  0.8383 -0.2185
 1678SOL     OW16492   4.133   4.095   6.959 -0.2390 -0.3033  0.7114
 1678SOL    HW116493   4.175   4.020   6.916  1.8583  0.4068  1.5202
 1678SOL    HW216494   4.075   4.048   7.018  0.9246 -0.9842  1.3056
 1679SOL     OW16495   4.048   2.495  10.526 -0.1451  0.4085  0.1638
 1679SOL    HW116496   3.958   2.491  10.558 -0.2935  0.9659 -0.1727
 1679SOL    HW216497   4.072   2.409  10.492  2.1956  1.0049  0.3387
 1680SOL     OW16498   4.277   4.267   7.128  0.3080 -0.4225 -0.3997
 1680SOL    HW116499   4.347   4.288   7.066  0.0840 -0.4864 -0.6726
 1680SOL    HW216500   4.217   4.210   7.081  1.7848 -2.4435  0.1523
 1681SOL     OW16501   0.415   3.264  13.145  0.0436  0.5096  0.2582
 1681SOL    HW116502   0.491   3.249  13.200  0.7673 -0.1950 -0.9398
 1681SOL    HW216503   0.462   3.260  13.062  1.8183  0.4018  1.2881
 1682SOL     OW16504   1.799   1.609   1.039 -0.1934  0.3527 -0.2078
 1682SOL    HW116505   1.777   1.689   0.992 -2.0381 -0.3855 -0.5844
 1682SOL    HW216506   1.894   1.599   1.034 -0.3667 -0.9627 -1.0953
 1683SOL     OW16507   4.545   3.525  11.053  0.5916  0.3483 -0.2585
 1683SOL    HW116508   4.468   3.482  11.017 -0.6428  1.2942  1.2098
 1683SOL    HW216509   4.596   3.527  10.972  0.1571  0.2216 -0.5305
 1684SOL     OW16510   2.013   3.068   2.958 -0.2750  0.2326 -0.4540
 1684SOL    HW116511   2.022   3.064   3.054 -0.9935 -0.5713 -0.4162
 1684SOL    HW216512   2.105   3.079   2.933 -0.6824  0.9302 -1.6426
 1685SOL     OW16513   2.286   1.877   3.326  0.1898 -0.0667 -0.2082
 1685SOL    HW116514   2.303   1.825   3.404  0.0743  1.3953  0.7875
 1685SOL    HW216515   2.259   1.961   3.363  0.2554 -0.4955  0.8139
 1686SOL     OW16516   3.794   1.358   1.588 -0.2959  0.2219  0.1073
 1686SOL    HW116517   3.889   1.359   1.578 -0.0655 -2.0552  1.9616
 1686SOL    HW216518   3.775   1.409   1.667 -1.4637 -0.5262  0.3213
 1687SOL     OW16519   4.490   3.118  12.060  0.1795 -0.6448  0.1791
 1687SOL    HW116520   4.545   3.058  12.110  2.4582  0.3124 -1.1534
 1687SOL    HW216521   4.524   3.201  12.095  2.2189 -1.6355  0.5668
 1688SOL     OW16522   2.089   0.643   7.198  0.0817  0.4098  0.0156
 1688SOL    HW116523   2.096   0.733   7.230  0.1922  0.3843  0.0610
 1688SOL    HW216524   2.141   0.649   7.118 -0.0031  1.4093  0.0349
 1689SOL     OW16525   0.920   0.614   3.267 -0.7537 -0.0621 -0.1900
 1689SOL    HW116526   0.984   0.683   3.283  1.1720 -1.9487  0.2871
 1689SOL    HW216527   0.941   0.572   3.351  0.6440 -0.9902 -1.0114
 1690SOL     OW16528   3.485   0.715  11.496  0.2992 -0.3736 -0.3652
 1690SOL    HW116529   3.567   0.723  11.545  0.5156 -0.9093 -0.6479
 1690SOL    HW216530   3.483   0.806  11.466  0.0426 -0.5844 -0.9846
 1691SOL     OW16531   4.038   0.597   5.318 -0.1450  0.3772  0.0961
 1691SOL    HW116532   4.107   0.631   5.261  1.3536  0.0363  1.7166
 1691SOL    HW216533   4.021   0.510   5.282 -2.5776  0.7045  0.4062
 1692SOL     OW16534   2.198   1.202  12.256  0.1703 -0.0653 -0.0507
 1692SOL    HW116535   2.226   1.111  12.259  0.9986  0.1551 -1.4602
 1692SOL    HW216536   2.157   1.201  12.343 -1.1348  1.6877 -0.6474
 1693SOL     OW16537   2.942   1.517   0.768  0.3928  0.6548 -0.0041
 1693SOL    HW116538   2.873   1.456   0.744  0.3806 -0.2863  2.4372
 1693SOL    HW216539   2.903   1.555   0.847  2.3058 -0.2903  1.3974
 1694SOL     OW16540   0.381   4.393   0.570  0.3084 -0.2961  0.1451
 1694SOL    HW116541   0.288   4.400   0.589  0.2564  4.5809 -1.8599
 1694SOL    HW216542   0.388   4.475   0.522  1.3721  0.0998  0.9651
 1695SOL     OW16543   1.545   0.901   5.185  0.3791  0.3571 -0.1675
 1695SOL    HW116544   1.577   0.813   5.204 -1.9457 -0.7130 -1.0756
 1695SOL    HW216545   1.490   0.875   5.111 -0.1410  0.2028  0.2696
 1696SOL     OW16546   2.783   0.697   9.814  0.4452 -0.2938 -0.4411
 1696SOL    HW116547   2.867   0.653   9.802  0.2975 -0.3362 -1.3295
 1696SOL    HW216548   2.761   0.726   9.725  1.9387 -0.8465 -0.9834
 1697SOL     OW16549   3.910   4.415   7.106  0.3914  0.0175 -0.3640
 1697SOL    HW116550   3.941   4.374   7.025 -1.4964  0.8828 -1.5276
 1697SOL    HW216551   3.819   4.388   7.111  1.0011 -2.1200 -0.8248
 1698SOL     OW16552   3.800   1.727   2.642  0.0504  0.0383 -0.1163
 1698SOL    HW116553   3.871   1.786   2.665  1.3165 -1.2182 -0.8295
 1698SOL    HW216554   3.848   1.644   2.642  1.7891  1.0612 -2.6680
 1699SOL     OW16555   0.512   1.573   4.107  0.0697  0.0034  0.1810
 1699SOL    HW116556   0.429   1.526   4.116  0.2614 -0.3339  0.1939
 1699SOL    HW216557   0.502   1.611   4.020 -0.0265 -1.4464 -0.4443
 1700SOL     OW16558   0.124   0.480   9.627 -0.0404 -0.9171 -0.3007
 1700SOL    HW116559   0.210   0.471   9.667 -0.1850  0.4026  0.2859
 1700SOL    HW216560   0.068   0.437   9.693 -2.0331  0.4471 -1.0905
 1701SOL     OW16561   2.245   3.233   5.042  0.2746  0.6814 -0.0573
 1701SOL    HW116562   2.238   3.223   4.947 -0.5605 -3.0864  0.3820
 1701SOL    HW216563   2.163   3.190   5.065  0.4022  0.3251 -0.2579
 1702SOL     OW16564   1.456   2.024  11.755  0.2078 -0.1525 -0.5682
 1702SOL    HW116565   1.432   1.957  11.691 -2.7424  0.6233 -0.2656
 1702SOL    HW216566   1.505   1.982  11.825  0.1333  0.1161 -0.3544
 1703SOL     OW16567   4.139   0.184  13.951 -0.2949  0.2851 -0.9890
 1703SOL    HW116568   4.096   0.268  13.939 -2.1730 -0.4307  0.6815
 1703SOL    HW216569   4.166   0.169  13.861  0.3157 -0.0762 -0.7508
 1704SOL     OW16570   2.859   2.146  15.261  0.3470 -0.2557 -0.2275
 1704SOL    HW116571   2.853   2.216  15.196 -2.3964 -0.4627 -0.2078
 1704SOL    HW216572   2.772   2.133  15.299  0.3528 -0.0081 -0.1312
 1705SOL     OW16573   0.356   4.594   5.295 -0.1475  0.2518  0.3790
 1705SOL    HW116574   0.387   4.658   5.359 -1.6800  1.2043  0.1605
 1705SOL    HW216575   0.433   4.592   5.238 -1.5925 -0.5685 -1.5224
 1706SOL     OW16576   1.225   1.396  11.487  0.5928  0.7046 -0.2513
 1706SOL    HW116577   1.237   1.318  11.542 -0.8337  1.6338  1.3613
 1706SOL    HW216578   1.315   1.426  11.471  0.8331  0.2926  0.3154
 1707SOL     OW16579   4.470   1.676   1.798 -0.1683 -0.0309  0.0921
 1707SOL    HW116580   4.467   1.584   1.772 -1.8853 -0.0431  0.3362
 1707SOL    HW216581   4.479   1.714   1.711  4.3503 -2.7312 -0.6229
 1708SOL     OW16582   0.217   3.229   2.690 -0.1261 -0.2281  0.3135
 1708SOL    HW116583   0.162   3.216   2.613  0.8338 -0.4949 -0.3330
 1708SOL    HW216584   0.271   3.302   2.658  0.8677 -1.2884 -0.4247
 1709SOL     OW16585   2.161   4.408   8.637 -0.1518  0.1956 -0.4145
 1709SOL    HW116586   2.239   4.420   8.692  0.7469  0.8378 -1.8159
 1709SOL    HW216587   2.090   4.448   8.687 -1.0001  0.7121 -2.0130
 1710SOL     OW16588   3.767   3.035  16.254  0.1142 -0.5255 -0.2615
 1710SOL    HW116589   3.779   3.128  16.270 -1.4718 -0.0595 -1.7730
 1710SOL    HW216590   3.822   3.027  16.176  1.8388 -2.5620  1.1458
 1711SOL     OW16591   3.700   0.827  13.885 -0.4071 -0.6774 -0.4443
 1711SOL    HW116592   3.718   0.889  13.956  1.0103 -0.0716 -1.3347
 1711SOL    HW216593   3.613   0.797  13.913 -1.0097 -0.1647 -1.8105
 1712SOL     OW16594   0.589   2.546   2.763 -0.3443 -0.0093  0.2177
 1712SOL    HW116595   0.618   2.513   2.848  0.1613 -1.8451 -0.6636
 1712SOL    HW216596   0.522   2.611   2.788 -0.8125 -0.4448  0.0999
 1713SOL     OW16597   3.735   1.846  11.803 -0.5553 -0.3348 -0.1685
 1713SOL    HW116598   3.829   1.830  11.797 -0.4211  0.5078 -0.4189
 1713SOL    HW216599   3.730   1.938  11.777 -0.9168 -0.5260 -0.7693
 1714SOL     OW16600   3.417   0.403  11.571  1.1110  0.3801  0.0021
 1714SOL    HW116601   3.322   0.400  11.569  1.1881 -1.9403 -0.5343
 1714SOL    HW216602   3.437   0.495  11.555  0.1437  0.5063 -0.4421
 1715SOL     OW16603   0.475   2.900   5.604  0.2368  0.4307 -0.8181
 1715SOL    HW116604   0.538   2.874   5.671 -1.9424 -0.4781  0.8514
 1715SOL    HW216605   0.441   2.815   5.576  0.5522  0.7838 -2.2977
 1716SOL     OW16606   2.542   2.975   3.307 -0.1180 -0.3036  0.0578
 1716SOL    HW116607   2.550   2.903   3.369  2.9523 -1.0750 -1.2359
 1716SOL    HW216608   2.462   3.022   3.333  0.4887  0.8726 -0.1728
 1717SOL     OW16609   2.434   0.050  10.447 -0.5333 -0.8528  0.5814
 1717SOL    HW116610   2.351   0.086  10.477 -1.8257 -1.7260 -1.9960
 1717SOL    HW216611   2.483   0.131  10.460 -0.2964 -0.8229 -0.4788
 1718SOL     OW16612   2.232   0.978  12.461  0.1839  0.1278  0.0174
 1718SOL    HW116613   2.226   0.890  12.424  1.4243  0.5105 -1.0723
 1718SOL    HW216614   2.169   0.973  12.533 -1.1299  2.0066 -0.9893
 1719SOL     OW16615   3.358   2.473   1.893  0.3329 -0.1269 -0.4246
 1719SOL    HW116616   3.441   2.489   1.848  0.5335 -1.7131 -0.6485
 1719SOL    HW216617   3.387   2.403   1.952 -0.4019 -1.6739 -1.9101
 1720SOL     OW16618   3.206   2.754   9.077 -0.6232  0.0123 -0.3736
 1720SOL    HW116619   3.158   2.671   9.071 -3.1924  1.7540 -3.6230
 1720SOL    HW216620   3.138   2.812   9.112  0.4795  1.8831 -1.3673
 1721SOL     OW16621   0.235   4.282  11.204  0.0664 -0.3959  0.9738
 1721SOL    HW116622   0.284   4.227  11.265 -0.3482  0.2457  1.8950
 1721SOL    HW216623   0.215   4.213  11.140 -0.3165  2.1888 -1.6775
 1722SOL     OW16624   1.851   2.908  15.162  0.1921  0.5724  0.2309
 1722SOL    HW116625   1.880   2.880  15.075  0.5970 -1.4210  1.0124
 1722SOL    HW216626   1.837   2.998  15.131 -1.8361 -0.0723 -0.7262
 1723SOL     OW16627   4.406   2.111   0.197  0.5683  0.0629  0.0994
 1723SOL    HW116628   4.330   2.099   0.254 -0.2524 -1.0331 -1.2314
 1723SOL    HW216629   4.471   2.145   0.259  1.4080  0.6586 -1.1147
 1724SOL     OW16630   4.369   3.312  13.428 -0.2032  0.2996 -0.0955
 1724SOL    HW116631   4.381   3.237  13.487 -0.9108  0.8685  0.7747
 1724SOL    HW216632   4.429   3.375  13.467  0.1493  0.2620 -0.5802
 1725SOL     OW16633   1.947   4.204   9.603 -0.0413  0.5171 -0.0129
 1725SOL    HW116634   1.941   4.234   9.512 -2.4256  0.6335  0.1756
 1725SOL    HW216635   1.875   4.252   9.644 -0.3239  2.0174 -2.2173
 1726SOL     OW16636   0.927   0.057   4.742 -0.1579  0.7573 -0.2633
 1726SOL    HW116637   0.899   4.701   4.700  0.5269  1.8826 -2.8598
 1726SOL    HW216638   0.976   0.102   4.674  1.9791 -2.3288 -0.7737
 1727SOL     OW16639   0.590   4.344   0.398  0.1245 -1.0080 -0.0968
 1727SOL    HW116640   0.544   4.372   0.477 -1.0461 -0.1694 -1.0739
 1727SOL    HW216641   0.570   4.251   0.404  1.2458 -1.2723 -0.3780
 1728SOL     OW16642   0.432   3.871   5.773 -0.1787 -0.7746  0.3639
 1728SOL    HW116643   0.364   3.819   5.730  1.3174 -2.4615  0.0302
 1728SOL    HW216644   0.497   3.874   5.703  0.8384 -1.7346  1.2699
 1729SOL     OW16645   0.969   2.855   3.070  0.5289  0.1044  0.2037
 1729SOL    HW116646   1.022   2.840   2.992 -1.5073  1.1708 -1.3724
 1729SOL    HW216647   1.024   2.921   3.113 -0.1784  0.6900  0.1980
 1730SOL     OW16648   2.958   3.784  12.502 -0.3132 -0.6178 -0.0774
 1730SOL    HW116649   2.975   3.727  12.427 -0.0220  0.8736 -1.1455
 1730SOL    HW216650   2.979   3.865  12.455  2.7178 -2.7670 -2.4223
 1731SOL     OW16651   2.140   0.038   5.862 -0.4735 -0.7558  0.1028
 1731SOL    HW116652   2.176   4.674   5.857 -0.9109 -0.9175 -0.1364
 1731SOL    HW216653   2.211   0.094   5.894  0.3630 -1.7129 -0.0697
 1732SOL     OW16654   0.536   0.215  16.244  0.7222 -0.2977  0.2468
 1732SOL    HW116655   0.504   0.155  16.176 -1.0581 -0.6622  1.4004
 1732SOL    HW216656   0.628   0.203  16.220  0.7293 -0.9488  0.5821
 1733SOL     OW16657   2.641   0.580  16.984  0.1018  0.8734 -0.8606
 1733SOL    HW116658   2.628   0.674  16.992  0.5863  0.7478  1.2917
 1733SOL    HW216659   2.603   0.562  16.898 -1.7053 -0.8771  0.3230
 1734SOL     OW16660   2.327   1.941   0.888 -0.2214 -0.7824 -0.1626
 1734SOL    HW116661   2.237   1.958   0.916  0.4026  0.7532  0.9286
 1734SOL    HW216662   2.342   1.847   0.900 -1.2135 -0.8040  0.8900
 1735SOL     OW16663   2.681   0.434   7.489  0.2544 -0.6105  0.8751
 1735SOL    HW116664   2.771   0.417   7.461 -0.2371 -1.0500 -0.4372
 1735SOL    HW216665   2.698   0.475   7.574 -4.6225  0.7787  1.1806
 1736SOL     OW16666   4.545   4.598  12.703 -0.0242 -0.0868 -0.2056
 1736SOL    HW116667   4.540   4.669  12.639 -1.1096 -0.0672 -0.0970
 1736SOL    HW216668   4.570   4.650  12.780 -0.4087  0.1758 -0.2610
 1737SOL     OW16669   4.204   2.459   0.354  0.6168  0.2914  0.0194
 1737SOL    HW116670   4.114   2.434   0.375 -0.0255 -0.4397 -3.5089
 1737SOL    HW216671   4.211   2.454   0.258 -0.5052 -1.1593  0.0142
 1738SOL     OW16672   0.374   2.304  14.842  0.0582 -0.0223  0.2186
 1738SOL    HW116673   0.361   2.315  14.936 -1.0408  1.0048 -0.0611
 1738SOL    HW216674   0.362   2.209  14.837 -3.1026  0.4209 -0.3533
 1739SOL     OW16675   1.146   4.491   5.776 -0.3890  0.2034 -0.5164
 1739SOL    HW116676   1.152   4.443   5.693 -2.8069 -0.7811 -0.1349
 1739SOL    HW216677   1.146   4.577   5.735  2.4026  0.7020  0.5127
 1740SOL     OW16678   1.043   4.647   1.538  0.0082 -0.0014  0.5842
 1740SOL    HW116679   0.977   4.592   1.580  0.0451 -1.1879 -0.9262
 1740SOL    HW216680   0.977   4.691   1.484 -1.7337 -0.2796  2.4862
 1741SOL     OW16681   2.744   2.198   3.591 -0.3166 -0.0451 -0.7805
 1741SOL    HW116682   2.803   2.251   3.537 -0.2555  1.5932  0.9061
 1741SOL    HW216683   2.723   2.126   3.532 -1.8244  0.5650 -1.0089
 1742SOL     OW16684   1.811   3.244   2.548  0.5836 -0.0847  0.3299
 1742SOL    HW116685   1.894   3.289   2.531 -0.3203  0.9073 -1.5184
 1742SOL    HW216686   1.848   3.156   2.549  0.9330  0.0248 -3.1135
 1743SOL     OW16687   2.942   2.145   1.033 -0.3464  0.3287 -0.2556
 1743SOL    HW116688   2.886   2.070   1.016  0.2303  0.3971 -2.3770
 1743SOL    HW216689   2.872   2.209   1.048 -0.8506 -0.3994  0.4830
 1744SOL     OW16690   2.453   4.026   6.898 -0.2268  0.0736 -0.5330
 1744SOL    HW116691   2.367   4.065   6.889  0.2098  0.8259 -1.4486
 1744SOL    HW216692   2.496   4.049   6.815  2.1613 -1.5860  0.2388
 1745SOL     OW16693   3.319   3.010  16.798 -0.3747  0.1670  0.4423
 1745SOL    HW116694   3.252   2.974  16.856 -0.0593 -0.7271  0.2506
 1745SOL    HW216695   3.363   3.073  16.855  0.2825  1.1186 -1.1147
 1746SOL     OW16696   1.483   1.461   7.055  0.0064  0.0083 -0.0545
 1746SOL    HW116697   1.542   1.392   7.085 -0.5052  0.1167  1.1964
 1746SOL    HW216698   1.481   1.441   6.962 -0.7378  0.3899 -0.1201
 1747SOL     OW16699   2.643   1.058   9.606  0.0423 -1.0141 -0.3748
 1747SOL    HW116700   2.610   1.076   9.694  1.6389  0.0997 -0.0059
 1747SOL    HW216701   2.618   1.141   9.565  2.9997  0.5746  1.0718
 1748SOL     OW16702   1.741   4.487   7.156  0.7126  0.3752  0.4801
 1748SOL    HW116703   1.786   4.420   7.105 -1.4343 -1.2239  0.7471
 1748SOL    HW216704   1.675   4.513   7.092  0.2928 -1.1367  0.3012
 1749SOL     OW16705   4.128   1.462   7.089 -0.4327 -0.1335  0.4667
 1749SOL    HW116706   4.046   1.492   7.128  0.4551  1.0114  1.4341
 1749SOL    HW216707   4.109   1.376   7.052  0.9042 -0.4315  0.4569
 1750SOL     OW16708   0.098   3.931   7.652 -0.1596  0.0599 -0.2502
 1750SOL    HW116709   0.109   3.960   7.743  0.0430  1.0380 -0.5898
 1750SOL    HW216710   0.034   3.860   7.659  1.2760 -0.9698  2.3924
 1751SOL     OW16711   4.610   4.351   9.064  0.2346  0.0352 -0.1297
 1751SOL    HW116712   4.658   4.272   9.038  0.9585  0.5532 -0.3633
 1751SOL    HW216713   4.665   4.369   9.141  1.2875  0.8643 -1.0688
 1752SOL     OW16714   2.253   1.393   5.650 -0.3167  0.0478 -0.1526
 1752SOL    HW116715   2.174   1.413   5.700  0.6764 -1.2853  1.8961
 1752SOL    HW216716   2.294   1.337   5.715  1.0510  0.3464 -0.7467
 1753SOL     OW16717   2.936   0.319   3.028 -0.2926  0.0031 -0.2554
 1753SOL    HW116718   2.898   0.366   3.103 -2.5583 -1.6291 -0.4006
 1753SOL    HW216719   3.000   0.252   3.052  0.7075  0.1001 -2.6487
 1754SOL     OW16720   3.069   1.945  14.366 -0.4654  0.2210 -0.4323
 1754SOL    HW116721   3.041   1.979  14.451  2.4356  1.9828 -0.1841
 1754SOL    HW216722   3.062   1.851  14.382  0.1917  0.4382  1.0867
 1755SOL     OW16723   1.767   0.945  12.380  0.1229  0.3594  0.2680
 1755SOL    HW116724   1.730   0.869  12.425 -1.2344  1.9358  1.8188
 1755SOL    HW216725   1.721   0.940  12.296  0.6910 -0.7496  0.0188
 1756SOL     OW16726   1.564   0.183   1.363  0.4158 -0.1730 -0.2623
 1756SOL    HW116727   1.494   0.124   1.333 -0.1432  0.2715  0.1580
 1756SOL    HW216728   1.620   0.130   1.419  1.2802  0.2385 -0.7470
 1757SOL     OW16729   0.094   4.297  13.738 -0.3259  0.3937  0.7099
 1757SOL    HW116730   0.067   4.281  13.829 -3.5477  1.0982 -0.1344
 1757SOL    HW216731   0.186   4.308  13.760  0.1512  0.9220 -1.5356
 1758SOL     OW16732   1.616   2.875   4.502 -0.0898  0.2272 -0.0797
 1758SOL    HW116733   1.565   2.930   4.443  1.4581  3.1518  1.2770
 1758SOL    HW216734   1.704   2.894   4.469  0.2678 -1.4111 -0.0405
 1759SOL     OW16735   1.639   3.511   7.219 -0.3283 -0.1355  0.3685
 1759SOL    HW116736   1.626   3.586   7.277  0.2546 -0.4034  0.8470
 1759SOL    HW216737   1.582   3.448   7.263 -0.6765 -1.2862 -1.7054
 1760SOL     OW16738   0.848   1.202   6.667  0.2416 -0.1637 -0.1956
 1760SOL    HW116739   0.896   1.125   6.636 -1.2292 -0.3647 -1.9447
 1760SOL    HW216740   0.754   1.185   6.659  0.1092  0.5037 -0.0303
 1761SOL     OW16741   1.665   2.274   2.402  0.0692  0.4012 -0.6347
 1761SOL    HW116742   1.616   2.209   2.452  1.1232  0.1001 -0.0044
 1761SOL    HW216743   1.630   2.356   2.437 -0.7057 -0.3086  0.2618
 1762SOL     OW16744   1.416   3.454   8.319 -0.6385 -0.3703  0.2472
 1762SOL    HW116745   1.412   3.546   8.292  0.8021 -0.8717 -1.6418
 1762SOL    HW216746   1.450   3.471   8.407  0.1485  0.9889 -0.3165
 1763SOL     OW16747   1.061   2.210   3.261  0.3383 -0.4396  0.0607
 1763SOL    HW116748   1.093   2.122   3.244 -1.4895 -1.2740  0.9525
 1763SOL    HW216749   0.969   2.185   3.268  0.8669 -2.5584 -0.7863
 1764SOL     OW16750   3.320   0.194   1.985  0.3109 -0.2550  0.2280
 1764SOL    HW116751   3.263   0.120   2.005 -0.7137  0.1997 -1.0434
 1764SOL    HW216752   3.250   0.258   1.999 -0.4621 -0.7302 -1.4792
 1765SOL     OW16753   3.758   4.412  11.461 -0.2908  0.2397  0.3880
 1765SOL    HW116754   3.842   4.452  11.483  1.0193 -2.0087 -0.4735
 1765SOL    HW216755   3.726   4.476  11.397 -1.0585  0.0101  0.5353
 1766SOL     OW16756   3.679   4.424   5.002  0.1619  0.2584 -0.2658
 1766SOL    HW116757   3.691   4.399   4.910  1.6337  0.3186 -0.0940
 1766SOL    HW216758   3.682   4.519   4.997  1.1082  0.2721  0.5115
 1767SOL     OW16759   2.128   0.044   0.652 -0.8008 -0.0836 -0.1426
 1767SOL    HW116760   2.067   0.107   0.692  1.8490  2.1260  0.3547
 1767SOL    HW216761   2.074   4.690   0.661  0.2172 -1.0667 -2.8873
 1768SOL     OW16762   3.494   2.266   5.203 -1.2166  0.3516  0.6631
 1768SOL    HW116763   3.402   2.251   5.182 -1.0905 -0.4968  0.7262
 1768SOL    HW216764   3.517   2.328   5.134 -0.3707 -1.5784 -0.7908
 1769SOL     OW16765   2.175   3.198   4.781 -0.3407 -0.5096 -0.3425
 1769SOL    HW116766   2.136   3.275   4.741 -0.4151  0.1597  1.0070
 1769SOL    HW216767   2.206   3.151   4.704 -0.3500  0.1469 -0.7371
 1770SOL     OW16768   4.480   0.317   3.929  0.3181  0.0506  0.1915
 1770SOL    HW116769   4.416   0.277   3.988  1.0796 -2.7084 -0.8309
 1770SOL    HW216770   4.525   0.242   3.888  0.1902  0.7608 -1.2245
 1771SOL     OW16771   3.875   1.001   6.475 -0.3262 -0.6148  0.6250
 1771SOL    HW116772   3.900   0.912   6.499  0.4816 -0.6983 -0.5661
 1771SOL    HW216773   3.854   1.039   6.561  0.2646  1.5998 -0.1953
 1772SOL     OW16774   0.334   2.595   7.482  0.0067 -0.5135  0.2718
 1772SOL    HW116775   0.425   2.616   7.465 -0.1043 -0.0462  0.2648
 1772SOL    HW216776   0.318   2.507   7.447  2.5109 -0.7222 -0.3430
 1773SOL     OW16777   3.309   2.042   6.100  0.3577  0.7655 -0.1356
 1773SOL    HW116778   3.220   2.022   6.126  0.1688  0.2738 -1.1341
 1773SOL    HW216779   3.300   2.134   6.077 -0.7440  0.3793 -1.2602
 1774SOL     OW16780   1.949   0.542   7.852  0.2762 -0.1553  0.3859
 1774SOL    HW116781   1.862   0.567   7.884  0.7746 -1.0433  2.4041
 1774SOL    HW216782   2.005   0.596   7.908  3.2822 -1.8550 -0.9524
 1775SOL     OW16783   2.695   0.495   8.566 -0.1519 -0.0749 -0.8871
 1775SOL    HW116784   2.769   0.452   8.609 -0.3033  0.6806  0.1461
 1775SOL    HW216785   2.688   0.571   8.625 -1.8704 -0.5001 -0.5131
 1776SOL     OW16786   4.481   1.604   6.675 -0.9141  0.7030 -0.3103
 1776SOL    HW116787   4.426   1.544   6.626  2.3646 -1.8711 -0.8420
 1776SOL    HW216788   4.491   1.562   6.760 -4.6089 -0.9709 -0.7464
 1777SOL     OW16789   1.356   4.188   6.602 -0.5662  0.2727  0.1475
 1777SOL    HW116790   1.425   4.249   6.575 -0.3681  0.1397  0.3606
 1777SOL    HW216791   1.279   4.217   6.552 -1.2581 -0.5931  0.7187
 1778SOL     OW16792   1.225   2.080  16.528  0.1469  0.2240 -1.3461
 1778SOL    HW116793   1.200   1.988  16.525 -0.7852  0.5026 -2.4135
 1778SOL    HW216794   1.159   2.118  16.470  0.0824  0.6962 -0.9595
 1779SOL     OW16795   0.791   1.614   2.468 -0.3586 -0.2026 -0.2092
 1779SOL    HW116796   0.812   1.535   2.518 -0.2878 -0.8739 -1.2961
 1779SOL    HW216797   0.878   1.654   2.474 -1.0389  0.8254  3.1396
 1780SOL     OW16798   3.902   4.223   3.721  0.3896 -0.4435 -0.4200
 1780SOL    HW116799   3.941   4.223   3.633 -0.8274  1.2884 -0.9550
 1780SOL    HW216800   3.814   4.256   3.704  0.3894  0.4509  1.3699
 1781SOL     OW16801   2.511   2.271   2.269 -0.0757 -0.2912 -0.0501
 1781SOL    HW116802   2.510   2.246   2.177 -0.9378  2.5185 -0.8051
 1781SOL    HW216803   2.434   2.328   2.271  0.3298  0.2487  0.3742
 1782SOL     OW16804   2.377   4.218   1.651  0.2898 -0.1374  0.1085
 1782SOL    HW116805   2.327   4.186   1.576  0.1498 -0.1686  0.2165
 1782SOL    HW216806   2.321   4.291   1.677 -0.7373 -0.6045 -0.8095
 1783SOL     OW16807   0.485   3.000  10.441 -0.3268  0.6632 -0.6636
 1783SOL    HW116808   0.556   3.064  10.428  0.6777 -0.3077 -0.0012
 1783SOL    HW216809   0.415   3.020  10.379 -1.8229 -0.0785  0.8171
 1784SOL     OW16810   4.392   0.384  14.266  0.1944 -0.4306 -0.0936
 1784SOL    HW116811   4.353   0.347  14.187 -0.4051 -0.0497  0.0221
 1784SOL    HW216812   4.439   0.462  14.238  0.9368 -0.6943  0.4163
 1785SOL     OW16813   1.335   1.058   6.581  0.2989  0.4656  0.3703
 1785SOL    HW116814   1.395   1.120   6.538  0.6354  0.2528  0.5269
 1785SOL    HW216815   1.357   1.065   6.674 -2.8920  0.8460  1.0772
 1786SOL     OW16816   4.702   3.306  10.044  0.8150 -0.0489 -0.3786
 1786SOL    HW116817   4.626   3.364  10.041 -0.0756 -1.2339 -0.6186
 1786SOL    HW216818   0.013   3.337   9.960 -0.1524  3.0799  0.3531
 1787SOL     OW16819   3.275   0.320   2.540  0.5562 -0.0749  0.0457
 1787SOL    HW116820   3.321   0.243   2.508  1.4860 -0.0324  1.2759
 1787SOL    HW216821   3.188   0.280   2.542  0.6772 -0.4925 -2.7148
 1788SOL     OW16822   0.023   0.975  12.092  0.4481 -0.2241 -0.2305
 1788SOL    HW116823   0.105   0.953  12.137  1.3346  0.0187 -1.7466
 1788SOL    HW216824   4.709   1.045  12.145 -1.0393 -0.8823 -0.4525
 1789SOL     OW16825   1.690   3.305   9.656  0.0274 -0.1739 -0.1149
 1789SOL    HW116826   1.671   3.315   9.749 -0.2781 -1.3528 -0.0489
 1789SOL    HW216827   1.674   3.395   9.627 -1.9744 -0.7455 -0.7526
 1790SOL     OW16828   1.567   2.190   2.702 -0.3147  0.3298 -0.0280
 1790SOL    HW116829   1.606   2.275   2.684 -0.1138  0.2577  0.0715
 1790SOL    HW216830   1.632   2.156   2.763  0.2633 -3.7405 -2.9198
 1791SOL     OW16831   3.380   3.459  14.184  0.1368 -0.4755 -0.4047
 1791SOL    HW116832   3.303   3.449  14.127 -0.1117  0.5919 -0.2553
 1791SOL    HW216833   3.434   3.515  14.127 -0.6961 -1.1985 -1.9141
 1792SOL     OW16834   1.418   2.554  10.278  0.6794 -1.0438 -0.2731
 1792SOL    HW116835   1.329   2.571  10.249  1.1313 -2.5222 -2.5128
 1792SOL    HW216836   1.447   2.479  10.227  2.1607 -0.8761  0.3117
 1793SOL     OW16837   1.285   1.444  12.660  0.4810 -0.3670 -0.5097
 1793SOL    HW116838   1.293   1.536  12.685 -2.7175 -0.1148 -0.4913
 1793SOL    HW216839   1.332   1.404  12.734 -2.0125 -0.5253  1.0013
 1794SOL     OW16840   0.894   4.600   0.744  0.2730  0.3984  0.1106
 1794SOL    HW116841   0.966   4.624   0.684  0.8944 -1.2047  0.2188
 1794SOL    HW216842   0.944   4.609   0.825 -1.6039  0.9914  1.1926
 1795SOL     OW16843   1.673   1.198   9.741  0.6454  0.0292 -0.1041
 1795SOL    HW116844   1.714   1.213   9.826 -1.4925  0.9571  0.7798
 1795SOL    HW216845   1.660   1.286   9.706  0.8608 -0.7899 -2.2749
 1796SOL     OW16846   2.344   1.760   3.549 -0.0171  0.1895 -0.2490
 1796SOL    HW116847   2.299   1.795   3.626 -0.9632  0.2550 -0.8344
 1796SOL    HW216848   2.429   1.728   3.577 -0.6522 -0.3650  1.0489
 1797SOL     OW16849   3.938   1.388  12.906  0.2049  0.3481  0.5434
 1797SOL    HW116850   3.991   1.384  12.986  0.2288 -0.0618  0.5033
 1797SOL    HW216851   3.874   1.454  12.935 -1.0797 -1.0670  0.9320
 1798SOL     OW16852   0.163   3.824  10.869 -0.4198  0.9339  0.4145
 1798SOL    HW116853   0.133   3.793  10.784  1.1876 -0.6912  0.4372
 1798SOL    HW216854   0.078   3.854  10.902 -1.0520 -3.0852  2.4595
 1799SOL     OW16855   2.349   1.851   5.776  0.0501  0.1178  0.3794
 1799SOL    HW116856   2.396   1.768   5.779 -2.0930 -1.1384 -0.9841
 1799SOL    HW216857   2.283   1.832   5.843 -1.5836  0.5599 -1.1141
 1800SOL     OW16858   4.336   1.656   5.027  0.3592  0.5280 -0.2995
 1800SOL    HW116859   4.290   1.723   4.976  0.9154  1.0779 -0.0846
 1800SOL    HW216860   4.291   1.666   5.111 -1.1931 -0.6295 -1.0074
 1801SOL     OW16861   3.007   4.025  11.253  0.1672  0.0294  0.5198
 1801SOL    HW116862   3.055   4.039  11.334  2.4458 -0.1666 -0.7916
 1801SOL    HW216863   3.026   3.934  11.231  0.2882  0.1964 -0.0869
 1802SOL     OW16864   2.715   1.264  14.381 -0.0332 -0.3094  0.0960
 1802SOL    HW116865   2.732   1.190  14.439 -1.7669  0.0942  1.1401
 1802SOL    HW216866   2.669   1.219  14.310  3.4687 -1.4836 -1.4416
 1803SOL     OW16867   0.143   1.810   1.735 -0.4668  0.2121  0.3454
 1803SOL    HW116868   0.124   1.780   1.646 -1.5783  0.4351  0.5135
 1803SOL    HW216869   0.236   1.835   1.738 -0.5620  0.5325  0.5592
 1804SOL     OW16870   1.516   0.758  13.319  0.0794  0.2726 -0.6166
 1804SOL    HW116871   1.440   0.729  13.269 -0.4101 -1.7589  1.3175
 1804SOL    HW216872   1.552   0.673  13.343  1.3784  0.2474 -2.6327
 1805SOL     OW16873   2.466   2.561  13.769 -0.1435 -0.7491 -0.0838
 1805SOL    HW116874   2.438   2.472  13.749 -0.8677  0.2369 -3.4804
 1805SOL    HW216875   2.467   2.601  13.682  0.0949  4.2087  2.1781
 1806SOL     OW16876   1.241   3.181   4.198 -0.4341  0.4891  0.7392
 1806SOL    HW116877   1.332   3.206   4.213  0.3644 -0.1158 -3.3056
 1806SOL    HW216878   1.203   3.247   4.256  1.9814  1.2194  1.4805
 1807SOL     OW16879   0.379   4.472  13.035  0.1522 -0.1572  0.1710
 1807SOL    HW116880   0.443   4.534  13.071 -0.0566  0.2663 -0.1884
 1807SOL    HW216881   0.425   4.435  12.960 -2.9859 -0.8727 -1.3943
 1808SOL     OW16882   1.491   0.591   8.653  0.5528 -0.3452 -0.4696
 1808SOL    HW116883   1.482   0.684   8.632  1.6521 -0.0994  0.1420
 1808SOL    HW216884   1.403   0.557   8.639 -0.0828  0.6554  1.0503
 1809SOL     OW16885   3.324   3.101   7.681  0.2290  0.4037  0.3480
 1809SOL    HW116886   3.331   3.193   7.703  0.9046 -0.0337  1.9086
 1809SOL    HW216887   3.246   3.106   7.625  1.8128 -0.1597 -1.9321
 1810SOL     OW16888   3.620   4.016   8.462  0.4436  0.3921  0.0491
 1810SOL    HW116889   3.618   3.971   8.546  0.7277  1.3244  0.5604
 1810SOL    HW216890   3.709   4.050   8.455  1.1697 -1.3576  1.0109
 1811SOL     OW16891   2.360   4.284  16.444 -0.2031 -0.1810  0.4646
 1811SOL    HW116892   2.372   4.223  16.517  2.7831  0.5603  0.6266
 1811SOL    HW216893   2.309   4.229  16.386  2.9901 -2.2608 -0.3767
 1812SOL     OW16894   2.717   3.732  14.099  0.1152 -0.2436  0.1247
 1812SOL    HW116895   2.726   3.765  14.188  1.0584  0.5135 -0.2511
 1812SOL    HW216896   2.641   3.783  14.071 -0.1713 -1.1844 -0.8521
 1813SOL     OW16897   4.241   0.611   6.455 -0.0425  0.3235  0.4045
 1813SOL    HW116898   4.276   0.653   6.534 -0.9443 -1.3987  1.7377
 1813SOL    HW216899   4.180   0.678   6.426  0.4374  0.3239 -0.5845
 1814SOL     OW16900   0.261   2.353   2.662  0.1675  0.9046 -0.1048
 1814SOL    HW116901   0.259   2.262   2.692 -1.1626  1.9347  2.9527
 1814SOL    HW216902   0.296   2.395   2.740 -0.2223  1.0167  0.0090
 1815SOL     OW16903   0.161   0.764   4.334 -0.8164 -0.0163 -0.1393
 1815SOL    HW116904   0.131   0.673   4.334 -2.8118  0.6419  1.7555
 1815SOL    HW216905   0.099   0.795   4.268 -0.2406 -2.0798 -1.6761
 1816SOL     OW16906   3.532   3.588  14.694 -0.0641 -0.4220  0.6213
 1816SOL    HW116907   3.463   3.653  14.697 -0.9739 -1.2962 -1.4244
 1816SOL    HW216908   3.560   3.597  14.603  0.5812  2.0039  1.0617
 1817SOL     OW16909   2.891   2.892   7.874  0.2319  0.7124  0.4575
 1817SOL    HW116910   2.872   2.983   7.850 -0.1585  0.2535 -0.9287
 1817SOL    HW216911   2.962   2.868   7.815  1.2280 -2.7006  3.0244
 1818SOL     OW16912   0.703   4.194   6.958  0.9432 -0.0174 -0.3612
 1818SOL    HW116913   0.725   4.203   6.865  0.5536 -2.8922 -0.7105
 1818SOL    HW216914   0.608   4.201   6.953  1.0752  1.8256 -0.4767
 1819SOL     OW16915   0.105   0.472  16.741  0.2064  0.0054  0.6125
 1819SOL    HW116916   0.145   0.491  16.656 -0.5495 -1.3512 -0.0334
 1819SOL    HW216917   0.015   0.495  16.718  0.9302  1.8585 -0.3551
 1820SOL     OW16918   1.782   3.921   8.539 -0.3271  0.4847 -0.3841
 1820SOL    HW116919   1.725   3.978   8.591 -0.1978  1.2864 -1.1238
 1820SOL    HW216920   1.735   3.842   8.513  0.2585  0.5348 -1.5972
 1821SOL     OW16921   2.156   4.337  11.690 -0.2145  0.0595  0.1442
 1821SOL    HW116922   2.220   4.366  11.625 -0.0201  1.9434  1.1928
 1821SOL    HW216923   2.217   4.290  11.747 -0.8634 -0.6312  0.2698
 1822SOL     OW16924   0.307   2.902   9.347  0.4952  0.0858  0.9279
 1822SOL    HW116925   0.387   2.853   9.365  0.3583 -0.1617  0.8546
 1822SOL    HW216926   0.315   2.954   9.428  1.3168  2.0605 -0.4225
 1823SOL     OW16927   3.383   4.260   3.613  0.0546  0.1658  0.1583
 1823SOL    HW116928   3.394   4.344   3.569 -2.1038  2.1930  3.5049
 1823SOL    HW216929   3.314   4.221   3.559  1.3011 -0.0108 -1.2865
 1824SOL     OW16930   0.625   3.237   2.689 -0.4810  0.4073  0.4016
 1824SOL    HW116931   0.582   3.291   2.755  1.0281  1.1875  0.7620
 1824SOL    HW216932   0.591   3.276   2.608  0.0520 -0.7923 -0.3934
 1825SOL     OW16933   2.859   1.285  17.479  0.0019 -0.1865 -0.3635
 1825SOL    HW116934   2.926   1.296  17.412 -0.3255  1.1432 -0.4775
 1825SOL    HW216935   2.776   1.300  17.433  0.4019 -0.7048 -1.2276
 1826SOL     OW16936   0.898   1.450   8.393 -0.6024  0.0376  0.0262
 1826SOL    HW116937   0.956   1.525   8.385 -3.9527  2.2812 -2.9059
 1826SOL    HW216938   0.812   1.485   8.417 -0.3845  0.7254 -0.2148
 1827SOL     OW16939   2.291   0.442   3.959 -0.5045  0.4764  0.0057
 1827SOL    HW116940   2.265   0.479   3.875  0.6815 -1.3917 -1.1932
 1827SOL    HW216941   2.292   0.353   3.923  1.1259  0.6154 -0.3096
 1828SOL     OW16942   4.018   1.964   3.341 -0.1619 -0.1506  0.0707
 1828SOL    HW116943   4.082   2.035   3.344 -0.2229  0.0329 -2.3348
 1828SOL    HW216944   4.043   1.909   3.266 -0.1328 -1.8019  1.3051
 1829SOL     OW16945   3.545   1.833   4.937 -0.1314  0.3311  0.2329
 1829SOL    HW116946   3.531   1.887   4.859 -0.4644  1.6072  1.1664
 1829SOL    HW216947   3.592   1.890   4.999 -0.5897 -1.4198  2.1729
 1830SOL     OW16948   3.005   2.325   1.961 -0.1338 -0.0561 -0.2149
 1830SOL    HW116949   3.009   2.348   1.868 -0.8649 -2.6456 -0.8867
 1830SOL    HW216950   3.068   2.254   1.949 -0.1005  0.0680 -0.7875
 1831SOL     OW16951   4.118   2.493  13.264  0.2440  0.0208  0.1021
 1831SOL    HW116952   4.202   2.470  13.303  0.7799 -5.0479 -4.1133
 1831SOL    HW216953   4.151   2.578  13.233 -0.3210 -0.4134 -1.6855
 1832SOL     OW16954   1.044   1.254   9.081 -0.6135 -0.5047 -0.3085
 1832SOL    HW116955   1.119   1.215   9.037  0.3950  0.3574  0.6414
 1832SOL    HW216956   1.076   1.264   9.170 -2.9112 -2.7838  0.7716
 1833SOL     OW16957   3.505   4.309  16.162 -0.0607  0.0815  0.3722
 1833SOL    HW116958   3.455   4.282  16.240 -2.7171  0.6108 -1.1443
 1833SOL    HW216959   3.519   4.223  16.123  1.2079  1.3362 -1.9004
 1834SOL     OW16960   2.272   1.409   3.828  0.3637 -0.4889 -0.1875
 1834SOL    HW116961   2.289   1.380   3.738 -1.4177 -1.2945 -0.2585
 1834SOL    HW216962   2.242   1.333   3.878 -1.2431  1.5772  1.9635
 1835SOL     OW16963   3.715   4.335   2.067  0.2778 -0.3527 -0.5588
 1835SOL    HW116964   3.699   4.344   2.161  0.2589 -0.3054 -0.5663
 1835SOL    HW216965   3.625   4.336   2.034 -0.0290  0.2120  0.2875
 1836SOL     OW16966   3.184   1.642  12.012 -0.0191  0.0743  1.0039
 1836SOL    HW116967   3.263   1.695  12.024  0.5737 -0.4558 -0.5370
 1836SOL    HW216968   3.121   1.696  11.964  0.2336 -0.1214  0.4494
 1837SOL     OW16969   3.242   4.575  14.879  0.3503  0.0385 -0.2280
 1837SOL    HW116970   3.278   4.572  14.968 -1.3229  0.7544  0.4690
 1837SOL    HW216971   3.318   4.601  14.826  1.1845  1.2697  1.5484
 1838SOL     OW16972   0.832   0.076   3.918 -0.3079 -0.5811  0.0981
 1838SOL    HW116973   0.749   0.107   3.954 -0.3050  0.8428 -1.0925
 1838SOL    HW216974   0.808   4.711   3.896  0.3892 -0.6805 -0.2495
 1839SOL     OW16975   2.571   4.526   2.663  0.2582 -0.0793  0.1596
 1839SOL    HW116976   2.584   4.537   2.757 -0.6314  0.5948  0.2078
 1839SOL    HW216977   2.643   4.576   2.626  0.6687 -1.4967 -0.9719
 1840SOL     OW16978   2.510   1.345  13.992 -0.6776  0.3505 -0.2528
 1840SOL    HW116979   2.533   1.435  14.015 -0.8270  0.4264 -0.3970
 1840SOL    HW216980   2.545   1.295  14.066 -2.2255 -0.7446 -0.2604
 1841SOL     OW16981   4.087   1.030   9.060  0.5080  0.2133  0.4396
 1841SOL    HW116982   4.100   1.122   9.037  0.9682 -0.1018 -0.5175
 1841SOL    HW216983   3.992   1.037   9.046  0.2385 -1.9542  1.2277
 1842SOL     OW16984   0.413   2.049  14.584  0.2065 -0.0412  0.2314
 1842SOL    HW116985   0.493   2.062  14.635 -0.0495 -3.3060  1.4643
 1842SOL    HW216986   0.420   1.954  14.576 -0.5517  0.0279 -1.2448
 1843SOL     OW16987   4.608   3.463   7.974 -0.1217 -0.3077 -0.2134
 1843SOL    HW116988   4.622   3.375   7.939 -0.7930 -0.1613 -0.8682
 1843SOL    HW216989   4.691   3.472   8.020 -1.3973  1.8824  1.6290
 1844SOL     OW16990   1.699   1.848   0.933 -0.3044  0.5699  0.3826
 1844SOL    HW116991   1.658   1.926   0.970 -0.1614 -0.1145  1.9760
 1844SOL    HW216992   1.777   1.886   0.893 -1.2358  0.6033 -1.4378
 1845SOL     OW16993   0.714   3.688  12.652  0.1574  0.2134 -0.6697
 1845SOL    HW116994   0.621   3.681  12.630 -0.3624  0.5941  1.4491
 1845SOL    HW216995   0.746   3.637  12.578 -1.6186 -0.6535 -0.8480
 1846SOL     OW16996   1.904   3.269   5.157  0.1881  0.1524 -0.0608
 1846SOL    HW116997   1.840   3.292   5.224 -0.5529 -3.0356  0.3425
 1846SOL    HW216998   1.903   3.354   5.113  0.0186  0.6032  0.8215
 1847SOL     OW16999   0.910   3.560   7.519 -0.5467 -0.2547  0.0182
 1847SOL    HW117000   0.892   3.467   7.507 -1.8246  0.2335 -1.9283
 1847SOL    HW217001   0.821   3.595   7.528 -0.5118 -0.1572 -0.0213
 1848SOL     OW17002   4.544   3.579   2.303  0.3159 -0.4427  0.0295
 1848SOL    HW117003   4.481   3.532   2.249 -0.7042  0.5256  0.3675
 1848SOL    HW217004   4.615   3.606   2.244  1.2617  1.9638  2.2394
 1849SOL     OW17005   3.060   0.260   7.921 -0.2470  0.5544 -0.0746
 1849SOL    HW117006   3.150   0.236   7.940 -1.2949 -1.9224  1.6311
 1849SOL    HW217007   3.010   0.213   7.987  0.6656 -0.5749 -0.2040
 1850SOL     OW17008   0.352   1.674   3.346  0.6205  0.1346 -0.3457
 1850SOL    HW117009   0.400   1.757   3.354  0.0127  0.5472 -0.9923
 1850SOL    HW217010   0.266   1.699   3.377 -0.5848 -0.9249 -2.8312
 1851SOL     OW17011   0.162   2.798   5.670 -0.7018  0.2396  0.1695
 1851SOL    HW117012   0.152   2.703   5.680  0.4194 -0.0539 -1.5460
 1851SOL    HW217013   0.199   2.789   5.583  0.9264 -0.6059  0.9622
 1852SOL     OW17014   3.683   0.710   3.004  0.0310  0.1472  0.5362
 1852SOL    HW117015   3.737   0.716   3.083  1.6790  2.4602 -0.7573
 1852SOL    HW217016   3.746   0.751   2.946  1.4724  0.7736  2.5301
 1853SOL     OW17017   3.682   3.817   6.612 -0.0223  0.3081  0.1847
 1853SOL    HW117018   3.594   3.845   6.588  0.7734 -0.7498 -3.9364
 1853SOL    HW217019   3.697   3.848   6.701  2.0707  1.3512 -0.5221
 1854SOL     OW17020   3.008   0.491   5.283 -0.6932  0.6943 -0.0466
 1854SOL    HW117021   3.095   0.528   5.271 -0.1843  0.3207  2.4795
 1854SOL    HW217022   2.962   0.573   5.300 -1.2373  0.7385 -1.6911
 1855SOL     OW17023   1.264   0.865   2.545  0.1587  0.2149  0.1076
 1855SOL    HW117024   1.216   0.865   2.462 -0.0872 -0.2059  0.2537
 1855SOL    HW217025   1.329   0.796   2.531 -1.0019 -0.7903 -0.2698
 1856SOL     OW17026   1.288   1.324   5.872 -0.1578  0.0607 -0.6448
 1856SOL    HW117027   1.211   1.348   5.820  0.5618  1.2411 -1.1586
 1856SOL    HW217028   1.243   1.305   5.955  2.1195  0.5683  0.7066
 1857SOL     OW17029   1.938   1.531   4.143  0.2907  0.2425 -0.3576
 1857SOL    HW117030   1.925   1.478   4.222  3.3767  0.2959  0.1840
 1857SOL    HW217031   1.865   1.593   4.138  0.1460  0.0093 -1.0148
 1858SOL     OW17032   0.520   4.220   1.970  0.5132 -0.1657  0.0715
 1858SOL    HW117033   0.544   4.306   1.934  1.1439 -0.3385  0.0856
 1858SOL    HW217034   0.425   4.229   1.975  0.4559  0.3814 -2.0660
 1859SOL     OW17035   2.436   2.564   6.914  0.1535  0.2948  0.4316
 1859SOL    HW117036   2.393   2.480   6.905 -1.9818  1.3575  0.6965
 1859SOL    HW217037   2.376   2.617   6.967 -0.7601 -0.4136  0.0989
 1860SOL     OW17038   0.970   2.684   7.726 -0.0593 -0.0397  0.4127
 1860SOL    HW117039   0.911   2.638   7.786 -2.8488  0.0534 -2.2030
 1860SOL    HW217040   1.054   2.656   7.762  1.0993  0.1896 -2.1206
 1861SOL     OW17041   3.635   3.432   7.554  0.2894 -0.5019  0.3888
 1861SOL    HW117042   3.705   3.489   7.585  1.3393 -0.9862 -1.1458
 1861SOL    HW217043   3.670   3.353   7.596  1.4115  1.1839  2.6240
 1862SOL     OW17044   2.798   1.129   2.083  0.4019 -0.1137 -0.2120
 1862SOL    HW117045   2.713   1.153   2.120 -1.0034 -3.3410 -1.3954
 1862SOL    HW217046   2.770   1.059   2.024 -2.2716  1.6349 -1.0295
 1863SOL     OW17047   2.621   0.493   0.431  0.7976 -0.5787  0.3851
 1863SOL    HW117048   2.648   0.560   0.368  3.6513 -1.6078  0.5105
 1863SOL    HW217049   2.560   0.544   0.483 -0.2268 -0.9538 -0.4589
 1864SOL     OW17050   1.576   4.689   6.401  0.0233 -0.2096  0.1307
 1864SOL    HW117051   1.570   4.619   6.336 -1.5719 -0.2085  0.2744
 1864SOL    HW217052   1.580   0.034   6.335  1.1831 -0.4656 -0.0753
 1865SOL     OW17053   1.011   4.153   4.370  0.4437 -0.6595 -0.3901
 1865SOL    HW117054   1.010   4.058   4.382 -0.5333 -0.4884  0.9050
 1865SOL    HW217055   1.011   4.187   4.459 -0.2017  0.1424 -0.6974
 1866SOL     OW17056   3.460   1.554   0.760  0.0640 -0.3498  0.5200
 1866SOL    HW117057   3.506   1.618   0.706  0.7661 -1.1714  0.1400
 1866SOL    HW217058   3.431   1.496   0.689 -1.1740  2.2456 -1.0704
 1867SOL     OW17059   4.448   0.677   0.811 -0.0256 -0.1911 -0.4996
 1867SOL    HW117060   4.368   0.729   0.809 -0.2754 -0.5284  0.5914
 1867SOL    HW217061   4.428   0.594   0.854 -0.3372  0.2414  0.1879
 1868SOL     OW17062   3.767   2.386   0.210  0.2028 -0.1195 -0.4888
 1868SOL    HW117063   3.791   2.306   0.163 -1.5782  0.4662 -2.4170
 1868SOL    HW217064   3.672   2.391   0.199  0.4293  1.5842 -1.7222
 1869SOL     OW17065   4.616   2.648   7.356 -0.0374  0.0947 -0.6517
 1869SOL    HW117066   4.528   2.686   7.364  0.3410  1.1489 -1.5818
 1869SOL    HW217067   4.600   2.553   7.355 -0.9767  0.2787 -3.1672
 1870SOL     OW17068   3.168   1.413  11.046 -0.0294 -0.5078 -0.0303
 1870SOL    HW117069   3.150   1.343  10.984 -0.4547 -1.6438  1.3845
 1870SOL    HW217070   3.226   1.366  11.106 -1.1639 -2.5721 -0.5562
 1871SOL     OW17071   3.154   3.597   5.443  0.1469 -0.3374 -0.6915
 1871SOL    HW117072   3.213   3.572   5.515 -1.9943 -2.3964  0.3431
 1871SOL    HW217073   3.076   3.620   5.493  0.2990  1.0110 -1.0847
 1872SOL     OW17074   3.544   2.062  17.111 -0.5839  0.0429 -0.1169
 1872SOL    HW117075   3.502   1.998  17.053 -1.2559 -0.4349  0.8934
 1872SOL    HW217076   3.606   2.100  17.049  0.1212 -0.5057  0.2582
 1873SOL     OW17077   3.347   1.690   5.343 -0.0256  0.0025  0.2385
 1873SOL    HW117078   3.382   1.670   5.430  0.6700  0.5206  0.0730
 1873SOL    HW217079   3.371   1.781   5.327  0.0474 -0.0683 -0.0652
 1874SOL     OW17080   3.352   0.527   1.151 -0.4310  0.0962  0.6034
 1874SOL    HW117081   3.350   0.540   1.057 -0.6356 -1.0326  0.4524
 1874SOL    HW217082   3.342   0.620   1.169  1.2651  0.0335  1.8721
 1875SOL     OW17083   2.471   0.902  10.430  0.1818  0.2110  0.6764
 1875SOL    HW117084   2.551   0.955  10.427  0.5882 -0.5196 -1.7541
 1875SOL    HW217085   2.411   0.940  10.494  0.8967 -0.3313  1.6758
 1876SOL     OW17086   4.484   3.363  12.770 -0.0778 -0.1324 -0.0331
 1876SOL    HW117087   4.409   3.418  12.749 -0.3185 -0.3154  0.3364
 1876SOL    HW217088   4.494   3.304  12.695  1.2609 -1.2209  0.9937
 1877SOL     OW17089   0.625   1.138   8.429  0.1740  0.3172 -0.3374
 1877SOL    HW117090   0.571   1.067   8.464 -0.8978  0.8676 -0.8680
 1877SOL    HW217091   0.669   1.173   8.507  0.0961  3.3113 -1.6407
 1878SOL     OW17092   0.070   3.194   1.729  0.3660 -0.3651 -0.5625
 1878SOL    HW117093   4.710   3.208   1.685  1.0183  1.9335 -1.0737
 1878SOL    HW217094   0.100   3.134   1.661 -0.5322  2.3140 -3.3159
 1879SOL     OW17095   2.234   0.289   6.431  0.3102  0.4459 -0.2412
 1879SOL    HW117096   2.177   0.361   6.456 -0.7445 -0.6432  0.5172
 1879SOL    HW217097   2.186   0.248   6.358  1.4373  0.0631 -0.7683
 1880SOL     OW17098   3.761   2.175   4.955 -0.0860  0.2976 -0.5658
 1880SOL    HW117099   3.764   2.094   5.006 -1.1544  0.4727 -0.2289
 1880SOL    HW217100   3.667   2.191   4.961 -0.0617 -0.2653  1.3200
 1881SOL     OW17101   0.019   1.485   5.908  0.1029  0.0082 -0.1997
 1881SOL    HW117102   0.091   1.443   5.861 -1.3298 -1.1615 -1.3471
 1881SOL    HW217103   4.686   1.514   5.838  1.4683  1.8014 -0.5831
 1882SOL     OW17104   1.510   2.875   7.363  0.1102  0.3929 -0.2493
 1882SOL    HW117105   1.474   2.902   7.447  0.4556  1.4940 -0.4534
 1882SOL    HW217106   1.432   2.845   7.315 -0.1766  0.1733  0.3590
 1883SOL     OW17107   2.983   0.866   3.717  0.1009 -0.0019  0.0317
 1883SOL    HW117108   2.941   0.780   3.715  0.0813 -0.0077  0.8584
 1883SOL    HW217109   2.987   0.885   3.810 -0.3444  3.5618 -0.6650
 1884SOL     OW17110   0.867   4.525   4.964  0.2390  0.1427  0.4258
 1884SOL    HW117111   0.786   4.564   4.932 -1.0365 -1.8185  1.2521
 1884SOL    HW217112   0.890   4.592   5.028  1.3620 -0.3284  0.5185
 1885SOL     OW17113   0.207   3.276   6.451  0.1954  0.6864  0.0765
 1885SOL    HW117114   0.139   3.314   6.506 -0.5364 -0.1256 -0.2729
 1885SOL    HW217115   0.216   3.184   6.477  2.3531  0.8634 -0.0047
 1886SOL     OW17116   1.611   1.080   4.255  0.0425  0.1951 -0.0463
 1886SOL    HW117117   1.518   1.062   4.268 -0.1024  1.1407  0.2067
 1886SOL    HW217118   1.613   1.140   4.329 -0.3649  1.6688 -1.2202
 1887SOL     OW17119   3.752   4.230  14.030 -0.2786  0.4136 -0.2173
 1887SOL    HW117120   3.840   4.246  13.995  0.5809  0.3719  1.9061
 1887SOL    HW217121   3.755   4.168  14.103 -2.1565 -0.6568 -1.0493
 1888SOL     OW17122   2.126   3.015   7.213  0.1188  0.5984 -0.0199
 1888SOL    HW117123   2.041   2.981   7.187  0.5294  1.3862 -2.4655
 1888SOL    HW217124   2.170   3.023   7.128 -0.3490  2.4836 -0.0932
 1889SOL     OW17125   2.767   0.415  11.686 -0.1069  0.3233  0.0403
 1889SOL    HW117126   2.771   0.337  11.631  1.7510  1.6343 -1.6983
 1889SOL    HW217127   2.806   0.480  11.627 -1.0581  2.4966  1.8081
 1890SOL     OW17128   1.942   3.861   9.169  0.3836 -0.1425 -0.1011
 1890SOL    HW117129   1.992   3.829   9.244 -1.3094 -2.2295  0.1181
 1890SOL    HW217130   1.856   3.838   9.202  0.8419 -1.0481  0.4621
 1891SOL     OW17131   2.253   4.501   5.818  1.0388 -0.0655 -0.0495
 1891SOL    HW117132   2.217   4.461   5.738 -1.7402 -2.0255  2.1919
 1891SOL    HW217133   2.343   4.517   5.790  1.5542 -0.6032  1.3139
 1892SOL     OW17134   1.609   4.262   8.442  0.1350 -0.2151  0.4724
 1892SOL    HW117135   1.540   4.244   8.506 -1.1803 -0.7157 -1.0788
 1892SOL    HW217136   1.683   4.219   8.486  0.1608 -1.0598 -0.3807
 1893SOL     OW17137   1.321   4.065   7.174  0.0503  0.2077 -0.8983
 1893SOL    HW117138   1.345   4.027   7.259 -0.8515  1.3012 -0.1481
 1893SOL    HW217139   1.376   4.143   7.175  0.5353 -0.1374 -0.8736
 1894SOL     OW17140   3.977   3.340   7.903  0.8370  0.1998  0.0614
 1894SOL    HW117141   3.980   3.248   7.929  0.3337 -0.1546 -1.1092
 1894SOL    HW217142   4.056   3.371   7.948  1.2615  2.9953 -2.6580
 1895SOL     OW17143   3.749   3.002  14.305 -0.1746  0.3042 -0.0551
 1895SOL    HW117144   3.723   2.912  14.322  0.8065 -0.1375 -0.8950
 1895SOL    HW217145   3.690   3.049  14.364 -1.0524  1.0868 -1.5478
 1896SOL     OW17146   1.278   0.344   5.256  1.1096  0.0831  0.2514
 1896SOL    HW117147   1.195   0.330   5.212  0.7762 -2.1805  1.5514
 1896SOL    HW217148   1.282   0.439   5.256 -0.0154  0.1283  2.5086
 1897SOL     OW17149   2.342   0.825   7.394  0.1764 -0.6285 -0.0414
 1897SOL    HW117150   2.327   0.872   7.476 -2.2486  0.0122 -0.8536
 1897SOL    HW217151   2.263   0.849   7.346  0.1709 -1.9921 -0.7129
 1898SOL     OW17152   0.884   3.824   0.413 -0.0690  0.2129 -0.1842
 1898SOL    HW117153   0.873   3.791   0.503  1.9740 -0.7706 -0.3107
 1898SOL    HW217154   0.972   3.790   0.402 -0.6857 -1.1604 -0.8279
 1899SOL     OW17155   3.956   1.059   3.853  0.1207 -0.3636  0.1730
 1899SOL    HW117156   3.875   1.020   3.819  0.3488 -0.7273  0.0475
 1899SOL    HW217157   4.007   1.059   3.772 -1.2432  2.0975 -0.7036
 1900SOL     OW17158   1.543   0.597   5.499 -0.1538  0.4043 -0.2832
 1900SOL    HW117159   1.510   0.684   5.478  0.4205  0.7531  0.2565
 1900SOL    HW217160   1.599   0.623   5.573  0.7808 -0.1668 -0.7928
 1901SOL     OW17161   3.407   3.796   3.932  0.4025  0.0692  0.4741
 1901SOL    HW117162   3.358   3.877   3.918  1.1521  0.3862 -0.3306
 1901SOL    HW217163   3.343   3.733   3.965 -0.2109  0.9111  0.9143
 1902SOL     OW17164   2.296   3.577   1.587  0.3488  0.3144  0.1555
 1902SOL    HW117165   2.362   3.513   1.615 -1.4416 -1.0810  1.2017
 1902SOL    HW217166   2.212   3.532   1.594  0.4625 -0.0116 -0.6121
 1903SOL     OW17167   2.347   4.526   7.047 -0.1585  0.3924 -0.1878
 1903SOL    HW117168   2.347   4.585   7.122  1.3979 -0.4197  0.4683
 1903SOL    HW217169   2.428   4.539   6.998  1.0003  2.3133  2.2622
 1904SOL     OW17170   3.801   2.101   7.388 -0.0886  0.7156 -0.5221
 1904SOL    HW117171   3.742   2.066   7.454 -0.6674  2.2170 -0.2433
 1904SOL    HW217172   3.745   2.101   7.311 -0.3944 -1.5346 -0.2847
 1905SOL     OW17173   4.073   2.248  14.841  0.1286  0.5094  0.3422
 1905SOL    HW117174   3.984   2.266  14.871 -0.0745  0.5874 -0.3061
 1905SOL    HW217175   4.057   2.248  14.747  0.9933 -0.6239  0.2056
 1906SOL     OW17176   3.450   4.606  14.703 -0.0726  0.5497  0.1467
 1906SOL    HW117177   3.504   4.678  14.732 -0.5092  1.0316 -0.2413
 1906SOL    HW217178   3.487   4.577  14.619  1.5870  1.4586  0.5650
 1907SOL     OW17179   3.658   0.691   9.815  0.2783 -0.2507 -0.1047
 1907SOL    HW117180   3.596   0.654   9.752 -0.9228  0.2659  0.7821
 1907SOL    HW217181   3.707   0.742   9.750  1.6357  1.0367  1.9043
 1908SOL     OW17182   4.610   0.423  14.758  0.5568  0.2160 -0.3598
 1908SOL    HW117183   4.627   0.348  14.701 -2.6072 -0.3989 -0.4550
 1908SOL    HW217184   4.665   0.407  14.835 -2.6095 -0.3232  1.7743
 1909SOL     OW17185   2.611   2.456   0.324  0.5100  0.5492  0.0111
 1909SOL    HW117186   2.678   2.470   0.390  0.8684  1.3656 -0.5294
 1909SOL    HW217187   2.634   2.528   0.266  0.7174  0.6226  0.1868
 1910SOL     OW17188   4.372   1.772   0.440 -0.7780  0.4128  1.0593
 1910SOL    HW117189   4.423   1.725   0.506 -0.4786  2.0117  1.9641
 1910SOL    HW217190   4.362   1.860   0.477 -1.2934  1.7221 -2.1450
 1911SOL     OW17191   0.457   1.764   6.655  0.3552  0.0680 -0.1237
 1911SOL    HW117192   0.507   1.684   6.672  0.0442 -0.1888 -0.4030
 1911SOL    HW217193   0.371   1.723   6.640 -0.4727  1.0733  1.8721
 1912SOL     OW17194   2.322   4.524   1.366 -0.0845 -0.3168 -0.9664
 1912SOL    HW117195   2.335   4.617   1.385  3.5721 -0.7851 -1.1941
 1912SOL    HW217196   2.298   4.534   1.274  2.5790 -0.0957 -1.6439
 1913SOL     OW17197   3.417   4.152   2.813  0.2132  0.3544 -0.4947
 1913SOL    HW117198   3.467   4.213   2.760  1.1991  0.6930  0.8494
 1913SOL    HW217199   3.327   4.180   2.794 -0.3741 -1.0237  0.2063
 1914SOL     OW17200   1.369   2.632   0.246  0.1527 -0.1108 -0.3697
 1914SOL    HW117201   1.377   2.676   0.331 -0.0304  0.4273 -0.6297
 1914SOL    HW217202   1.303   2.689   0.206  0.5833  0.6625  0.0114
 1915SOL     OW17203   0.473   4.416   3.155  0.0830 -0.6827  0.1944
 1915SOL    HW117204   0.552   4.407   3.101  0.2507  1.7820  0.0343
 1915SOL    HW217205   0.505   4.420   3.245 -0.9098  2.8566  0.3965
 1916SOL     OW17206   4.258   3.594   2.517 -0.0358 -0.1614 -0.4782
 1916SOL    HW117207   4.237   3.627   2.429 -0.5947  0.5366 -0.0814
 1916SOL    HW217208   4.221   3.506   2.510 -3.9238  1.3208  1.1506
 1917SOL     OW17209   3.518   0.313   0.401 -0.3851 -0.4168  0.5649
 1917SOL    HW117210   3.465   0.233   0.398  1.0834 -1.3860  0.3182
 1917SOL    HW217211   3.450   0.374   0.375  0.7836 -0.1338 -1.7639
 1918SOL     OW17212   4.120   1.871  10.507  0.0484 -0.1294 -0.8304
 1918SOL    HW117213   4.193   1.925  10.538 -0.3913  0.8844 -1.5819
 1918SOL    HW217214   4.093   1.930  10.438 -3.0394 -2.6844 -1.7941
 1919SOL     OW17215   3.725   3.763   6.915  0.3674 -0.3751  0.4529
 1919SOL    HW117216   3.696   3.778   7.005  0.7496 -1.3842  0.7362
 1919SOL    HW217217   3.803   3.711   6.933  0.9534  1.2859  2.7852
 1920SOL     OW17218   3.537   3.824   4.203 -0.0272 -0.1875 -0.6841
 1920SOL    HW117219   3.594   3.882   4.153  1.9186 -2.3324 -0.9142
 1920SOL    HW217220   3.470   3.804   4.137  0.1131  1.0620 -1.2089
 1921SOL     OW17221   3.883   0.594   2.519 -0.3068  0.1476  0.2979
 1921SOL    HW117222   3.833   0.535   2.463 -0.3920 -1.3607  1.9701
 1921SOL    HW217223   3.902   0.669   2.463 -1.2553  1.0981  1.2461
 1922SOL     OW17224   0.529   4.552  14.820 -0.3279 -0.2638 -0.1602
 1922SOL    HW117225   0.600   4.572  14.759  0.2158 -1.3234  0.1354
 1922SOL    HW217226   0.466   4.623  14.805 -0.4936 -0.8263 -2.0954
 1923SOL     OW17227   0.732   4.139   5.618  0.1862 -0.3915  0.2950
 1923SOL    HW117228   0.724   4.044   5.622  1.2669 -0.5189 -0.6162
 1923SOL    HW217229   0.653   4.161   5.569  0.4241  0.0171  0.0954
 1924SOL     OW17230   0.251   2.281   7.789 -0.5355 -0.3327  0.8274
 1924SOL    HW117231   0.184   2.300   7.855  0.9809  1.3195  1.8627
 1924SOL    HW217232   0.210   2.322   7.713  0.6473 -1.1841 -0.2638
 1925SOL     OW17233   2.222   4.164   6.842 -0.0886 -0.1664  0.2763
 1925SOL    HW117234   2.244   4.252   6.873  2.3705 -0.3079 -1.0159
 1925SOL    HW217235   2.127   4.155   6.852  0.0934  0.1929  2.4207
 1926SOL     OW17236   2.192   3.133  11.878 -0.4799  0.1659  0.0270
 1926SOL    HW117237   2.157   3.221  11.896  1.6493  1.8500 -3.9877
 1926SOL    HW217238   2.158   3.132  11.789  1.4502 -1.1409 -0.6802
 1927SOL     OW17239   2.197   0.091   2.704  0.3317  0.2773  0.0662
 1927SOL    HW117240   2.153   0.041   2.635  1.9723  0.7877 -1.3500
 1927SOL    HW217241   2.229   0.015   2.753  0.5628  1.4000  1.6673
 1928SOL     OW17242   4.156   0.049  16.585  0.1725  0.4623 -0.4569
 1928SOL    HW117243   4.150   0.143  16.605  0.6657  0.3651  0.1303
 1928SOL    HW217244   4.111   0.013  16.661  0.5441 -0.1693 -0.5425
 1929SOL     OW17245   2.987   1.278   0.471 -0.1786  0.2056 -0.1559
 1929SOL    HW117246   3.015   1.334   0.399  0.1021  1.7103  1.1327
 1929SOL    HW217247   2.963   1.194   0.431 -1.4809  0.7668 -0.5634
 1930SOL     OW17248   4.530   0.294   8.453  0.0791  0.7289  0.3250
 1930SOL    HW117249   4.548   0.314   8.545 -2.4041  3.0741  0.3030
 1930SOL    HW217250   4.528   0.381   8.412 -2.7136  0.0277 -1.0238
 1931SOL     OW17251   3.187   3.042   1.519 -0.2626 -0.3353 -0.1418
 1931SOL    HW117252   3.192   3.015   1.611 -1.9335 -2.6207 -0.7184
 1931SOL    HW217253   3.094   3.029   1.503 -0.6092 -1.5306  2.6994
 1932SOL     OW17254   0.313   2.231   6.673 -0.0563 -0.0639 -0.4909
 1932SOL    HW117255   0.299   2.302   6.611  0.7143  0.2886 -0.2568
 1932SOL    HW217256   0.355   2.270   6.750 -0.8708  0.8632 -0.5140
 1933SOL     OW17257   3.139   1.576   4.575 -0.2989 -0.1904  0.1928
 1933SOL    HW117258   3.175   1.492   4.603 -0.7710 -0.7421 -0.8387
 1933SOL    HW217259   3.119   1.628   4.653  0.4626 -0.1754  0.3789
 1934SOL     OW17260   4.588   2.470   2.198 -0.0951  0.4024 -0.1122
 1934SOL    HW117261   4.602   2.556   2.237 -2.1120  0.4401  0.5345
 1934SOL    HW217262   4.508   2.495   2.152  1.1321  3.0481 -0.7611
 1935SOL     OW17263   1.322   3.119   5.518  0.4157 -0.1797  0.4461
 1935SOL    HW117264   1.258   3.191   5.523  1.0733  0.4675 -0.4940
 1935SOL    HW217265   1.311   3.096   5.426 -2.2599 -0.5769  0.8623
 1936SOL     OW17266   4.682   3.205  15.142  0.4763  0.1013  0.1090
 1936SOL    HW117267   4.618   3.135  15.151 -0.0396  0.3465 -1.5801
 1936SOL    HW217268   4.650   3.250  15.063  2.8131 -1.1936 -1.5954
 1937SOL     OW17269   2.232   4.320  14.121 -0.1786  0.0620  0.0523
 1937SOL    HW117270   2.165   4.253  14.103 -0.0257 -0.5409  1.6267
 1937SOL    HW217271   2.260   4.313  14.213 -1.1082  0.7582  0.3918
 1938SOL     OW17272   4.539   2.295  14.030  0.3944  0.2592 -0.6351
 1938SOL    HW117273   4.567   2.336  13.948 -1.3104  1.0866 -0.7929
 1938SOL    HW217274   4.526   2.202  14.007 -1.2644  0.2630  0.2857
 1939SOL     OW17275   0.796   0.215   2.305  0.2259  0.0512  0.4324
 1939SOL    HW117276   0.783   0.240   2.214  2.6787  3.7617  1.1050
 1939SOL    HW217277   0.784   0.297   2.352 -0.2130  0.5691 -0.5852
 1940SOL     OW17278   1.798   2.372   9.907 -0.3525 -0.1438 -0.1207
 1940SOL    HW117279   1.742   2.309   9.862 -0.4508  1.3296 -2.0834
 1940SOL    HW217280   1.807   2.436   9.837 -1.0974  0.9581  0.7868
 1941SOL     OW17281   1.929   0.655   9.513  0.2132 -0.3341  0.4300
 1941SOL    HW117282   1.903   0.664   9.421 -1.6203  0.3991  1.0263
 1941SOL    HW217283   1.895   0.567   9.531  0.4698 -0.4985  0.1142
 1942SOL     OW17284   0.967   3.998   0.814 -0.0392  0.2639 -0.2170
 1942SOL    HW117285   0.909   3.924   0.800  1.2404 -0.7037 -0.4492
 1942SOL    HW217286   0.995   4.021   0.725 -1.0842  2.2277 -0.0397
 1943SOL     OW17287   0.385   0.184   5.399  0.3116 -0.8745 -0.2695
 1943SOL    HW117288   0.293   0.179   5.427 -0.0052 -0.6756 -1.2678
 1943SOL    HW217289   0.376   0.245   5.326  0.0424 -0.4048  0.1549
 1944SOL     OW17290   1.012   1.130  17.681  0.7645  0.4416  0.6091
 1944SOL    HW117291   0.968   1.155   0.062  1.1233  1.4575  0.4841
 1944SOL    HW217292   0.949   1.173  17.622  0.8717 -0.1569  0.0530
 1945SOL     OW17293   4.298   3.036   4.785 -0.3987 -0.2454 -0.4908
 1945SOL    HW117294   4.272   3.127   4.767 -0.0675  0.0586  0.5117
 1945SOL    HW217295   4.394   3.041   4.780 -0.4568  1.2483 -0.2917
 1946SOL     OW17296   3.925   1.896  14.346  0.3365 -0.0990  0.2711
 1946SOL    HW117297   4.006   1.852  14.320  0.1123  0.5119 -1.4184
 1946SOL    HW217298   3.883   1.899  14.260  0.2987  2.3473  0.3804
 1947SOL     OW17299   0.437   4.578   5.608  0.3574  0.1176  0.1808
 1947SOL    HW117300   0.347   4.597   5.581  0.7690 -0.0328 -1.2777
 1947SOL    HW217301   0.443   4.530   5.691  0.0049 -0.2101  0.0188
 1948SOL     OW17302   2.437   1.160   7.361 -0.0728 -0.3912  0.2341
 1948SOL    HW117303   2.464   1.252   7.361 -4.3588  0.8764  0.1830
 1948SOL    HW217304   2.408   1.145   7.450  1.7300  1.0067  1.0733
 1949SOL     OW17305   4.261   2.572   7.717  0.6782 -0.6741 -0.2199
 1949SOL    HW117306   4.351   2.604   7.725  0.7607 -1.0217  0.2464
 1949SOL    HW217307   4.257   2.534   7.629  2.5125  0.4841 -0.7835
 1950SOL     OW17308   3.197   2.562   0.194 -0.0582  0.5306  0.1814
 1950SOL    HW117309   3.283   2.549   0.234  0.4601  0.2196 -1.0483
 1950SOL    HW217310   3.184   2.496   0.126 -0.0660  0.3197  0.3891
 1951SOL     OW17311   2.094   0.386  16.184 -0.0791 -0.1824  0.6217
 1951SOL    HW117312   2.063   0.421  16.100  1.8315 -0.3488 -0.1416
 1951SOL    HW217313   2.027   0.318  16.196  0.2461 -0.7373 -0.6954
 1952SOL     OW17314   0.488   4.410   6.588 -0.5561 -0.5016 -0.1464
 1952SOL    HW117315   0.478   4.316   6.571 -0.1197 -0.0618 -2.7727
 1952SOL    HW217316   0.402   4.416   6.632  0.5173  0.3591  1.8417
 1953SOL     OW17317   0.988   4.327   9.232  0.1199 -0.4692 -0.0772
 1953SOL    HW117318   0.954   4.412   9.203  0.9277 -0.0009  0.3575
 1953SOL    HW217319   0.947   4.323   9.318 -0.0818  1.7168 -0.0743
 1954SOL     OW17320   3.662   1.792   2.928 -0.2777  0.1841  0.0787
 1954SOL    HW117321   3.634   1.874   2.889  2.3772  0.7907 -0.5023
 1954SOL    HW217322   3.688   1.828   3.013  1.7531  2.8485 -1.7015
 1955SOL     OW17323   0.854   4.193   4.947  0.3127  0.2847 -0.1680
 1955SOL    HW117324   0.769   4.166   4.982  0.6872 -0.4368  0.1901
 1955SOL    HW217325   0.840   4.287   4.935  0.5433  0.3736  0.2498
 1956SOL     OW17326   2.933   2.968   8.840  0.6227  0.2471 -0.4502
 1956SOL    HW117327   2.933   2.940   8.749  1.1524  0.4187 -0.5080
 1956SOL    HW217328   3.011   3.024   8.842 -0.0190  1.1654 -1.4171
 1957SOL     OW17329   4.599   3.124   6.532  0.3939  0.1294 -0.3181
 1957SOL    HW117330   4.562   3.212   6.539  2.7730  1.0389  0.9448
 1957SOL    HW217331   4.622   3.102   6.623 -0.7227 -0.2974 -0.1426
 1958SOL     OW17332   1.101   3.770   3.609 -0.4401 -0.0358 -0.0297
 1958SOL    HW117333   1.021   3.716   3.605 -1.9079  2.0680  1.2620
 1958SOL    HW217334   1.118   3.797   3.518 -1.0433  0.3097 -0.0425
 1959SOL     OW17335   4.580   3.706   0.762  0.3386  0.3687 -0.2813
 1959SOL    HW117336   4.611   3.792   0.790  1.4516  0.2728 -1.2132
 1959SOL    HW217337   4.653   3.655   0.728 -1.3225 -1.6839 -0.7685
 1960SOL     OW17338   1.939   1.075   0.705 -0.5237 -0.2540  0.0431
 1960SOL    HW117339   1.872   1.123   0.753  0.9228  1.0185  0.8015
 1960SOL    HW217340   1.991   1.141   0.659 -1.5132 -0.5103 -1.4251
 1961SOL     OW17341   1.802   3.743   7.613  0.0249  0.1930  0.1568
 1961SOL    HW117342   1.884   3.741   7.662  0.6506  0.4699 -0.8827
 1961SOL    HW217343   1.742   3.802   7.660 -1.9532 -2.7089  1.3147
 1962SOL     OW17344   3.761   0.022   7.402  0.8935  0.2354 -0.1729
 1962SOL    HW117345   3.799   0.077   7.333  0.1563  2.0345  0.8407
 1962SOL    HW217346   3.776   0.076   7.480 -0.6892  0.3477  0.0472
 1963SOL     OW17347   2.555   1.446   6.241  0.2227 -0.5894 -0.6460
 1963SOL    HW117348   2.480   1.491   6.202  2.3944  1.4696 -2.4183
 1963SOL    HW217349   2.541   1.475   6.332  0.8288 -0.3010 -0.6461
 1964SOL     OW17350   1.506   1.037   7.600  0.1130  0.3360 -0.8767
 1964SOL    HW117351   1.512   1.133   7.597 -1.2808  0.5383  2.4592
 1964SOL    HW217352   1.584   1.008   7.553  1.1789  2.4914 -0.4500
 1965SOL     OW17353   3.740   2.694   3.195  0.4593  0.0237  0.0191
 1965SOL    HW117354   3.663   2.715   3.141  1.0143  2.4010  0.1636
 1965SOL    HW217355   3.738   2.601   3.172  0.6011 -0.0769  0.4190
 1966SOL     OW17356   1.992   0.518  11.193  0.1005 -0.7568 -0.2452
 1966SOL    HW117357   1.963   0.609  11.194  0.1754 -0.7117 -1.3886
 1966SOL    HW217358   2.086   0.536  11.189 -0.1399  0.5400 -0.2822
 1967SOL     OW17359   3.059   3.095   4.105 -0.9022 -0.4641  0.3167
 1967SOL    HW117360   3.100   3.028   4.160  2.9428  0.3408 -1.6003
 1967SOL    HW217361   3.101   3.176   4.133  0.3828 -0.9272 -0.2440
 1968SOL     OW17362   1.845   3.031  11.919  0.1201 -0.0124 -0.7951
 1968SOL    HW117363   1.878   2.981  11.994  1.9531  2.0959 -0.1960
 1968SOL    HW217364   1.751   3.008  11.919 -0.6038  3.0291 -1.6004
 1969SOL     OW17365   2.845   1.404   6.869 -0.1926  0.3274  0.1784
 1969SOL    HW117366   2.907   1.376   6.936  0.4728 -0.2525 -0.6853
 1969SOL    HW217367   2.814   1.318   6.840 -2.8751  0.9161  1.3000
 1970SOL     OW17368   4.127   1.576   4.408  0.4230  0.4375  0.2790
 1970SOL    HW117369   4.042   1.575   4.453  0.1968  2.9589 -0.0973
 1970SOL    HW217370   4.120   1.500   4.349  2.1596  1.4888 -1.2756
 1971SOL     OW17371   0.602   2.857  11.887 -0.6812 -0.3199 -0.0038
 1971SOL    HW117372   0.557   2.778  11.916  1.0665 -2.2391 -2.5138
 1971SOL    HW217373   0.600   2.838  11.793 -2.0758 -0.7819  0.1161
 1972SOL     OW17374   0.211   0.756   8.859  0.3888 -0.3012  0.4473
 1972SOL    HW117375   0.209   0.850   8.841 -0.9344 -0.6862 -1.3838
 1972SOL    HW217376   0.139   0.727   8.803 -1.3003  0.6980  2.1295
 1973SOL     OW17377   4.718   1.652   7.732  0.2514  0.7645  0.5778
 1973SOL    HW117378   4.649   1.714   7.756 -0.7009 -0.3972  0.8303
 1973SOL    HW217379   0.050   1.662   7.809 -1.4650 -0.3586  1.9677
 1974SOL     OW17380   1.490   2.454   8.512  0.7558 -0.1676 -0.3386
 1974SOL    HW117381   1.408   2.494   8.541  1.3476  0.3458  0.6286
 1974SOL    HW217382   1.511   2.441   8.605 -3.7954  2.0204  0.9890
 1975SOL     OW17383   3.948   1.117   1.852  0.0101  0.6110 -0.2167
 1975SOL    HW117384   4.037   1.145   1.830  0.0668 -0.1591 -0.9746
 1975SOL    HW217385   3.917   1.205   1.871  2.0581  1.0589  1.0784
 1976SOL     OW17386   3.918   2.426   5.199  0.2407  0.0088  0.1122
 1976SOL    HW117387   3.952   2.377   5.125 -2.1449 -0.3369 -0.7384
 1976SOL    HW217388   3.853   2.365   5.234  0.9193 -1.8008 -1.7796
 1977SOL     OW17389   2.493   2.693   1.768  0.0807 -0.2536 -0.4695
 1977SOL    HW117390   2.503   2.755   1.696 -1.5946  0.8366  0.2444
 1977SOL    HW217391   2.575   2.714   1.814  0.8297 -2.5264 -0.7626
 1978SOL     OW17392   1.080   0.681   0.868 -0.1284 -0.6559  0.3209
 1978SOL    HW117393   1.138   0.714   0.936 -1.2748 -1.7133  1.7843
 1978SOL    HW217394   1.140   0.679   0.793 -0.2435  3.3984  0.0988
 1979SOL     OW17395   0.344   1.447   6.321  0.4623 -0.3349 -0.1824
 1979SOL    HW117396   0.269   1.479   6.270  0.4428  1.2594  0.8219
 1979SOL    HW217397   0.353   1.360   6.282 -1.5670  0.5887 -2.7055
 1980SOL     OW17398   2.166   2.626   5.932  0.3055  0.1458  0.1256
 1980SOL    HW117399   2.125   2.708   5.958  1.8382  1.2230 -0.7667
 1980SOL    HW217400   2.095   2.581   5.887  0.3048 -2.4881  2.8082
 1981SOL     OW17401   4.303   2.545  15.345  0.1332  0.3350 -0.6868
 1981SOL    HW117402   4.285   2.586  15.429 -1.7813 -1.9310 -0.0044
 1981SOL    HW217403   4.231   2.569  15.286  0.4819 -0.1936 -1.3205
 1982SOL     OW17404   0.509   1.594   5.497  0.0404  0.2934 -0.2498
 1982SOL    HW117405   0.430   1.638   5.465 -1.6507 -2.7836 -0.3520
 1982SOL    HW217406   0.544   1.651   5.566  0.7768 -1.3832  0.7824
 1983SOL     OW17407   4.063   0.451  13.874 -0.8427 -0.1728 -0.6059
 1983SOL    HW117408   4.093   0.528  13.825  1.9794 -1.0436 -0.2951
 1983SOL    HW217409   3.984   0.478  13.920  0.4534  1.3814  0.6840
 1984SOL     OW17410   2.103   0.431   5.576 -0.2143  0.2213 -0.3654
 1984SOL    HW117411   2.044   0.450   5.650 -0.6416 -0.8677 -0.4226
 1984SOL    HW217412   2.184   0.402   5.617  1.4846  2.2048 -2.3677
 1985SOL     OW17413   2.534   0.338  14.483 -0.0064 -0.0197 -0.0820
 1985SOL    HW117414   2.563   0.319  14.573  0.8239  1.4447 -0.0429
 1985SOL    HW217415   2.464   0.274  14.468 -0.6158  0.2774  1.4998
 1986SOL     OW17416   3.973   2.525   8.241  0.4724  0.0041 -0.1260
 1986SOL    HW117417   4.034   2.509   8.169  0.1312  0.3558 -0.4857
 1986SOL    HW217418   4.027   2.498   8.316  1.5088 -2.4198 -1.7528
 1987SOL     OW17419   2.919   1.290   4.788  0.4077  0.0438  0.0454
 1987SOL    HW117420   2.873   1.283   4.704  0.8798  1.8917 -0.3518
 1987SOL    HW217421   3.006   1.323   4.763 -0.1057  1.5763  0.2851
 1988SOL     OW17422   3.139   0.710   2.666 -0.0393  0.5183 -0.5773
 1988SOL    HW117423   3.177   0.642   2.721  3.0715 -0.6735 -4.1887
 1988SOL    HW217424   3.171   0.784   2.717  2.1301 -0.6619 -0.2354
 1989SOL     OW17425   0.371   2.350   0.181 -0.0618 -0.1669  0.0214
 1989SOL    HW117426   0.389   2.285   0.112 -0.9867  0.0161 -0.3973
 1989SOL    HW217427   0.298   2.396   0.139  1.2225  1.0945 -0.8084
 1990SOL     OW17428   3.610   4.464   8.795  0.2279 -0.2275 -0.1331
 1990SOL    HW117429   3.642   4.422   8.715  0.5209  2.1824 -1.2669
 1990SOL    HW217430   3.675   4.534   8.798  3.1148 -2.7831 -2.8675
 1991SOL     OW17431   4.140   1.774  12.297 -0.1888 -0.0505  0.0223
 1991SOL    HW117432   4.200   1.824  12.353  0.3158 -1.9771  1.2139
 1991SOL    HW217433   4.122   1.693  12.344 -1.8512  0.0981 -0.3764
 1992SOL     OW17434   4.352   0.520  10.816 -0.0814 -0.0261  0.1448
 1992SOL    HW117435   4.271   0.475  10.842 -0.5375  0.7394  0.0248
 1992SOL    HW217436   4.327   0.607  10.848 -0.0263 -0.5908  1.7417
 1993SOL     OW17437   3.480   0.140   1.495  0.1231 -0.3708 -0.0207
 1993SOL    HW117438   3.436   0.187   1.566 -2.3933  0.6740 -2.2624
 1993SOL    HW217439   3.563   0.138   1.542 -1.1144  2.6923  2.3001
 1994SOL     OW17440   3.125   4.475   2.279 -0.6016 -0.1052 -0.3926
 1994SOL    HW117441   3.064   4.473   2.353 -0.1792  0.5688 -0.0283
 1994SOL    HW217442   3.205   4.436   2.313 -1.3299  0.1527  1.6579
 1995SOL     OW17443   0.757   3.201   4.912  0.2918  0.0245  0.1872
 1995SOL    HW117444   0.684   3.143   4.893  0.9235 -0.8930  0.5889
 1995SOL    HW217445   0.803   3.133   4.961 -1.2069 -0.7876  0.4596
 1996SOL     OW17446   3.609   4.181   6.145 -0.1423 -0.0083 -0.5150
 1996SOL    HW117447   3.648   4.114   6.089 -2.1129 -0.9277 -0.7957
 1996SOL    HW217448   3.682   4.200   6.204  0.2211  0.0015 -0.9683
 1997SOL     OW17449   3.729   2.470  16.811  0.2763 -0.4940 -0.1370
 1997SOL    HW117450   3.785   2.531  16.859  0.8239 -1.5268  0.5271
 1997SOL    HW217451   3.642   2.510  16.812  1.5425  2.2433  0.4863
 1998SOL     OW17452   1.080   2.013   8.175  0.1004  0.1361  0.1914
 1998SOL    HW117453   1.035   2.032   8.258  0.5107  1.1609  0.1771
 1998SOL    HW217454   1.005   1.984   8.122  0.8818  1.2815 -1.5320
 1999SOL     OW17455   2.347   1.600   7.157 -0.3284  0.3969  0.2675
 1999SOL    HW117456   2.357   1.542   7.081  2.2932  0.9378  0.1813
 1999SOL    HW217457   2.253   1.614   7.146 -0.5423  0.8641  2.8693
 2000SOL     OW17458   1.743   0.811   8.981  0.5193 -0.0667 -1.0376
 2000SOL    HW117459   1.811   0.744   8.974 -0.4552 -1.1399 -0.3240
 2000SOL    HW217460   1.752   0.852   8.895  1.0050  0.4234 -0.7494
 2001SOL     OW17461   0.799   3.232   9.269  0.1884 -0.2167  0.3900
 2001SOL    HW117462   0.816   3.310   9.321 -1.2054  2.3780 -3.0271
 2001SOL    HW217463   0.707   3.212   9.288 -0.3523  1.8336 -0.0763
 2002SOL     OW17464   3.371   4.444  17.081 -0.5359  0.0067 -0.2501
 2002SOL    HW117465   3.423   4.428  17.160  1.4886 -1.4663 -1.8866
 2002SOL    HW217466   3.417   4.515  17.037  0.6583  1.2266  2.9898
 2003SOL     OW17467   2.597   4.670  10.762  0.0419  0.5386 -0.4912
 2003SOL    HW117468   2.584   0.040  10.759 -3.5096  0.0406 -1.2792
 2003SOL    HW217469   2.691   4.655  10.759  0.0133  0.1269  0.5492
 2004SOL     OW17470   0.423   1.448   3.215 -0.4386  0.3027 -0.1972
 2004SOL    HW117471   0.373   1.519   3.256  0.2410 -0.7336  2.4329
 2004SOL    HW217472   0.471   1.496   3.147 -0.1563  0.5685  0.1950
 2005SOL     OW17473   3.363   3.637   8.124  0.2087 -0.3685 -0.2529
 2005SOL    HW117474   3.438   3.580   8.107 -0.2568 -0.6536 -1.3383
 2005SOL    HW217475   3.386   3.724   8.090  0.3026 -0.6488 -0.9062
 2006SOL     OW17476   2.526   4.192  16.213 -0.0512  0.1392 -0.9337
 2006SOL    HW117477   2.450   4.250  16.204 -0.4933 -0.2805  0.1817
 2006SOL    HW217478   2.566   4.242  16.284 -1.3018  1.1283 -0.9172
 2007SOL     OW17479   3.637   1.186  11.219 -0.0435  0.2418 -0.1534
 2007SOL    HW117480   3.542   1.171  11.219  0.2075 -1.3067  1.8245
 2007SOL    HW217481   3.675   1.158  11.136 -1.1721 -1.0120 -0.2475
 2008SOL     OW17482   0.037   2.189   3.313  0.3643 -0.2643  0.4130
 2008SOL    HW117483   4.720   2.184   3.399  1.8443 -0.9371  1.0806
 2008SOL    HW217484   4.678   2.175   3.270  0.6190  2.9870 -1.1795
 2009SOL     OW17485   3.287   1.444   8.625 -0.1912 -0.3294 -0.8582
 2009SOL    HW117486   3.372   1.404   8.647  0.4189  1.0686 -0.6612
 2009SOL    HW217487   3.234   1.388   8.682 -0.9171 -2.0242 -3.2106
 2010SOL     OW17488   3.507   3.002   2.709 -0.1753 -0.5265  0.2661
 2010SOL    HW117489   3.421   3.009   2.667  0.1859 -1.5324 -0.6416
 2010SOL    HW217490   3.529   2.911   2.728 -0.8733 -0.7336  0.0832
 2011SOL     OW17491   3.461   2.787   9.037 -0.0580 -0.1036 -0.4731
 2011SOL    HW117492   3.460   2.692   9.044 -1.6489 -0.2260 -2.1627
 2011SOL    HW217493   3.369   2.803   9.058  0.1826 -0.2405  0.6619
 2012SOL     OW17494   3.906   4.147  12.235  0.1971  0.0649  0.0315
 2012SOL    HW117495   3.874   4.064  12.199  2.6366 -0.1803 -1.5346
 2012SOL    HW217496   4.000   4.130  12.236  0.7109  2.7713 -2.0678
 2013SOL     OW17497   3.720   1.859   5.548 -0.3015  0.1538  0.0354
 2013SOL    HW117498   3.659   1.795   5.584  0.7574  0.2939  2.1022
 2013SOL    HW217499   3.685   1.937   5.591  0.0995  0.8670 -0.9372
 2014SOL     OW17500   3.301   2.372  17.099  0.9381 -0.5395 -0.2458
 2014SOL    HW117501   3.249   2.346  17.176 -0.9305  0.2063 -1.2528
 2014SOL    HW217502   3.382   2.391  17.146  0.8743 -2.2829  0.5808
 2015SOL     OW17503   3.685   4.160   6.584 -0.3763 -0.3182  0.0387
 2015SOL    HW117504   3.669   4.084   6.639  0.8407 -0.0787  0.7178
 2015SOL    HW217505   3.749   4.208   6.636 -0.9513 -0.5126  0.9183
 2016SOL     OW17506   0.420   2.518   3.120 -0.6622 -0.5209 -0.2504
 2016SOL    HW117507   0.367   2.468   3.183  0.0439 -1.0507 -0.0762
 2016SOL    HW217508   0.394   2.608   3.137  2.7544  0.3525  0.4127
 2017SOL     OW17509   1.841   3.641   8.245 -0.0259  0.1629  0.3067
 2017SOL    HW117510   1.759   3.591   8.236  0.1500  0.3121 -2.0806
 2017SOL    HW217511   1.814   3.726   8.211 -0.4637 -0.7352 -1.5665
 2018SOL     OW17512   3.325   4.412   6.651 -0.0490  0.1609 -0.0327
 2018SOL    HW117513   3.299   4.323   6.674 -1.7784  0.6880 -0.0100
 2018SOL    HW217514   3.376   4.431   6.730  0.5553  0.6051 -0.5211
 2019SOL     OW17515   3.748   3.164   5.005  0.1096  0.1432  0.5802
 2019SOL    HW117516   3.696   3.230   5.052  0.4618 -0.6229  2.0475
 2019SOL    HW217517   3.684   3.128   4.944  0.9356  2.0869 -1.4185
 2020SOL     OW17518   1.006   2.396   8.071  0.2018  0.0966  0.2455
 2020SOL    HW117519   1.022   2.420   8.163  0.4679  1.5441 -0.1801
 2020SOL    HW217520   1.093   2.386   8.034  0.8744  0.7611  1.6423
 2021SOL     OW17521   3.906   3.735   7.813 -0.8929  0.2957  0.0195
 2021SOL    HW117522   3.936   3.824   7.826  4.1170 -1.4642  0.4697
 2021SOL    HW217523   3.865   3.716   7.897  1.5504  2.1545  1.6369
 2022SOL     OW17524   0.099   2.370   9.807  0.4194 -0.3942  0.4357
 2022SOL    HW117525   0.023   2.405   9.853  0.2074 -2.7241  1.8910
 2022SOL    HW217526   0.068   2.309   9.739  1.8562 -1.4694  0.7227
 2023SOL     OW17527   4.394   3.950   7.500  0.4656  0.2922  0.4381
 2023SOL    HW117528   4.428   3.947   7.590  1.8525  1.6598 -0.0498
 2023SOL    HW217529   4.319   3.891   7.510  0.9668 -0.2645  0.9581
 2024SOL     OW17530   2.068   3.845   3.003 -0.1077 -0.3469 -0.1730
 2024SOL    HW117531   1.999   3.910   2.989 -0.2638 -0.4995 -0.1172
 2024SOL    HW217532   2.078   3.823   2.910  1.3821  1.1335 -0.3640
 2025SOL     OW17533   1.180   0.226   3.649 -0.3962 -0.2822  0.8007
 2025SOL    HW117534   1.261   0.186   3.679  1.5213 -0.0292 -3.9887
 2025SOL    HW217535   1.137   0.153   3.603 -0.2744 -1.5828  2.7648
 2026SOL     OW17536   0.439   1.579   4.426  0.1264  0.0013  0.3847
 2026SOL    HW117537   0.475   1.577   4.338 -0.9455  2.4325 -0.0977
 2026SOL    HW217538   0.494   1.516   4.472  0.0848 -0.0441  0.3723
 2027SOL     OW17539   1.963   0.824  10.117 -0.0027  0.4447  0.0763
 2027SOL    HW117540   1.977   0.909  10.076 -0.8298  0.3162 -0.4605
 2027SOL    HW217541   1.985   0.836  10.210  1.1096  0.9110 -0.2428
 2028SOL     OW17542   3.827   4.681   8.844 -0.4497  0.5003 -0.2460
 2028SOL    HW117543   3.798   0.032   8.895 -1.1377  0.3131 -0.3561
 2028SOL    HW217544   3.865   0.006   8.771 -1.3876  0.6183 -0.6499
 2029SOL     OW17545   0.814   4.674  12.712 -0.5200 -0.4248  0.1401
 2029SOL    HW117546   0.818   4.697  12.619 -0.7006  0.3356  0.3233
 2029SOL    HW217547   0.902   4.641  12.731  0.4301  1.8877 -0.2568
 2030SOL     OW17548   0.348   0.815   5.095  0.6282 -0.1410 -0.1963
 2030SOL    HW117549   0.353   0.910   5.106 -2.9049  0.0272 -0.0002
 2030SOL    HW217550   0.398   0.778   5.168  1.4695  0.9277 -0.2323
 2031SOL     OW17551   4.285   2.639   3.835 -0.2531 -0.8210 -0.3699
 2031SOL    HW117552   4.262   2.546   3.826 -0.8093 -0.6573 -0.6501
 2031SOL    HW217553   4.194   2.667   3.842  0.4160  1.6253 -1.5419
 2032SOL     OW17554   2.401   4.061   4.786  0.4020  0.1853 -0.7523
 2032SOL    HW117555   2.486   4.039   4.749  0.2442 -3.6032  1.1404
 2032SOL    HW217556   2.422   4.144   4.830 -1.7999 -0.5140  1.6224
 2033SOL     OW17557   0.020   4.496   1.239  0.3401  0.2878  0.2528
 2033SOL    HW117558   0.079   4.425   1.265 -0.8744 -1.0347 -0.6727
 2033SOL    HW217559   4.666   4.474   1.289  0.6614 -0.3079  0.4921
 2034SOL     OW17560   3.351   2.343   2.336  0.4313 -0.2121 -0.1758
 2034SOL    HW117561   3.378   2.317   2.248  1.3268  2.0402 -0.5677
 2034SOL    HW217562   3.277   2.402   2.323  1.7548  1.3232 -0.7704
 2035SOL     OW17563   2.340   4.347   4.090  0.1837  0.1471  0.1037
 2035SOL    HW117564   2.365   4.407   4.161 -1.1735 -0.8448  1.4156
 2035SOL    HW217565   2.281   4.285   4.133  0.1767 -0.5468 -0.9146
 2036SOL     OW17566   3.413   1.306  15.476  0.0959  0.4197 -0.1310
 2036SOL    HW117567   3.506   1.291  15.459  0.1557 -1.0010  1.4750
 2036SOL    HW217568   3.394   1.226  15.525  0.6017  0.1287 -0.4065
 2037SOL     OW17569   3.849   1.137   4.238  0.1335  0.4229 -0.1225
 2037SOL    HW117570   3.812   1.064   4.188  0.8571  0.6162 -0.9540
 2037SOL    HW217571   3.936   1.141   4.199 -0.9435 -1.6843 -2.8049
 2038SOL     OW17572   0.311   0.978   6.018 -0.0917  0.6920 -0.6730
 2038SOL    HW117573   0.364   0.932   5.952  2.7347 -0.5804  2.4643
 2038SOL    HW217574   0.333   0.933   6.100 -1.7674 -0.9443 -1.1237
 2039SOL     OW17575   4.414   0.326  16.457  0.3021 -0.0920 -0.5230
 2039SOL    HW117576   4.488   0.372  16.497 -0.4206  1.2070 -0.6711
 2039SOL    HW217577   4.454   0.254  16.408 -0.1987  0.5098 -1.8251
 2040SOL     OW17578   4.100   1.416  10.734 -0.1099  0.5181  0.4235
 2040SOL    HW117579   4.099   1.372  10.649  1.4829  4.5344 -1.6704
 2040SOL    HW217580   4.169   1.480  10.716 -1.3873  0.6384 -4.1126
 2041SOL     OW17581   1.814   4.227   0.625  1.1600  0.5700  0.1575
 2041SOL    HW117582   1.907   4.220   0.603  1.9278  2.9400  2.6180
 2041SOL    HW217583   1.778   4.299   0.573  0.3016  0.0628  0.0538
 2042SOL     OW17584   1.371   1.152   3.006  0.1836  0.2549  0.3128
 2042SOL    HW117585   1.304   1.129   3.072  0.6102 -1.5602  0.1257
 2042SOL    HW217586   1.328   1.124   2.925  0.4078 -0.8599  0.5708
 2043SOL     OW17587   0.524   0.250   5.663  0.4052  0.4909  0.2204
 2043SOL    HW117588   0.489   0.185   5.723 -0.3502 -0.0582 -0.8294
 2043SOL    HW217589   0.517   0.201   5.581 -0.2707  0.9252  0.0209
 2044SOL     OW17590   0.105   2.246   5.824 -0.0315 -0.8314 -0.3050
 2044SOL    HW117591   0.192   2.258   5.786  0.5392  0.0194  1.2694
 2044SOL    HW217592   0.071   2.188   5.755 -0.2684 -0.5308 -0.4446
 2045SOL     OW17593   3.035   0.739   2.379 -0.2086  0.4388 -0.2065
 2045SOL    HW117594   3.028   0.660   2.325  0.7870 -0.2171  0.6456
 2045SOL    HW217595   3.090   0.721   2.455 -2.7453 -0.0460  1.5307
 2046SOL     OW17596   4.637   0.426   9.421  0.6689 -0.1910  0.3457
 2046SOL    HW117597   4.620   0.472   9.504  1.9698  0.2129  0.3847
 2046SOL    HW217598   4.705   0.478   9.380  0.0442  0.0129 -0.4123
 2047SOL     OW17599   4.598   4.255   7.444  0.5281  0.1025 -0.2817
 2047SOL    HW117600   4.513   4.290   7.472 -0.5423 -0.1096 -3.3046
 2047SOL    HW217601   4.662   4.317   7.480 -2.1677  3.5065 -1.3486
 2048SOL     OW17602   0.723   2.437   4.376 -0.0653  0.3827  0.1327
 2048SOL    HW117603   0.764   2.495   4.312  2.1910  0.7840  1.9731
 2048SOL    HW217604   0.641   2.404   4.338  1.6052 -2.2361 -1.1065
 2049SOL     OW17605   2.490   4.540   8.075 -0.1322 -0.2295  0.0335
 2049SOL    HW117606   2.407   4.497   8.095  0.7042 -1.4511  0.8317
 2049SOL    HW217607   2.538   4.514   8.153 -2.1028  1.8819  1.9570
 2050SOL     OW17608   2.995   3.093   5.509  0.7382 -0.3738 -0.2536
 2050SOL    HW117609   2.936   3.029   5.469 -0.2282  2.2861 -3.0503
 2050SOL    HW217610   2.992   3.166   5.448 -1.9175  0.6264  1.0590
 2051SOL     OW17611   4.657   0.109   9.887  0.0509  0.3516  0.1885
 2051SOL    HW117612   4.599   0.095   9.963 -0.2608 -1.8925 -0.4520
 2051SOL    HW217613   0.004   0.052   9.913  0.6818  0.6865 -0.8231
 2052SOL     OW17614   2.380   1.023   3.490  0.2433 -0.4980 -0.3408
 2052SOL    HW117615   2.329   0.942   3.493  1.6783 -1.4137 -0.6075
 2052SOL    HW217616   2.466   0.982   3.481  0.8300  0.7471 -0.3744
 2053SOL     OW17617   0.751   1.881   2.183 -0.8880  0.1225 -0.3498
 2053SOL    HW117618   0.731   1.880   2.090  0.2692  1.4302 -0.6125
 2053SOL    HW217619   0.766   1.788   2.199  0.3412  0.1539 -1.3325
 2054SOL     OW17620   4.142   0.060  12.327  0.3319 -0.2148 -0.6844
 2054SOL    HW117621   4.073   0.014  12.375  0.2944  2.4734  1.7928
 2054SOL    HW217622   4.104   0.103  12.251  2.4255 -0.5049 -1.9144
 2055SOL     OW17623   0.424   1.053   6.336  0.4483  0.0498  0.4188
 2055SOL    HW117624   0.333   1.024   6.344  0.2735  0.4469 -0.1337
 2055SOL    HW217625   0.468   0.998   6.401 -0.2078 -2.1100 -0.9412
 2056SOL     OW17626   0.997   2.349   2.483  0.2940  0.0455  0.8563
 2056SOL    HW117627   0.906   2.325   2.502  0.2627  0.7456  1.5765
 2056SOL    HW217628   1.039   2.272   2.444 -2.8208 -1.2286 -0.0822
 2057SOL     OW17629   2.717   4.695   5.869  0.0084 -0.0789 -0.1387
 2057SOL    HW117630   2.757   0.006   5.948 -1.9696  1.1789  0.3136
 2057SOL    HW217631   2.653   0.039   5.846 -0.8964 -1.5190 -1.9033
 2058SOL     OW17632   1.777   1.222   7.697  0.2950  0.2543  0.3159
 2058SOL    HW117633   1.809   1.233   7.607  1.1965 -2.5580  0.3009
 2058SOL    HW217634   1.796   1.130   7.715 -4.6764 -0.4809  1.8281
 2059SOL     OW17635   3.579   1.532  13.530 -0.2427  0.3870  0.7293
 2059SOL    HW117636   3.511   1.538  13.464 -0.2239  0.3171  0.7036
 2059SOL    HW217637   3.543   1.461  13.582  2.1035 -2.1156 -1.0566
 2060SOL     OW17638   4.401   0.745   3.884 -0.4961  0.2094  0.3204
 2060SOL    HW117639   4.364   0.770   3.799  0.0988 -1.7681 -0.5129
 2060SOL    HW217640   4.492   0.724   3.865 -1.1591  1.5571 -4.3043
 2061SOL     OW17641   1.288   3.552   4.923  0.2242 -0.2871  0.5269
 2061SOL    HW117642   1.222   3.498   4.880  0.8351 -0.3938 -0.2780
 2061SOL    HW217643   1.231   3.612   4.971  0.3420  0.3701 -0.1438
 2062SOL     OW17644   4.095   2.866   7.720 -0.1145 -0.7131 -0.2209
 2062SOL    HW117645   4.093   2.774   7.746 -0.4737 -0.2346  1.4364
 2062SOL    HW217646   4.060   2.854   7.632 -1.1282 -0.6725  0.1830
 2063SOL     OW17647   3.770   3.686  15.692 -0.5323  0.0726 -0.2805
 2063SOL    HW117648   3.683   3.683  15.652 -1.6544 -1.3595  2.2560
 2063SOL    HW217649   3.761   3.600  15.732 -1.2224 -0.0565 -0.7042
 2064SOL     OW17650   1.889   0.337   9.530  0.4355 -0.1447  0.3395
 2064SOL    HW117651   1.794   0.327   9.527  0.3853 -0.0695  1.6842
 2064SOL    HW217652   1.909   0.299   9.616  0.7394 -2.8856 -0.9387
 2065SOL     OW17653   0.100   4.054  13.273 -0.0051  0.2401 -0.0463
 2065SOL    HW117654   0.140   4.132  13.234  1.6146  0.1021  1.3346
 2065SOL    HW217655   0.087   4.085  13.363 -0.1258 -2.9279  1.0105
 2066SOL     OW17656   2.907   4.411   1.998 -0.6632 -0.0017 -0.1233
 2066SOL    HW117657   2.873   4.426   1.909 -2.2752  0.8858  0.6402
 2066SOL    HW217658   2.842   4.439   2.062 -0.5940  0.9077 -0.4488
 2067SOL     OW17659   3.988   4.249   7.694  0.0399 -0.0832 -0.0593
 2067SOL    HW117660   3.956   4.274   7.608 -1.2313 -0.7802  0.2215
 2067SOL    HW217661   4.082   4.246   7.675 -0.0845  1.3912 -0.8965
 2068SOL     OW17662   1.459   3.752   4.202  0.0640 -0.1352  0.6872
 2068SOL    HW117663   1.508   3.790   4.275  2.0528  1.1405 -1.2933
 2068SOL    HW217664   1.369   3.771   4.227  0.5038 -1.6578  3.3970
 2069SOL     OW17665   3.253   4.460   5.733 -0.0533 -0.0032  0.4772
 2069SOL    HW117666   3.333   4.458   5.681 -0.0863  0.5388  0.4100
 2069SOL    HW217667   3.190   4.425   5.670 -0.6176  1.1327  0.4027
 2070SOL     OW17668   1.149   1.038   6.232  0.0405 -0.1578 -0.4243
 2070SOL    HW117669   1.213   0.977   6.195  1.2613  1.1828 -0.5554
 2070SOL    HW217670   1.091   0.970   6.265 -0.0371 -0.4443 -1.1643
 2071SOL     OW17671   3.012   1.491  10.537 -0.0998 -0.0148  0.3321
 2071SOL    HW117672   3.019   1.441  10.619  0.7563  2.1581  1.5948
 2071SOL    HW217673   2.964   1.564  10.575 -0.4781  0.1002 -0.3785
 2072SOL     OW17674   3.721   3.006   8.489 -0.3373  0.2261 -0.0585
 2072SOL    HW117675   3.753   3.005   8.580  1.2206 -0.1454 -0.5997
 2072SOL    HW217676   3.715   3.099   8.468  0.9753  0.3325  0.0399
 2073SOL     OW17677   1.942   3.638   3.193  0.4443  0.1184  0.6760
 2073SOL    HW117678   1.966   3.692   3.119 -2.0044  0.1358 -0.0870
 2073SOL    HW217679   1.950   3.549   3.158  1.3472  0.7783 -0.8083
 2074SOL     OW17680   0.042   0.510  11.284  0.1252  0.3957  0.4506
 2074SOL    HW117681   0.091   0.439  11.325 -1.2811 -0.4752  0.6393
 2074SOL    HW217682   4.678   0.475  11.277  0.5598 -0.8057  1.0014
 2075SOL     OW17683   2.065   4.262  13.881  0.0116 -0.0983  0.3613
 2075SOL    HW117684   1.989   4.311  13.912  1.9938  2.3938  1.2600
 2075SOL    HW217685   2.056   4.277  13.787  0.0065  1.5526  0.6215
 2076SOL     OW17686   0.762   4.588   9.712 -0.4229  0.2098  0.4742
 2076SOL    HW117687   0.688   4.534   9.738  1.3041 -1.8953  1.0570
 2076SOL    HW217688   0.766   4.644   9.789 -0.8164  0.9235 -0.0199
 2077SOL     OW17689   2.640   3.439   5.287 -0.1862  0.0339  0.0363
 2077SOL    HW117690   2.566   3.378   5.279 -0.0698 -0.1869  0.6261
 2077SOL    HW217691   2.600   3.516   5.326 -0.4152  0.0651 -0.2566
 2078SOL     OW17692   1.040   1.521   6.418  0.3621  0.0959 -0.2669
 2078SOL    HW117693   1.114   1.478   6.461 -0.0580  0.1578  0.5127
 2078SOL    HW217694   1.084   1.580   6.357  0.9870 -1.5634 -1.4047
 2079SOL     OW17695   0.319   1.724   5.137 -0.1645  0.7167  0.0933
 2079SOL    HW117696   0.349   1.807   5.175  1.2581  0.1667  0.1617
 2079SOL    HW217697   0.390   1.662   5.147 -0.6469  0.1083 -0.2937
 2080SOL     OW17698   1.402   0.014  16.902  0.2802 -0.2617 -0.6161
 2080SOL    HW117699   1.347   0.033  16.826 -0.3905 -2.2083 -0.6178
 2080SOL    HW217700   1.352   4.686  16.964  0.1311 -0.2343 -0.7130
 2081SOL     OW17701   3.737   1.812   2.381 -0.5310  0.1623 -0.7839
 2081SOL    HW117702   3.754   1.779   2.469  0.5564  0.9430 -0.6965
 2081SOL    HW217703   3.827   1.827   2.351  0.1026 -0.6531  0.7693
 2082SOL     OW17704   1.609   2.298   4.231  0.0111 -0.3161 -0.1117
 2082SOL    HW117705   1.600   2.276   4.324  1.9378 -1.3116 -0.1625
 2082SOL    HW217706   1.591   2.212   4.194  2.1928 -0.5076 -0.6910
 2083SOL     OW17707   1.240   0.719   7.065 -0.9140 -0.0376 -0.4012
 2083SOL    HW117708   1.166   0.665   7.094 -1.3414 -0.2711 -1.9291
 2083SOL    HW217709   1.224   0.802   7.110 -1.8054 -1.3872  1.7974
 2084SOL     OW17710   1.661   3.542   2.308 -0.2373 -0.5455 -0.0211
 2084SOL    HW117711   1.729   3.600   2.343  0.2021  0.1624 -2.0484
 2084SOL    HW217712   1.647   3.582   2.222  1.4635  0.1591  0.0318
 2085SOL     OW17713   0.480   4.322   7.990 -0.5113 -0.1997  0.6337
 2085SOL    HW117714   0.453   4.397   8.043 -2.0965 -0.1238 -0.2814
 2085SOL    HW217715   0.444   4.354   7.907  0.6385  0.8665  0.5439
 2086SOL     OW17716   4.107   0.079   7.320 -0.2478 -0.0022 -0.4945
 2086SOL    HW117717   4.122   4.712   7.294  0.9757 -0.2176  1.0389
 2086SOL    HW217718   4.148   0.081   7.406 -1.2338 -1.0055  0.0075
 2087SOL     OW17719   4.259   1.689  11.372 -0.0188 -0.2013 -0.2793
 2087SOL    HW117720   4.243   1.597  11.392 -0.2719 -0.6613 -2.5324
 2087SOL    HW217721   4.278   1.699  11.278  1.2948 -0.2467 -0.0275
 2088SOL     OW17722   3.868   2.592   4.282  0.7177 -0.5382 -0.3228
 2088SOL    HW117723   3.894   2.512   4.327  1.7313  0.2268  0.4524
 2088SOL    HW217724   3.776   2.568   4.266  0.2994  0.6222  0.3004
 2089SOL     OW17725   0.013   0.135   9.233 -0.1239 -0.2024 -0.3959
 2089SOL    HW117726   0.037   0.070   9.300  2.3322  1.1172 -0.0119
 2089SOL    HW217727   4.668   0.182   9.278 -1.6124 -1.2192 -1.6639
 2090SOL     OW17728   3.464   4.658  16.450  0.2899  0.0170 -0.0711
 2090SOL    HW117729   3.374   4.630  16.438  0.8610  0.1718 -4.5785
 2090SOL    HW217730   3.505   4.613  16.376  0.6367  0.4991 -0.1707
 2091SOL     OW17731   4.589   0.059   0.657  0.5258 -0.1583 -0.2235
 2091SOL    HW117732   4.604   0.152   0.640  1.1341 -0.4448 -1.2435
 2091SOL    HW217733   4.646   0.005   0.603  1.5871 -0.1919  0.9229
 2092SOL     OW17734   4.711   3.330   2.552  0.0369  0.1593 -0.1036
 2092SOL    HW117735   0.056   3.327   2.487  1.4125 -2.0702  1.4482
 2092SOL    HW217736   0.016   3.401   2.609  0.8192  1.6857 -2.4474
 2093SOL     OW17737   2.170   2.931  15.101  0.2308  0.0900 -0.5731
 2093SOL    HW117738   2.200   2.851  15.146  2.2385  1.1332 -0.0519
 2093SOL    HW217739   2.129   2.982  15.170 -2.2502 -1.3068 -1.0351
 2094SOL     OW17740   4.059   4.508   3.957 -0.0369 -0.6639 -0.2852
 2094SOL    HW117741   4.069   4.503   4.053  2.5702  0.3715 -0.4896
 2094SOL    HW217742   4.147   4.479   3.934  0.1578  0.0200 -0.4073
 2095SOL     OW17743   0.230   2.751   5.410 -0.3000 -0.0622 -0.1760
 2095SOL    HW117744   0.224   2.832   5.359 -0.4844  0.3966  0.5739
 2095SOL    HW217745   0.205   2.680   5.350  0.4337  0.0060 -0.5587
 2096SOL     OW17746   1.953   1.700  10.666 -0.6596  0.4090 -0.3703
 2096SOL    HW117747   1.880   1.644  10.692 -3.2948  3.1261 -1.9161
 2096SOL    HW217748   1.959   1.755  10.744 -2.1018  1.9473 -1.3344
 2097SOL     OW17749   2.044   3.413   0.642 -0.4256  0.4274  0.2137
 2097SOL    HW117750   2.067   3.321   0.653  0.4631  0.4597 -1.4466
 2097SOL    HW217751   1.999   3.417   0.558 -0.3680  0.5391  0.1875
 2098SOL     OW17752   4.407   0.730  15.512  0.1924  0.2873  0.6501
 2098SOL    HW117753   4.332   0.725  15.571 -0.5667 -2.6435 -0.5390
 2098SOL    HW217754   4.366   0.713  15.427 -2.7423 -1.6616  2.4470
 2099SOL     OW17755   3.909   0.328   7.598 -0.2192  0.4689 -0.5805
 2099SOL    HW117756   3.825   0.283   7.591  0.2756 -0.5380  0.0831
 2099SOL    HW217757   3.970   0.260   7.626  3.1415  2.3991 -3.1021
 2100SOL     OW17758   1.997   3.137   0.843 -0.0545  0.1187  0.5450
 2100SOL    HW117759   2.068   3.197   0.867 -1.3270  1.4482  0.9928
 2100SOL    HW217760   2.014   3.069   0.907  0.3365 -0.5590 -0.2903
 2101SOL     OW17761   4.330   4.527   6.495 -0.3085 -0.5837  0.1836
 2101SOL    HW117762   4.254   4.578   6.468 -1.1657 -1.1039  1.6471
 2101SOL    HW217763   4.347   4.473   6.418 -0.6119 -1.6944  0.8867
 2102SOL     OW17764   1.968   0.139  13.593  0.0439  0.5044  0.2881
 2102SOL    HW117765   1.914   0.183  13.660 -2.9357 -2.3415 -0.2509
 2102SOL    HW217766   1.921   0.154  13.511  0.1586  3.2579  0.7251
 2103SOL     OW17767   0.829   2.521   7.896 -0.0379  0.1799 -0.1191
 2103SOL    HW117768   0.888   2.507   7.970 -1.4590  0.6153  1.0822
 2103SOL    HW217769   0.747   2.501   7.941  0.7577  0.0546  1.2511
 2104SOL     OW17770   1.636   3.282  12.406 -0.2089 -0.6925  0.2302
 2104SOL    HW117771   1.716   3.237  12.379  1.2672  1.4275  1.1424
 2104SOL    HW217772   1.584   3.211  12.443  1.7597 -0.5234  3.3069
 2105SOL     OW17773   3.895   1.269   2.804  0.0472 -0.3053  0.0876
 2105SOL    HW117774   3.927   1.358   2.815  2.5282 -0.7836 -2.8787
 2105SOL    HW217775   3.802   1.279   2.785  0.2041  1.3412  0.2292
 2106SOL     OW17776   0.719   2.356   5.540  0.3509  0.4221  0.4287
 2106SOL    HW117777   0.664   2.343   5.462  1.5533 -2.2430  0.0287
 2106SOL    HW217778   0.801   2.383   5.499 -0.4954  1.4894 -0.5693
 2107SOL     OW17779   2.283   1.085   1.879  0.4655  0.4112  0.3308
 2107SOL    HW117780   2.257   1.159   1.824  0.8900  1.6292  1.7832
 2107SOL    HW217781   2.193   1.065   1.905 -0.2213  0.3151 -2.1251
 2108SOL     OW17782   1.873   1.356  13.562 -0.5392  0.5718 -0.0473
 2108SOL    HW117783   1.848   1.270  13.597  2.2725 -1.2564 -2.5399
 2108SOL    HW217784   1.965   1.331  13.551 -1.4793 -2.4428 -1.1562
 2109SOL     OW17785   0.332   0.600   2.654 -0.2797  0.4539  0.2770
 2109SOL    HW117786   0.400   0.555   2.704  0.9390  0.5236 -1.2876
 2109SOL    HW217787   0.288   0.524   2.616  1.5526 -1.1150  1.2907
 2110SOL     OW17788   0.641   3.172  13.273 -0.0220  0.3330 -0.0809
 2110SOL    HW117789   0.690   3.142  13.349 -3.0263 -2.2775  0.8130
 2110SOL    HW217790   0.705   3.238  13.246 -0.1349  0.3830 -0.2310
 2111SOL     OW17791   4.048   2.816   7.464 -0.3103 -0.2107 -0.1036
 2111SOL    HW117792   4.074   2.855   7.381 -2.2542 -1.4730 -1.3229
 2111SOL    HW217793   3.975   2.760   7.435 -0.0344 -0.2599 -0.7042
 2112SOL     OW17794   4.569   1.429   7.715 -0.1356 -0.1892  0.6783
 2112SOL    HW117795   4.501   1.480   7.670  0.4998  0.7951  0.8291
 2112SOL    HW217796   4.643   1.490   7.715 -0.7433  0.5722 -2.7666
 2113SOL     OW17797   2.796   0.554   7.716  1.0014  0.2536  0.7210
 2113SOL    HW117798   2.757   0.513   7.794  0.4661 -0.5632  0.0193
 2113SOL    HW217799   2.889   0.535   7.728  0.9858  0.5745  1.3659
 2114SOL     OW17800   0.525   1.133   8.140  0.2576  0.0542 -0.2019
 2114SOL    HW117801   0.444   1.170   8.104  0.0626 -0.7257 -0.5588
 2114SOL    HW217802   0.583   1.210   8.146  0.7737 -0.3761  0.3292
 2115SOL     OW17803   0.215   2.697   6.836  0.0779 -0.0467  0.2534
 2115SOL    HW117804   0.239   2.778   6.880  0.3089  0.9244 -1.6719
 2115SOL    HW217805   0.133   2.725   6.794  0.4766 -1.9892 -1.8675
 2116SOL     OW17806   2.427   3.393  10.467 -0.2563 -0.0314 -0.4665
 2116SOL    HW117807   2.446   3.424  10.555 -3.4428 -0.7509  0.4900
 2116SOL    HW217808   2.498   3.448  10.435  1.4865 -2.2397 -0.3752
 2117SOL     OW17809   2.894   0.071   8.974  0.0522 -0.0925 -0.5663
 2117SOL    HW117810   2.986   0.087   8.952  0.5296 -1.1036  0.7186
 2117SOL    HW217811   2.893   0.052   9.068  0.3869 -0.0653 -0.5576
 2118SOL     OW17812   4.622   4.220   4.479 -0.2737 -0.0624 -0.4606
 2118SOL    HW117813   4.689   4.168   4.524 -0.2156  0.0850 -0.3761
 2118SOL    HW217814   4.538   4.179   4.497  0.2911 -0.7884  0.5439
 2119SOL     OW17815   2.034   2.946   8.046 -0.5888 -0.0868  0.1917
 2119SOL    HW117816   2.093   2.997   7.991 -1.4354  0.2471 -0.4205
 2119SOL    HW217817   2.092   2.873   8.066 -1.0169 -0.0089  1.7487
 2120SOL     OW17818   2.177   0.805   9.576  0.5618  0.5880  0.1211
 2120SOL    HW117819   2.133   0.877   9.530 -2.0884 -0.6234  0.7986
 2120SOL    HW217820   2.151   0.733   9.519 -0.4101  0.0893  1.2191
 2121SOL     OW17821   3.408   0.838   8.904 -0.2130  0.3051 -0.1269
 2121SOL    HW117822   3.372   0.802   8.985 -0.6836 -0.9939 -0.9167
 2121SOL    HW217823   3.371   0.925   8.891 -0.6001  0.3959  1.6181
 2122SOL     OW17824   3.684   0.157   7.642 -0.2113 -0.1863  0.0274
 2122SOL    HW117825   3.627   0.082   7.628 -0.0610 -0.0989 -1.0211
 2122SOL    HW217826   3.645   0.186   7.725 -0.1204 -0.0543  0.0239
 2123SOL     OW17827   3.148   3.190   1.837 -0.6679  0.6128  0.3603
 2123SOL    HW117828   3.169   3.242   1.759 -0.3738  0.2536  0.2044
 2123SOL    HW217829   3.166   3.099   1.815 -3.0171  0.0876  0.5623
 2124SOL     OW17830   0.079   1.456   5.468  0.1395 -0.5074 -0.4002
 2124SOL    HW117831   0.147   1.457   5.536  0.4600 -1.5720 -0.6970
 2124SOL    HW217832   0.128   1.425   5.391  0.5781  0.2178 -0.4176
 2125SOL     OW17833   0.736   3.478   7.145 -0.3617  0.5677 -0.0320
 2125SOL    HW117834   0.675   3.433   7.085  1.1182  1.1238 -1.9701
 2125SOL    HW217835   0.722   3.567   7.113 -3.2737  0.3908  0.7816
 2126SOL     OW17836   3.056   0.516   7.809 -0.6437 -0.9667  0.8629
 2126SOL    HW117837   3.078   0.438   7.759 -0.9308  1.3313 -2.8891
 2126SOL    HW217838   3.083   0.483   7.895 -3.1961 -0.1030  2.0107
 2127SOL     OW17839   1.539   0.956   9.341  0.4256 -0.6160 -1.0059
 2127SOL    HW117840   1.632   0.955   9.361  0.3567 -2.7635 -0.8492
 2127SOL    HW217841   1.537   0.995   9.254  3.0352  1.5192 -0.1087
 2128SOL     OW17842   3.432   2.722   4.002  0.0880  0.2383 -0.1495
 2128SOL    HW117843   3.357   2.689   4.051  1.1686 -1.0452  0.6529
 2128SOL    HW217844   3.416   2.816   4.004 -1.4522 -0.0406  0.6981
 2129SOL     OW17845   4.160   1.107   2.677  0.4534 -0.2487  0.0458
 2129SOL    HW117846   4.225   1.039   2.690 -1.0489 -1.7567 -0.3935
 2129SOL    HW217847   4.096   1.083   2.744  1.1257 -0.4749  0.6044
 2130SOL     OW17848   1.119   1.443   3.445  0.4926  0.4530 -0.0905
 2130SOL    HW117849   1.046   1.447   3.507  0.9892 -0.4761  0.5450
 2130SOL    HW217850   1.062   1.466   3.372  0.0759  1.5437  0.5661
 2131SOL     OW17851   3.596   2.740  17.346  0.2289 -0.5297 -0.0366
 2131SOL    HW117852   3.564   2.824  17.380  2.1497 -0.3718  1.3842
 2131SOL    HW217853   3.681   2.726  17.388 -0.6663 -2.9193  0.9794
 2132SOL     OW17854   1.713   4.532   0.632 -0.1743 -0.5340  0.2516
 2132SOL    HW117855   1.620   4.539   0.655 -0.0850  0.8868  0.1884
 2132SOL    HW217856   1.709   4.503   0.541  1.7895  1.6826 -0.5449
 2133SOL     OW17857   2.181   1.097  11.649 -0.3481  0.1380 -0.8041
 2133SOL    HW117858   2.229   1.121  11.729 -0.4172  1.5023 -1.1728
 2133SOL    HW217859   2.225   1.022  11.608 -0.7909 -1.2303  1.1738
 2134SOL     OW17860   2.531   3.404   5.718  0.1398 -0.9861  0.3426
 2134SOL    HW117861   2.624   3.427   5.713  0.1501 -1.2229 -0.6402
 2134SOL    HW217862   2.488   3.470   5.772 -0.0043 -0.3214 -0.5969
 2135SOL     OW17863   1.964   3.905   9.616 -0.4062  0.4981 -0.4560
 2135SOL    HW117864   1.989   3.995   9.596 -0.2000  0.5949  0.2352
 2135SOL    HW217865   1.869   3.906   9.623 -0.4221 -1.5845 -0.4408
 2136SOL     OW17866   3.535   4.200   2.452  0.1932  0.9918 -0.3430
 2136SOL    HW117867   3.541   4.106   2.470  0.1323  1.2355  0.9522
 2136SOL    HW217868   3.623   4.238   2.461  1.0603 -1.3881  1.1532
 2137SOL     OW17869   2.131   1.498  11.062  0.1732  0.2518  0.8099
 2137SOL    HW117870   2.136   1.469  10.971 -0.9233 -0.5722  1.0078
 2137SOL    HW217871   2.180   1.580  11.067  2.6409 -1.1640 -0.1760
 2138SOL     OW17872   4.032   3.581  11.415 -0.4697  0.6909  0.3474
 2138SOL    HW117873   3.968   3.611  11.478 -2.1956 -0.7130 -0.7337
 2138SOL    HW217874   4.064   3.508  11.468  2.0277  1.5446  0.0545
 2139SOL     OW17875   1.898   1.049   3.817 -0.6233 -0.4928 -0.0410
 2139SOL    HW117876   1.894   0.983   3.886 -1.2347 -0.6339 -0.2142
 2139SOL    HW217877   1.924   0.991   3.746 -1.0372 -0.7518  0.0216
 2140SOL     OW17878   4.130   1.505   5.250  0.3201 -0.1312 -0.1783
 2140SOL    HW117879   4.208   1.537   5.295 -0.6798  0.7691  0.9588
 2140SOL    HW217880   4.100   1.430   5.302 -1.0121  0.1625 -0.5184
 2141SOL     OW17881   1.684   2.358   5.040  0.3972 -0.0943 -0.2776
 2141SOL    HW117882   1.619   2.386   5.105  0.6855 -0.4235  0.1491
 2141SOL    HW217883   1.633   2.283   5.008 -1.5096  1.5037 -0.9885
 2142SOL     OW17884   2.581   1.209   7.902  0.2424  0.5423 -0.4776
 2142SOL    HW117885   2.487   1.192   7.904  0.8686 -2.5719  1.7982
 2142SOL    HW217886   2.581   1.294   7.945  0.7004 -0.8162  2.2035
 2143SOL     OW17887   2.507   0.296   8.554 -0.4412  0.5670 -0.7103
 2143SOL    HW117888   2.596   0.328   8.544  0.7510 -2.8006 -0.8385
 2143SOL    HW217889   2.508   0.203   8.579  2.5730  0.3289 -1.8361
 2144SOL     OW17890   0.186   3.291  15.256  0.0966 -0.1899  0.1489
 2144SOL    HW117891   0.098   3.274  15.221 -0.4082  5.0395 -1.0920
 2144SOL    HW217892   0.236   3.320  15.180 -1.4689  1.2391 -0.3338
 2145SOL     OW17893   1.001   2.812   4.876 -0.2765  0.6600 -0.1054
 2145SOL    HW117894   0.986   2.892   4.927 -1.0586  0.8420 -0.6182
 2145SOL    HW217895   1.052   2.846   4.802  0.5627  0.7009  0.4960
 2146SOL     OW17896   4.098   0.714   8.005  0.0012  0.2013 -0.3317
 2146SOL    HW117897   4.059   0.787   7.957 -0.5127 -0.7738 -1.3807
 2146SOL    HW217898   4.123   0.756   8.087 -1.0697  0.7781 -0.3060
 2147SOL     OW17899   2.000   0.278   3.334 -0.3201 -0.4963  0.1120
 2147SOL    HW117900   1.971   0.206   3.390 -2.5472 -0.9812 -1.6684
 2147SOL    HW217901   2.024   0.226   3.257 -0.3279 -0.4755  0.0957
 2148SOL     OW17902   1.404   4.025  11.588  0.1450  0.1236  0.0945
 2148SOL    HW117903   1.339   4.093  11.570  0.8338  0.4471 -1.1873
 2148SOL    HW217904   1.421   4.048  11.679 -0.3654  0.1233  0.1870
 2149SOL     OW17905   1.940   3.563   0.841  0.3536 -0.2537 -0.0469
 2149SOL    HW117906   1.903   3.644   0.807  1.9903 -0.4695 -2.3581
 2149SOL    HW217907   1.966   3.514   0.763 -1.9793 -0.4167 -0.6934
 2150SOL     OW17908   0.238   1.011   2.644 -0.6281 -0.2590 -0.3687
 2150SOL    HW117909   0.252   0.996   2.550 -0.2801 -2.2110 -0.0100
 2150SOL    HW217910   0.144   0.993   2.644 -0.2143 -2.4031 -2.9049
 2151SOL     OW17911   3.754   0.607  10.823 -0.3827 -0.5312 -0.4348
 2151SOL    HW117912   3.673   0.642  10.786 -0.5416  0.0282  0.4418
 2151SOL    HW217913   3.728   0.592  10.914  3.0855  0.0111  0.6567
 2152SOL     OW17914   1.640   4.484  13.213 -0.2137  0.0498 -0.1192
 2152SOL    HW117915   1.733   4.467  13.196 -0.3383  0.4463 -1.1947
 2152SOL    HW217916   1.663   4.567  13.253  2.5790 -0.8030  0.0600
 2153SOL     OW17917   1.824   2.412   5.530  0.1623 -0.3357 -0.6510
 2153SOL    HW117918   1.810   2.500   5.494 -1.6103 -0.2447  0.2413
 2153SOL    HW217919   1.917   2.403   5.509  0.2874  0.0819 -0.2716
 2154SOL     OW17920   0.967   4.263  14.189  0.2455 -0.1818 -0.1684
 2154SOL    HW117921   0.974   4.308  14.273  1.3328  0.6894 -0.7160
 2154SOL    HW217922   1.025   4.187  14.190 -2.3315 -2.1557 -1.0548
 2155SOL     OW17923   2.099   2.523   2.339  0.8502 -0.4119 -0.5137
 2155SOL    HW117924   2.146   2.447   2.373  0.7126 -0.3922 -0.2789
 2155SOL    HW217925   2.035   2.496   2.274 -0.0071  1.0712 -0.2695
 2156SOL     OW17926   0.587   1.884  10.390 -0.2654 -0.5251  0.1008
 2156SOL    HW117927   0.513   1.913  10.442 -0.7188 -0.8967 -0.3320
 2156SOL    HW217928   0.652   1.951  10.412 -2.9539  1.2471  2.6760
 2157SOL     OW17929   1.908   1.815   5.364  0.1467 -0.6134  0.1513
 2157SOL    HW117930   1.989   1.834   5.412  1.6562 -1.8157 -1.9610
 2157SOL    HW217931   1.882   1.730   5.399  0.6980 -0.7008  0.3483
 2158SOL     OW17932   4.340   1.180   5.138  0.6786 -0.1731  0.7897
 2158SOL    HW117933   4.330   1.226   5.055  0.9336  1.3085  1.5935
 2158SOL    HW217934   4.258   1.129   5.137 -0.2979  1.3870  0.9692
 2159SOL     OW17935   0.174   4.394   4.061  0.1590 -0.0712 -0.1639
 2159SOL    HW117936   0.085   4.377   4.094  0.9322 -1.2688  1.3029
 2159SOL    HW217937   0.151   4.436   3.978 -1.5512 -1.6003 -0.4781
 2160SOL     OW17938   4.705   4.404   6.382  0.1895  0.4327 -0.0819
 2160SOL    HW117939   4.643   4.446   6.322  2.7038 -0.4106 -3.2967
 2160SOL    HW217940   4.652   4.407   6.462 -0.8390 -0.1773 -0.7356
 2161SOL     OW17941   0.586   2.176   0.058  0.4497 -0.3444  0.9726
 2161SOL    HW117942   0.681   2.172   0.055  0.6744  2.9397  4.4531
 2161SOL    HW217943   0.557   2.158  17.668  2.2193  3.7133 -0.4018
 2162SOL     OW17944   1.711   0.247   6.208 -0.3734  0.5462  0.1908
 2162SOL    HW117945   1.716   0.280   6.298  2.3090 -0.7818  0.5340
 2162SOL    HW217946   1.759   0.312   6.157  0.1581 -2.0819 -2.6911
 2163SOL     OW17947   3.630   1.751  12.257  0.1304  0.2256  0.5653
 2163SOL    HW117948   3.590   1.827  12.298  0.0299  0.3778  0.1790
 2163SOL    HW217949   3.709   1.791  12.220 -0.8378  2.4197  0.8918
 2164SOL     OW17950   1.577   2.520   9.980  0.5243 -0.2804  0.0082
 2164SOL    HW117951   1.646   2.539  10.044 -0.1914  0.1019  0.6718
 2164SOL    HW217952   1.623   2.442   9.950  0.1038 -0.9937  1.2254
 2165SOL     OW17953   3.431   0.026   6.784  0.5261 -0.3993 -0.4131
 2165SOL    HW117954   3.479   0.059   6.860 -1.8999 -0.8990  1.3475
 2165SOL    HW217955   3.366   4.686   6.814  0.3616  0.5728  1.3280
 2166SOL     OW17956   1.885   3.198  12.337 -0.4049 -0.1594 -0.1219
 2166SOL    HW117957   1.900   3.293  12.339 -0.6169 -0.1115 -0.6918
 2166SOL    HW217958   1.966   3.176  12.292 -0.2718 -0.8918  0.4763
 2167SOL     OW17959   1.778   2.528   3.965 -0.6801 -0.1796  0.7273
 2167SOL    HW117960   1.688   2.517   3.996 -0.7238  0.4370  0.8158
 2167SOL    HW217961   1.761   2.614   3.926 -0.9178  0.5088  2.3347
 2168SOL     OW17962   1.961   1.614   2.488 -0.3889  0.2199  0.1160
 2168SOL    HW117963   1.970   1.623   2.583 -0.3426 -0.7500  0.2061
 2168SOL    HW217964   1.900   1.684   2.464 -2.3660 -1.8875 -0.9208
 2169SOL     OW17965   3.995   0.654   8.939  0.2410 -0.5517  0.2566
 2169SOL    HW117966   4.062   0.702   8.890 -1.7233 -0.4879 -2.3598
 2169SOL    HW217967   3.978   0.710   9.015  0.2460  0.3320 -0.3936
 2170SOL     OW17968   3.382   0.974   2.001 -0.2093 -0.0798 -0.0496
 2170SOL    HW117969   3.451   0.908   1.990 -0.6928 -0.5709 -0.1085
 2170SOL    HW217970   3.425   1.060   2.000 -0.5570  0.0801 -2.2729
 2171SOL     OW17971   1.001   1.564   4.156  0.5747 -0.1302 -0.1556
 2171SOL    HW117972   0.934   1.583   4.222  1.7898 -2.2826  1.6927
 2171SOL    HW217973   0.951   1.578   4.076  0.7546 -2.6391 -0.7255
 2172SOL     OW17974   4.355   3.777   3.028  0.2905 -0.1833 -0.5289
 2172SOL    HW117975   4.304   3.701   2.999 -1.9106  0.8572  0.6611
 2172SOL    HW217976   4.438   3.750   3.067 -0.0139 -1.4233 -0.7187
 2173SOL     OW17977   1.295   0.567   8.307 -0.0253 -0.0599 -0.2253
 2173SOL    HW117978   1.350   0.561   8.230  0.0264  2.3837 -0.3745
 2173SOL    HW217979   1.209   0.551   8.268  0.5310 -2.1880 -0.5954
 2174SOL     OW17980   2.401   1.732   5.349 -0.2384  0.0666 -0.6166
 2174SOL    HW117981   2.331   1.793   5.375  0.8943 -0.0224  2.6659
 2174SOL    HW217982   2.341   1.657   5.351  1.6434 -1.4224 -0.9023
 2175SOL     OW17983   0.922   1.929  15.558 -0.1551  0.1050 -0.2440
 2175SOL    HW117984   0.939   1.863  15.625  2.0218  2.3387  1.4186
 2175SOL    HW217985   0.853   1.978  15.602 -0.5668  0.2368 -1.0473
 2176SOL     OW17986   4.429   1.055  13.207 -0.2071  0.1096  0.2833
 2176SOL    HW117987   4.470   1.105  13.137 -0.4014 -0.1393 -0.0076
 2176SOL    HW217988   4.416   1.125  13.272  0.7458 -0.9903  1.6713
 2177SOL     OW17989   0.550   2.106  10.649 -0.2196  0.1988 -0.4760
 2177SOL    HW117990   0.522   2.030  10.700  2.1158  0.9060  1.8843
 2177SOL    HW217991   0.623   2.121  10.709 -1.7705  1.7068  1.0239
 2178SOL     OW17992   4.593   3.571   3.165 -0.2862  0.1808  0.0519
 2178SOL    HW117993   4.584   3.505   3.096  0.8911 -0.4478  0.4908
 2178SOL    HW217994   4.512   3.557   3.213  0.1705 -0.4176  0.6481
 2179SOL     OW17995   4.428   0.781  14.436 -0.0697  0.2660 -0.3239
 2179SOL    HW117996   4.483   0.709  14.467  1.1429  0.8392 -1.1388
 2179SOL    HW217997   4.340   0.744  14.448 -0.6630  1.7266 -0.1558
 2180SOL     OW17998   1.797   1.138   7.290  0.0103 -0.1481  0.5192
 2180SOL    HW117999   1.885   1.120   7.259 -1.1108 -2.4406 -1.3605
 2180SOL    HW218000   1.818   1.208   7.352 -0.7829  0.4496  0.1129
 2181SOL     OW18001   2.591   3.751   9.371  0.0365  0.1124 -0.4858
 2181SOL    HW118002   2.659   3.699   9.414 -1.4410 -1.6901 -0.3223
 2181SOL    HW218003   2.618   3.842   9.382 -0.2823 -0.0687  1.7174
 2182SOL     OW18004   3.377   1.840   3.750  0.2498  0.0674  0.3366
 2182SOL    HW118005   3.435   1.847   3.826  0.0483 -0.1944  0.5112
 2182SOL    HW218006   3.305   1.897   3.775 -0.0021 -0.4449  0.7621
 2183SOL     OW18007   1.959   3.130   4.143  0.2510 -0.2909 -0.6078
 2183SOL    HW118008   1.980   3.168   4.228 -2.2513  2.2640 -1.1155
 2183SOL    HW218009   1.965   3.205   4.085 -1.6343  1.5684  1.6045
 2184SOL     OW18010   1.901   4.131   2.600  0.1843  0.6359 -0.1707
 2184SOL    HW118011   1.877   4.222   2.616  1.0035  0.9603 -0.7999
 2184SOL    HW218012   1.993   4.137   2.576 -0.5001 -1.0864 -3.1226
 2185SOL     OW18013   4.273   4.544  16.464 -0.1598  0.4320  0.2847
 2185SOL    HW118014   4.213   4.609  16.501 -0.0403 -0.2699  1.7266
 2185SOL    HW218015   4.321   4.593  16.398  0.8802  0.7050  1.2449
 2186SOL     OW18016   0.970   1.497   7.825 -0.2691 -0.1621 -0.0968
 2186SOL    HW118017   0.968   1.556   7.901 -0.0529  1.1601 -1.1198
 2186SOL    HW218018   0.912   1.542   7.764 -0.1785  2.6892  1.9074
 2187SOL     OW18019   0.196   3.576   2.201  0.2782  0.7222 -0.0432
 2187SOL    HW118020   0.113   3.582   2.153 -0.6016 -2.0261  1.1102
 2187SOL    HW218021   0.214   3.670   2.204  1.0654  0.6283 -2.0954
 2188SOL     OW18022   3.451   1.127   0.956  0.1718 -0.0161  0.4263
 2188SOL    HW118023   3.502   1.163   1.028 -1.4600  1.0900  1.0289
 2188SOL    HW218024   3.486   1.168   0.877 -0.5561 -0.8047 -0.3064
 2189SOL     OW18025   4.149   1.792   9.008  0.6630 -0.5099 -0.9122
 2189SOL    HW118026   4.076   1.798   9.070  0.9400 -2.4311 -0.4283
 2189SOL    HW218027   4.122   1.846   8.933  0.7741  0.1529 -0.4814
 2190SOL     OW18028   1.656   3.190   0.884  0.6259  0.4434  0.0827
 2190SOL    HW118029   1.592   3.192   0.955  0.5387  2.7400 -0.0503
 2190SOL    HW218030   1.723   3.249   0.918  0.1448  1.7731 -1.2681
 2191SOL     OW18031   4.262   3.812   8.008  0.2552 -0.0063 -0.0124
 2191SOL    HW118032   4.349   3.845   8.027 -0.0014  0.1521  0.8793
 2191SOL    HW218033   4.210   3.864   8.069 -0.7782  0.0105 -0.8864
 2192SOL     OW18034   4.556   0.899  13.750  0.1705 -0.1199 -0.3012
 2192SOL    HW118035   4.635   0.921  13.701  0.3942  1.1028  0.6003
 2192SOL    HW218036   4.490   0.904  13.680 -0.5808  2.3303  0.6037
 2193SOL     OW18037   2.505   3.220   8.459  0.0636 -0.1426  0.0253
 2193SOL    HW118038   2.437   3.201   8.523  0.4638 -3.9982 -0.7007
 2193SOL    HW218039   2.580   3.250   8.512 -1.1330  1.9219  0.5541
 2194SOL     OW18040   2.354   0.817   5.294 -0.0024 -1.0601 -0.4262
 2194SOL    HW118041   2.402   0.792   5.373  0.7568  0.6301 -0.3594
 2194SOL    HW218042   2.319   0.733   5.263  3.7880 -2.7814 -0.0568
 2195SOL     OW18043   2.087   1.108   0.330 -0.4129 -0.0629  0.6297
 2195SOL    HW118044   2.023   1.178   0.341 -1.8755 -1.4870  1.3463
 2195SOL    HW218045   2.053   1.060   0.406 -1.8422 -1.2526 -0.7512
 2196SOL     OW18046   3.082   1.634   0.519  0.1432 -0.3102  0.0901
 2196SOL    HW118047   2.992   1.662   0.536  0.2167  0.6063 -0.9851
 2196SOL    HW218048   3.089   1.562   0.582 -1.4441  0.1935  0.8287
 2197SOL     OW18049   2.194   3.751  11.115  0.1234 -0.0988  0.2885
 2197SOL    HW118050   2.206   3.797  11.032  3.0812 -4.0652 -1.4605
 2197SOL    HW218051   2.128   3.801  11.164  1.0748  2.0551 -0.6087
 2198SOL     OW18052   0.525   3.004   6.192  0.3535 -0.5880  0.0986
 2198SOL    HW118053   0.592   2.940   6.170 -1.9636 -2.9874  0.0495
 2198SOL    HW218054   0.502   2.985   6.283  1.5745 -2.5232 -0.0078
 2199SOL     OW18055   1.900   0.812   5.643 -0.2531 -0.5273 -0.0688
 2199SOL    HW118056   1.943   0.771   5.567 -0.9416  0.3333 -0.9206
 2199SOL    HW218057   1.831   0.866   5.606 -0.5946  0.3010  1.7831
 2200SOL     OW18058   4.493   2.052  14.278 -0.0808 -0.3908 -0.6219
 2200SOL    HW118059   4.457   2.125  14.329  1.1431 -1.3448  1.6005
 2200SOL    HW218060   4.587   2.070  14.276 -0.3068  1.0476  2.8383
 2201SOL     OW18061   2.447   3.906  16.323  0.3657 -0.4867 -0.3639
 2201SOL    HW118062   2.520   3.965  16.342  0.8599 -1.3353  0.3698
 2201SOL    HW218063   2.427   3.930  16.233  0.3112  0.8764  0.0094
 2202SOL     OW18064   0.055   3.037   2.523 -0.4872 -1.0693 -0.7238
 2202SOL    HW118065   0.014   3.020   2.608  1.4819 -2.8300 -0.1349
 2202SOL    HW218066   4.718   3.095   2.478  1.7971  1.6203 -0.3474
 2203SOL     OW18067   3.052   1.640   3.838  0.3113  0.2776 -0.4707
 2203SOL    HW118068   3.034   1.591   3.758 -1.6430 -1.1012  0.8135
 2203SOL    HW218069   3.035   1.733   3.824  1.9991  0.9395  1.7966
 2204SOL     OW18070   3.940   1.474   3.996  0.6650 -0.4729  0.2025
 2204SOL    HW118071   3.884   1.398   4.015 -1.4548  1.3889  1.3770
 2204SOL    HW218072   3.950   1.458   3.902 -0.0931 -0.0533  0.0478
 2205SOL     OW18073   3.691   2.735  11.469  0.3655  0.4635  0.5294
 2205SOL    HW118074   3.714   2.653  11.513 -0.1712  0.4065  0.6985
 2205SOL    HW218075   3.646   2.691  11.397  0.5692  0.6450  0.2916
 2206SOL     OW18076   1.816   2.739   9.990 -0.5988 -1.0845  0.2964
 2206SOL    HW118077   1.738   2.771  10.036  1.5022  1.2919  2.1890
 2206SOL    HW218078   1.786   2.747   9.900  1.9980  1.1600 -0.3516
 2207SOL     OW18079   1.829   3.710   0.157  0.7966  0.8026  0.2655
 2207SOL    HW118080   1.869   3.792   0.129 -0.8798  2.0258  1.4888
 2207SOL    HW218081   1.904   3.659   0.187  0.2844  0.0638  0.2950
 2208SOL     OW18082   1.497   1.905  10.893 -0.3388 -0.7452 -0.2177
 2208SOL    HW118083   1.545   1.987  10.898 -0.9160 -0.4956  1.2847
 2208SOL    HW218084   1.568   1.845  10.914 -1.9253 -2.6528 -0.3157
 2209SOL     OW18085   2.509   2.231   1.657 -0.0335 -0.2642 -0.1637
 2209SOL    HW118086   2.560   2.226   1.576 -0.5799 -2.4051 -0.3676
 2209SOL    HW218087   2.583   2.223   1.716  2.0582 -0.6183 -2.8299
 2210SOL     OW18088   0.915   3.302   6.532  0.2088 -0.2086  0.0497
 2210SOL    HW118089   0.856   3.376   6.547  0.6406  0.3007 -0.7324
 2210SOL    HW218090   0.928   3.262   6.618 -0.0953  0.5122  0.4313
 2211SOL     OW18091   0.425   1.927   0.076  0.2116 -0.4904  0.3486
 2211SOL    HW118092   0.493   1.993   0.092 -0.6168 -0.2925  3.0839
 2211SOL    HW218093   0.386   1.927   0.163  3.2901 -0.4751  1.7145
 2212SOL     OW18094   2.615   3.664   6.877  0.4408  0.2680  0.5659
 2212SOL    HW118095   2.580   3.601   6.814  2.0748 -1.1675  1.0834
 2212SOL    HW218096   2.663   3.732   6.829  0.9152 -1.2667 -1.1472
 2213SOL     OW18097   0.235   1.079   7.125  0.6282 -0.0316  0.0307
 2213SOL    HW118098   0.159   1.021   7.135 -0.6703  1.5329 -0.5935
 2213SOL    HW218099   0.263   1.064   7.035  0.3898 -2.0672  0.3076
 2214SOL     OW18100   1.541   4.564  17.514 -0.2962 -0.0936 -0.0555
 2214SOL    HW118101   1.482   4.558  17.589  0.9679 -0.3577  0.9292
 2214SOL    HW218102   1.612   4.503  17.537  0.8826  0.9108 -1.0268
 2215SOL     OW18103   4.665   1.939   4.567 -0.1039  0.5105  0.0123
 2215SOL    HW118104   0.014   1.895   4.524  0.9261  1.9292  0.3468
 2215SOL    HW218105   4.716   1.958   4.646 -1.4894  1.5176  0.6681
 2216SOL     OW18106   4.144   4.652   6.799 -0.1084  0.4095 -0.0050
 2216SOL    HW118107   4.098   4.699   6.729 -0.7590  0.6463  0.5759
 2216SOL    HW218108   4.087   4.657   6.875 -1.8285 -1.2092 -1.1545
 2217SOL     OW18109   3.614   4.720   8.422 -0.7987  0.0377 -0.0323
 2217SOL    HW118110   3.538   0.048   8.397  0.8754  2.3358 -0.3587
 2217SOL    HW218111   3.567   4.658   8.477 -0.9893  0.4453  0.2709
 2218SOL     OW18112   4.308   2.395  14.872  0.6047 -0.9537  0.3057
 2218SOL    HW118113   4.224   2.351  14.861  0.6347 -0.6931 -0.9830
 2218SOL    HW218114   4.296   2.490  14.868 -0.2682 -1.0164  1.5185
 2219SOL     OW18115   3.866   2.607   5.994  0.0365  0.1418  0.3940
 2219SOL    HW118116   3.910   2.689   6.013  1.3747 -0.1319 -1.5552
 2219SOL    HW218117   3.801   2.653   5.941 -0.2997 -2.0256 -1.0837
 2220SOL     OW18118   2.410   1.038   8.665 -0.2498 -0.8715  0.1470
 2220SOL    HW118119   2.480   1.014   8.726 -1.1961  1.0487  2.0026
 2220SOL    HW218120   2.388   1.125   8.699  1.6095  0.2758 -1.5848
 2221SOL     OW18121   2.498   3.089  14.402 -0.5981  0.1083  0.5811
 2221SOL    HW118122   2.515   3.123  14.489 -1.8883 -0.2824  0.9886
 2221SOL    HW218123   2.466   3.171  14.365 -3.2877 -2.6192 -3.1492
 2222SOL     OW18124   1.335   1.145  13.916  1.1897 -0.7417 -0.4703
 2222SOL    HW118125   1.409   1.120  13.860  1.7115  2.2700 -1.1073
 2222SOL    HW218126   1.301   1.058  13.938  2.2167 -0.5994  1.6325
 2223SOL     OW18127   4.130   0.278   8.661  0.4130 -0.2938  0.3633
 2223SOL    HW118128   4.057   0.325   8.701  0.7741  1.9663 -1.5870
 2223SOL    HW218129   4.168   0.347   8.607  1.1659 -1.0960 -0.1427
 2224SOL     OW18130   0.596   3.285   8.507  0.4761 -0.3640 -0.2282
 2224SOL    HW118131   0.624   3.303   8.418 -0.9302  1.8572 -0.2507
 2224SOL    HW218132   0.668   3.319   8.560 -1.6870  3.8463  0.1159
 2225SOL     OW18133   4.539   2.395   7.889  0.0929 -0.1047  0.1227
 2225SOL    HW118134   4.569   2.465   7.830 -0.3841 -0.9274 -1.0920
 2225SOL    HW218135   4.485   2.433   7.959 -2.2017 -2.0076 -0.6136
 2226SOL     OW18136   4.350   3.335   9.021 -0.0377  0.2078 -0.1419
 2226SOL    HW118137   4.367   3.403   9.087  0.6328  0.0905 -0.2006
 2226SOL    HW218138   4.419   3.359   8.960  0.5209  2.3726  1.3310
 2227SOL     OW18139   0.584   2.512   8.535 -0.3452 -0.7573 -0.6935
 2227SOL    HW118140   0.587   2.420   8.510  0.6772 -0.2508 -2.3774
 2227SOL    HW218141   0.505   2.528   8.483  0.0904 -0.0626 -1.1389
 2228SOL     OW18142   3.602   1.429   7.222  0.1804  0.0605  0.0743
 2228SOL    HW118143   3.686   1.415   7.179 -0.8391 -0.7626 -1.6754
 2228SOL    HW218144   3.602   1.352   7.280  0.4040 -0.3615 -0.4872
 2229SOL     OW18145   3.150   1.097  13.074 -0.1473  0.3592  0.2565
 2229SOL    HW118146   3.129   1.045  12.996  0.7707  0.2038  0.1033
 2229SOL    HW218147   3.097   1.054  13.140 -1.7754 -0.5267 -1.6212
 2230SOL     OW18148   1.900   3.045   5.440 -0.1606  0.3428  0.4475
 2230SOL    HW118149   1.966   2.981   5.413 -1.6463 -0.9816 -0.0551
 2230SOL    HW218150   1.939   3.127   5.408  0.4048  0.0698  0.4323
 2231SOL     OW18151   2.466   2.403   6.384 -0.3352  0.4542 -0.6253
 2231SOL    HW118152   2.548   2.452   6.389 -0.1671  0.0165  1.0853
 2231SOL    HW218153   2.485   2.356   6.303  0.4701 -1.3615  0.6280
 2232SOL     OW18154   0.252   2.198   4.672 -0.5328 -0.5850  0.6520
 2232SOL    HW118155   0.203   2.123   4.705  0.2730 -1.3142  0.1956
 2232SOL    HW218156   0.301   2.237   4.744  0.5282 -1.0721  0.1911
 2233SOL     OW18157   4.551   2.874   2.773  0.6536 -0.4609  0.0924
 2233SOL    HW118158   4.494   2.821   2.718  1.9235 -0.8727 -0.8446
 2233SOL    HW218159   4.559   2.956   2.725 -0.4567 -1.2030 -1.3518
 2234SOL     OW18160   1.695   4.620   5.185  0.4333  0.0292  0.9535
 2234SOL    HW118161   1.660   4.688   5.242 -3.3432 -2.3786  1.5187
 2234SOL    HW218162   1.758   4.671   5.135  0.5562 -2.4099 -1.3920
 2235SOL     OW18163   1.998   4.533   1.737  0.1758  0.2062  0.1380
 2235SOL    HW118164   1.951   4.525   1.820 -2.1416  0.6735 -1.1271
 2235SOL    HW218165   1.955   4.607   1.694  0.7117 -0.8015 -2.1295
 2236SOL     OW18166   2.557   4.108   8.228  0.0921 -0.1509  0.0107
 2236SOL    HW118167   2.467   4.091   8.257 -0.5258  1.6770 -0.7874
 2236SOL    HW218168   2.564   4.202   8.244 -2.3314 -0.2363  1.6527
 2237SOL     OW18169   4.241   1.593   1.318  0.0614  0.3509 -0.1719
 2237SOL    HW118170   4.313   1.536   1.347 -1.0870 -0.9646  0.0549
 2237SOL    HW218171   4.237   1.572   1.224  0.1017 -0.5696  0.0375
 2238SOL     OW18172   2.234   0.325   2.806  0.0440  0.2741  0.2736
 2238SOL    HW118173   2.213   0.238   2.771  0.0798  0.4528 -0.1924
 2238SOL    HW218174   2.256   0.378   2.729  1.5377 -0.3003  0.2986
 2239SOL     OW18175   4.238   2.091   4.528 -0.0136  0.5240 -0.8190
 2239SOL    HW118176   4.293   2.014   4.546  0.3752  0.4944 -2.1755
 2239SOL    HW218177   4.172   2.042   4.478  1.1713  0.5665 -2.4326
 2240SOL     OW18178   2.787   0.546   4.209 -0.1369  0.0402  0.2063
 2240SOL    HW118179   2.812   0.627   4.165  0.4904 -2.3097 -3.7414
 2240SOL    HW218180   2.850   0.528   4.279 -0.6374 -0.3588  0.5564
 2241SOL     OW18181   2.982   0.761  17.481  0.4342  1.0134 -0.3817
 2241SOL    HW118182   3.013   0.831  17.424 -1.4716  4.1613  2.4181
 2241SOL    HW218183   2.941   0.705  17.415 -1.2192 -0.6526  2.0390
 2242SOL     OW18184   2.757   0.919   6.391  0.0397  0.0065  0.7743
 2242SOL    HW118185   2.731   0.949   6.478  0.2528 -0.5030  1.0124
 2242SOL    HW218186   2.846   0.897   6.418  0.3380 -1.2482 -1.2554
 2243SOL     OW18187   3.231   2.823   6.754  0.3418  0.1154  0.2996
 2243SOL    HW118188   3.213   2.916   6.763  1.3217  0.2324  1.0195
 2243SOL    HW218189   3.150   2.803   6.707 -1.0316  2.1807  1.7583
 2244SOL     OW18190   4.271   3.284   3.218 -0.3520 -0.3244  0.1313
 2244SOL    HW118191   4.265   3.278   3.122 -4.0321  0.0089  0.3164
 2244SOL    HW218192   4.189   3.237   3.234 -1.2751  0.4108 -2.4592
 2245SOL     OW18193   1.935   4.196  10.012 -0.1744 -0.4444  0.3658
 2245SOL    HW118194   1.905   4.286  10.001 -1.2329 -0.8584 -0.1430
 2245SOL    HW218195   1.883   4.169  10.087 -2.6401 -0.4467 -1.3283
 2246SOL     OW18196   3.545   1.133   2.946  0.7681 -0.0893 -0.0947
 2246SOL    HW118197   3.454   1.156   2.930  0.2964 -0.1304  2.5463
 2246SOL    HW218198   3.579   1.112   2.859 -2.0791 -1.2653 -0.9105
 2247SOL     OW18199   3.073   3.863  16.678  0.2377  0.0837 -0.0834
 2247SOL    HW118200   2.994   3.825  16.641 -1.0183  3.2599 -0.6602
 2247SOL    HW218201   3.050   3.953  16.702  1.6566  0.8153 -1.4546
 2248SOL     OW18202   0.200   3.110   9.768 -0.5783 -0.0339  0.7156
 2248SOL    HW118203   0.190   3.065   9.851  3.6666 -0.2994  1.0927
 2248SOL    HW218204   0.218   3.199   9.799  1.2179 -0.8017  1.9059
 2249SOL     OW18205   1.460   3.979   2.590 -0.5853  0.3299  0.3082
 2249SOL    HW118206   1.538   4.032   2.571 -0.4088 -0.0631 -0.0892
 2249SOL    HW218207   1.477   3.904   2.532  0.0991 -0.1350  1.0968
 2250SOL     OW18208   1.883   1.450   1.269 -0.0709  0.1013 -0.1329
 2250SOL    HW118209   1.884   1.532   1.318  0.0783 -0.5710  0.9894
 2250SOL    HW218210   1.860   1.492   1.186  0.6341  1.2987  0.2762
 2251SOL     OW18211   2.288   0.915   2.200  0.0532 -0.0956 -0.8572
 2251SOL    HW118212   2.196   0.905   2.224 -0.3173  0.5897 -2.0581
 2251SOL    HW218213   2.325   0.857   2.268 -0.6603  1.4466  0.8543
 2252SOL     OW18214   4.580   2.909   5.423  0.2561 -0.0662 -0.4518
 2252SOL    HW118215   4.571   2.917   5.519  0.6931 -0.0482 -0.4135
 2252SOL    HW218216   4.675   2.897   5.421  0.5079  2.0406 -0.8483
 2253SOL     OW18217   1.921   4.641   2.283  0.1169  0.3718  0.2318
 2253SOL    HW118218   1.832   4.615   2.310  0.3456 -0.0547  0.5676
 2253SOL    HW218219   1.906   4.622   2.190 -1.1096  0.9750  0.2987
 2254SOL     OW18220   2.236   3.567   9.466  0.5940  0.4143  0.1761
 2254SOL    HW118221   2.243   3.627   9.540  0.7097  1.0961 -0.3903
 2254SOL    HW218222   2.148   3.575   9.430  0.5506  1.3903  0.4980
 2255SOL     OW18223   2.309   4.607  10.225  0.0842  0.4426  0.0042
 2255SOL    HW118224   2.396   4.593  10.188  0.8102 -0.1509  1.9409
 2255SOL    HW218225   2.319   4.696  10.259 -0.1304  1.6117 -3.0463
 2256SOL     OW18226   4.407   3.174   6.885  0.3684 -0.0351 -0.1290
 2256SOL    HW118227   4.323   3.129   6.884 -1.1121  2.7457 -2.2363
 2256SOL    HW218228   4.389   3.245   6.947  1.6278 -1.8635  2.3246
 2257SOL     OW18229   0.787   0.084  11.267 -0.2968  0.1761 -0.3725
 2257SOL    HW118230   0.701   0.048  11.289  0.8133 -1.6729  0.9802
 2257SOL    HW218231   0.784   0.089  11.172 -1.3738  0.7600 -0.3013
 2258SOL     OW18232   2.238   2.347   8.854  0.4875  0.2832 -0.2317
 2258SOL    HW118233   2.284   2.311   8.930 -1.1790  2.4576  1.7857
 2258SOL    HW218234   2.275   2.434   8.843  3.5730 -0.9936  0.0787
 2259SOL     OW18235   3.374   3.612   8.416 -0.1244 -0.6059 -0.4754
 2259SOL    HW118236   3.381   3.703   8.442  1.2772 -0.9478  0.3607
 2259SOL    HW218237   3.397   3.624   8.324 -2.6353  0.4124 -0.9716
 2260SOL     OW18238   1.921   3.261   6.079 -0.2353  0.6958  0.1469
 2260SOL    HW118239   1.842   3.238   6.029  1.1892 -1.2376 -1.2147
 2260SOL    HW218240   1.874   3.294   6.156 -0.8334  1.2263 -0.4439
 2261SOL     OW18241   2.183   2.791   3.737 -0.6774 -0.0013 -0.3189
 2261SOL    HW118242   2.256   2.729   3.734  1.3071  2.3142  0.1076
 2261SOL    HW218243   2.191   2.829   3.649  1.0086 -0.1090 -0.2079
 2262SOL     OW18244   1.594   0.985   3.026 -0.1672 -0.1368  0.1873
 2262SOL    HW118245   1.644   1.034   2.961 -2.9817 -0.7614 -2.4486
 2262SOL    HW218246   1.511   1.029   3.009  0.2496  0.3040 -0.6690
 2263SOL     OW18247   4.154   0.225   5.024 -0.2358 -0.6157 -0.2847
 2263SOL    HW118248   4.104   0.250   4.947 -0.1357  2.1892  0.5582
 2263SOL    HW218249   4.161   0.130   5.020 -0.6595 -0.7277  1.4561
 2264SOL     OW18250   1.623   2.867  15.977 -0.3161 -0.5527 -0.1467
 2264SOL    HW118251   1.594   2.914  16.055  1.9235 -1.8641  1.4615
 2264SOL    HW218252   1.712   2.841  16.001 -1.0873 -0.0982  3.1218
 2265SOL     OW18253   1.880   0.218  13.845 -0.2348  0.0350 -0.0522
 2265SOL    HW118254   1.920   0.305  13.848 -2.0038  0.8720 -0.1574
 2265SOL    HW218255   1.886   0.188  13.935  0.7991  4.2461  1.2988
 2266SOL     OW18256   4.318   0.790   7.265  0.2657  0.7639 -0.5150
 2266SOL    HW118257   4.267   0.827   7.194 -0.6971 -0.9768 -0.7357
 2266SOL    HW218258   4.255   0.731   7.307  1.4106  0.7101  1.1659
 2267SOL     OW18259   4.705   0.988   4.486 -0.3385 -0.1136 -0.6714
 2267SOL    HW118260   4.667   0.965   4.571 -0.1764  0.7854 -0.3531
 2267SOL    HW218261   0.065   1.020   4.516 -0.7743  1.5081 -1.1468
 2268SOL     OW18262   2.415   0.573   3.363  0.3009  0.3104  0.0362
 2268SOL    HW118263   2.413   0.502   3.428  0.0883  0.0449 -0.2576
 2268SOL    HW218264   2.504   0.609   3.362 -0.2351  1.6450  0.8565
 2269SOL     OW18265   2.925   3.279   2.723 -0.1137 -0.3324 -0.3988
 2269SOL    HW118266   2.999   3.327   2.686  0.2578 -1.2879 -0.9057
 2269SOL    HW218267   2.879   3.345   2.774  0.0878  0.3363 -1.0840
 2270SOL     OW18268   1.239   2.616   8.949  0.1351 -0.0380 -0.2396
 2270SOL    HW118269   1.168   2.553   8.940 -0.4761  0.6896 -0.4872
 2270SOL    HW218270   1.221   2.660   9.032 -2.2368  1.4871 -1.5540
 2271SOL     OW18271   4.384   4.080   1.927  0.1062  0.0037  0.5940
 2271SOL    HW118272   4.458   4.042   1.975 -0.2970 -0.5313  0.7789
 2271SOL    HW218273   4.339   4.124   1.999 -0.2661  1.0252 -0.2502
 2272SOL     OW18274   1.756   3.829   3.541 -0.6375  0.3000  0.2621
 2272SOL    HW118275   1.767   3.816   3.447  1.6372  1.6052  0.3541
 2272SOL    HW218276   1.663   3.853   3.547 -0.9010 -0.8763  0.9799
 2273SOL     OW18277   4.400   2.160   5.161  0.7652 -0.2603  0.7243
 2273SOL    HW118278   4.328   2.115   5.115 -0.2760  0.3702  1.7330
 2273SOL    HW218279   4.474   2.142   5.103 -0.0263  0.4967 -0.5226
 2274SOL     OW18280   1.548   2.145  12.219 -0.0610 -0.7309 -0.2371
 2274SOL    HW118281   1.455   2.159  12.238  0.5932 -0.0754  2.4152
 2274SOL    HW218282   1.555   2.138  12.123  2.7858 -2.0617  0.0541
 2275SOL     OW18283   1.768   3.434   4.032 -0.1690 -0.5842  0.0170
 2275SOL    HW118284   1.788   3.423   3.939 -1.3757  1.2964 -0.4583
 2275SOL    HW218285   1.675   3.455   4.025  0.3220  1.6833  0.3330
 2276SOL     OW18286   0.262   1.975   6.642 -0.1751 -0.2660 -0.2110
 2276SOL    HW118287   0.288   2.067   6.638 -0.2592 -0.1194  2.3650
 2276SOL    HW218288   0.346   1.941   6.672 -0.9541 -1.3893  0.7210
 2277SOL     OW18289   2.884   2.758   2.077 -0.2091  0.0587 -0.0682
 2277SOL    HW118290   2.969   2.791   2.104 -0.0224 -1.0775  0.7115
 2277SOL    HW218291   2.835   2.839   2.064 -1.5663 -0.7440 -0.0243
 2278SOL     OW18292   1.682   1.688   4.125  0.4126  0.0675  0.7963
 2278SOL    HW118293   1.669   1.732   4.209  1.3514  2.8271 -0.4943
 2278SOL    HW218294   1.593   1.653   4.120 -0.1524  1.5195  0.8691
 2279SOL     OW18295   2.786   0.337   7.894 -0.5385 -0.0482 -0.0897
 2279SOL    HW118296   2.861   0.280   7.911 -0.6722  0.1036  0.9843
 2279SOL    HW218297   2.742   0.330   7.979  0.3306 -0.3360  0.3380
 2280SOL     OW18298   2.200   2.545   0.565  0.2958 -0.1881  0.1030
 2280SOL    HW118299   2.157   2.629   0.550 -0.1105 -0.7993 -2.2838
 2280SOL    HW218300   2.273   2.572   0.619 -1.0899  0.5094  1.6174
 2281SOL     OW18301   2.827   4.343   6.101 -0.3801 -0.1058 -0.4803
 2281SOL    HW118302   2.864   4.416   6.151 -0.9392  0.2271 -0.5451
 2281SOL    HW218303   2.845   4.267   6.155  1.1157  0.6741  0.1143
 2282SOL     OW18304   2.827   3.997  16.980 -0.1617  0.5271  0.0079
 2282SOL    HW118305   2.756   4.020  17.039 -1.0172  0.7392 -1.0919
 2282SOL    HW218306   2.905   4.027  17.026  1.3476 -1.4114 -1.2373
 2283SOL     OW18307   0.306   2.247   3.660  0.1465 -0.3937 -0.2661
 2283SOL    HW118308   0.225   2.297   3.664  0.3259 -0.1509  0.3376
 2283SOL    HW218309   0.299   2.199   3.743 -0.2765 -0.5208 -0.3765
 2284SOL     OW18310   1.966   2.720   3.156  0.2621 -0.3150  0.2518
 2284SOL    HW118311   1.926   2.643   3.198 -0.4884  0.9078  1.7616
 2284SOL    HW218312   1.918   2.724   3.073 -2.5138  3.6725  2.0413
 2285SOL     OW18313   3.127   2.628   2.374 -0.5005 -0.3341  0.0074
 2285SOL    HW118314   3.151   2.687   2.303  2.2795  1.1375  2.1789
 2285SOL    HW218315   3.072   2.573   2.318 -2.5415 -0.3372  2.0196
 2286SOL     OW18316   4.310   3.453   2.162 -0.0931 -0.0643  0.1461
 2286SOL    HW118317   4.226   3.493   2.141 -0.3134 -0.6920 -0.1764
 2286SOL    HW218318   4.360   3.474   2.084 -0.7821 -0.7488 -0.4839
 2287SOL     OW18319   3.116   3.296   5.163  0.1609 -0.1770 -0.4167
 2287SOL    HW118320   3.055   3.368   5.177  2.3544  1.4253  0.9150
 2287SOL    HW218321   3.182   3.343   5.111  0.0804  1.7114  1.2003
 2288SOL     OW18322   4.571   3.156   2.695 -0.2164 -0.7187 -0.4113
 2288SOL    HW118323   4.607   3.229   2.644 -0.6543  1.5512  2.5386
 2288SOL    HW218324   4.585   3.185   2.785  0.7515 -0.3484 -0.6787
 2289SOL     OW18325   1.254   4.195   3.856 -0.4301  0.3216 -0.5795
 2289SOL    HW118326   1.219   4.186   3.768  1.2878 -0.0790 -1.2253
 2289SOL    HW218327   1.271   4.104   3.879 -0.9535 -0.0580 -1.7215
 2290SOL     OW18328   1.846   2.740  15.389  0.5946  0.7635  0.1261
 2290SOL    HW118329   1.819   2.784  15.309  1.1754  1.9563  0.5776
 2290SOL    HW218330   1.760   2.717  15.423  0.5001  2.3998  1.0542
 2291SOL     OW18331   2.279   1.306  14.478 -0.2085  0.1178  0.2977
 2291SOL    HW118332   2.231   1.356  14.543 -1.1266  1.1007 -1.1229
 2291SOL    HW218333   2.263   1.218  14.512  0.1011  0.1998  0.6496
 2292SOL     OW18334   3.948   2.032   0.462  0.7381  0.3318  0.8711
 2292SOL    HW118335   3.946   2.077   0.546 -2.6438  0.0261  0.9484
 2292SOL    HW218336   3.856   2.022   0.436  0.7589  0.7608  0.6194
 2293SOL     OW18337   2.022   2.532   8.953 -0.8393  0.2662  0.7467
 2293SOL    HW118338   2.077   2.497   9.023 -1.0667  1.2774  1.4274
 2293SOL    HW218339   2.082   2.537   8.879 -2.3594  0.0309 -0.5002
 2294SOL     OW18340   4.498   3.778   4.428 -0.2148 -0.3109  0.2552
 2294SOL    HW118341   4.472   3.744   4.342  0.5272 -0.3520  0.0520
 2294SOL    HW218342   4.432   3.846   4.444 -0.9815 -1.1554  0.6955
 2295SOL     OW18343   4.643   2.232  16.893 -0.4922  0.0585  0.2916
 2295SOL    HW118344   4.648   2.136  16.900  1.4311  0.0339 -1.4351
 2295SOL    HW218345   4.717   2.259  16.839  0.9706  0.5906  2.5841
 2296SOL     OW18346   1.595   2.140   4.665  0.2365 -0.2033 -0.0087
 2296SOL    HW118347   1.531   2.126   4.595 -0.6757 -0.0218  0.8009
 2296SOL    HW218348   1.656   2.204   4.628  0.6280  1.7691  4.0740
 2297SOL     OW18349   4.453   1.479   3.489 -0.3276  0.2732  0.2782
 2297SOL    HW118350   4.542   1.447   3.474 -1.0521 -1.9327  0.7215
 2297SOL    HW218351   4.478   1.565   3.523 -0.4945  0.6788 -0.6032
 2298SOL     OW18352   4.129   4.176   3.881 -0.7868  0.0973  0.0839
 2298SOL    HW118353   4.192   4.247   3.869 -1.5960  0.8473  0.2639
 2298SOL    HW218354   4.066   4.195   3.811  0.8171  2.2077 -0.7845
 2299SOL     OW18355   4.688   1.336   8.581 -0.2813 -0.3414 -0.0074
 2299SOL    HW118356   4.704   1.299   8.494 -0.8834  1.3546 -0.8507
 2299SOL    HW218357   0.038   1.395   8.584  0.8660 -1.8003  0.0375
 2300SOL     OW18358   1.662   1.502  13.452 -0.6221 -0.1427  0.1850
 2300SOL    HW118359   1.645   1.592  13.479 -1.0934 -0.4434  0.9212
 2300SOL    HW218360   1.733   1.473  13.509  0.0002 -1.5564 -1.3197
 2301SOL     OW18361   0.948   3.632   3.348  0.0324  0.4627 -0.3145
 2301SOL    HW118362   0.903   3.669   3.272 -1.7605 -0.0149  0.4940
 2301SOL    HW218363   0.902   3.681   3.417  0.3793  0.4613 -0.0822
 2302SOL     OW18364   2.939   4.434   5.836  0.2881  0.7419  0.6646
 2302SOL    HW118365   3.006   4.382   5.880  0.1869 -1.0022 -1.2421
 2302SOL    HW218366   2.857   4.387   5.846  0.8709 -0.3405  0.3681
 2303SOL     OW18367   1.109   2.199   5.924 -0.2617 -0.4064 -1.0008
 2303SOL    HW118368   1.202   2.181   5.908 -0.0760 -0.7001  0.4696
 2303SOL    HW218369   1.083   2.112   5.894 -2.2609  0.4541 -1.7579
 2304SOL     OW18370   4.291   0.027   7.549  0.3738 -0.5951 -0.4439
 2304SOL    HW118371   4.379   0.014   7.585  0.0123  0.1457  0.7085
 2304SOL    HW218372   4.257   4.663   7.540 -2.3029  0.3094  0.6169
 2305SOL     OW18373   2.241   2.885   8.380  0.3976  0.1366  0.3118
 2305SOL    HW118374   2.235   2.791   8.364  3.3925  0.5104 -2.9585
 2305SOL    HW218375   2.153   2.921   8.369  0.9029  0.3226 -2.9293
 2306SOL     OW18376   1.661   1.317   8.992  0.2844  0.2973  0.3622
 2306SOL    HW118377   1.570   1.347   8.987  0.4805  0.4890 -1.7376
 2306SOL    HW218378   1.670   1.298   8.899 -1.0033 -1.0857  0.5021
 2307SOL     OW18379   3.264   1.000   9.644  0.9053 -0.0959  0.2201
 2307SOL    HW118380   3.266   1.082   9.693  2.0682 -0.1226  0.2084
 2307SOL    HW218381   3.353   0.970   9.662  0.9600 -1.0255 -1.5936
 2308SOL     OW18382   4.570   4.018  13.129 -0.2713 -0.3080  0.3306
 2308SOL    HW118383   4.658   4.050  13.146  0.2856 -0.7610 -1.6206
 2308SOL    HW218384   4.580   3.929  13.162 -2.5643 -0.0804  1.6085
 2309SOL     OW18385   3.970   3.254  14.534  0.1291  0.2720 -0.1333
 2309SOL    HW118386   3.936   3.166  14.553 -0.1306  0.6137  0.9440
 2309SOL    HW218387   3.898   3.305  14.571 -0.6493 -1.6820  1.0361
 2310SOL     OW18388   1.974   3.992   0.362  0.1503 -0.1971  0.2852
 2310SOL    HW118389   2.040   4.055   0.392  0.4125 -0.5396  0.4224
 2310SOL    HW218390   1.996   3.991   0.269 -0.9506 -0.3650  0.0362
 2311SOL     OW18391   1.509   1.665   7.409  0.2159  0.3780  0.0696
 2311SOL    HW118392   1.504   1.676   7.504  2.0478  1.4025  0.0415
 2311SOL    HW218393   1.415   1.651   7.393  0.3384 -0.1898 -0.1562
 2312SOL     OW18394   3.415   1.483   6.536 -0.4641 -0.3199 -0.3777
 2312SOL    HW118395   3.495   1.529   6.510  0.2539 -1.3424  0.0241
 2312SOL    HW218396   3.348   1.546   6.510 -1.4329 -0.8719  0.8041
 2313SOL     OW18397   4.336   1.520  11.774  0.0672 -0.0293 -0.5763
 2313SOL    HW118398   4.259   1.540  11.722  1.1597  2.9704 -1.0559
 2313SOL    HW218399   4.398   1.592  11.762  1.2343 -1.0205 -0.4659
 2314SOL     OW18400   3.370   2.511  14.936 -0.5265  0.3748  0.6332
 2314SOL    HW118401   3.287   2.508  14.888 -1.4537 -2.3931  2.3952
 2314SOL    HW218402   3.413   2.594  14.915 -0.7992  0.0164 -1.3210
 2315SOL     OW18403   3.398   2.395  14.206  0.0085  0.7399  0.1892
 2315SOL    HW118404   3.472   2.440  14.245  1.7016 -1.8175 -0.0494
 2315SOL    HW218405   3.330   2.462  14.197  1.1679  1.7931 -0.7779
 2316SOL     OW18406   0.063   2.019   8.282  0.2416  0.6292 -0.3157
 2316SOL    HW118407   0.110   2.012   8.199  0.1326  1.8095 -0.4741
 2316SOL    HW218408   4.717   1.956   8.267 -0.7522  1.8674 -0.7838
 2317SOL     OW18409   1.339   2.332  13.543 -0.2390  0.5895  0.0166
 2317SOL    HW118410   1.370   2.273  13.474 -2.8658 -1.2050  0.3608
 2317SOL    HW218411   1.252   2.295  13.557  0.0180  0.4777  1.3114
 2318SOL     OW18412   3.988   0.056   1.374  0.1117 -0.2929 -0.1522
 2318SOL    HW118413   3.988   0.000   1.452  4.5586 -0.2577 -0.1206
 2318SOL    HW218414   3.894   0.059   1.356  0.1275 -3.4153 -0.7030
 2319SOL     OW18415   3.975   3.092   6.700 -0.7513 -0.8407  0.0258
 2319SOL    HW118416   3.932   3.027   6.645  0.6525 -1.6523 -0.1295
 2319SOL    HW218417   3.932   3.176   6.683  0.4468 -0.3480 -0.6384
 2320SOL     OW18418   0.676   4.250   7.281 -0.1653 -0.0600  0.2930
 2320SOL    HW118419   0.732   4.316   7.322  1.3664 -0.3043 -1.4575
 2320SOL    HW218420   0.587   4.286   7.278  0.3987  1.4449  1.6929
 2321SOL     OW18421   2.842   2.371   9.233 -0.4156 -0.1277  0.7610
 2321SOL    HW118422   2.892   2.440   9.276  0.8873 -0.0598 -0.8585
 2321SOL    HW218423   2.910   2.311   9.202 -0.6711 -0.5370  0.9809
 2322SOL     OW18424   1.494   2.440   5.205 -0.0002 -0.3882 -0.2069
 2322SOL    HW118425   1.402   2.427   5.183 -0.5493  1.1539  1.1549
 2322SOL    HW218426   1.489   2.529   5.239 -0.0972 -0.4824  0.0293
 2323SOL     OW18427   2.390   1.179  15.471 -0.2364 -0.4916 -0.4413
 2323SOL    HW118428   2.403   1.247  15.405  0.5276  1.5816  1.8422
 2323SOL    HW218429   2.460   1.198  15.533  1.1189 -0.0543 -2.0888
 2324SOL     OW18430   3.035   2.039   3.246 -0.3955 -0.1809 -0.2706
 2324SOL    HW118431   2.965   1.975   3.235  0.4351 -1.4000  1.5352
 2324SOL    HW218432   3.048   2.073   3.158  0.6493 -0.0136 -0.0592
 2325SOL     OW18433   3.981   0.979   7.603  0.1365  0.0684  0.1181
 2325SOL    HW118434   4.024   1.002   7.521  2.8219 -3.0902  0.6137
 2325SOL    HW218435   4.008   1.049   7.663  0.0063 -0.4866  0.8303
 2326SOL     OW18436   0.221   2.532   5.658 -0.0992  0.4703 -0.0132
 2326SOL    HW118437   0.153   2.472   5.626  0.1706  0.7197 -1.0520
 2326SOL    HW218438   0.292   2.491   5.609  2.1133  0.0892  3.4808
 2327SOL     OW18439   0.401   1.106   3.627  0.4937  0.0284 -0.0623
 2327SOL    HW118440   0.470   1.041   3.634  0.3799 -0.1227 -0.3263
 2327SOL    HW218441   0.324   1.074   3.673  0.6652 -2.7121 -1.7094
 2328SOL     OW18442   3.546   0.439   6.857  0.0779 -0.7348  0.3924
 2328SOL    HW118443   3.638   0.464   6.868  0.1866 -0.0353 -2.0266
 2328SOL    HW218444   3.535   0.482   6.772  1.4265 -1.3263 -0.0836
 2329SOL     OW18445   0.744   0.773   6.659  0.0935 -0.0152  0.7672
 2329SOL    HW118446   0.726   0.686   6.696 -1.7352 -0.9369 -2.2635
 2329SOL    HW218447   0.828   0.756   6.618 -0.2731 -0.2640  0.1099
 2330SOL     OW18448   1.560   3.417   5.019 -0.1274 -0.0356 -0.2540
 2330SOL    HW118449   1.507   3.453   4.948  1.3371 -0.0649 -1.3599
 2330SOL    HW218450   1.485   3.397   5.075  1.3903 -0.6801  1.5745
 2331SOL     OW18451   4.307   1.450  17.529  0.7462 -0.1830  0.4588
 2331SOL    HW118452   4.284   1.536  17.563 -0.3245 -0.9759  1.7112
 2331SOL    HW218453   4.221   1.408  17.525  1.4201 -1.5021 -0.1632
 2332SOL     OW18454   0.517   3.176   6.668 -0.2543  0.4812  0.1809
 2332SOL    HW118455   0.426   3.196   6.689 -0.1959  0.9024  0.0299
 2332SOL    HW218456   0.549   3.120   6.739  0.4943 -1.4288 -1.6431
 2333SOL     OW18457   3.741   0.591   4.585  0.8824  0.2855 -0.6315
 2333SOL    HW118458   3.649   0.606   4.563  0.2296 -1.2254  1.1123
 2333SOL    HW218459   3.772   0.533   4.516 -0.2887 -1.2766  0.1588
 2334SOL     OW18460   0.775   2.419  12.770  0.2125 -0.2219  0.4600
 2334SOL    HW118461   0.857   2.381  12.801  1.0281  0.6828 -0.5662
 2334SOL    HW218462   0.718   2.392  12.842 -2.0020 -1.8639 -1.9163
 2335SOL     OW18463   0.154   0.937   9.420 -0.1454  0.3710 -0.5860
 2335SOL    HW118464   0.239   0.903   9.450 -1.4272 -2.1130  0.2415
 2335SOL    HW218465   0.144   1.013   9.477  0.0252 -1.5027  1.9202
 2336SOL     OW18466   2.978   3.231   6.147 -0.8672  0.0430  0.2026
 2336SOL    HW118467   3.051   3.225   6.086  1.0679 -2.3037  2.7484
 2336SOL    HW218468   2.957   3.324   6.148 -0.8901  0.0245  2.1350
 2337SOL     OW18469   4.019   2.660  12.037  0.0567 -0.3834  0.9532
 2337SOL    HW118470   4.087   2.651  11.970 -1.2162  1.6970 -0.6280
 2337SOL    HW218471   4.049   2.736  12.085 -2.9428  1.5577 -0.2591
 2338SOL     OW18472   1.301   2.660   2.109 -0.3943 -0.1490  0.0333
 2338SOL    HW118473   1.331   2.569   2.109  0.5694  0.1800  2.0779
 2338SOL    HW218474   1.335   2.698   2.028 -2.2935 -0.0275 -0.6984
 2339SOL     OW18475   4.076   0.639  14.892  0.8109 -0.0725  0.2143
 2339SOL    HW118476   3.985   0.608  14.890  0.8894 -0.2140 -1.0077
 2339SOL    HW218477   4.117   0.626  14.806 -1.5507 -2.0431 -0.6128
 2340SOL     OW18478   3.740   1.261   5.427  0.3231 -0.1113 -0.3345
 2340SOL    HW118479   3.719   1.295   5.340 -0.5981 -1.3718 -0.6108
 2340SOL    HW218480   3.746   1.342   5.477 -2.6713 -0.2614  0.2676
 2341SOL     OW18481   2.711   0.803   9.085  0.4995  0.1017 -0.1048
 2341SOL    HW118482   2.768   0.878   9.100 -0.0332  0.3431  0.6940
 2341SOL    HW218483   2.628   0.841   9.113  1.5667  1.5881  1.0149
 2342SOL     OW18484   2.051   1.855   4.235  0.4215  0.5013 -0.1322
 2342SOL    HW118485   2.074   1.765   4.212  0.9370  0.8573 -1.0136
 2342SOL    HW218486   1.974   1.874   4.182  0.5234 -1.8806 -1.1540
 2343SOL     OW18487   2.824   2.081  13.506 -0.2620 -0.6753 -0.2058
 2343SOL    HW118488   2.850   1.989  13.509  0.4410 -0.5627 -2.9992
 2343SOL    HW218489   2.763   2.087  13.433  0.8309  1.2342 -0.9771
 2344SOL     OW18490   1.436   1.692  17.455 -0.4040 -0.2811 -0.0911
 2344SOL    HW118491   1.374   1.755  17.491  0.4782 -0.1689  1.2460
 2344SOL    HW218492   1.433   1.694  17.360  0.3265  1.3026 -0.0739
 2345SOL     OW18493   3.355   2.765   2.846  0.5704  0.4618 -0.0078
 2345SOL    HW118494   3.261   2.754   2.855  0.6454 -1.0360 -1.1050
 2345SOL    HW218495   3.362   2.733   2.756  0.1146 -3.8490  1.4731
 2346SOL     OW18496   0.241   2.125   4.204 -0.4184  0.4293 -0.2838
 2346SOL    HW118497   0.317   2.144   4.260 -0.2565 -1.9524  0.3153
 2346SOL    HW218498   0.181   2.125   4.278 -0.3564 -0.2340 -0.2356
 2347SOL     OW18499   1.928   3.790   5.824 -0.2221 -0.2496 -0.0909
 2347SOL    HW118500   2.019   3.811   5.807 -0.0181 -1.3018 -0.2900
 2347SOL    HW218501   1.937   3.808   5.918 -0.0949 -0.9318  0.0267
 2348SOL     OW18502   1.508   4.363   4.807  0.0109  0.1540 -0.2512
 2348SOL    HW118503   1.567   4.346   4.880  3.1913  1.0652 -2.6381
 2348SOL    HW218504   1.573   4.417   4.763  0.2324  0.2133  0.1442
 2349SOL     OW18505   4.222   4.065   4.186  1.0432 -0.1235  0.7236
 2349SOL    HW118506   4.315   4.062   4.164  0.6851  1.2149 -1.0000
 2349SOL    HW218507   4.192   3.986   4.141 -0.8184 -0.4115  2.4472
 2350SOL     OW18508   3.100   1.336   6.399 -0.4821  0.0691 -0.0405
 2350SOL    HW118509   3.173   1.288   6.437 -1.0583  0.2052  1.2517
 2350SOL    HW218510   3.125   1.425   6.424 -0.4139  0.4449 -1.4545
 2351SOL     OW18511   0.263   0.094   2.570  0.1144 -0.5633  0.8118
 2351SOL    HW118512   0.254   0.057   2.658 -1.6349  0.2706  0.9906
 2351SOL    HW218513   0.172   0.086   2.540  0.1886  1.2127  0.1235
 2352SOL     OW18514   2.494   3.038   7.999  0.2060 -0.0138 -0.5155
 2352SOL    HW118515   2.453   3.067   8.081  1.4169 -0.5385  0.2632
 2352SOL    HW218516   2.436   3.068   7.928 -1.1865  0.4351  0.8217
 2353SOL     OW18517   0.162   0.485  10.114  0.6304  0.1277  0.0677
 2353SOL    HW118518   0.068   0.500  10.100  0.4686 -0.3245  0.6617
 2353SOL    HW218519   0.158   0.426  10.190 -1.4040  0.9299  0.5801
 2354SOL     OW18520   0.079   2.359   5.167  0.7511  0.2245  0.0229
 2354SOL    HW118521   0.020   2.341   5.094 -0.1174 -0.7745  0.9516
 2354SOL    HW218522   0.009   2.355   5.233 -1.0521 -0.0337 -1.9245
 2355SOL     OW18523   2.424   3.283   5.244 -0.1781 -0.1826 -0.2387
 2355SOL    HW118524   2.375   3.222   5.299 -3.1092  1.5559 -0.9324
 2355SOL    HW218525   2.371   3.281   5.164 -0.9581 -0.6261  0.2827
 2356SOL     OW18526   2.987   1.329   7.507 -0.5000 -0.1863 -0.2518
 2356SOL    HW118527   2.907   1.360   7.550  0.3205  0.1994  0.9831
 2356SOL    HW218528   2.950   1.331   7.419 -0.8390 -3.3161 -0.1820
 2357SOL     OW18529   1.571   3.710   0.237  0.3530  0.9440  0.3217
 2357SOL    HW118530   1.648   3.665   0.201 -0.0091  0.7391 -0.1937
 2357SOL    HW218531   1.617   3.793   0.253  1.2748  0.4815  0.1036
 2358SOL     OW18532   3.424   4.548   4.398  0.8262 -0.5164  0.2467
 2358SOL    HW118533   3.456   4.460   4.421 -0.8342 -0.3400  3.3232
 2358SOL    HW218534   3.332   4.527   4.379  0.0512  1.2136  2.0680
 2359SOL     OW18535   0.791   0.874   6.005  0.6223 -0.7065 -0.5380
 2359SOL    HW118536   0.857   0.942   6.012 -0.9869  0.7915  0.2213
 2359SOL    HW218537   0.846   0.803   6.038  0.5893 -0.1395  0.7330
 2360SOL     OW18538   1.534   1.784   4.726  0.2052  0.4023  0.5296
 2360SOL    HW118539   1.537   1.835   4.806 -0.5510 -0.3812  1.0575
 2360SOL    HW218540   1.620   1.742   4.735 -0.0188 -0.3627 -0.9201
 2361SOL     OW18541   4.580   1.293   6.041  0.4251  0.4315  0.1395
 2361SOL    HW118542   4.517   1.355   6.077  1.6186  1.4111  0.5483
 2361SOL    HW218543   4.659   1.348   6.037  1.1304 -0.5320  0.7923
 2362SOL     OW18544   3.974   2.749   5.209  0.4904 -0.2424 -0.2578
 2362SOL    HW118545   4.002   2.824   5.262 -0.9364 -0.1920  0.4149
 2362SOL    HW218546   3.946   2.682   5.270  1.3825 -1.5883 -1.3286
 2363SOL     OW18547   0.613   0.903   2.095  0.1178  0.4762 -0.3563
 2363SOL    HW118548   0.688   0.869   2.047  1.2980 -0.2309  1.9706
 2363SOL    HW218549   0.542   0.865   2.044  0.7798 -0.9877 -0.1836
 2364SOL     OW18550   1.207   4.682  15.309  0.3647  0.5379  0.0307
 2364SOL    HW118551   1.194   4.638  15.392  1.4834  1.4354  0.6801
 2364SOL    HW218552   1.133   4.649  15.258  1.3066 -0.3652 -0.7572
 2365SOL     OW18553   3.000   4.352   6.885  0.0951 -0.1142 -0.0892
 2365SOL    HW118554   2.918   4.372   6.840 -0.5622 -2.5425  0.0448
 2365SOL    HW218555   3.063   4.365   6.814 -0.3763  5.3099  0.4857
 2366SOL     OW18556   3.155   2.560   8.848  0.2413 -0.3593 -0.3125
 2366SOL    HW118557   3.091   2.628   8.829 -0.7133 -0.5608  2.1291
 2366SOL    HW218558   3.095   2.488   8.827 -0.9476  0.1963  1.1761
 2367SOL     OW18559   0.966   1.886  12.057 -0.3013 -0.0815 -0.6395
 2367SOL    HW118560   0.989   1.818  11.994 -3.1397 -1.2943 -0.3751
 2367SOL    HW218561   0.963   1.961  11.997  1.2017 -0.8795 -1.6986
 2368SOL     OW18562   3.587   2.865   5.171 -0.1791  0.2541  0.0604
 2368SOL    HW118563   3.616   2.848   5.261  0.3846 -0.3469 -0.2281
 2368SOL    HW218564   3.621   2.788   5.125 -3.3008 -1.0172 -0.1076
 2369SOL     OW18565   4.193   2.069   0.369  0.6278 -0.6186 -0.0834
 2369SOL    HW118566   4.212   2.062   0.463 -0.2954  1.5582  0.2605
 2369SOL    HW218567   4.104   2.033   0.372 -0.0035  0.8931 -0.7341
 2370SOL     OW18568   1.312   0.062  17.493  0.2753 -0.2433  0.3723
 2370SOL    HW118569   1.273   0.147  17.469  0.6850 -0.1730 -0.0475
 2370SOL    HW218570   1.304   0.021  17.407 -1.9715 -0.8547  0.8850
 2371SOL     OW18571   0.860   0.461   3.516 -0.9905 -0.3772 -0.2013
 2371SOL    HW118572   0.768   0.480   3.500 -0.7496 -1.0773 -2.3097
 2371SOL    HW218573   0.847   0.397   3.586 -0.9840  0.7578  0.8555
 2372SOL     OW18574   2.413   3.086   3.629  0.1906  0.3175  0.1325
 2372SOL    HW118575   2.437   3.068   3.720  0.3069  1.5895  0.3499
 2372SOL    HW218576   2.333   3.035   3.616  1.0228 -0.9630 -0.0324
 2373SOL     OW18577   0.321   0.375   8.662  0.0196 -0.0728  0.3977
 2373SOL    HW118578   0.405   0.341   8.632  1.0121  2.2540  0.5113
 2373SOL    HW218579   0.354   0.455   8.704 -0.1314 -0.1364  0.6409
 2374SOL     OW18580   2.197   1.551   8.926  0.3779  0.4045 -0.2598
 2374SOL    HW118581   2.255   1.590   8.992 -1.3237  0.7502  1.0213
 2374SOL    HW218582   2.204   1.461   8.958  1.4758  1.9529  3.8646
 2375SOL     OW18583   4.647   0.028  11.513  0.8413  0.4258 -0.6822
 2375SOL    HW118584   4.698   0.079  11.576 -0.1938  3.0386 -1.9889
 2375SOL    HW218585   4.651   0.086  11.437  2.4341  1.8243  0.4525
 2376SOL     OW18586   0.982   2.934   5.335 -0.2785  0.2723 -0.7807
 2376SOL    HW118587   1.031   2.852   5.342 -0.0930  0.4043 -0.5106
 2376SOL    HW218588   0.909   2.928   5.397  2.4416 -3.4614  2.0760
 2377SOL     OW18589   1.434   2.779   4.131 -0.2629  0.1661 -0.2897
 2377SOL    HW118590   1.488   2.701   4.140  0.5670  1.2652  3.9741
 2377SOL    HW218591   1.352   2.739   4.102 -1.3074  2.0532  0.0475
 2378SOL     OW18592   1.651   3.996  16.946  0.4136  1.1379  0.0233
 2378SOL    HW118593   1.566   4.025  16.913  0.6073  0.4194 -1.1052
 2378SOL    HW218594   1.619   3.932  17.010  1.2510  0.7538  0.0562
 2379SOL     OW18595   2.925   2.832   9.594 -0.2344 -0.4178 -0.4915
 2379SOL    HW118596   2.961   2.766   9.653 -1.7502 -0.1314  0.7549
 2379SOL    HW218597   2.973   2.909   9.627 -0.4840 -0.3392 -0.3114
 2380SOL     OW18598   4.303   3.589   0.594  0.0166 -0.1462  0.3302
 2380SOL    HW118599   4.291   3.516   0.533 -1.3906  1.0391 -0.8065
 2380SOL    HW218600   4.312   3.543   0.677  1.3636  0.4570  0.5161
 2381SOL     OW18601   3.277   1.377   7.349  0.2877  0.5644 -0.4350
 2381SOL    HW118602   3.219   1.342   7.417  0.3581  0.6197 -0.3461
 2381SOL    HW218603   3.285   1.468   7.377  1.2152 -0.2201  1.8947
 2382SOL     OW18604   0.153   1.120  16.059  0.6799  0.3207 -0.1329
 2382SOL    HW118605   0.219   1.090  15.997  1.2808  0.1788  0.5691
 2382SOL    HW218606   0.193   1.140  16.144 -4.0723  4.6480  1.0730
 2383SOL     OW18607   4.286   2.154  16.760  0.4958  0.2515  0.0471
 2383SOL    HW118608   4.254   2.065  16.777 -1.6757  1.4048  1.9366
 2383SOL    HW218609   4.201   2.194  16.744  0.9509  1.5145  0.8428
 2384SOL     OW18610   0.602   2.771   0.481  0.2046  0.4192 -0.0192
 2384SOL    HW118611   0.597   2.684   0.521 -1.5235  0.2923 -0.5089
 2384SOL    HW218612   0.565   2.768   0.393  0.7269 -0.7247 -0.2035
 2385SOL     OW18613   2.586   2.796   7.871 -0.3964  0.3285 -0.2320
 2385SOL    HW118614   2.570   2.886   7.900 -0.6108  0.3421 -0.3882
 2385SOL    HW218615   2.681   2.793   7.866 -0.2986  1.9126  0.7371
 2386SOL     OW18616   2.311   3.988  15.891  0.1625 -0.4445 -0.3937
 2386SOL    HW118617   2.364   3.989  15.971 -1.7080  2.2337  0.8220
 2386SOL    HW218618   2.347   3.913  15.844  0.1644 -1.2269  0.8430
 2387SOL     OW18619   3.608   4.080   3.168  0.9313  0.3590 -0.0716
 2387SOL    HW118620   3.609   4.042   3.080 -1.4889 -1.8177  0.8268
 2387SOL    HW218621   3.523   4.052   3.202  0.4040  3.1555  0.9646
 2388SOL     OW18622   2.017   2.065   1.808  0.1274  0.3982  0.1794
 2388SOL    HW118623   2.103   2.098   1.785  0.6014 -0.6214  0.4592
 2388SOL    HW218624   2.003   1.988   1.753  1.2791 -0.6744  1.3916
 2389SOL     OW18625   3.459   0.650  10.038  0.2082  0.1166 -0.0716
 2389SOL    HW118626   3.519   0.579  10.016 -1.1761 -0.5363 -1.7023
 2389SOL    HW218627   3.514   0.724  10.015  0.9572 -0.4140  0.0029
 2390SOL     OW18628   4.527   1.154   7.358  0.1073  0.5114 -0.0878
 2390SOL    HW118629   4.553   1.067   7.388  0.9892  0.7347 -0.1990
 2390SOL    HW218630   4.538   1.139   7.264 -0.6380 -0.3317 -0.0354
 2391SOL     OW18631   4.560   4.300   4.800 -0.1473 -0.3240  0.5097
 2391SOL    HW118632   4.594   4.334   4.882  1.7256 -1.3155  0.1447
 2391SOL    HW218633   4.546   4.208   4.822 -3.4337  0.0933  0.2792
 2392SOL     OW18634   1.254   1.864   2.832 -0.6827 -0.6277 -0.4616
 2392SOL    HW118635   1.251   1.846   2.926 -0.3782  2.0572  0.0665
 2392SOL    HW218636   1.194   1.797   2.799 -2.2340  0.5356  0.0046
 2393SOL     OW18637   1.951   0.162   4.245  0.4230 -0.3986  0.2824
 2393SOL    HW118638   1.876   0.105   4.260  0.2994 -0.9318 -2.3568
 2393SOL    HW218639   2.023   0.098   4.238 -1.7030 -2.7678  0.0120
 2394SOL     OW18640   3.192   1.364   1.401  0.3551 -0.2294  0.3584
 2394SOL    HW118641   3.248   1.435   1.370 -1.2506  0.4328 -1.0395
 2394SOL    HW218642   3.182   1.321   1.316 -0.3749 -1.1025  0.8896
 2395SOL     OW18643   3.508   4.380  12.558  0.0424  0.3605 -0.0537
 2395SOL    HW118644   3.588   4.339  12.591  0.0186 -0.1967 -0.6915
 2395SOL    HW218645   3.533   4.390  12.466 -1.1395 -2.6098 -0.6797
 2396SOL     OW18646   4.380   0.510   5.692  0.3054 -0.0861  0.0702
 2396SOL    HW118647   4.346   0.560   5.766  0.2122 -1.5578  1.0417
 2396SOL    HW218648   4.380   0.563   5.613 -0.2023 -1.6845 -0.9925
 2397SOL     OW18649   3.241   1.349   3.575  0.0809  0.2860  0.1800
 2397SOL    HW118650   3.312   1.403   3.611  1.5356 -0.2299 -1.9113
 2397SOL    HW218651   3.247   1.380   3.484  0.9304  0.2009  0.2018
 2398SOL     OW18652   1.134   3.588   2.177 -0.0668  0.8660  0.1928
 2398SOL    HW118653   1.043   3.578   2.204 -0.2810  4.2800  0.7411
 2398SOL    HW218654   1.123   3.639   2.097  0.8766 -0.8786 -1.0545
 2399SOL     OW18655   4.430   0.846   5.092  0.2357 -0.1574  0.4012
 2399SOL    HW118656   4.425   0.875   5.183 -1.1331  1.9806 -0.3774
 2399SOL    HW218657   4.518   0.808   5.084  0.4290  0.0754  1.3767
 2400SOL     OW18658   2.498   2.633   6.656 -0.0531 -0.3264  0.8585
 2400SOL    HW118659   2.568   2.694   6.678 -0.2568  0.1208  0.2884
 2400SOL    HW218660   2.472   2.609   6.745 -2.5833  1.6644  0.6611
 2401SOL     OW18661   3.560   4.420   1.693  0.0900  0.2610 -0.8482
 2401SOL    HW118662   3.625   4.478   1.734 -0.3974 -0.4535  0.9339
 2401SOL    HW218663   3.510   4.400   1.771  0.1963  2.3715 -0.2280
 2402SOL     OW18664   4.665   3.555   7.018 -0.6701 -0.4768  0.5618
 2402SOL    HW118665   4.718   3.518   7.089 -1.0336  3.2011  2.7254
 2402SOL    HW218666   4.590   3.580   7.073 -2.6240  1.2033 -2.9268
 2403SOL     OW18667   4.005   3.031  14.241 -0.0907 -0.4461  0.0637
 2403SOL    HW118668   4.041   2.998  14.323  0.4761  1.6723  0.6720
 2403SOL    HW218669   3.912   3.042  14.263 -0.6658 -3.1248 -1.0884
 2404SOL     OW18670   1.038   1.972   5.798 -0.0994 -0.1385  0.4531
 2404SOL    HW118671   0.944   1.984   5.781 -0.0375 -1.4061 -0.7964
 2404SOL    HW218672   1.022   1.884   5.832 -1.5621  0.1753  0.5924
 2405SOL     OW18673   3.609   0.214  11.406  0.1004 -0.2908  0.3774
 2405SOL    HW118674   3.630   0.126  11.437  1.0928  0.2450  1.2144
 2405SOL    HW218675   3.550   0.243  11.475 -0.5844  1.0955 -0.7867
 2406SOL     OW18676   4.673   0.718   3.800 -0.3928  0.1422  0.4053
 2406SOL    HW118677   0.020   0.656   3.812 -0.4061  0.0433 -0.0275
 2406SOL    HW218678   4.723   0.783   3.751 -1.8867 -0.2303 -1.6436
 2407SOL     OW18679   1.912   0.525   9.813  0.4035  0.2122  0.3066
 2407SOL    HW118680   1.881   0.486   9.895 -0.5237 -1.5755 -0.8903
 2407SOL    HW218681   1.850   0.597   9.802 -0.1049 -0.5743 -2.0527
 2408SOL     OW18682   0.035   4.334   9.263 -0.6204 -0.7367 -0.3651
 2408SOL    HW118683   4.707   4.393   9.316  1.0497  0.7388 -0.3339
 2408SOL    HW218684   0.123   4.330   9.301 -0.7104 -0.5149 -0.1320
 2409SOL     OW18685   3.961   4.321   0.442 -0.3805 -0.2703  0.3335
 2409SOL    HW118686   4.053   4.329   0.419 -0.7237 -1.6933 -1.4711
 2409SOL    HW218687   3.964   4.249   0.506 -1.7312 -0.4630  0.1682
 2410SOL     OW18688   2.615   1.512   3.695  0.6891  0.0770 -0.2113
 2410SOL    HW118689   2.551   1.447   3.666  2.3180 -0.8949 -1.6194
 2410SOL    HW218690   2.643   1.464   3.773 -1.3999  1.8832  1.6322
 2411SOL     OW18691   0.428   2.525   6.863 -0.1986 -0.1407  0.0167
 2411SOL    HW118692   0.352   2.581   6.848 -2.3438 -3.2964 -0.8633
 2411SOL    HW218693   0.429   2.519   6.958 -1.7845  1.4421  0.1319
 2412SOL     OW18694   1.859   0.171   9.223  0.3616  0.3768  0.6440
 2412SOL    HW118695   1.792   0.237   9.237 -0.6665 -0.7692  1.1366
 2412SOL    HW218696   1.831   0.108   9.289 -0.2785  0.1106  0.1205
 2413SOL     OW18697   2.907   2.967  11.984  0.1788  0.0034 -0.2980
 2413SOL    HW118698   3.002   2.977  11.979  0.2204  0.0902  0.5555
 2413SOL    HW218699   2.902   2.885  12.033  0.4367  0.2495  0.1401
 2414SOL     OW18700   0.950   4.568  17.479 -0.2748 -0.2562  0.0688
 2414SOL    HW118701   0.979   4.588  17.568  2.3528 -0.8831 -0.6264
 2414SOL    HW218702   0.893   4.494  17.500  0.9658 -1.8053 -2.0676
 2415SOL     OW18703   3.539   3.242   7.836 -0.0809 -0.2550 -0.2009
 2415SOL    HW118704   3.584   3.239   7.752  0.2159 -0.5914 -0.0304
 2415SOL    HW218705   3.567   3.153   7.858  1.9702  0.5551  0.4910
 2416SOL     OW18706   2.867   4.271   3.897  1.1333  0.3484  0.7471
 2416SOL    HW118707   2.853   4.193   3.951  0.1797  0.2927  0.4224
 2416SOL    HW218708   2.943   4.239   3.849 -1.0248 -0.6862 -1.9781
 2417SOL     OW18709   1.248   1.583   7.773 -0.2078 -0.5573  0.0100
 2417SOL    HW118710   1.156   1.572   7.799 -0.6644  1.0713 -0.9308
 2417SOL    HW218711   1.276   1.505   7.822 -0.3943  0.1238  1.1923
 2418SOL     OW18712   1.101   0.262  14.172  0.6615  0.0374 -0.1765
 2418SOL    HW118713   1.086   0.323  14.245  1.0680  0.6090 -0.5713
 2418SOL    HW218714   1.195   0.278  14.174  0.8383 -0.9443 -0.7508
 2419SOL     OW18715   4.655   1.321   2.751  0.1809 -0.4368  0.5962
 2419SOL    HW118716   4.664   1.407   2.792  2.2937 -0.0181 -0.7184
 2419SOL    HW218717   4.632   1.353   2.664  0.8592  0.0402  0.5899
 2420SOL     OW18718   3.605   1.607   7.703 -0.0694  0.1846 -0.0650
 2420SOL    HW118719   3.604   1.702   7.697  2.4988  0.0606 -2.3724
 2420SOL    HW218720   3.593   1.580   7.612  0.7321  0.7747 -0.3496
 2421SOL     OW18721   2.968   1.902   7.328  0.1896  0.2732  0.7294
 2421SOL    HW118722   2.972   1.895   7.423 -0.9975  2.1336  0.9158
 2421SOL    HW218723   2.969   1.808   7.313 -0.4525  0.6483 -1.7203
 2422SOL     OW18724   3.626   1.640   8.632 -0.0336  0.2647 -0.4824
 2422SOL    HW118725   3.688   1.700   8.674  0.0192 -0.8743  1.0878
 2422SOL    HW218726   3.597   1.686   8.554 -0.4629  0.6746 -0.0771
 2423SOL     OW18727   2.857   0.044   3.780 -0.7739 -0.4983  0.1591
 2423SOL    HW118728   2.943   0.012   3.807  1.2876  2.5537 -2.7903
 2423SOL    HW218729   2.825   4.682   3.755 -3.2061  0.3470  0.3558
 2424SOL     OW18730   4.399   0.782  14.738  0.1056  0.5608  0.5056
 2424SOL    HW118731   4.384   0.843  14.665  1.7493 -1.0134 -1.1331
 2424SOL    HW218732   4.467   0.831  14.785  0.9626  0.6900 -0.8639
 2425SOL     OW18733   2.351   1.208   0.822  0.1170  0.0764 -0.2427
 2425SOL    HW118734   2.438   1.184   0.790 -0.2512  1.6280 -2.3407
 2425SOL    HW218735   2.356   1.303   0.821  0.1381  0.1060  1.7892
 2426SOL     OW18736   1.941   2.713  10.764  0.1459  0.1820 -0.1575
 2426SOL    HW118737   1.902   2.641  10.813 -0.5868  1.4534  1.1188
 2426SOL    HW218738   2.012   2.732  10.825  0.0929  0.0230 -0.0471
 2427SOL     OW18739   1.755   3.799   1.042  0.1482  0.4682 -0.1555
 2427SOL    HW118740   1.739   3.832   0.953 -1.3776 -1.0288 -0.4316
 2427SOL    HW218741   1.698   3.722   1.035  1.7033 -0.4911 -2.3648
 2428SOL     OW18742   2.084   2.044   3.634  0.0898  0.1625  0.2087
 2428SOL    HW118743   2.088   2.061   3.728 -1.7987  0.2688  0.2790
 2428SOL    HW218744   1.993   2.072   3.627 -0.2928 -1.6868 -2.0474
 2429SOL     OW18745   1.940   2.383   4.841  0.5018 -0.1856 -0.1143
 2429SOL    HW118746   1.990   2.393   4.760  0.5498 -0.8105 -0.1608
 2429SOL    HW218747   1.904   2.296   4.824 -1.2946  0.5114  0.1271
 2430SOL     OW18748   0.885   4.172   6.704  0.1413  0.3804  0.2346
 2430SOL    HW118749   0.859   4.134   6.620  1.2260 -1.9409  0.9454
 2430SOL    HW218750   0.980   4.176   6.691  0.2562  1.0200  1.2298
 2431SOL     OW18751   1.588   4.118   0.824 -0.2516 -0.3659 -0.6246
 2431SOL    HW118752   1.644   4.139   0.749 -0.2968 -3.1547 -1.4483
 2431SOL    HW218753   1.577   4.023   0.816 -0.3946 -0.4229  0.3241
 2432SOL     OW18754   0.822   2.909   7.073  0.3076 -0.1670 -0.2141
 2432SOL    HW118755   0.917   2.896   7.073  0.2163 -0.9093 -1.8667
 2432SOL    HW218756   0.793   2.826   7.036 -1.3977  0.0019  0.7532
 2433SOL     OW18757   3.804   4.182   9.874 -0.1080 -0.2348  0.2314
 2433SOL    HW118758   3.755   4.162   9.954  1.0787  1.9174  1.4963
 2433SOL    HW218759   3.847   4.261   9.907  1.4764 -1.8530  2.0600
 2434SOL     OW18760   0.542   2.772   0.206  0.0531 -0.0228  0.2209
 2434SOL    HW118761   0.616   2.730   0.162  0.8634  1.7941 -0.1498
 2434SOL    HW218762   0.476   2.728   0.152  0.8878 -1.2668  0.2208
 2435SOL     OW18763   1.520   0.727   9.110 -0.8292  0.1659  0.2720
 2435SOL    HW118764   1.476   0.812   9.108 -0.2031  0.4461 -1.3175
 2435SOL    HW218765   1.606   0.747   9.072 -1.0577  2.9562  1.2029
 2436SOL     OW18766   0.426   4.276   1.359  0.1065  0.0221  0.0957
 2436SOL    HW118767   0.352   4.282   1.299 -0.0983 -1.3077  0.2011
 2436SOL    HW218768   0.395   4.205   1.416 -0.8539  0.6855  0.3837
 2437SOL     OW18769   1.507   3.379   1.389  0.0537  0.1813 -0.2501
 2437SOL    HW118770   1.453   3.364   1.311 -0.7202  1.3402  0.0692
 2437SOL    HW218771   1.588   3.329   1.373  0.9652  1.7334 -0.4224
 2438SOL     OW18772   3.776   3.462   4.121 -0.0270  0.2458 -0.3432
 2438SOL    HW118773   3.709   3.503   4.068  0.1737 -1.8431 -2.2295
 2438SOL    HW218774   3.716   3.449   4.195 -1.2675 -0.3907 -1.4456
 2439SOL     OW18775   0.535   3.108   8.743  0.0722 -0.1361  0.2289
 2439SOL    HW118776   0.576   3.022   8.737 -0.3336 -0.4780  2.3536
 2439SOL    HW218777   0.566   3.141   8.658  1.4079 -1.6702  0.1173
 2440SOL     OW18778   4.223   2.378   3.844 -0.0309  0.5141 -0.2530
 2440SOL    HW118779   4.233   2.299   3.897  0.7248  1.0441  0.3871
 2440SOL    HW218780   4.150   2.422   3.888 -0.3190 -0.2472  0.0364
 2441SOL     OW18781   1.437   4.141   4.260  0.4998 -0.4322 -0.6446
 2441SOL    HW118782   1.362   4.188   4.223  0.9009  0.6405 -0.1037
 2441SOL    HW218783   1.476   4.116   4.177  0.1044  4.7962 -2.4401
 2442SOL     OW18784   2.056   1.161   5.415  0.0534  0.5193 -0.3721
 2442SOL    HW118785   2.102   1.099   5.473 -2.9385  0.4028  1.8691
 2442SOL    HW218786   1.979   1.143   5.470 -0.3480  1.4976 -0.6189
 2443SOL     OW18787   0.810   2.219   8.879 -0.3699  0.4756  0.4428
 2443SOL    HW118788   0.738   2.276   8.853  1.2151  2.3253  0.0927
 2443SOL    HW218789   0.888   2.274   8.882 -0.3799  0.5360 -0.4053
 2444SOL     OW18790   0.541   0.588   4.980  0.1539 -0.0244  0.8168
 2444SOL    HW118791   0.493   0.509   5.005  1.1228 -1.6894 -2.5596
 2444SOL    HW218792   0.463   0.643   4.989 -0.1377 -0.3722  0.4494
 2445SOL     OW18793   2.236   1.587  11.536  0.4714 -0.4007 -0.2799
 2445SOL    HW118794   2.198   1.674  11.519  1.8499 -0.0270 -1.4408
 2445SOL    HW218795   2.200   1.530  11.468  0.4816  0.3199 -0.8914
 2446SOL     OW18796   3.367   0.609   6.090 -0.0215 -0.6159 -0.1438
 2446SOL    HW118797   3.408   0.603   6.176 -1.5926  0.8136  0.7204
 2446SOL    HW218798   3.280   0.569   6.101  1.1803 -3.3955 -0.7747
 2447SOL     OW18799   1.807   2.124   5.169  0.1218  0.2110  0.6534
 2447SOL    HW118800   1.755   2.169   5.235  1.1971  0.4770  1.3245
 2447SOL    HW218801   1.739   2.120   5.102  0.9402  1.3226 -0.2448
 2448SOL     OW18802   2.378   3.926  12.352 -0.4245 -0.0901 -0.1518
 2448SOL    HW118803   2.415   3.870  12.284 -0.6033 -1.4172  0.8531
 2448SOL    HW218804   2.399   3.881  12.434  1.0319  0.2317 -0.3487
 2449SOL     OW18805   3.736   1.689   3.438 -0.4248  0.3015 -0.1633
 2449SOL    HW118806   3.652   1.732   3.421 -0.0357  1.7868  1.6593
 2449SOL    HW218807   3.780   1.753   3.494  0.3263 -0.2019 -0.1782
 2450SOL     OW18808   3.392   4.566   4.839  0.1806 -0.1689  0.5383
 2450SOL    HW118809   3.392   4.487   4.785 -2.4334  0.1845  0.0078
 2450SOL    HW218810   3.427   4.620   4.767  0.3434 -1.8900 -0.6870
 2451SOL     OW18811   2.482   0.621   6.108 -0.4107  0.2874  0.7832
 2451SOL    HW118812   2.407   0.653   6.058  1.2443  2.1966 -0.4813
 2451SOL    HW218813   2.502   0.703   6.154 -2.6355  1.5220 -0.4628
 2452SOL     OW18814   0.122   4.673  10.019  0.6825  0.2784 -0.6222
 2452SOL    HW118815   0.115   4.603  10.084  0.0441 -0.9044 -1.9705
 2452SOL    HW218816   0.189   4.629   9.966  0.4930 -2.3405  1.3119
 2453SOL     OW18817   1.063   2.546   4.863 -0.1755 -0.1052  0.5188
 2453SOL    HW118818   1.069   2.544   4.767  2.3164 -1.0097  0.6849
 2453SOL    HW218819   1.049   2.640   4.871 -2.0284 -0.4797  1.5942
 2454SOL     OW18820   2.785   4.575   7.896  0.2462 -0.3266  0.3877
 2454SOL    HW118821   2.733   4.495   7.908  1.5463 -1.0720  1.1435
 2454SOL    HW218822   2.868   4.545   7.858 -0.6029 -1.1426 -0.8154
 2455SOL     OW18823   1.232   3.868   7.672  0.0730  0.5369 -0.0420
 2455SOL    HW118824   1.263   3.914   7.594  1.8846 -2.3796 -1.0286
 2455SOL    HW218825   1.228   3.776   7.645  0.7678  0.6005 -0.3697
 2456SOL     OW18826   1.637   0.748   8.369  0.4213 -0.0699  0.2781
 2456SOL    HW118827   1.728   0.721   8.356  0.3977  0.3036 -0.6938
 2456SOL    HW218828   1.597   0.665   8.395  0.8085  1.1452  4.8759
 2457SOL     OW18829   2.869   1.012  15.258 -0.3187  0.3552 -0.1238
 2457SOL    HW118830   2.821   0.994  15.339 -0.3616  1.6065  0.1194
 2457SOL    HW218831   2.960   0.998  15.282 -0.2708 -2.8817 -2.1028
 2458SOL     OW18832   1.097   1.199  11.878 -0.1153 -0.0350  0.2323
 2458SOL    HW118833   1.063   1.181  11.790 -2.6474 -0.8852  1.3771
 2458SOL    HW218834   1.085   1.116  11.923  1.9314  1.2452  3.1540
 2459SOL     OW18835   3.099   0.169   2.773  0.0959 -0.1973  0.1676
 2459SOL    HW118836   3.105   0.081   2.811  1.9001 -0.9317 -1.7973
 2459SOL    HW218837   3.062   0.153   2.686 -0.4864  1.1638  0.1666
 2460SOL     OW18838   2.090   3.860   2.446  0.1479  0.1029  0.3793
 2460SOL    HW118839   2.139   3.910   2.380  0.8330 -1.2596 -0.1269
 2460SOL    HW218840   2.162   3.818   2.493 -1.3202 -0.8160  1.7937
 2461SOL     OW18841   2.137   4.400   6.964  0.6111 -0.4465  0.0152
 2461SOL    HW118842   2.201   4.441   7.023 -0.9498  0.3066  1.1990
 2461SOL    HW218843   2.130   4.471   6.901 -3.2715  0.7236  1.7404
 2462SOL     OW18844   2.183   1.321   3.580 -0.2137  0.0318  0.2193
 2462SOL    HW118845   2.214   1.297   3.493 -1.3415 -0.0296 -0.1634
 2462SOL    HW218846   2.139   1.403   3.560 -2.8992 -1.6647 -0.8368
 2463SOL     OW18847   4.460   2.995  15.151  0.4177 -0.0844  0.5584
 2463SOL    HW118848   4.427   2.975  15.239 -0.6106 -1.0845 -0.0524
 2463SOL    HW218849   4.397   3.062  15.122  1.4181  0.7713  0.3920
 2464SOL     OW18850   0.901   0.083   0.239  0.2245 -0.4662 -0.1612
 2464SOL    HW118851   0.931   0.150   0.301  0.3504  0.7969 -1.5996
 2464SOL    HW218852   0.814   0.063   0.274 -0.4422  0.0591 -1.5272
 2465SOL     OW18853   1.634   3.343   9.937  0.4098  0.5521 -0.3153
 2465SOL    HW118854   1.672   3.302  10.014 -1.9697 -0.6655  0.2221
 2465SOL    HW218855   1.604   3.424   9.977  1.3417  1.1709 -0.8727
 2466SOL     OW18856   0.970   3.376   2.072 -0.0787  0.0039  0.0986
 2466SOL    HW118857   0.876   3.385   2.088 -0.2740  0.7854 -1.4547
 2466SOL    HW218858   0.979   3.430   1.993 -2.4248 -0.8150 -0.7260
 2467SOL     OW18859   1.329   0.041   3.058 -0.4120  0.2376 -0.2049
 2467SOL    HW118860   1.361   0.130   3.046 -3.3103  1.3578  0.3422
 2467SOL    HW218861   1.320   0.033   3.153 -2.8289 -0.0979 -0.4504
 2468SOL     OW18862   3.330   1.864   5.626  0.3688 -0.9451  0.9213
 2468SOL    HW118863   3.350   1.943   5.576  1.8207 -2.6555 -1.2434
 2468SOL    HW218864   3.240   1.890   5.645  0.8216  0.5781  0.9886
 2469SOL     OW18865   1.505   0.784   2.003 -0.0010 -0.0033  0.2428
 2469SOL    HW118866   1.532   0.841   2.075  2.0305 -0.3944 -0.2073
 2469SOL    HW218867   1.465   0.718   2.059  0.2635 -1.0938 -0.8543
 2470SOL     OW18868   2.811   1.497   6.338  0.0368  0.0419 -0.4984
 2470SOL    HW118869   2.784   1.584   6.369 -1.9582  0.2813 -2.8897
 2470SOL    HW218870   2.724   1.459   6.336 -0.3097  0.8699 -1.6338
 2471SOL     OW18871   0.016   1.191   7.706  0.5168  0.2219  0.0877
 2471SOL    HW118872   4.722   1.151   7.621 -0.8368  0.7625  0.1434
 2471SOL    HW218873   4.674   1.259   7.713  0.5558  0.1854  0.8048
 2472SOL     OW18874   1.460   1.435  15.055 -0.0577  0.0983  0.7909
 2472SOL    HW118875   1.465   1.524  15.019 -1.2878 -0.0123  0.3566
 2472SOL    HW218876   1.542   1.392  15.033  1.0387  2.1784  0.8231
 2473SOL     OW18877   2.589   1.081  13.222  0.0100 -0.0483  0.7224
 2473SOL    HW118878   2.557   1.035  13.300 -2.2147  1.2617  0.5773
 2473SOL    HW218879   2.558   1.022  13.152  1.8770  0.3771 -0.4622
 2474SOL     OW18880   2.622   2.587  10.425 -0.0280 -0.1818  0.0548
 2474SOL    HW118881   2.554   2.524  10.447 -2.3237  2.0925 -0.6163
 2474SOL    HW218882   2.580   2.642  10.360  0.7160 -0.5882 -0.7657
 2475SOL     OW18883   3.905   0.980  11.257 -0.0377 -0.0360 -0.3377
 2475SOL    HW118884   3.853   0.993  11.177  1.2466  0.3654 -1.1034
 2475SOL    HW218885   3.888   0.887  11.277 -2.7219  0.1900 -1.5538
 2476SOL     OW18886   4.022   0.534   6.760 -0.0523 -0.6689  0.2154
 2476SOL    HW118887   4.094   0.579   6.805  0.5211  0.3338 -1.6884
 2476SOL    HW218888   4.071   0.458   6.728  2.3811  1.4950 -1.2354
 2477SOL     OW18889   2.735   2.629   1.891  0.1817 -0.2067  1.1019
 2477SOL    HW118890   2.785   2.684   1.951 -0.4469  1.3928  0.1562
 2477SOL    HW218891   2.802   2.568   1.857 -1.6877 -0.4178 -2.2265
 2478SOL     OW18892   0.832   2.411   7.300  0.0497 -0.1976  0.6966
 2478SOL    HW118893   0.791   2.452   7.376 -1.2063 -1.2786  0.6021
 2478SOL    HW218894   0.801   2.321   7.296  0.7772 -0.3831 -0.7241
 2479SOL     OW18895   3.496   0.979   8.126  0.2184 -0.5820  0.6282
 2479SOL    HW118896   3.582   1.019   8.115  0.0942 -0.0306  1.6926
 2479SOL    HW218897   3.474   0.963   8.034  2.2847 -0.8224  0.1743
 2480SOL     OW18898   4.561   3.153   8.513  0.3271 -0.3384  0.4273
 2480SOL    HW118899   4.647   3.195   8.510 -0.1609  0.5126 -1.5527
 2480SOL    HW218900   4.584   3.061   8.521  0.8246 -0.2402  0.1145
 2481SOL     OW18901   4.530   1.042  14.538  0.0242  0.5089 -0.2740
 2481SOL    HW118902   4.572   1.057  14.454  2.4488  2.3833  1.2908
 2481SOL    HW218903   4.468   0.973  14.513  1.5415 -0.9415  0.0077
 2482SOL     OW18904   1.072   0.796   4.786 -0.0273 -0.2236 -0.1005
 2482SOL    HW118905   1.163   0.800   4.758  0.0362 -0.5921  0.0546
 2482SOL    HW218906   1.054   0.703   4.805 -1.7682  0.1762  0.2576
 2483SOL     OW18907   1.443   0.498   7.267  0.3354 -0.1759  0.4917
 2483SOL    HW118908   1.499   0.573   7.289 -0.4756  0.6512 -0.2646
 2483SOL    HW218909   1.445   0.500   7.171 -2.2177 -0.4975  0.4348
 2484SOL     OW18910   1.302   0.520   7.719 -0.1685 -0.1485  0.3063
 2484SOL    HW118911   1.322   0.477   7.636  1.2284  1.0261  0.0489
 2484SOL    HW218912   1.376   0.579   7.726  0.8708 -1.4142  0.0474
 2485SOL     OW18913   2.265   4.565  12.224  0.0361  0.0203  0.7750
 2485SOL    HW118914   2.203   4.629  12.189 -0.3638 -0.3283  0.8478
 2485SOL    HW218915   2.335   4.614  12.266  1.2790  0.6844 -2.0472
 2486SOL     OW18916   3.010   0.219  11.457  0.3198 -0.3636  0.1124
 2486SOL    HW118917   2.998   0.180  11.371 -1.5926  1.1416 -0.2960
 2486SOL    HW218918   2.942   0.179  11.512  1.7385 -0.0133  2.1372
 2487SOL     OW18919   4.466   0.191   9.421  0.2425  0.3386 -0.4559
 2487SOL    HW118920   4.403   0.225   9.358  0.9326  1.3825 -0.5673
 2487SOL    HW218921   4.516   0.271   9.435  1.8249 -0.5228 -1.2299
 2488SOL     OW18922   1.086   4.008   7.090  0.3580  0.0493 -0.6399
 2488SOL    HW118923   1.048   4.096   7.095 -0.1086 -0.2252  0.7212
 2488SOL    HW218924   1.174   4.028   7.124 -1.2480  2.2578  2.2251
 2489SOL     OW18925   1.326   0.286   9.842  0.0761  0.1594  0.3080
 2489SOL    HW118926   1.376   0.364   9.821  0.1949  0.2370  0.8776
 2489SOL    HW218927   1.394   0.223   9.819  2.0469  1.5620  2.2874
 2490SOL     OW18928   4.279   3.174   4.460  0.0392  0.9393 -0.1946
 2490SOL    HW118929   4.370   3.147   4.446  0.4783  1.3993  1.6765
 2490SOL    HW218930   4.260   3.160   4.368  1.0289  0.8313 -0.3830
 2491SOL     OW18931   0.605   3.433  10.655 -0.0511  0.1326 -0.2267
 2491SOL    HW118932   0.597   3.528  10.655 -0.3605  0.1118  0.7709
 2491SOL    HW218933   0.592   3.409  10.564 -0.4524  0.0047 -0.1366
 2492SOL     OW18934   3.315   3.394  14.461 -0.2678  0.3324 -0.1168
 2492SOL    HW118935   3.349   3.402  14.371 -1.8175  0.6811 -0.6646
 2492SOL    HW218936   3.241   3.334  14.455 -0.4587  0.4236  1.3086
 2493SOL     OW18937   2.039   2.836  14.188 -0.1812 -0.1104  0.0704
 2493SOL    HW118938   1.986   2.844  14.109 -1.8095 -0.5554  1.0921
 2493SOL    HW218939   1.971   2.810  14.251 -0.0044 -3.6422 -1.1816
 2494SOL     OW18940   2.841   2.128   2.153 -0.0621  0.5560 -0.2716
 2494SOL    HW118941   2.814   2.055   2.098  2.5415 -2.3473  2.3338
 2494SOL    HW218942   2.890   2.183   2.092 -0.2795  0.1305 -0.8260
 2495SOL     OW18943   1.623   2.008  10.527 -0.2184  0.0915 -0.3190
 2495SOL    HW118944   1.658   2.041  10.610 -0.9205  0.9439 -0.3606
 2495SOL    HW218945   1.620   1.916  10.553 -2.8593  0.5228  0.8739
 2496SOL     OW18946   3.003   4.014   3.996  0.0710  0.3828 -0.2731
 2496SOL    HW118947   3.092   4.044   3.978 -0.1187  1.5352  0.6833
 2496SOL    HW218948   3.011   4.020   4.091 -2.2014  1.1253 -0.1525
 2497SOL     OW18949   2.973   1.377  16.569 -0.3379  0.2933 -0.2020
 2497SOL    HW118950   2.966   1.282  16.581 -0.2314  0.3539  0.3091
 2497SOL    HW218951   2.927   1.414  16.644  2.7489  1.1958  1.2395
 2498SOL     OW18952   1.149   0.664   9.276 -0.1793  0.1166 -0.2084
 2498SOL    HW118953   1.065   0.662   9.321 -1.0205 -3.9490 -2.0028
 2498SOL    HW218954   1.150   0.760   9.275  1.4487  0.1363  1.5520
 2499SOL     OW18955   3.195   4.677   8.928 -0.0804 -0.1044 -0.0486
 2499SOL    HW118956   3.277   4.628   8.929 -0.2033 -0.2599  2.7513
 2499SOL    HW218957   3.219   0.018   8.862  1.1017 -1.7161 -1.2251
 2500SOL     OW18958   4.606   1.765   8.277  0.1123 -0.1597  0.1907
 2500SOL    HW118959   4.556   1.770   8.359  0.9789 -1.9947  0.8326
 2500SOL    HW218960   4.627   1.672   8.268  0.0927  0.0048 -1.5695
 2501SOL     OW18961   0.389   3.884   1.114 -0.6780  0.1795 -0.1826
 2501SOL    HW118962   0.477   3.919   1.100  0.5618 -1.3398  3.8221
 2501SOL    HW218963   0.335   3.908   1.039 -2.7491  2.4289  2.0327
 2502SOL     OW18964   4.377   2.278  15.297  0.0340  0.8187  0.5186
 2502SOL    HW118965   4.319   2.354  15.300 -1.4308 -0.2229 -1.4028
 2502SOL    HW218966   4.434   2.288  15.373 -0.0639 -0.5119  0.7717
 2503SOL     OW18967   0.316   0.576  11.557 -0.1306 -0.4540 -0.2421
 2503SOL    HW118968   0.278   0.662  11.537  2.2438  0.4613 -0.8229
 2503SOL    HW218969   0.343   0.589  11.648 -0.7769  0.1822 -0.1403
 2504SOL     OW18970   3.648   2.185   1.279  0.2123  0.2582  0.0533
 2504SOL    HW118971   3.658   2.215   1.369  1.3778  0.4427 -0.1255
 2504SOL    HW218972   3.566   2.137   1.283  0.2399  0.3307  1.5654
 2505SOL     OW18973   4.638   2.165   3.569 -0.2674  0.4860 -0.6950
 2505SOL    HW118974   4.703   2.232   3.585 -0.8761  0.4493  2.0019
 2505SOL    HW218975   4.566   2.194   3.626  0.2386  0.2883  0.0390
 2506SOL     OW18976   2.734   0.300  17.638  0.0283  0.2084  0.1500
 2506SOL    HW118977   2.774   0.386  17.654  0.2177 -0.1677  1.7078
 2506SOL    HW218978   2.716   0.315  17.545  1.3380 -1.3321 -0.3546
 2507SOL     OW18979   4.348   0.263   5.531 -0.2045  0.5799 -0.5672
 2507SOL    HW118980   4.347   0.341   5.588 -2.7235 -0.7975  1.2783
 2507SOL    HW218981   4.255   0.243   5.525 -0.3666  1.2251 -0.2345
 2508SOL     OW18982   2.455   1.386   5.072  0.5396 -0.2622 -0.3805
 2508SOL    HW118983   2.408   1.331   5.009 -0.0845  0.2602 -0.3697
 2508SOL    HW218984   2.379   1.431   5.107  1.3566 -0.0155  1.0761
 2509SOL     OW18985   0.034   2.747   4.648 -0.3826  0.2763 -0.2279
 2509SOL    HW118986   0.115   2.760   4.696 -0.8698  0.7891  0.4545
 2509SOL    HW218987   0.070   2.714   4.566 -2.1378 -1.5067 -0.2845
 2510SOL     OW18988   2.747   4.224   2.318 -0.3904 -0.2713 -0.0862
 2510SOL    HW118989   2.685   4.218   2.391 -0.7614  1.8145 -0.2546
 2510SOL    HW218990   2.727   4.316   2.301 -1.2168 -0.1633  1.4900
 2511SOL     OW18991   2.648   2.716   2.710 -0.9492 -0.3126  0.4275
 2511SOL    HW118992   2.675   2.624   2.713 -1.1819 -0.4669 -1.9754
 2511SOL    HW218993   2.736   2.752   2.718  0.9494 -4.4288 -1.6662
 2512SOL     OW18994   4.133   3.867   3.582  0.3841  0.2379 -0.1639
 2512SOL    HW118995   4.189   3.893   3.655 -0.1761  3.3094 -0.8087
 2512SOL    HW218996   4.058   3.865   3.642  1.4646  1.1253  1.2037
 2513SOL     OW18997   1.787   3.379   4.594 -0.8227 -0.2404 -0.1961
 2513SOL    HW118998   1.752   3.299   4.633 -1.5867  1.0723  1.7787
 2513SOL    HW218999   1.709   3.432   4.575 -0.1084  0.8283 -0.1752
 2514SOL     OW19000   2.527   0.990   5.104  0.0247 -0.1300  0.5760
 2514SOL    HW119001   2.512   0.922   5.170 -0.6380 -0.0124  0.5439
 2514SOL    HW219002   2.532   0.940   5.023 -0.4513  0.7126  0.0315
 2515SOL     OW19003   2.619   0.415  10.896 -0.5278  0.2956 -0.0415
 2515SOL    HW119004   2.644   0.507  10.902 -0.7758  0.3918 -0.4912
 2515SOL    HW219005   2.530   0.440  10.923 -0.1148  1.6439  0.0869
 2516SOL     OW19006   2.167   3.351   6.733 -0.1193 -0.5642 -0.7779
 2516SOL    HW119007   2.202   3.360   6.821  0.7021 -0.0492 -1.1665
 2516SOL    HW219008   2.157   3.256   6.721 -0.2225 -0.5447 -0.8483
 2517SOL     OW19009   2.675   4.258  10.142 -0.6668 -0.4275  0.1883
 2517SOL    HW119010   2.739   4.231  10.076  0.9183  0.0477  1.5071
 2517SOL    HW219011   2.611   4.189  10.124  2.1260 -3.0004 -0.0088
 2518SOL     OW19012   3.506   4.451   6.892 -0.5913  0.7297  0.1034
 2518SOL    HW119013   3.497   4.479   6.984 -0.2931  0.4398  0.2191
 2518SOL    HW219014   3.537   4.361   6.900 -0.3595  0.7365 -0.7282
 2519SOL     OW19015   3.182   3.630   3.769  0.3361 -0.3382  0.2270
 2519SOL    HW119016   3.109   3.568   3.778 -1.2244  1.2315 -1.5658
 2519SOL    HW219017   3.142   3.710   3.736 -2.3588 -0.7804  2.4004
 2520SOL     OW19018   2.515   1.300  17.049 -0.8082  0.3568 -0.1295
 2520SOL    HW119019   2.538   1.255  16.967 -1.6021  0.4104 -0.3843
 2520SOL    HW219020   2.483   1.226  17.100  2.8856 -0.4573  1.0219
 2521SOL     OW19021   3.687   0.455   1.457 -0.4128 -0.4652  0.3715
 2521SOL    HW119022   3.732   0.404   1.524 -0.3239  1.4344  1.7633
 2521SOL    HW219023   3.719   0.542   1.481  0.2412 -0.2506 -1.2724
 2522SOL     OW19024   3.697   0.343   5.892 -0.6401  0.3558 -0.0175
 2522SOL    HW119025   3.738   0.389   5.965 -0.1877  2.6508 -1.6945
 2522SOL    HW219026   3.629   0.411   5.887 -1.5555 -0.7014 -1.8872
 2523SOL     OW19027   1.647   4.349  15.811 -0.1740  0.1786 -0.1590
 2523SOL    HW119028   1.608   4.429  15.848  0.5280 -0.6201  2.3340
 2523SOL    HW219029   1.605   4.342  15.726  0.6442  0.1880 -0.5704
 2524SOL     OW19030   0.484   0.157   9.710  0.2271  1.3261 -0.1207
 2524SOL    HW119031   0.524   0.233   9.668 -1.8220  2.9567  0.8889
 2524SOL    HW219032   0.516   0.170   9.799  1.0058  2.3119 -0.5402
 2525SOL     OW19033   4.614   1.820   5.267 -0.1214  0.1009 -0.0127
 2525SOL    HW119034   4.650   1.809   5.179  2.4017  0.1705  1.0004
 2525SOL    HW219035   4.684   1.791   5.325 -0.3676 -0.7208 -0.1239
 2526SOL     OW19036   0.297   3.313   7.022 -0.1166 -0.8734  0.1237
 2526SOL    HW119037   0.354   3.388   7.001 -1.3702  0.1810  0.4885
 2526SOL    HW219038   0.334   3.296   7.109  0.3027  1.8414  0.4948
 2527SOL     OW19039   4.485   1.261   2.270  0.2847  0.0790 -0.3477
 2527SOL    HW119040   4.570   1.223   2.294  0.0025 -0.4758 -0.2128
 2527SOL    HW219041   4.434   1.246   2.350 -0.6776  0.1227 -0.9633
 2528SOL     OW19042   1.612   3.415   2.588 -0.5363  0.2331 -0.2454
 2528SOL    HW119043   1.686   3.362   2.560 -0.0573  1.4973 -1.3560
 2528SOL    HW219044   1.533   3.360   2.584  0.3661 -1.2974  2.9769
 2529SOL     OW19045   0.480   2.040   7.816 -0.9626  0.1201  0.5506
 2529SOL    HW119046   0.444   2.009   7.898 -0.0083 -2.7858 -0.1420
 2529SOL    HW219047   0.417   2.109   7.796  0.5039  1.1475 -0.6016
 2530SOL     OW19048   2.247   1.282   7.171  0.4551  0.1839 -0.3477
 2530SOL    HW119049   2.314   1.285   7.240  0.0182  1.2170  0.0306
 2530SOL    HW219050   2.294   1.270   7.089 -0.9364 -0.4063 -1.0599
 2531SOL     OW19051   2.035   0.349   2.003 -0.7251  0.0791 -0.7052
 2531SOL    HW119052   2.072   0.264   2.025  2.3855  1.4407 -0.6228
 2531SOL    HW219053   1.973   0.359   2.076  0.7570  1.6130  0.3617
 2532SOL     OW19054   3.895   3.989   9.687 -0.1042  0.3370 -0.1278
 2532SOL    HW119055   3.851   4.063   9.728  0.2284  0.6477 -0.3251
 2532SOL    HW219056   3.986   4.018   9.697  0.3262 -1.3882  0.9813
 2533SOL     OW19057   4.567   2.612  13.584 -0.9922 -0.4631  0.3014
 2533SOL    HW119058   4.507   2.587  13.513  0.0065 -1.4884 -0.1833
 2533SOL    HW219059   4.583   2.705  13.574 -2.0513 -0.1413  1.6103
 2534SOL     OW19060   3.574   3.737  17.518  0.5138  0.1497  0.2950
 2534SOL    HW119061   3.563   3.821  17.563 -2.1786 -0.2674  0.3884
 2534SOL    HW219062   3.646   3.706  17.572 -0.1346 -0.1319  0.9860
 2535SOL     OW19063   0.594   1.405  17.089  0.3493  0.2134 -0.4197
 2535SOL    HW119064   0.606   1.322  17.043  3.5890 -0.6481  2.0318
 2535SOL    HW219065   0.569   1.372  17.175  0.0309 -0.7057 -0.8626
 2536SOL     OW19066   4.133   1.890  11.597 -0.3247  0.0332  0.3740
 2536SOL    HW119067   4.196   1.823  11.570  0.7186  1.5548 -0.9740
 2536SOL    HW219068   4.090   1.896  11.511 -1.0109  0.2350  0.7296
 2537SOL     OW19069   2.310   1.082   2.611 -0.7532 -0.6173 -0.3835
 2537SOL    HW119070   2.230   1.105   2.565 -1.5034 -3.5250 -0.5824
 2537SOL    HW219071   2.382   1.120   2.561 -0.5532  1.8326  1.8073
 2538SOL     OW19072   3.984   4.146   4.117  0.4586  0.0863 -0.6417
 2538SOL    HW119073   4.054   4.132   4.181  0.2445  0.2726 -0.3657
 2538SOL    HW219074   4.034   4.131   4.037 -0.4040 -3.0958 -0.6124
 2539SOL     OW19075   1.598   1.418   0.865  0.0198 -0.4739  0.3530
 2539SOL    HW119076   1.640   1.492   0.909  0.3397  0.0494 -0.8340
 2539SOL    HW219077   1.504   1.439   0.871  0.1805  0.2736  0.2291
 2540SOL     OW19078   0.168   1.926  12.270  0.5151 -0.6909  0.1590
 2540SOL    HW119079   0.162   1.947  12.363  2.9704 -4.2079  1.1126
 2540SOL    HW219080   0.073   1.934  12.259  0.4920  2.1782  2.3379
 2541SOL     OW19081   0.292   3.520   7.880 -0.5483  0.1248 -0.2680
 2541SOL    HW119082   0.371   3.489   7.835  0.7866  1.3758  1.2141
 2541SOL    HW219083   0.228   3.455   7.851 -0.4348 -0.5551  1.0383
 2542SOL     OW19084   4.335   3.491   4.897 -0.2734  0.2082 -0.1831
 2542SOL    HW119085   4.369   3.506   4.809 -1.0314 -0.9707 -0.6722
 2542SOL    HW219086   4.278   3.418   4.872  0.5620 -0.9980  1.4846
 2543SOL     OW19087   1.286   2.525   2.506 -0.1661 -0.0930 -0.0958
 2543SOL    HW119088   1.323   2.485   2.585  0.8348  0.9652 -0.0207
 2543SOL    HW219089   1.278   2.449   2.449 -1.4877  1.3389 -1.8044
 2544SOL     OW19090   2.784   0.689   7.099 -0.0260  0.3041  0.6112
 2544SOL    HW119091   2.761   0.596   7.103 -1.1116  0.5610  0.2919
 2544SOL    HW219092   2.738   0.735   7.169 -1.2723  1.2583 -0.8100
 2545SOL     OW19093   3.423   3.157  16.274  0.4809 -0.0357 -0.1671
 2545SOL    HW119094   3.490   3.207  16.322 -0.1206 -0.8169  1.5011
 2545SOL    HW219095   3.339   3.197  16.300  1.6144  2.0106  0.4008
 2546SOL     OW19096   1.957   3.373   1.554 -0.0976 -0.2935 -0.3938
 2546SOL    HW119097   1.966   3.457   1.509  2.5457 -0.5688 -0.3568
 2546SOL    HW219098   1.919   3.323   1.482  0.0176  0.7998 -1.2118
 2547SOL     OW19099   3.037   4.021  16.392 -0.3463 -0.3472 -0.3358
 2547SOL    HW119100   3.091   4.000  16.468 -0.8997 -0.4553  0.0236
 2547SOL    HW219101   2.954   3.983  16.420 -0.4002  1.8993  2.5470
 2548SOL     OW19102   1.656   3.189   7.536  0.5856  0.2491 -0.2610
 2548SOL    HW119103   1.620   3.111   7.577 -0.0075  1.6542  1.8846
 2548SOL    HW219104   1.686   3.228   7.618 -0.2314  0.9878 -0.3098
 2549SOL     OW19105   2.683   2.681   7.324  0.2353  0.7097  0.1805
 2549SOL    HW119106   2.671   2.745   7.394 -0.2171  0.2089  0.5580
 2549SOL    HW219107   2.762   2.640   7.360  0.5096  2.2160  1.3004
 2550SOL     OW19108   3.982   0.574   7.690  0.0471  0.2337  0.0768
 2550SOL    HW119109   3.963   0.492   7.644 -0.7911  1.1021 -1.1470
 2550SOL    HW219110   3.975   0.561   7.784 -3.4597  2.7594  0.1737
 2551SOL     OW19111   1.008   2.827   4.471 -0.2246 -0.3331  0.5210
 2551SOL    HW119112   1.047   2.877   4.400 -0.0247 -0.1442  0.7618
 2551SOL    HW219113   1.071   2.850   4.539 -0.3708  0.5618  0.3565
 2552SOL     OW19114   1.572   0.845   7.880 -0.6798 -0.0201 -0.0555
 2552SOL    HW119115   1.551   0.761   7.839 -0.5909  0.0881 -0.3298
 2552SOL    HW219116   1.559   0.822   7.972 -0.7018 -1.6556 -0.4742
 2553SOL     OW19117   1.413   1.363   7.858 -0.4733  0.1916  0.1203
 2553SOL    HW119118   1.432   1.274   7.886  0.1622 -0.4222 -2.2204
 2553SOL    HW219119   1.434   1.405   7.941 -0.2298 -0.2478  0.2839
 2554SOL     OW19120   0.592   1.616   1.760  0.3376 -0.5666 -0.4267
 2554SOL    HW119121   0.525   1.566   1.712 -0.4964 -1.2069  1.4173
 2554SOL    HW219122   0.593   1.558   1.836  1.5038 -0.4410 -0.3522
 2555SOL     OW19123   0.750   3.851   2.914 -0.3339 -0.5290 -0.1672
 2555SOL    HW119124   0.735   3.798   2.992 -0.3974  0.2913  0.3670
 2555SOL    HW219125   0.831   3.811   2.883 -1.5224 -1.2295 -2.4063
 2556SOL     OW19126   3.383   2.245   2.052  0.0048 -0.1561  0.1635
 2556SOL    HW119127   3.449   2.175   2.052 -0.3882 -0.5226 -2.1063
 2556SOL    HW219128   3.331   2.209   1.980  0.4958 -0.5858  0.0196
 2557SOL     OW19129   0.740   3.922   9.769  0.0639 -0.2197  0.0234
 2557SOL    HW119130   0.831   3.944   9.749 -0.1227  0.0171 -0.5580
 2557SOL    HW219131   0.745   3.943   9.862  0.5795 -1.8536  0.3658
 2558SOL     OW19132   2.922   0.175   4.972  0.2717 -0.3226 -0.5131
 2558SOL    HW119133   2.851   0.174   5.035 -0.3991  1.1879 -1.2481
 2558SOL    HW219134   2.931   0.265   4.942  0.1178  0.3755  1.5760
 2559SOL     OW19135   0.488   3.621   0.471  0.1469 -0.0980 -0.2988
 2559SOL    HW119136   0.466   3.664   0.553  2.1944  0.5410 -0.0671
 2559SOL    HW219137   0.450   3.684   0.409  0.0208 -1.0697 -1.2171
 2560SOL     OW19138   4.429   1.305   5.803 -0.0019  0.5605  0.2919
 2560SOL    HW119139   4.469   1.334   5.885 -1.6146 -1.0972  1.6639
 2560SOL    HW219140   4.491   1.319   5.731  0.2170 -3.4246 -0.3372
 2561SOL     OW19141   0.935   3.910  16.152  0.1338  0.0841  0.3080
 2561SOL    HW119142   0.908   3.818  16.144  0.1681  0.2206 -1.4452
 2561SOL    HW219143   1.014   3.891  16.202  1.2010 -0.0218 -1.4050
 2562SOL     OW19144   4.513   1.028   2.445  0.1294 -0.7001 -0.0694
 2562SOL    HW119145   4.604   1.003   2.430 -0.1268 -0.8037 -1.4560
 2562SOL    HW219146   4.510   1.040   2.540 -0.4661 -0.0619 -0.1752
 2563SOL     OW19147   4.342   2.167  17.050 -0.5502 -0.0396 -0.0558
 2563SOL    HW119148   4.295   2.247  17.024 -2.4357 -1.3212 -0.5789
 2563SOL    HW219149   4.394   2.148  16.973  1.6247  0.2942  1.3325
 2564SOL     OW19150   0.045   3.126   1.158 -0.7849  0.2410 -0.5112
 2564SOL    HW119151   4.707   3.054   1.171  0.8649 -1.2341 -0.7482
 2564SOL    HW219152   0.058   3.114   1.064 -1.7097  0.9748 -0.7352
 2565SOL     OW19153   4.453   4.329  14.481 -0.5936 -0.1505  0.4174
 2565SOL    HW119154   4.383   4.283  14.527 -1.3029 -0.0794 -0.5947
 2565SOL    HW219155   4.440   4.415  14.523 -1.5271 -0.6020  1.0427
 2566SOL     OW19156   1.406   0.481  11.463  0.2850 -0.2215 -0.0478
 2566SOL    HW119157   1.470   0.524  11.406  1.3862 -2.5822 -0.5479
 2566SOL    HW219158   1.473   0.426  11.505  0.9217 -0.3040 -1.1896
 2567SOL     OW19159   3.875   3.765   5.126  0.1574 -0.1485 -1.0151
 2567SOL    HW119160   3.854   3.812   5.045  1.6450  2.2592 -0.0099
 2567SOL    HW219161   3.949   3.814   5.163  1.2577 -1.1797 -1.8223
 2568SOL     OW19162   2.625   1.118   4.753 -0.2199 -0.7141  0.5974
 2568SOL    HW119163   2.665   1.139   4.668 -1.0973 -2.1492 -0.1733
 2568SOL    HW219164   2.540   1.086   4.723 -0.5175 -1.2316  1.9874
 2569SOL     OW19165   4.644   0.704   3.462 -0.1913  0.1734 -0.4684
 2569SOL    HW119166   4.667   0.647   3.389 -1.8709  0.7420 -1.4424
 2569SOL    HW219167   4.672   0.645   3.532 -1.6463  3.2156  2.7171
 2570SOL     OW19168   2.666   2.799   0.627  0.0165 -0.1317 -0.3542
 2570SOL    HW119169   2.672   2.705   0.612 -1.4627 -0.2458 -0.2467
 2570SOL    HW219170   2.758   2.822   0.640  0.8185 -2.3861 -2.1156
 2571SOL     OW19171   0.129   0.138  15.663  0.6727  0.5626  0.5699
 2571SOL    HW119172   0.055   0.197  15.646 -0.0819  0.1753  2.5533
 2571SOL    HW219173   0.170   0.143  15.576  0.1974  1.3077  0.3853
 2572SOL     OW19174   1.471   3.658   8.018 -0.0560  0.7956 -0.0136
 2572SOL    HW119175   1.386   3.689   7.988 -0.2439 -0.0456 -0.3765
 2572SOL    HW219176   1.464   3.692   8.107  1.7074 -1.2204  0.9055
 2573SOL     OW19177   3.485   3.238   4.321  0.4442 -0.0473  0.0018
 2573SOL    HW119178   3.405   3.186   4.322  1.4075 -1.4476  3.7354
 2573SOL    HW219179   3.465   3.298   4.393  0.7249  0.6521 -0.4986
 2574SOL     OW19180   1.143   3.257   1.316 -0.0613  0.1107 -0.4188
 2574SOL    HW119181   1.112   3.192   1.254 -0.8094 -0.1816  0.2537
 2574SOL    HW219182   1.094   3.242   1.397 -0.0578  2.2729 -0.0069
 2575SOL     OW19183   4.628   2.813   0.773  0.2215  0.3207  0.2179
 2575SOL    HW119184   4.537   2.794   0.749  0.4322 -2.4108  1.5061
 2575SOL    HW219185   4.654   2.902   0.750  0.0028  0.1945 -0.5164
 2576SOL     OW19186   1.742   3.105   5.921 -0.1211 -0.3068  1.0126
 2576SOL    HW119187   1.776   3.118   5.833 -1.0212 -1.4794  0.4842
 2576SOL    HW219188   1.668   3.047   5.905  1.5037 -1.7707 -1.2580
 2577SOL     OW19189   2.410   0.697   4.607 -0.0077 -0.5504  0.4242
 2577SOL    HW119190   2.492   0.652   4.585  1.4503  1.6152  1.4189
 2577SOL    HW219191   2.423   0.773   4.550  3.6227 -2.8829 -1.8613
 2578SOL     OW19192   1.692   1.402   6.692 -0.0494 -0.3126  0.2368
 2578SOL    HW119193   1.716   1.474   6.749 -3.5607  1.9828 -1.1952
 2578SOL    HW219194   1.606   1.382   6.729 -1.6393  1.6036 -2.4559
 2579SOL     OW19195   4.470   1.139   6.643  0.2625 -0.2251  0.1729
 2579SOL    HW119196   4.531   1.143   6.717 -1.1526  1.3477  1.2260
 2579SOL    HW219197   4.503   1.059   6.601 -1.1010 -1.5339  1.5964
 2580SOL     OW19198   4.284   0.175   7.115  0.1812 -0.1129  0.9680
 2580SOL    HW119199   4.286   0.208   7.026 -3.2461  0.8077  1.2104
 2580SOL    HW219200   4.221   0.103   7.120  0.9066 -0.8018  0.0461
 2581SOL     OW19201   2.522   0.637   1.938  0.5592 -0.1086  0.1505
 2581SOL    HW119202   2.468   0.596   1.870  1.6792 -1.6681  0.2259
 2581SOL    HW219203   2.470   0.714   1.961  0.3683 -0.5401  1.1414
 2582SOL     OW19204   1.249   3.115   9.319 -0.3304  0.4033  0.1907
 2582SOL    HW119205   1.193   3.100   9.395 -0.1675  1.0357  0.4376
 2582SOL    HW219206   1.188   3.170   9.269 -1.6304 -1.6860 -0.5061
 2583SOL     OW19207   3.570   0.542   8.110  0.0262  0.4663 -0.1288
 2583SOL    HW119208   3.665   0.558   8.106  0.1154 -0.0153  0.0956
 2583SOL    HW219209   3.550   0.587   8.193  1.0434 -0.7848  0.7984
 2584SOL     OW19210   0.984   0.222  17.003 -0.5166 -0.3437  0.4201
 2584SOL    HW119211   1.026   0.304  16.979 -0.9234 -0.2528  0.0101
 2584SOL    HW219212   0.893   0.250  16.993  0.0621  1.1750 -0.5780
 2585SOL     OW19213   0.219   2.146  10.459 -0.0417 -0.2685  0.4028
 2585SOL    HW119214   0.222   2.051  10.472  1.6595 -0.1042  1.1801
 2585SOL    HW219215   0.136   2.149  10.410 -1.6397 -1.1407  3.0330
 2586SOL     OW19216   3.926   4.478  14.691  0.0378  0.1328 -0.2078
 2586SOL    HW119217   3.965   4.397  14.722 -1.2978 -1.3421 -2.3788
 2586SOL    HW219218   3.957   4.475  14.600  1.3300 -0.2685  0.2569
 2587SOL     OW19219   0.038   4.481   4.431  0.2675  0.6525 -0.0679
 2587SOL    HW119220   0.000   4.397   4.459 -2.7533  2.0437  0.0106
 2587SOL    HW219221   0.042   4.528   4.514 -1.4191 -0.3670  0.5910
 2588SOL     OW19222   3.445   0.572  14.760 -0.3102 -0.0077  0.3493
 2588SOL    HW119223   3.435   0.665  14.741 -1.4921  0.2642  2.3047
 2588SOL    HW219224   3.533   0.561  14.724 -0.3747  3.7314 -0.9055
 2589SOL     OW19225   3.983   0.074   8.170 -0.0980 -0.0348  0.2040
 2589SOL    HW119226   3.941   4.713   8.177  1.0658 -0.6166  0.0801
 2589SOL    HW219227   3.996   0.105   8.259  0.2591 -1.0207  0.4894
 2590SOL     OW19228   3.393   2.299  12.448 -0.0759 -0.1191  0.3932
 2590SOL    HW119229   3.345   2.254  12.379  1.5752  1.4024 -1.7444
 2590SOL    HW219230   3.328   2.366  12.468 -0.8527  0.5276 -4.3408
 2591SOL     OW19231   0.252   0.267  13.900  0.1847 -0.1450 -0.2137
 2591SOL    HW119232   0.330   0.262  13.845 -0.1744 -0.4342 -0.6910
 2591SOL    HW219233   0.248   0.361  13.918 -2.1814 -0.0997 -0.9897
 2592SOL     OW19234   4.385   2.217   6.441  0.3640  0.2589 -0.5752
 2592SOL    HW119235   4.340   2.273   6.378  0.8244 -0.1906 -1.3168
 2592SOL    HW219236   4.468   2.202   6.396  1.0607 -2.8381  1.7382
 2593SOL     OW19237   1.222   3.374   9.719 -0.6667  0.2035 -0.2948
 2593SOL    HW119238   1.217   3.439   9.789 -1.1423 -0.8475  0.6400
 2593SOL    HW219239   1.285   3.417   9.661  1.7661 -3.0307 -0.0460
 2594SOL     OW19240   0.714   2.814   6.160 -0.2523 -0.3732  0.5528
 2594SOL    HW119241   0.800   2.781   6.132 -1.3321 -3.5928  1.1195
 2594SOL    HW219242   0.714   2.771   6.245  2.1422  0.1109  0.8189
 2595SOL     OW19243   2.032   4.252   1.824  0.0292  0.3209  0.0558
 2595SOL    HW119244   1.996   4.209   1.747  1.0324 -2.5501  1.1878
 2595SOL    HW219245   2.046   4.335   1.777 -0.7605 -0.9559 -2.4268
 2596SOL     OW19246   2.510   1.096  13.765  0.1530 -0.1523  0.0730
 2596SOL    HW119247   2.519   1.138  13.851  1.4999  0.2101 -0.2403
 2596SOL    HW219248   2.486   1.169  13.708  0.2426 -0.3656 -0.2382
 2597SOL     OW19249   2.476   3.318  12.714  0.0929  0.5052 -0.2985
 2597SOL    HW119250   2.514   3.381  12.776  1.0193 -0.2158 -0.1290
 2597SOL    HW219251   2.427   3.267  12.778  1.9872  1.6759  2.1133
 2598SOL     OW19252   4.044   4.377   8.553  0.4468 -0.3396 -0.0549
 2598SOL    HW119253   4.134   4.363   8.583  0.8513  1.4533 -0.4121
 2598SOL    HW219254   4.002   4.411   8.633 -0.8473 -0.6841 -0.5810
 2599SOL     OW19255   3.393   2.069   0.134 -0.2409  0.4524 -0.0117
 2599SOL    HW119256   3.405   2.136   0.202  0.5713  0.4070 -0.1029
 2599SOL    HW219257   3.435   1.992   0.172 -1.2898 -0.3930 -0.5854
 2600SOL     OW19258   1.491   4.359   9.789 -0.3718 -0.3553  0.5937
 2600SOL    HW119259   1.502   4.364   9.884  0.3652  1.0360  0.4411
 2600SOL    HW219260   1.403   4.395   9.774  0.7282  1.4130 -1.6155
 2601SOL     OW19261   4.145   2.712   1.791 -0.4483  0.2492 -0.3911
 2601SOL    HW119262   4.183   2.628   1.815 -0.2606  0.3222 -0.4383
 2601SOL    HW219263   4.179   2.767   1.861 -0.7070 -0.7943  0.5529
 2602SOL     OW19264   1.930   2.743   8.354 -0.7861 -0.5140  0.3390
 2602SOL    HW119265   1.906   2.826   8.312 -0.3750  0.3861  1.9008
 2602SOL    HW219266   2.009   2.715   8.307  1.3365 -0.4054  3.8448
 2603SOL     OW19267   1.913   1.221   6.377 -0.1747 -0.5512 -0.5012
 2603SOL    HW119268   1.827   1.181   6.393  1.0480 -3.3459 -0.8797
 2603SOL    HW219269   1.959   1.144   6.411 -1.4718 -1.0337  0.1781
 2604SOL     OW19270   1.022   4.662   0.044 -0.2721  0.2417  0.9805
 2604SOL    HW119271   1.106   4.708   0.047  0.0786 -0.3919  0.8807
 2604SOL    HW219272   0.975   4.707   0.114 -0.8251  1.3199 -0.0859
 2605SOL     OW19273   2.072   3.882  16.810 -0.0077  0.3305  0.2381
 2605SOL    HW119274   2.006   3.834  16.860 -1.6613  0.4502 -1.8084
 2605SOL    HW219275   2.016   3.942  16.761 -3.3774 -2.5021  0.7008
 2606SOL     OW19276   4.638   3.855  16.900 -0.3533  0.4768  0.1279
 2606SOL    HW119277   4.600   3.893  16.980  0.0866  0.0311  0.5511
 2606SOL    HW219278   4.691   3.930  16.873 -0.2623  0.0755 -0.7869
 2607SOL     OW19279   0.682   1.965   4.966  0.1854  0.0183 -0.0640
 2607SOL    HW119280   0.743   1.909   4.918  0.9017  0.9368 -0.2428
 2607SOL    HW219281   0.715   2.043   4.922 -1.9253 -1.0748 -3.5088
 2608SOL     OW19282   2.402   3.471   9.268  0.3811 -0.4304  0.1595
 2608SOL    HW119283   2.432   3.548   9.219 -1.9640 -0.3402 -1.1500
 2608SOL    HW219284   2.359   3.518   9.340  0.4538 -0.7328  0.3986
 2609SOL     OW19285   1.400   1.834   6.630  0.0049 -0.1056  0.2086
 2609SOL    HW119286   1.310   1.861   6.649 -0.6922 -0.4755 -2.6447
 2609SOL    HW219287   1.441   1.921   6.636 -1.2857  0.3898  2.1771
 2610SOL     OW19288   3.043   0.889  10.013  0.4004 -0.5941  0.2399
 2610SOL    HW119289   2.978   0.830  10.049 -0.0456 -0.0332  0.3644
 2610SOL    HW219290   3.100   0.817   9.985 -0.2652 -1.2781  0.6850
 2611SOL     OW19291   1.965   4.598  16.802  0.4605 -0.9360  0.0765
 2611SOL    HW119292   2.049   4.581  16.845 -0.7825 -0.9419  2.4718
 2611SOL    HW219293   1.917   4.515  16.804 -1.1653  0.0729  2.1342
 2612SOL     OW19294   4.115   0.913   3.651  0.0523  0.1927  0.0106
 2612SOL    HW119295   4.076   0.828   3.670  0.0197  0.3748  0.7777
 2612SOL    HW219296   4.203   0.891   3.623  0.5458  1.2177  0.7405
 2613SOL     OW19297   2.658   1.026   8.811  0.4801  0.7736 -0.5281
 2613SOL    HW119298   2.741   0.999   8.851 -0.8267 -1.6005  0.5756
 2613SOL    HW219299   2.671   1.121   8.800  1.0230  0.7810  0.1972
 2614SOL     OW19300   0.618   3.404   1.726  0.0845  0.4208  0.0034
 2614SOL    HW119301   0.544   3.353   1.758  0.0976  1.7669  2.1802
 2614SOL    HW219302   0.658   3.331   1.680  0.3829  0.1946  0.6173
 2615SOL     OW19303   1.599   4.113   9.624  0.0060 -0.4293 -0.4690
 2615SOL    HW119304   1.640   4.081   9.544  2.9818 -0.0791  0.9429
 2615SOL    HW219305   1.593   4.028   9.668 -0.7714  0.3176  0.8914
 2616SOL     OW19306   0.140   0.419   1.960 -0.0606  0.2880 -0.5267
 2616SOL    HW119307   0.112   0.437   1.870 -0.2940  0.8301 -0.3468
 2616SOL    HW219308   0.055   0.398   1.996  0.2734  2.0250  1.2748
 2617SOL     OW19309   0.864   3.244   6.252 -0.6945  0.1728  0.0663
 2617SOL    HW119310   0.872   3.287   6.337  0.2661  1.4994 -0.6986
 2617SOL    HW219311   0.883   3.314   6.190 -1.9224  2.3402  2.1034
 2618SOL     OW19312   2.980   2.266   1.638 -0.2005  0.1846  0.0222
 2618SOL    HW119313   3.032   2.210   1.581 -0.4858 -0.3794  0.3158
 2618SOL    HW219314   3.045   2.336   1.633 -0.4088  0.2865 -1.0876
 2619SOL     OW19315   1.615   3.857   5.106  0.2770 -0.2127 -0.1312
 2619SOL    HW119316   1.546   3.882   5.167 -1.9626  0.2504 -2.8853
 2619SOL    HW219317   1.663   3.800   5.166 -1.0725 -2.3321 -1.0629
 2620SOL     OW19318   4.101   4.453   4.694  0.2654  0.3915 -0.0402
 2620SOL    HW119319   4.057   4.510   4.757  0.5259 -0.4220  0.8703
 2620SOL    HW219320   4.101   4.500   4.610 -0.7063  0.9439  0.2734
 2621SOL     OW19321   3.029   3.821   3.173  0.1964  0.2018  0.3011
 2621SOL    HW119322   3.095   3.758   3.147  0.1439  0.7675 -1.2206
 2621SOL    HW219323   2.965   3.758   3.207 -0.6505  0.9919  0.1915
 2622SOL     OW19324   0.000   0.860   6.839  0.0814 -0.4826 -1.0595
 2622SOL    HW119325   0.012   0.797   6.767  0.5580  1.2108 -2.4562
 2622SOL    HW219326   0.081   0.846   6.889 -1.1783 -0.4260  0.9865
 2623SOL     OW19327   0.454   3.166   5.915  0.2295 -0.2427 -0.3145
 2623SOL    HW119328   0.487   3.160   6.005  0.8112 -1.0148 -0.5723
 2623SOL    HW219329   0.393   3.092   5.911  0.5391 -0.4206 -1.8540
 2624SOL     OW19330   3.811   3.817   7.560 -0.2355 -0.1812 -0.4132
 2624SOL    HW119331   3.730   3.868   7.554 -0.5070 -0.5063  0.5206
 2624SOL    HW219332   3.816   3.797   7.653 -0.9385  0.3753 -0.2568
 2625SOL     OW19333   1.420   1.560   5.992  0.3590  0.0003 -0.0028
 2625SOL    HW119334   1.367   1.633   5.961 -0.2211  0.1032  1.2148
 2625SOL    HW219335   1.376   1.488   5.947  1.9417  0.5169 -2.3652
 2626SOL     OW19336   4.085   4.370   5.889 -0.0828 -0.1109  0.6345
 2626SOL    HW119337   3.999   4.369   5.847 -0.4837 -1.3217  1.4914
 2626SOL    HW219338   4.096   4.278   5.912  1.3290  0.1789  1.1031
 2627SOL     OW19339   4.403   0.249   6.865 -0.4751  0.6740  0.1208
 2627SOL    HW119340   4.460   0.174   6.879 -0.8608  0.1786 -1.0349
 2627SOL    HW219341   4.423   0.263   6.773 -0.3587 -0.3814 -0.0092
 2628SOL     OW19342   0.235   0.742   3.547  0.0880 -0.1448  0.6816
 2628SOL    HW119343   0.177   0.813   3.574 -1.2651 -1.6968  1.8569
 2628SOL    HW219344   0.290   0.791   3.486 -1.8487 -0.0859 -1.0261
 2629SOL     OW19345   3.393   4.064   7.118 -0.2609  0.2796 -0.2175
 2629SOL    HW119346   3.411   4.093   7.208  0.5675  0.3956 -0.4212
 2629SOL    HW219347   3.317   4.121   7.109 -0.0661  0.3987 -1.0907
 2630SOL     OW19348   2.504   2.338  13.322  0.1545 -1.0283  0.7079
 2630SOL    HW119349   2.415   2.340  13.287 -0.2245  3.3512  1.9161
 2630SOL    HW219350   2.494   2.321  13.415  0.8857  1.0264  1.1584
 2631SOL     OW19351   0.805   1.391  11.029 -0.1402  0.2890  0.4317
 2631SOL    HW119352   0.801   1.304  10.989 -0.6170  1.1771 -1.4561
 2631SOL    HW219353   0.896   1.396  11.059  0.3298  0.6401 -1.0619
 2632SOL     OW19354   3.621   1.951   8.477  0.6009 -0.4590 -0.1244
 2632SOL    HW119355   3.529   1.926   8.470  0.5203 -0.5161  1.0451
 2632SOL    HW219356   3.635   2.005   8.399  0.3668 -1.3801 -0.7992
 2633SOL     OW19357   0.495   2.971   6.481  0.0865  0.2632  0.8962
 2633SOL    HW119358   0.546   3.030   6.536  0.4289  0.7967  0.0045
 2633SOL    HW219359   0.407   2.999   6.506  0.4963  2.9355 -0.6703
 2634SOL     OW19360   1.590   2.666  15.505  0.7966 -0.3253 -1.0291
 2634SOL    HW119361   1.528   2.736  15.524  0.1616 -0.5511 -2.2005
 2634SOL    HW219362   1.591   2.645  15.598  1.4590 -1.0254 -1.1900
 2635SOL     OW19363   0.078   4.500   5.275  0.1258  0.2469  0.0014
 2635SOL    HW119364   0.159   4.534   5.314 -0.2281 -1.1038  1.9066
 2635SOL    HW219365   0.062   4.435   5.344  1.4572  0.2352  0.2987
 2636SOL     OW19366   1.918   1.185   8.984  0.7872 -0.1033 -0.2398
 2636SOL    HW119367   1.843   1.244   8.988  2.0669  1.5362 -0.3457
 2636SOL    HW219368   1.905   1.137   9.066  0.5927  1.4187  0.6367
 2637SOL     OW19369   4.200   3.979   2.895 -0.1510  0.0424 -0.1408
 2637SOL    HW119370   4.258   3.951   2.965 -0.1113 -0.4676 -0.3749
 2637SOL    HW219371   4.258   3.935   2.833 -2.1453 -1.6540 -0.8379
 2638SOL     OW19372   3.809   0.478   6.903  0.3443  0.2514  0.0780
 2638SOL    HW119373   3.824   0.557   6.956 -1.6492  0.1251  0.8309
 2638SOL    HW219374   3.890   0.481   6.851  0.2463  2.0574  0.0371
 2639SOL     OW19375   4.632   1.036   0.488  0.0796 -0.3404  0.0727
 2639SOL    HW119376   4.556   0.979   0.485 -0.7242  0.7317  0.1341
 2639SOL    HW219377   4.676   0.998   0.565 -1.2245 -0.4578  0.7565
 2640SOL     OW19378   0.342   0.654   0.490 -0.2106 -0.2905  0.0519
 2640SOL    HW119379   0.369   0.672   0.400 -1.1045 -3.3679 -0.8309
 2640SOL    HW219380   0.276   0.721   0.506  0.5441  0.5766 -0.4667
 2641SOL     OW19381   3.731   0.979  14.129 -0.2765 -0.0051  0.0432
 2641SOL    HW119382   3.793   1.040  14.090  0.5546 -1.0877 -0.3576
 2641SOL    HW219383   3.800   0.935  14.179 -1.6582  0.0577  2.0278
 2642SOL     OW19384   2.616   3.414   3.585 -0.5079  0.5443  0.0004
 2642SOL    HW119385   2.641   3.324   3.565 -1.7265  0.4037 -0.9298
 2642SOL    HW219386   2.555   3.418   3.658  1.4974 -0.1441  1.6938
 2643SOL     OW19387   1.827   0.807  15.606  0.2980 -0.3127  0.7276
 2643SOL    HW119388   1.916   0.826  15.635 -0.6050  0.2191  3.1870
 2643SOL    HW219389   1.811   0.713  15.611  2.0362 -0.6441 -0.1865
 2644SOL     OW19390   4.082   3.910   2.581  0.5487  0.0658 -0.3865
 2644SOL    HW119391   4.097   3.993   2.626  0.6351  0.0077 -0.3084
 2644SOL    HW219392   4.175   3.889   2.579  0.3977 -0.7395  0.8674
 2645SOL     OW19393   2.255   3.427   8.136 -0.2696 -0.5874  0.2903
 2645SOL    HW119394   2.185   3.490   8.124  0.2761 -0.1576 -0.6696
 2645SOL    HW219395   2.322   3.458   8.074 -0.6907 -1.7126 -0.7306
 2646SOL     OW19396   4.110   3.907   2.300 -0.1636  0.1701 -0.2236
 2646SOL    HW119397   4.095   3.932   2.391 -0.1521 -2.6036  0.5613
 2646SOL    HW219398   4.199   3.877   2.281  0.6215  1.3837  1.5807
 2647SOL     OW19399   2.147   0.350   4.694  0.9335 -0.0362  0.7206
 2647SOL    HW119400   2.072   0.392   4.652  1.0129 -2.1572 -1.5888
 2647SOL    HW219401   2.119   0.260   4.675 -0.0590  0.6936 -1.2409
 2648SOL     OW19402   4.350   3.600   6.874  0.0306  0.0730  0.1626
 2648SOL    HW119403   4.348   3.559   6.787  1.1779 -1.1602  0.7189
 2648SOL    HW219404   4.374   3.524   6.927  2.8581  2.0601  1.7451
 2649SOL     OW19405   2.248   4.436   8.053 -0.0161  0.0292  0.1246
 2649SOL    HW119406   2.269   4.435   7.959 -2.1632 -0.2104 -0.3449
 2649SOL    HW219407   2.189   4.361   8.047 -1.3312  1.2147 -2.1004
 2650SOL     OW19408   2.340   0.030   4.078  0.3856  0.0375 -0.0183
 2650SOL    HW119409   2.363   0.108   4.129 -3.4007  1.6545 -0.7739
 2650SOL    HW219410   2.326   0.065   3.990 -1.0634 -0.8165 -0.1246
 2651SOL     OW19411   2.475   3.951   6.100  0.3174 -0.3147  0.1376
 2651SOL    HW119412   2.449   3.863   6.070 -0.1900 -0.0108 -0.3129
 2651SOL    HW219413   2.562   3.969   6.065 -0.9002 -0.0907 -2.6993
 2652SOL     OW19414   1.223   1.212   7.403  0.5886 -0.1325  0.7852
 2652SOL    HW119415   1.140   1.183   7.442 -0.8577  1.3832 -1.1982
 2652SOL    HW219416   1.284   1.212   7.476  0.6498 -0.8727  0.7334
 2653SOL     OW19417   3.966   4.371  11.236 -0.0969 -0.1500  0.2654
 2653SOL    HW119418   4.009   4.412  11.161 -0.1058 -1.5508 -0.5048
 2653SOL    HW219419   3.914   4.446  11.263 -2.5170 -1.6753 -0.1761
 2654SOL     OW19420   1.779   2.670   6.272 -0.7870  0.0542  0.1457
 2654SOL    HW119421   1.768   2.763   6.251  0.4014  0.1091 -0.2786
 2654SOL    HW219422   1.801   2.646   6.182  2.6060 -1.0067  1.2544
 2655SOL     OW19423   4.193   1.403   2.713  0.5388 -0.4322 -0.3119
 2655SOL    HW119424   4.216   1.314   2.686 -1.3797 -0.4637 -1.7810
 2655SOL    HW219425   4.191   1.390   2.808 -0.7301 -0.5272 -0.3533
 2656SOL     OW19426   1.932   3.499   4.990  0.7065 -0.5645  0.2719
 2656SOL    HW119427   1.852   3.518   4.941  0.0400  0.2470  1.6591
 2656SOL    HW219428   1.994   3.508   4.919 -0.3508  0.8588 -0.4694
 2657SOL     OW19429   0.133   1.143  10.476 -0.4075  0.1569 -0.3902
 2657SOL    HW119430   0.227   1.133  10.462 -0.1461 -1.8180  2.8780
 2657SOL    HW219431   0.103   1.081  10.542  3.2564 -1.5580 -0.3520
 2658SOL     OW19432   4.705   2.075  16.091  0.2678 -0.1199 -0.3862
 2658SOL    HW119433   4.651   2.143  16.051 -1.7062 -1.7966 -0.6155
 2658SOL    HW219434   0.027   2.047  16.012  0.3469 -0.7302 -0.1249
 2659SOL     OW19435   3.208   1.363   4.802 -0.1376  0.1461 -0.0490
 2659SOL    HW119436   3.188   1.366   4.896 -1.9315 -3.6422 -0.3389
 2659SOL    HW219437   3.288   1.311   4.797 -0.1804  0.0234  0.5701
 2660SOL     OW19438   2.952   4.294  12.997 -1.0862  0.0686 -0.2052
 2660SOL    HW119439   2.947   4.211  12.950 -1.3246 -0.5467  0.8954
 2660SOL    HW219440   3.039   4.325  12.971 -0.6248 -1.1575 -0.1380
 2661SOL     OW19441   4.476   3.528   6.133 -0.1931 -0.1612  0.3575
 2661SOL    HW119442   4.557   3.540   6.083  0.2219 -0.0543  1.0572
 2661SOL    HW219443   4.491   3.605   6.188  0.5809  0.9896 -1.4573
 2662SOL     OW19444   0.403   4.131   6.407 -0.1981  0.2236 -0.0933
 2662SOL    HW119445   0.441   4.144   6.321 -0.6449 -0.0921 -0.3416
 2662SOL    HW219446   0.314   4.121   6.374 -0.0718 -1.0031 -0.0727
 2663SOL     OW19447   3.380   2.166   2.547 -0.5360  0.6846  0.3330
 2663SOL    HW119448   3.364   2.226   2.474  1.4588  2.9811  1.7506
 2663SOL    HW219449   3.398   2.088   2.495 -0.0259  1.4892 -0.7168
 2664SOL     OW19450   0.176   2.231   3.009 -0.1937 -0.0225  0.2241
 2664SOL    HW119451   0.139   2.305   3.058 -0.9098  0.6253 -1.3026
 2664SOL    HW219452   0.132   2.161   3.058  1.2696  0.5928  2.4356
 2665SOL     OW19453   0.792   0.525   4.945 -0.6568 -0.0762 -0.3513
 2665SOL    HW119454   0.698   0.539   4.937 -0.5939  0.7395  0.2943
 2665SOL    HW219455   0.830   0.530   4.857  0.6703  1.5423  0.3016
 2666SOL     OW19456   2.465   3.137  11.049  0.0875  0.4462  0.7198
 2666SOL    HW119457   2.420   3.107  11.128 -1.1218  1.6353  0.4770
 2666SOL    HW219458   2.496   3.048  11.031  0.2334  0.1472  2.4528
 2667SOL     OW19459   0.568   0.119   8.834  0.1083  0.4791 -0.2463
 2667SOL    HW119460   0.641   0.148   8.888  0.9485 -0.7869 -0.7217
 2667SOL    HW219461   0.537   0.041   8.880  0.0093  0.5659 -0.1650
 2668SOL     OW19462   4.301   2.668  10.028  0.9756 -0.7102  0.1822
 2668SOL    HW119463   4.394   2.682  10.009  0.8140 -1.2354 -1.0084
 2668SOL    HW219464   4.285   2.740  10.089 -1.7349  0.0626 -1.4131
 2669SOL     OW19465   3.009   0.868   0.036 -0.4650  0.5197  0.1376
 2669SOL    HW119466   2.966   0.949   0.010 -0.6864  0.8365  1.5395
 2669SOL    HW219467   3.014   0.828  17.649 -2.4643 -0.1107  0.3139
 2670SOL     OW19468   1.128   2.698   0.118  0.1837 -0.0884  0.1333
 2670SOL    HW119469   1.066   2.627   0.134 -0.4276  0.4552  0.1612
 2670SOL    HW219470   1.156   2.691   0.027 -1.0805 -2.1934 -0.1029
 2671SOL     OW19471   1.515   1.027   8.809 -0.3033  0.0666 -0.0768
 2671SOL    HW119472   1.443   0.964   8.816 -2.0955  2.1293  0.1670
 2671SOL    HW219473   1.589   0.974   8.777 -0.7139 -1.0422  0.8239
 2672SOL     OW19474   1.509   4.317   2.412  0.4155  0.1928 -0.3108
 2672SOL    HW119475   1.430   4.289   2.366  0.6334  1.4963 -1.4668
 2672SOL    HW219476   1.575   4.266   2.365  0.3281  1.1179 -1.4080
 2673SOL     OW19477   3.765   1.214  17.500 -0.5297 -0.1388 -0.0564
 2673SOL    HW119478   3.815   1.159  17.559 -0.1343  0.6013  0.2865
 2673SOL    HW219479   3.744   1.283  17.563 -1.3734 -2.4467  2.1938
 2674SOL     OW19480   1.350   1.774   3.428 -0.7170  0.2162 -0.1102
 2674SOL    HW119481   1.275   1.802   3.481  0.9748  0.2543  2.2609
 2674SOL    HW219482   1.359   1.680   3.444 -1.4573  0.3355  1.0304
 2675SOL     OW19483   3.519   3.737   2.790  0.7662  0.0226 -0.1256
 2675SOL    HW119484   3.479   3.824   2.791  1.8393  0.4971  1.1115
 2675SOL    HW219485   3.441   3.683   2.777 -0.0265  0.9987  0.5196
 2676SOL     OW19486   1.305   3.024   2.946  0.1129 -0.3441  0.9509
 2676SOL    HW119487   1.219   2.983   2.932 -0.1712  0.9034 -0.8631
 2676SOL    HW219488   1.324   3.005   3.038  1.2279  0.2255  0.8300
 2677SOL     OW19489   3.326   3.457  12.057  0.2201  0.0917  0.2531
 2677SOL    HW119490   3.289   3.405  12.129  0.4599 -1.1461 -0.5209
 2677SOL    HW219491   3.241   3.498  12.044  0.4910  0.9045  0.9801
 2678SOL     OW19492   0.773   3.055   4.453 -0.0068  0.1739  0.2587
 2678SOL    HW119493   0.754   3.107   4.531 -2.5839 -1.1388  0.4794
 2678SOL    HW219494   0.784   2.969   4.492 -0.9298 -0.0429  0.0501
 2679SOL     OW19495   2.303   1.284   8.763  0.3733 -0.0415 -0.1027
 2679SOL    HW119496   2.337   1.308   8.849  0.0534 -0.9480  0.2753
 2679SOL    HW219497   2.330   1.361   8.713 -0.5013  0.3330  0.0018
 2680SOL     OW19498   2.073   4.310   0.876 -0.5101 -0.0134  0.4147
 2680SOL    HW119499   2.090   4.361   0.955 -0.3238 -0.3128  0.5680
 2680SOL    HW219500   2.144   4.246   0.873 -0.3473  0.2480 -1.4843
 2681SOL     OW19501   4.256   4.720  12.651 -0.1191  0.4028  0.4207
 2681SOL    HW119502   4.332   0.051  12.632  1.9577 -2.8652 -0.7601
 2681SOL    HW219503   4.297   4.657  12.710  2.3971  1.7570  0.1169
 2682SOL     OW19504   1.853   2.043  10.691  0.7437 -0.6276  0.7067
 2682SOL    HW119505   1.899   2.006  10.615 -0.6068  0.9861 -0.8940
 2682SOL    HW219506   1.903   2.006  10.763 -1.5261 -1.5166  1.8127
 2683SOL     OW19507   2.389   2.860   9.484 -0.3180  0.3466 -0.3758
 2683SOL    HW119508   2.376   2.954   9.476 -2.7478  0.0245 -0.1832
 2683SOL    HW219509   2.416   2.839   9.395  2.1793 -1.3993  0.7763
 2684SOL     OW19510   4.699   1.522   7.140 -0.3478 -0.1100  0.1219
 2684SOL    HW119511   4.713   1.617   7.131  0.2791 -0.3024 -0.8940
 2684SOL    HW219512   4.712   1.508   7.234 -2.2624  1.3090  0.5892
 2685SOL     OW19513   0.490   3.833   2.738  0.2919 -0.3952 -0.4662
 2685SOL    HW119514   0.464   3.905   2.681 -1.8028  0.2859  1.3341
 2685SOL    HW219515   0.570   3.869   2.776 -0.7310  0.6394  0.6789
 2686SOL     OW19516   2.486   1.269   6.543 -0.1139 -0.5504 -0.7772
 2686SOL    HW119517   2.539   1.348   6.548  0.1966 -0.9182  1.7564
 2686SOL    HW219518   2.411   1.287   6.600 -0.5553  0.5341 -1.6938
 2687SOL     OW19519   0.194   3.953  15.962 -0.0784 -0.2221 -0.3646
 2687SOL    HW119520   0.171   3.919  16.049 -0.5786 -1.4143 -0.9647
 2687SOL    HW219521   0.112   3.999  15.942  0.6999  1.0096 -0.6608
 2688SOL     OW19522   4.530   2.144   3.152 -0.7639  0.0334 -0.4434
 2688SOL    HW119523   4.472   2.203   3.200 -0.4142  0.5164 -0.6087
 2688SOL    HW219524   4.460   2.082   3.132 -1.8212  2.0488 -2.8825
 2689SOL     OW19525   3.786   1.824   1.581 -0.4789 -0.3572  0.4224
 2689SOL    HW119526   3.700   1.797   1.547 -0.6228  0.0963  0.4241
 2689SOL    HW219527   3.849   1.781   1.524 -0.4465  1.0889 -0.6428
 2690SOL     OW19528   3.493   2.266  12.712  0.7823 -0.3581  0.7105
 2690SOL    HW119529   3.430   2.291  12.644  0.0693 -3.1311  0.3720
 2690SOL    HW219530   3.547   2.203  12.663 -0.0940 -1.7190  1.5090
 2691SOL     OW19531   2.508   2.072   2.464  0.2741  0.2110  0.6582
 2691SOL    HW119532   2.568   2.000   2.446 -0.9943 -0.9720  1.1486
 2691SOL    HW219533   2.539   2.140   2.405 -0.3954 -0.8281 -0.9064
 2692SOL     OW19534   2.796   1.285   8.575 -0.0016  0.2652 -0.0897
 2692SOL    HW119535   2.842   1.366   8.552  0.7531  0.6694  2.9348
 2692SOL    HW219536   2.768   1.304   8.664  0.6355 -1.9258  0.5783
 2693SOL     OW19537   2.280   3.513   5.103  0.1765 -0.5910 -0.4075
 2693SOL    HW119538   2.192   3.548   5.118  0.2182 -1.2404  1.2762
 2693SOL    HW219539   2.259   3.421   5.092  1.1243 -0.9344  0.6847
 2694SOL     OW19540   3.154   2.357  13.900  0.6959 -0.5200  0.3142
 2694SOL    HW119541   3.145   2.410  13.821  0.2323 -1.0354  0.0164
 2694SOL    HW219542   3.087   2.401  13.952 -0.9043 -1.2350 -1.1299
 2695SOL     OW19543   0.074   4.245  12.488 -0.1483  0.0492 -0.5029
 2695SOL    HW119544   0.015   4.320  12.489 -3.7302 -2.7220 -0.9322
 2695SOL    HW219545   0.098   4.252  12.580  0.3662  0.2244 -0.6550
 2696SOL     OW19546   1.924   1.729   5.975  0.1826 -0.1246 -0.2156
 2696SOL    HW119547   1.915   1.824   5.973 -3.3429 -0.4865 -0.4539
 2696SOL    HW219548   1.890   1.711   6.063  0.6934  2.5916  0.5255
 2697SOL     OW19549   0.731   0.681   2.769  0.6446  0.3255 -0.2196
 2697SOL    HW119550   0.799   0.660   2.705 -1.3754  1.0473 -2.6125
 2697SOL    HW219551   0.668   0.732   2.719  3.1436  0.4840 -3.2151
 2698SOL     OW19552   3.749   1.661  14.826  0.4211 -0.6365 -0.3914
 2698SOL    HW119553   3.706   1.693  14.746  0.9606  3.7274  1.0903
 2698SOL    HW219554   3.786   1.740  14.865 -0.6400 -0.1787 -0.3143
 2699SOL     OW19555   4.562   1.986   7.196  0.6509  0.7239 -0.1111
 2699SOL    HW119556   4.471   1.998   7.168  0.6503  2.1076  0.5379
 2699SOL    HW219557   4.601   2.062   7.154  3.3179  0.7824  2.5124
 2700SOL     OW19558   4.177   2.512   5.110 -1.0635  0.0403  0.3090
 2700SOL    HW119559   4.156   2.420   5.093 -0.7609  0.1801 -0.8500
 2700SOL    HW219560   4.097   2.530   5.160 -0.5045 -0.5934  1.4180
 2701SOL     OW19561   4.230   3.550   3.931 -0.2388 -0.6729 -0.1689
 2701SOL    HW119562   4.319   3.522   3.913 -0.5287 -0.3530 -2.0651
 2701SOL    HW219563   4.180   3.530   3.852 -0.2061 -2.0839  0.1721
 2702SOL     OW19564   4.599   2.960   6.153 -0.1307 -0.0233  0.1397
 2702SOL    HW119565   4.694   2.960   6.140 -0.1991 -0.8402 -0.3725
 2702SOL    HW219566   4.587   3.055   6.156  0.8614  0.1692 -1.8755
 2703SOL     OW19567   4.143   0.637   4.274 -0.2874  0.6459 -0.4061
 2703SOL    HW119568   4.138   0.645   4.178  0.5450  1.1085 -0.4128
 2703SOL    HW219569   4.238   0.653   4.276  0.2019 -1.9903 -2.6114
 2704SOL     OW19570   1.422   2.223   4.433 -0.1108 -0.2923  0.3600
 2704SOL    HW119571   1.397   2.288   4.498 -0.2226 -1.4614  1.4856
 2704SOL    HW219572   1.381   2.263   4.356  0.8889  1.3588  0.6816
 2705SOL     OW19573   0.950   1.581   4.945  0.6420  0.7012 -0.0986
 2705SOL    HW119574   0.859   1.603   4.924  0.2776  0.5873  1.3885
 2705SOL    HW219575   0.987   1.652   4.997 -0.2111  1.1659 -0.1204
 2706SOL     OW19576   4.158   2.448  14.400 -0.0040  0.6732  0.0779
 2706SOL    HW119577   4.230   2.409  14.451 -0.2144  0.9054  0.5535
 2706SOL    HW219578   4.193   2.445  14.311  1.3244 -0.7642  0.6487
 2707SOL     OW19579   3.471   3.855   8.327 -0.2921  0.1183  0.2211
 2707SOL    HW119580   3.491   3.876   8.235 -1.6939  1.8631  0.3070
 2707SOL    HW219581   3.534   3.917   8.364 -0.3707 -0.1437  0.7897
 2708SOL     OW19582   4.079   3.904   5.271  0.4367  0.4697 -0.3678
 2708SOL    HW119583   4.167   3.880   5.242 -0.4701 -2.0895 -1.0044
 2708SOL    HW219584   4.067   3.852   5.350 -0.7745  1.0203 -0.1869
 2709SOL     OW19585   0.891   3.982  11.363 -0.1635 -0.3727  0.4902
 2709SOL    HW119586   0.845   3.911  11.319  0.1168 -1.2675  1.6546
 2709SOL    HW219587   0.824   4.013  11.424 -0.2307 -1.6438  1.0587
 2710SOL     OW19588   2.896   2.638   8.689  0.1202  0.3768  0.0081
 2710SOL    HW119589   2.885   2.704   8.621  1.3846  0.6494  0.0601
 2710SOL    HW219590   2.883   2.560   8.634  2.1278 -1.1005  1.6098
 2711SOL     OW19591   3.035   3.200   9.336 -0.2006  0.3963  0.1144
 2711SOL    HW119592   2.950   3.243   9.326 -0.5319 -0.9611 -3.0814
 2711SOL    HW219593   3.039   3.136   9.265  1.1999 -0.3969  0.9302
 2712SOL     OW19594   1.885   3.711   7.072 -0.1077  0.0332  0.2572
 2712SOL    HW119595   1.956   3.776   7.070  1.3941 -1.6227 -1.0385
 2712SOL    HW219596   1.805   3.761   7.085  0.5689  0.8013  1.4378
 2713SOL     OW19597   2.498   0.829   6.438 -0.9433  0.0352  0.3618
 2713SOL    HW119598   2.479   0.862   6.350 -1.9289  1.1976  1.0121
 2713SOL    HW219599   2.587   0.863   6.449 -0.5544 -0.6040 -0.8286
 2714SOL     OW19600   2.604   0.883  12.161  0.3704  0.3813 -0.2672
 2714SOL    HW119601   2.694   0.907  12.138 -0.4918  1.8417 -2.0624
 2714SOL    HW219602   2.615   0.788  12.157 -2.3607  0.0453  0.1953
 2715SOL     OW19603   3.374   1.108   8.346 -0.4227 -0.2750  0.1340
 2715SOL    HW119604   3.405   1.034   8.294  0.9227  1.4642 -1.5882
 2715SOL    HW219605   3.393   1.180   8.285 -0.3557  0.2267  0.7504
 2716SOL     OW19606   2.260   0.719   4.978 -0.3301 -0.3182  0.2111
 2716SOL    HW119607   2.276   0.812   4.960 -3.3842 -0.4261 -3.1715
 2716SOL    HW219608   2.199   0.704   4.906  2.2903 -2.6790 -1.5315
 2717SOL     OW19609   3.582   4.589   5.406  0.2251 -0.1769  0.0704
 2717SOL    HW119610   3.628   4.506   5.422 -0.8954 -0.8410 -0.1871
 2717SOL    HW219611   3.504   4.564   5.356 -0.7761  2.7572  0.1822
 2718SOL     OW19612   3.681   2.401  12.085  0.0676  0.2469 -0.1430
 2718SOL    HW119613   3.701   2.461  12.013  2.0647  0.3624  0.4962
 2718SOL    HW219614   3.588   2.386  12.069  0.4061 -1.7261 -0.2499
 2719SOL     OW19615   2.596   2.574  16.733 -0.3263  0.4189  0.4443
 2719SOL    HW119616   2.583   2.659  16.692  0.3658  0.5450  0.4822
 2719SOL    HW219617   2.684   2.578  16.771 -0.2067  0.0254  0.2162
 2720SOL     OW19618   2.632   1.542  17.294 -0.2375  0.1646 -0.1116
 2720SOL    HW119619   2.573   1.563  17.221 -1.0490  0.5771  0.6527
 2720SOL    HW219620   2.716   1.574  17.262  0.2808 -1.8370 -0.7624
 2721SOL     OW19621   4.109   0.705   9.413  0.0388 -0.1108 -0.1913
 2721SOL    HW119622   4.069   0.698   9.499  0.0661  1.3470 -0.0579
 2721SOL    HW219623   4.162   0.625   9.416  1.6742  0.8629 -2.6393
 2722SOL     OW19624   0.131   0.675   6.373 -0.1200  0.1844 -0.3431
 2722SOL    HW119625   0.048   0.722   6.386 -0.9966 -0.8341 -2.2128
 2722SOL    HW219626   0.163   0.663   6.462 -2.4057  1.2845  0.6100
 2723SOL     OW19627   2.957   3.854   7.993  0.3879 -0.1811 -0.1058
 2723SOL    HW119628   2.881   3.873   7.938  0.0194 -1.4214 -0.0214
 2723SOL    HW219629   2.958   3.928   8.054  0.7385  0.9669 -1.4989
 2724SOL     OW19630   1.929   2.460   5.864 -0.0191 -0.0602  0.2886
 2724SOL    HW119631   1.899   2.372   5.840 -0.5647 -0.1263  1.2090
 2724SOL    HW219632   1.850   2.494   5.905  0.5170  1.4682  0.0393
 2725SOL     OW19633   2.570   3.105   1.891  0.3112 -0.0143 -0.4275
 2725SOL    HW119634   2.664   3.112   1.902  0.3542  0.2866 -0.9898
 2725SOL    HW219635   2.544   3.193   1.919 -0.6276 -1.0481  1.9917
 2726SOL     OW19636   1.362   0.764   6.182 -0.2763  0.1712 -0.1550
 2726SOL    HW119637   1.320   0.737   6.263  1.1127  1.7181  1.0755
 2726SOL    HW219638   1.298   0.743   6.114 -0.0995 -0.7102 -0.0463
 2727SOL     OW19639   4.161   0.263   7.858  0.1626  0.2376  0.2569
 2727SOL    HW119640   4.081   0.217   7.831  0.2798  0.9482 -1.2673
 2727SOL    HW219641   4.121   0.333   7.910 -0.6893  0.3952 -0.6000
 2728SOL     OW19642   3.441   2.621   1.467  0.2680  1.4283  0.0142
 2728SOL    HW119643   3.442   2.533   1.431 -1.7679  0.6780  1.8565
 2728SOL    HW219644   3.472   2.607   1.556 -1.3676  1.1917  0.5314
 2729SOL     OW19645   1.208   4.240   4.176  0.1102 -0.4841 -0.5101
 2729SOL    HW119646   1.209   4.207   4.086  0.4389 -1.1886 -0.2492
 2729SOL    HW219647   1.144   4.182   4.217 -0.6896  0.5699 -0.2831
 2730SOL     OW19648   3.527   4.448   3.429  0.7093  0.3254 -0.1157
 2730SOL    HW119649   3.561   4.407   3.349  0.6532  3.3492 -1.6903
 2730SOL    HW219650   3.546   4.542   3.421  1.7310  0.1667  0.3646
 2731SOL     OW19651   0.906   0.341   6.180 -0.1779 -0.1921 -0.1681
 2731SOL    HW119652   1.000   0.354   6.190  0.3016 -0.7634 -3.9112
 2731SOL    HW219653   0.902   0.331   6.085  0.5160  1.0791 -0.3340
 2732SOL     OW19654   2.784   3.451   7.741  0.1394 -0.3562  0.1773
 2732SOL    HW119655   2.815   3.456   7.831 -0.9335  0.9321  0.4880
 2732SOL    HW219656   2.807   3.537   7.706  0.0835  0.3585  1.8570
 2733SOL     OW19657   0.636   1.940   8.360 -0.0874  0.0537  0.6239
 2733SOL    HW119658   0.584   1.908   8.434  0.7831 -1.3288  0.6329
 2733SOL    HW219659   0.727   1.917   8.376  0.0740  0.2553  0.0129
 2734SOL     OW19660   2.978   2.255   5.852 -0.4765  0.6993 -0.0716
 2734SOL    HW119661   2.909   2.278   5.914 -0.4364 -0.1722  0.3039
 2734SOL    HW219662   2.940   2.176   5.812  0.4385  0.4757 -0.5034
 2735SOL     OW19663   4.125   1.256   8.740  0.3499 -0.2271  0.3721
 2735SOL    HW119664   4.055   1.228   8.681  0.1655  1.1471 -0.0552
 2735SOL    HW219665   4.203   1.208   8.710  1.7826  1.7954  0.8818
 2736SOL     OW19666   1.435   1.275   6.445 -0.7247 -0.1887 -0.2215
 2736SOL    HW119667   1.399   1.346   6.498 -0.7272 -0.5349  0.2474
 2736SOL    HW219668   1.412   1.310   6.359  0.9025 -1.2396 -1.1001
 2737SOL     OW19669   1.228   1.898   4.054 -0.3091  0.1569 -0.6467
 2737SOL    HW119670   1.134   1.887   4.072 -0.4391  0.2189 -1.2611
 2737SOL    HW219671   1.227   1.992   4.038  0.7177 -0.0670 -2.0273
 2738SOL     OW19672   1.559   1.793   5.529 -0.1975  0.2992 -0.5595
 2738SOL    HW119673   1.637   1.843   5.508  0.0509  0.8555  1.6199
 2738SOL    HW219674   1.500   1.868   5.528  0.7346  0.9726 -2.9240
 2739SOL     OW19675   3.970   2.256  14.076 -0.7206 -0.1148 -0.5795
 2739SOL    HW119676   4.018   2.319  14.130  0.7889 -1.8742  0.1393
 2739SOL    HW219677   3.987   2.288  13.988  1.5582 -2.6719 -1.0840
 2740SOL     OW19678   1.527   1.798   0.496  0.1719 -0.6174  0.0396
 2740SOL    HW119679   1.481   1.844   0.427 -1.2545 -0.0021  1.3932
 2740SOL    HW219680   1.571   1.871   0.539  0.6140  0.0424 -1.5428
 2741SOL     OW19681   0.733   0.485  14.644  0.6449  0.4755 -0.0244
 2741SOL    HW119682   0.686   0.450  14.568 -0.2679 -3.1210  2.2015
 2741SOL    HW219683   0.823   0.456  14.629  0.3038 -0.5713 -0.0162
 2742SOL     OW19684   2.411   1.171   7.633 -0.0602  0.3406  0.2052
 2742SOL    HW119685   2.347   1.138   7.696 -2.0432  1.7105 -1.0978
 2742SOL    HW219686   2.483   1.162   7.696 -0.0623 -1.7403 -0.0799
 2743SOL     OW19687   4.553   4.075   8.296 -0.2251 -0.2662 -0.2963
 2743SOL    HW119688   4.486   4.132   8.260 -1.5229 -1.6935 -0.1324
 2743SOL    HW219689   4.547   4.108   8.385 -1.0899 -1.4831  0.1041
 2744SOL     OW19690   2.300   3.790   4.831 -0.4595 -0.4281 -0.1412
 2744SOL    HW119691   2.323   3.882   4.842  0.7689 -0.9371  1.5860
 2744SOL    HW219692   2.267   3.798   4.742 -0.0750 -2.3670 -0.4623
 2745SOL     OW19693   4.434   4.657   9.397  0.0966  0.1452 -0.3919
 2745SOL    HW119694   4.407   4.629   9.485 -0.2902 -0.7254 -0.7833
 2745SOL    HW219695   4.438   0.026   9.415 -2.1393  0.1389  0.2023
 2746SOL     OW19696   4.042   0.102   7.635  0.0651  0.6612 -0.1881
 2746SOL    HW119697   4.133   0.077   7.620 -0.4804 -0.0138 -2.4721
 2746SOL    HW219698   4.009   0.029   7.687  0.0342  1.3746  0.7996
 2747SOL     OW19699   4.625   0.689   0.585 -0.3887  0.0626 -0.1819
 2747SOL    HW119700   4.558   0.726   0.528  0.6976 -0.6534 -1.9267
 2747SOL    HW219701   4.641   0.606   0.539  0.9166 -0.1208  0.6113
 2748SOL     OW19702   2.901   0.077  15.657 -0.1047  0.5279  0.6061
 2748SOL    HW119703   2.876   4.719  15.615 -0.9650  0.5442  1.0775
 2748SOL    HW219704   2.890   0.142  15.587  1.7732  1.5401  1.2650
 2749SOL     OW19705   4.303   2.676  17.219  0.2569 -0.1930 -0.2348
 2749SOL    HW119706   4.398   2.682  17.215  0.1907  0.4175 -0.8652
 2749SOL    HW219707   4.291   2.686  17.314 -0.9008  3.0600 -0.7213
 2750SOL     OW19708   1.035   1.275  11.172 -0.2019 -0.0654 -0.2692
 2750SOL    HW119709   1.112   1.284  11.116 -0.4563  0.4596 -0.5367
 2750SOL    HW219710   1.017   1.181  11.166  1.0235 -0.4768  2.3852
 2751SOL     OW19711   1.065   1.157   5.301 -0.2247 -0.9052 -0.0382
 2751SOL    HW119712   1.007   1.092   5.342  0.9840 -1.7298  0.3673
 2751SOL    HW219713   1.112   1.190   5.377 -3.1086  2.4263  0.2921
 2752SOL     OW19714   2.294   2.305   8.284 -0.7208 -0.1204  0.7836
 2752SOL    HW119715   2.254   2.221   8.307 -1.1314  0.2914  1.5873
 2752SOL    HW219716   2.278   2.304   8.190  0.5152 -1.2122  0.5879
 2753SOL     OW19717   0.792   0.671   3.973 -0.0401 -0.3490 -0.2182
 2753SOL    HW119718   0.788   0.692   3.880  2.6425  2.2425  0.2510
 2753SOL    HW219719   0.853   0.597   3.969  1.0832  0.7317 -2.6600
 2754SOL     OW19720   0.803   2.347  13.937  0.0190  0.1142  0.1160
 2754SOL    HW119721   0.844   2.432  13.917 -0.3442 -0.1340 -1.6748
 2754SOL    HW219722   0.823   2.292  13.861  0.6415  0.4898  0.0031
 2755SOL     OW19723   1.780   0.201  10.460 -0.2814 -0.0855  0.1566
 2755SOL    HW119724   1.802   0.231  10.548 -0.8182  1.6706 -0.3274
 2755SOL    HW219725   1.863   0.191  10.413 -0.7315  1.7240 -0.9800
 2756SOL     OW19726   1.853   4.652   2.019  0.2798 -0.0831  0.4513
 2756SOL    HW119727   1.852   0.011   1.973  0.8600  0.9569  2.3608
 2756SOL    HW219728   1.758   4.645   2.026  0.4866 -1.5597  1.7431
 2757SOL     OW19729   1.785   0.558  12.132  0.0423 -0.5112  0.1566
 2757SOL    HW119730   1.737   0.632  12.096  1.4970  0.0698 -0.5653
 2757SOL    HW219731   1.737   0.490  12.085  0.3286 -0.7512  0.2146
 2758SOL     OW19732   0.598   1.133   2.230 -0.1678 -0.4174 -0.3820
 2758SOL    HW119733   0.505   1.141   2.251  0.0317 -0.5532  0.5529
 2758SOL    HW219734   0.600   1.059   2.169  1.3456 -1.7499  1.2915
 2759SOL     OW19735   2.910   4.171   0.497  0.0627  0.1003  0.0696
 2759SOL    HW119736   3.003   4.160   0.519 -0.3739 -0.2457  1.7424
 2759SOL    HW219737   2.883   4.083   0.472 -0.4541 -0.5017  2.7290
 2760SOL     OW19738   1.222   2.051  11.960  0.0957 -0.1521  0.3256
 2760SOL    HW119739   1.288   2.064  11.892  0.1978  0.4127  0.5342
 2760SOL    HW219740   1.240   1.961  11.988 -1.1583  0.1802  2.1736
 2761SOL     OW19741   4.122   0.353   6.478  0.2322  0.2671  0.0502
 2761SOL    HW119742   4.033   0.387   6.489 -0.4759 -1.2508 -1.0470
 2761SOL    HW219743   4.168   0.426   6.436 -0.2855  0.3827 -0.3203
 2762SOL     OW19744   3.165   1.424  15.394 -0.8063  0.0313  0.3581
 2762SOL    HW119745   3.215   1.367  15.453 -0.7382  0.7078  0.9488
 2762SOL    HW219746   3.222   1.500  15.402 -0.0606 -0.3409 -1.5156
 2763SOL     OW19747   1.422   0.516  11.736  0.0483  0.4699  0.4354
 2763SOL    HW119748   1.356   0.448  11.751  0.6296 -0.7132 -2.3060
 2763SOL    HW219749   1.434   0.499  11.643 -2.6835 -0.2821  0.2234
 2764SOL     OW19750   3.085   4.111   4.633 -0.2547 -0.4000 -0.3420
 2764SOL    HW119751   3.056   4.199   4.657  0.0311 -0.4265  0.1098
 2764SOL    HW219752   3.177   4.110   4.660 -0.4600  0.1436  0.3725
 2765SOL     OW19753   4.610   0.312   8.717  0.3185  0.1536 -0.0386
 2765SOL    HW119754   4.575   0.394   8.750 -0.6198 -1.5789  3.2888
 2765SOL    HW219755   4.632   0.270   8.800 -0.1984  0.2392  0.1411
 2766SOL     OW19756   3.510   2.447  15.189  0.2725 -0.0228 -0.8322
 2766SOL    HW119757   3.451   2.376  15.213  0.1578  0.3328 -0.0659
 2766SOL    HW219758   3.475   2.463  15.101 -0.4001  2.2020 -0.1553
 2767SOL     OW19759   0.624   2.307   0.600  0.3940  0.8717 -0.0867
 2767SOL    HW119760   0.591   2.252   0.529  1.7099 -0.8075  0.6046
 2767SOL    HW219761   0.608   2.253   0.677 -0.0670  1.2231  0.0615
 2768SOL     OW19762   0.383   4.100   9.823  0.6135  0.5978  0.7230
 2768SOL    HW119763   0.318   4.113   9.893  0.7916 -0.5470  1.0928
 2768SOL    HW219764   0.463   4.117   9.873  0.6837 -1.3086  1.2384
 2769SOL     OW19765   0.757   4.413   2.171 -0.4239  0.0408  0.4247
 2769SOL    HW119766   0.806   4.492   2.192 -1.1106  0.2344  1.2875
 2769SOL    HW219767   0.724   4.393   2.259  0.1671  0.0824  0.6565
 2770SOL     OW19768   2.724   3.729  13.489  0.3678 -0.2917  0.1000
 2770SOL    HW119769   2.789   3.680  13.540  0.6142 -1.7282 -1.5994
 2770SOL    HW219770   2.782   3.801  13.463  1.1614 -0.7174  0.6729
 2771SOL     OW19771   3.449   4.234  14.887  1.2537  0.5299  0.9208
 2771SOL    HW119772   3.500   4.300  14.840  1.6640 -1.6770 -1.6811
 2771SOL    HW219773   3.418   4.265  14.972 -2.9653 -4.0736  1.0679
 2772SOL     OW19774   2.794   0.211  13.573 -0.3205  0.1097 -0.0082
 2772SOL    HW119775   2.772   0.141  13.511 -0.5036 -0.5482  0.8087
 2772SOL    HW219776   2.819   0.159  13.650  1.8085  2.2735  0.7640
 2773SOL     OW19777   3.371   0.146   5.749 -0.4884  0.0925  0.1506
 2773SOL    HW119778   3.425   0.095   5.690 -0.1465  0.0608  0.4919
 2773SOL    HW219779   3.284   0.125   5.714 -0.4827  0.6540 -0.1964
 2774SOL     OW19780   3.254   1.216   4.072 -0.1706 -0.1124 -0.3734
 2774SOL    HW119781   3.268   1.139   4.128 -0.9203 -1.7836 -2.4921
 2774SOL    HW219782   3.159   1.214   4.079 -0.1627 -0.5371 -0.3725
 2775SOL     OW19783   4.505   4.602   4.201  0.0362  0.1986  0.0683
 2775SOL    HW119784   4.455   4.535   4.247  0.4791 -0.6624 -0.7206
 2775SOL    HW219785   4.505   4.670   4.269  0.2188 -0.7274  0.9979
 2776SOL     OW19786   2.941   4.234   8.042  0.0609 -0.0643  0.1950
 2776SOL    HW119787   2.970   4.172   8.110 -0.6346 -1.2669 -0.6211
 2776SOL    HW219788   2.862   4.190   8.011  0.5525  0.5894 -1.9756
 2777SOL     OW19789   3.023   3.528  15.806  0.3469  0.1279  0.2787
 2777SOL    HW119790   3.019   3.600  15.869  0.7224  1.6762 -1.4860
 2777SOL    HW219791   3.043   3.453  15.863 -1.2788  0.4260  1.2426
 2778SOL     OW19792   1.557   1.036   1.377  0.3133  0.1796 -0.2678
 2778SOL    HW119793   1.552   1.005   1.287 -0.3437 -0.1209 -0.1291
 2778SOL    HW219794   1.602   1.120   1.364  2.6924 -1.0625 -0.0788
 2779SOL     OW19795   2.817   4.342   1.515 -0.4170  0.0091 -0.3488
 2779SOL    HW119796   2.893   4.287   1.498  0.4489 -0.3357  4.4961
 2779SOL    HW219797   2.761   4.334   1.438 -2.6841 -0.2291  1.3127
 2780SOL     OW19798   1.837   3.287   6.382  0.1883 -0.6741 -0.4352
 2780SOL    HW119799   1.811   3.204   6.343  1.2222 -0.8750 -0.7016
 2780SOL    HW219800   1.826   3.264   6.475 -1.2377 -0.3184 -0.5180
 2781SOL     OW19801   4.002   1.298  17.273 -0.5837  0.0958 -0.5576
 2781SOL    HW119802   4.044   1.308  17.359 -0.0545  0.3616 -0.8509
 2781SOL    HW219803   4.051   1.362  17.222 -1.4636  0.4032 -1.0063
 2782SOL     OW19804   0.728   3.345  12.727 -0.3853 -0.4048 -0.4909
 2782SOL    HW119805   0.670   3.356  12.651 -0.4091  2.8660  0.0192
 2782SOL    HW219806   0.799   3.288  12.699  0.2673  0.3125 -0.2757
 2783SOL     OW19807   1.772   2.777  17.642 -0.0854  0.1635 -0.1011
 2783SOL    HW119808   1.784   2.751  17.551  2.1638  1.8470 -0.2772
 2783SOL    HW219809   1.744   2.695  17.684  1.4063 -0.7208 -0.8057
 2784SOL     OW19810   4.711   0.781   5.377 -0.0279  0.1939 -0.8349
 2784SOL    HW119811   0.013   0.871   5.358  0.6846  0.1316 -0.1552
 2784SOL    HW219812   0.008   0.761   5.469  0.0420  3.9344 -0.0550
 2785SOL     OW19813   3.340   0.916   0.682  0.2467 -0.2177  0.2360
 2785SOL    HW119814   3.285   0.881   0.613  1.4671  1.7948 -1.7300
 2785SOL    HW219815   3.401   0.842   0.688 -0.8318 -1.0563  0.7764
 2786SOL     OW19816   3.444   0.297   6.295 -0.4472 -0.1169  0.2640
 2786SOL    HW119817   3.354   0.310   6.266  0.1439 -0.5076 -1.7560
 2786SOL    HW219818   3.431   0.235   6.367 -2.7062 -0.2723 -0.2886
 2787SOL     OW19819   0.957   3.077   2.329  0.5068 -0.2061  0.5329
 2787SOL    HW119820   0.951   3.066   2.234 -1.4618 -0.9163  0.7351
 2787SOL    HW219821   0.941   2.989   2.363  1.5327 -1.0968 -1.3251
 2788SOL     OW19822   1.250   2.383   5.448  0.1608  0.4598 -0.8609
 2788SOL    HW119823   1.275   2.300   5.405  0.2936  0.3607 -0.5956
 2788SOL    HW219824   1.272   2.362   5.539  2.1707 -0.7343 -1.5987
 2789SOL     OW19825   1.821   0.397  10.990  0.3964  0.6236 -0.5731
 2789SOL    HW119826   1.891   0.431  11.046  1.4046 -1.1085 -0.8115
 2789SOL    HW219827   1.792   0.475  10.942 -1.3675  0.5221  0.2994
 2790SOL     OW19828   4.656   0.040   6.095  0.3353 -0.3502 -0.5030
 2790SOL    HW119829   4.599   0.078   6.028  2.2375  1.8061 -0.9179
 2790SOL    HW219830   4.646   0.094   6.173  0.1645 -3.0305  1.3364
 2791SOL     OW19831   3.748   0.472   4.889  0.2500  0.1608 -0.1356
 2791SOL    HW119832   3.692   0.525   4.833 -0.0607  2.8648  2.7358
 2791SOL    HW219833   3.747   0.522   4.970 -0.0595  0.8761 -0.5751
 2792SOL     OW19834   1.055   2.375  17.539  0.0071 -0.3366  0.0626
 2792SOL    HW119835   1.037   2.281  17.531  1.6667 -0.7804  1.5634
 2792SOL    HW219836   1.150   2.367  17.552 -0.2658 -0.3389  2.1117
 2793SOL     OW19837   1.654   4.553   2.372 -0.6818 -0.1325  0.8078
 2793SOL    HW119838   1.587   4.582   2.310 -2.4726 -2.1124  1.8236
 2793SOL    HW219839   1.608   4.478   2.411  1.8016 -3.0284 -1.7467
 2794SOL     OW19840   0.634   2.268  10.425 -0.0168 -0.3930  0.0801
 2794SOL    HW119841   0.588   2.228  10.499  0.4681 -0.6975  0.2147
 2794SOL    HW219842   0.699   2.201  10.405 -1.2126 -1.8148  0.9729
 2795SOL     OW19843   3.680   4.118  10.118  0.3566 -0.2283 -0.4428
 2795SOL    HW119844   3.749   4.171  10.158 -1.1907  1.4691 -0.0531
 2795SOL    HW219845   3.601   4.171  10.115 -0.2460 -0.9835  2.7922
 2796SOL     OW19846   2.852   1.036  13.092 -0.4364 -0.2819 -0.1503
 2796SOL    HW119847   2.763   1.044  13.125 -0.6380 -0.8883 -0.5532
 2796SOL    HW219848   2.905   1.017  13.169 -0.1674  0.0891 -0.2408
 2797SOL     OW19849   4.509   1.749   1.508  0.0130 -0.4153 -0.2067
 2797SOL    HW119850   4.584   1.777   1.457  0.6795  1.3242  1.6834
 2797SOL    HW219851   4.506   1.656   1.486  0.4667 -0.0231 -1.9241
 2798SOL     OW19852   1.064   0.853   3.273  0.1018  0.1125  0.5005
 2798SOL    HW119853   1.125   0.807   3.216 -3.2091 -1.1441 -1.9880
 2798SOL    HW219854   0.995   0.868   3.209 -0.8694 -1.5675  1.1366
 2799SOL     OW19855   3.827   2.282   7.773 -0.0499 -0.0108  0.0391
 2799SOL    HW119856   3.907   2.312   7.816  0.2051 -2.3945  1.1831
 2799SOL    HW219857   3.817   2.333   7.692 -1.3616 -0.3479 -0.0033
 2800SOL     OW19858   3.089   1.029   8.038 -0.6307  0.3298 -0.0093
 2800SOL    HW119859   3.128   0.964   7.979  0.1953 -1.2060  2.2402
 2800SOL    HW219860   3.093   0.981   8.121 -1.4733  1.7906  0.8727
 2801SOL     OW19861   0.746   0.627  11.131  0.3227 -0.2834  0.6520
 2801SOL    HW119862   0.721   0.688  11.199  0.3320  1.6958 -1.1317
 2801SOL    HW219863   0.799   0.685  11.076 -0.3454  0.2993  0.6295
 2802SOL     OW19864   1.794   4.301  14.015 -0.6872  0.1032  0.3871
 2802SOL    HW119865   1.751   4.254  13.942  1.0176  0.1922 -0.6814
 2802SOL    HW219866   1.814   4.223  14.067 -1.1230 -1.1173 -1.2624
 2803SOL     OW19867   1.583   0.939   8.162 -0.0055 -0.4123  0.0185
 2803SOL    HW119868   1.654   1.003   8.159  0.1069 -0.5642 -0.4555
 2803SOL    HW219869   1.625   0.859   8.192  2.2523  0.4564 -0.8618
 2804SOL     OW19870   1.087   1.113   0.466  0.1671 -0.1972 -0.3267
 2804SOL    HW119871   1.149   1.050   0.429 -0.0384 -1.5137  1.5357
 2804SOL    HW219872   1.006   1.068   0.443 -1.0267  2.3591 -0.9928
 2805SOL     OW19873   3.881   3.438  10.753  0.2167  0.4546  0.3493
 2805SOL    HW119874   3.971   3.466  10.768 -0.2843  1.2026  1.9409
 2805SOL    HW219875   3.836   3.520  10.772  1.1150  1.0536 -0.0979
 2806SOL     OW19876   2.298   0.502   8.657 -0.5400  0.0930  0.3414
 2806SOL    HW119877   2.352   0.562   8.709  1.3655  0.2577 -1.8505
 2806SOL    HW219878   2.361   0.432   8.642 -1.6177 -1.0013  0.9680
 2807SOL     OW19879   2.137   0.292   7.470 -0.2310 -0.0461 -0.0849
 2807SOL    HW119880   2.231   0.300   7.458 -0.1865  1.3238  1.1826
 2807SOL    HW219881   2.115   0.202   7.495  1.2320  0.2626  2.2396
 2808SOL     OW19882   3.456   1.570  15.141 -0.2083 -0.0900 -0.0839
 2808SOL    HW119883   3.364   1.595  15.138 -0.0634  0.6407  1.1008
 2808SOL    HW219884   3.472   1.551  15.049 -3.3481 -0.2897 -0.5990
 2809SOL     OW19885   3.840   1.347  10.816 -0.5285 -0.3502  0.3556
 2809SOL    HW119886   3.795   1.430  10.832  1.2969  1.0449 -1.7215
 2809SOL    HW219887   3.932   1.370  10.802 -0.6032 -0.5880 -0.5377
 2810SOL     OW19888   0.699   2.952   9.056 -0.2521 -0.0565 -0.4251
 2810SOL    HW119889   0.619   2.994   9.089  0.4466  0.4144  0.6443
 2810SOL    HW219890   0.747   2.957   9.139  1.2719 -1.3028 -1.2434
 2811SOL     OW19891   0.004   1.997   3.903 -0.2994 -0.1354 -0.2707
 2811SOL    HW119892   4.644   1.954   3.893 -1.0476  1.8322 -2.4162
 2811SOL    HW219893   4.702   2.062   3.968 -0.5593 -0.2836 -0.2299
 2812SOL     OW19894   3.692   3.326   3.492 -0.0506  0.1391  0.2087
 2812SOL    HW119895   3.619   3.373   3.534  0.3140  1.0321 -0.1451
 2812SOL    HW219896   3.764   3.326   3.554  1.8297  0.4221 -1.9774
 2813SOL     OW19897   3.286   4.403   7.972 -0.3870 -0.2637 -0.0937
 2813SOL    HW119898   3.303   4.454   7.893 -1.4363 -1.6640 -1.2424
 2813SOL    HW219899   3.202   4.441   7.999 -0.8212 -2.3846  1.5300
 2814SOL     OW19900   0.897   3.067   8.919  0.2609 -0.0914 -0.3981
 2814SOL    HW119901   0.811   3.038   8.949  1.6019  0.1974  3.6140
 2814SOL    HW219902   0.925   2.977   8.905  0.2997 -0.1434  0.0197
 2815SOL     OW19903   4.068   0.213   5.538 -0.2262 -0.1633 -0.5061
 2815SOL    HW119904   3.979   0.246   5.536  0.2891  1.2031 -1.1187
 2815SOL    HW219905   4.058   0.134   5.485 -0.3670 -1.4133  1.3684
 2816SOL     OW19906   3.255   0.607   4.676 -0.2180 -0.0147  0.3683
 2816SOL    HW119907   3.327   0.618   4.614 -0.2099 -0.2588  0.3321
 2816SOL    HW219908   3.306   0.608   4.758  0.4225  1.8466 -0.0731
 2817SOL     OW19909   1.746   0.678   2.243  0.0775 -0.0011  0.1709
 2817SOL    HW119910   1.690   0.756   2.248 -0.0847 -0.1062  0.0069
 2817SOL    HW219911   1.684   0.612   2.273  0.6025  0.4666  2.2453
 2818SOL     OW19912   2.232   2.150   3.422  0.3927 -0.3415 -0.2615
 2818SOL    HW119913   2.304   2.204   3.455  0.6712 -0.5144 -0.5917
 2818SOL    HW219914   2.187   2.120   3.501  1.5891 -0.0689  0.5189
 2819SOL     OW19915   0.138   0.154   5.545 -0.5706 -0.0859  0.6390
 2819SOL    HW119916   0.166   0.072   5.586  0.3469 -0.0955 -0.0202
 2819SOL    HW219917   0.050   0.129   5.517 -0.5646  2.1000 -1.3704
 2820SOL     OW19918   3.156   1.528   1.856 -0.5871  0.3279 -0.0759
 2820SOL    HW119919   3.141   1.526   1.762  1.1850  0.1219 -0.3573
 2820SOL    HW219920   3.133   1.441   1.889  0.1729 -0.3306 -1.2980
 2821SOL     OW19921   3.560   2.427  10.763  0.2067  0.0279 -0.1208
 2821SOL    HW119922   3.614   2.443  10.840  0.4242  1.5973 -0.5990
 2821SOL    HW219923   3.507   2.353  10.793 -0.6323  0.7951  0.3149
 2822SOL     OW19924   1.982   1.875   5.100 -0.0213  0.2528  0.0210
 2822SOL    HW119925   2.020   1.805   5.154  0.5359  0.3320 -0.2744
 2822SOL    HW219926   1.923   1.909   5.167  0.4980  0.9374  0.1326
 2823SOL     OW19927   2.864   4.621   8.278 -0.1218 -0.2533  0.8540
 2823SOL    HW119928   2.877   4.559   8.350 -2.5495 -0.9086  0.7142
 2823SOL    HW219929   2.903   4.565   8.211  0.2993 -1.0584  1.7833
 2824SOL     OW19930   1.341   1.439   6.263  0.6622 -0.5625 -0.0336
 2824SOL    HW119931   1.279   1.510   6.280 -0.2788 -0.7803 -2.5036
 2824SOL    HW219932   1.401   1.483   6.203  0.9003  0.6559  1.1119
 2825SOL     OW19933   1.854   0.031   6.987 -0.0209 -0.0181 -0.3628
 2825SOL    HW119934   1.803   4.703   6.926  0.8014 -0.1401 -0.9423
 2825SOL    HW219935   1.790   0.101   6.997 -0.7931 -0.6247 -1.1033
 2826SOL     OW19936   4.195   1.123   6.227  0.1916  0.2054 -0.0977
 2826SOL    HW119937   4.134   1.187   6.265 -0.7702 -0.7203 -0.0892
 2826SOL    HW219938   4.196   1.155   6.137 -0.7091  0.1785 -0.1158
 2827SOL     OW19939   3.696   1.984  15.513  0.5644 -0.0963  0.1888
 2827SOL    HW119940   3.786   2.002  15.537  0.8738 -1.1162 -0.2119
 2827SOL    HW219941   3.654   2.021  15.591 -0.9643 -1.6527  0.1001
 2828SOL     OW19942   3.755   3.543   5.289  0.3917 -0.9249 -0.2806
 2828SOL    HW119943   3.661   3.560   5.289  0.8517  1.6996  1.0581
 2828SOL    HW219944   3.786   3.618   5.238  0.3683 -1.9229 -1.7578
 2829SOL     OW19945   2.801   3.706   7.626 -0.6336 -0.1534  0.3560
 2829SOL    HW119946   2.810   3.748   7.711  0.5327 -1.1839  0.7462
 2829SOL    HW219947   2.707   3.706   7.611 -0.5125 -0.6853 -0.4232
 2830SOL     OW19948   3.986   1.979   8.094  0.0820  0.2734 -0.0671
 2830SOL    HW119949   4.012   2.052   8.151  1.3959  0.2507 -0.6432
 2830SOL    HW219950   4.043   1.908   8.124  0.7200  0.7893 -0.0316
 2831SOL     OW19951   0.399   1.884   1.660  0.2890  0.4697 -0.2319
 2831SOL    HW119952   0.464   1.824   1.698 -1.0036 -0.3978  0.6219
 2831SOL    HW219953   0.450   1.960   1.632  2.3386 -0.9508 -0.3813
 2832SOL     OW19954   1.110   2.588  15.923 -0.1812 -0.1002  0.2621
 2832SOL    HW119955   1.205   2.599  15.915 -0.2768  1.3481  1.2234
 2832SOL    HW219956   1.099   2.556  15.833  0.2722 -0.3832  0.3057
 2833SOL     OW19957   4.119   1.281  15.248 -0.2418 -0.2376  0.4253
 2833SOL    HW119958   4.111   1.339  15.324 -0.9607  3.6642 -2.6202
 2833SOL    HW219959   4.132   1.197  15.292 -0.6047 -0.1289  0.7376
 2834SOL     OW19960   3.864   1.368   8.466 -0.1651  0.4233  0.6660
 2834SOL    HW119961   3.777   1.386   8.501 -0.5618  1.8363 -1.0272
 2834SOL    HW219962   3.878   1.435   8.399 -0.5288 -0.0223  0.1418
 2835SOL     OW19963   2.569   4.674   9.522  0.1874 -0.2653  0.1792
 2835SOL    HW119964   2.619   0.019   9.564  0.2792 -0.7444  0.8635
 2835SOL    HW219965   2.503   0.003   9.478 -0.1276  1.1255  2.3681
 2836SOL     OW19966   1.610   0.382   9.623 -0.0604  0.2879  0.2576
 2836SOL    HW119967   1.536   0.441   9.635 -0.3712  0.1032 -0.7291
 2836SOL    HW219968   1.637   0.359   9.712 -0.9049  0.3258  0.5226
 2837SOL     OW19969   3.517   4.236  13.931  0.0340  0.3849 -0.1489
 2837SOL    HW119970   3.463   4.244  14.010  3.4653  0.3550  2.1936
 2837SOL    HW219971   3.608   4.241  13.961 -0.3566  1.8441  0.8143
 2838SOL     OW19972   2.127   0.914   4.625  0.4166  1.1826 -0.5763
 2838SOL    HW119973   2.074   0.971   4.681  1.9571  2.6326 -0.5993
 2838SOL    HW219974   2.174   0.856   4.684 -1.7278 -1.2291 -1.2478
 2839SOL     OW19975   3.553   1.752   4.592  0.2874 -0.2462  0.6456
 2839SOL    HW119976   3.552   1.844   4.618 -0.5749  0.1484 -0.7883
 2839SOL    HW219977   3.476   1.734   4.537  0.5801  1.6611 -0.3967
 2840SOL     OW19978   0.781   3.348   8.730  0.3542 -0.0276 -0.5243
 2840SOL    HW119979   0.820   3.261   8.736 -1.6707 -0.9036 -0.0968
 2840SOL    HW219980   0.780   3.379   8.821 -0.5228  1.4896 -1.0537
 2841SOL     OW19981   4.232   2.776   4.744  0.1034  0.7115  0.2798
 2841SOL    HW119982   4.181   2.796   4.823  0.4265  1.5653  0.2801
 2841SOL    HW219983   4.265   2.861   4.713 -0.8233 -0.1136 -2.9688
 2842SOL     OW19984   1.242   0.027   7.500 -0.2727  0.2030 -0.0908
 2842SOL    HW119985   1.201   0.030   7.413  0.0198 -2.1606 -0.3270
 2842SOL    HW219986   1.209   4.669   7.536  3.4500 -1.6733 -1.0341
 2843SOL     OW19987   3.523   1.517   2.413  0.4416  0.2990 -0.2118
 2843SOL    HW119988   3.449   1.572   2.389  0.9518  0.0768 -2.2674
 2843SOL    HW219989   3.482   1.437   2.381  1.5000 -0.1620 -0.4152
 2844SOL     OW19990   2.760   1.162   7.729  0.0700 -0.2527 -0.2891
 2844SOL    HW119991   2.689   1.175   7.792 -1.1889 -2.2233 -1.2993
 2844SOL    HW219992   2.835   1.211   7.762  1.9973 -2.3566 -1.5464
 2845SOL     OW19993   0.997   3.090  16.760  0.0686 -0.1556 -0.0885
 2845SOL    HW119994   1.028   3.005  16.793  0.5554 -0.2363 -0.7581
 2845SOL    HW219995   1.044   3.099  16.677 -0.5043 -0.2275 -0.4180
 2846SOL     OW19996   1.915   4.234   1.542  0.2190 -0.0570 -0.4169
 2846SOL    HW119997   1.929   4.324   1.512 -1.0681 -0.0045 -0.8726
 2846SOL    HW219998   1.824   4.220   1.514  0.4580  0.7973 -1.6331
 2847SOL     OW19999   0.807   3.294   4.345  0.2980 -0.5507 -0.4099
 2847SOL    HW120000   0.789   3.325   4.434  2.1056 -1.3621  0.2426
 2847SOL    HW220001   0.794   3.200   4.359  0.0190 -0.5463 -0.6568
 2848SOL     OW20002   4.137   1.713   8.254 -0.2657  0.3165 -0.6240
 2848SOL    HW120003   4.094   1.708   8.168 -0.3686 -1.3193 -0.4771
 2848SOL    HW220004   4.211   1.655   8.235 -0.8418 -0.2172 -1.2056
 2849SOL     OW20005   2.271   0.054   1.490 -0.4928 -0.2899  1.0606
 2849SOL    HW120006   2.322   0.066   1.570  1.8178  1.2108 -0.6400
 2849SOL    HW220007   2.272   0.145   1.462  1.3634 -1.0483 -1.3366
 2850SOL     OW20008   4.418   0.716  13.878  0.5203  0.0661 -0.2985
 2850SOL    HW120009   4.453   0.778  13.815  2.0060 -1.0489 -0.5899
 2850SOL    HW220010   4.442   0.636  13.832 -0.2707 -1.3515  1.7268
 2851SOL     OW20011   2.504   2.617   1.123  0.3240 -0.2133  0.6256
 2851SOL    HW120012   2.466   2.694   1.081  0.1213 -1.4782 -1.5470
 2851SOL    HW220013   2.453   2.592   1.200 -0.3970 -0.3912  0.0913
 2852SOL     OW20014   1.549   4.084   3.128  0.0073  0.1495 -0.0846
 2852SOL    HW120015   1.508   4.023   3.190 -0.1066  0.1230 -0.1859
 2852SOL    HW220016   1.523   4.050   3.042 -1.3432 -1.1048  0.8161
 2853SOL     OW20017   2.058   2.567   6.350  0.0684  0.0438 -0.0276
 2853SOL    HW120018   1.966   2.593   6.353 -0.1406 -0.7345  0.1100
 2853SOL    HW220019   2.092   2.625   6.419  2.9037 -1.2097 -0.3921
 2854SOL     OW20020   2.483   1.150   6.241 -0.4755 -0.7614 -0.0936
 2854SOL    HW120021   2.427   1.203   6.297  0.5681 -0.6766  0.8720
 2854SOL    HW220022   2.527   1.215   6.186 -1.8156 -0.8088 -1.2053
 2855SOL     OW20023   1.410   0.295   6.992 -0.4878 -0.2726  0.1422
 2855SOL    HW120024   1.324   0.265   7.021 -0.7228 -1.2272 -1.5426
 2855SOL    HW220025   1.398   0.307   6.898  0.2321 -0.8956 -0.0262
 2856SOL     OW20026   0.090   2.720   8.769 -0.0092 -0.3292 -0.5866
 2856SOL    HW120027   0.118   2.808   8.794  2.1426 -1.2535  0.2215
 2856SOL    HW220028   0.178   2.684   8.764 -0.5708 -1.2729 -3.2277
 2857SOL     OW20029   0.031   2.420  15.135 -0.1962 -0.1887 -0.1191
 2857SOL    HW120030   0.041   2.428  15.230 -1.9083 -0.9961  0.1328
 2857SOL    HW220031   0.096   2.351  15.121  0.8682  1.3133 -2.5803
 2858SOL     OW20032   3.717   0.821  14.805  0.1077  0.6619 -0.1213
 2858SOL    HW120033   3.647   0.872  14.765 -0.4495  0.5154  0.6597
 2858SOL    HW220034   3.703   0.734  14.768 -0.9957 -0.3158  2.5328
 2859SOL     OW20035   4.453   0.595   2.426 -0.0041 -0.5356  0.6523
 2859SOL    HW120036   4.538   0.595   2.382  0.3664  0.8454  1.3949
 2859SOL    HW220037   4.400   0.548   2.361  1.5306 -0.7557 -0.4362
 2860SOL     OW20038   0.492   0.367   6.998 -0.4692  0.5646 -0.0577
 2860SOL    HW120039   0.507   0.336   7.087  0.9437  2.2888  0.3041
 2860SOL    HW220040   0.564   0.321   6.953  0.0617  0.7552  0.6072
 2861SOL     OW20041   3.858   1.351  16.380  0.1006 -0.0522  0.1341
 2861SOL    HW120042   3.859   1.407  16.302 -0.6550  1.5816  1.2986
 2861SOL    HW220043   3.845   1.418  16.447 -1.7001 -0.3332  0.0570
 2862SOL     OW20044   3.954   2.918   4.715 -0.2737 -0.7093 -0.0785
 2862SOL    HW120045   3.975   2.830   4.684 -0.4584  0.5529 -3.7551
 2862SOL    HW220046   3.880   2.934   4.657 -0.9548  1.0498  1.2565
 2863SOL     OW20047   0.771   1.479   5.393  0.2097 -0.7498 -0.1868
 2863SOL    HW120048   0.764   1.437   5.307  1.3505 -3.6873  1.1440
 2863SOL    HW220049   0.679   1.503   5.407 -0.3165 -1.6676 -1.9793
 2864SOL     OW20050   0.640   4.642   8.020  0.2214 -0.4916 -0.6274
 2864SOL    HW120051   0.545   4.637   8.019  0.2352 -0.5797 -1.5557
 2864SOL    HW220052   0.669   0.009   8.022  0.8954 -0.7154  0.5775
 2865SOL     OW20053   3.859   4.508   3.514  0.5888 -0.1412  0.6121
 2865SOL    HW120054   3.894   4.580   3.461 -1.0741  1.3236  1.5210
 2865SOL    HW220055   3.874   4.533   3.605  0.4561  1.4675  0.1888
 2866SOL     OW20056   2.780   1.752   5.732 -0.3463  0.3482 -0.5117
 2866SOL    HW120057   2.718   1.739   5.804 -0.3516  0.8155 -0.4307
 2866SOL    HW220058   2.739   1.699   5.663 -0.6015 -0.2711  0.1152
 2867SOL     OW20059   0.099   4.176   1.938 -0.1817  0.1606 -0.2946
 2867SOL    HW120060   0.172   4.236   1.955 -1.5757  2.3551 -2.0968
 2867SOL    HW220061   0.109   4.138   1.851 -0.5278  1.8873 -1.0703
 2868SOL     OW20062   0.374   3.266   3.416  0.2610  0.2578  0.5443
 2868SOL    HW120063   0.432   3.220   3.355 -1.1647 -2.8949  1.5886
 2868SOL    HW220064   0.305   3.288   3.354  0.2790 -1.1703  0.0169
 2869SOL     OW20065   0.479   1.148  13.373  0.5097 -0.3395  0.0809
 2869SOL    HW120066   0.529   1.222  13.410 -0.0586  0.5321 -0.8859
 2869SOL    HW220067   0.448   1.186  13.291 -3.0917 -0.7379  1.2958
 2870SOL     OW20068   0.280   0.725   4.858  0.1189  0.7323 -0.4363
 2870SOL    HW120069   0.298   0.815   4.832  1.6826  0.6804  0.4665
 2870SOL    HW220070   0.285   0.741   4.952 -0.7649 -0.3985 -0.2022
 2871SOL     OW20071   3.085   4.718   5.133  0.1947 -0.4051 -0.1935
 2871SOL    HW120072   3.157   0.043   5.171 -0.6515 -0.3766  1.3846
 2871SOL    HW220073   3.031   0.061   5.093  0.1667 -0.5564 -0.4134
 2872SOL     OW20074   2.059   2.312  15.743  0.0998 -0.1014 -0.0363
 2872SOL    HW120075   2.056   2.397  15.699 -1.5720 -0.3372 -0.3909
 2872SOL    HW220076   2.081   2.257  15.668 -2.3171 -1.1233 -0.0132
 2873SOL     OW20077   0.850   3.758  15.787  0.1868  0.8113 -0.6004
 2873SOL    HW120078   0.852   3.839  15.735  0.1649 -0.3158 -2.3631
 2873SOL    HW220079   0.763   3.720  15.770  0.3992  0.1087 -0.1029
 2874SOL     OW20080   2.116   2.656   4.356  0.1238  0.5274 -0.5703
 2874SOL    HW120081   2.161   2.628   4.276  2.4167 -0.9204  1.2203
 2874SOL    HW220082   2.028   2.622   4.337 -0.1322  2.7531 -3.2897
 2875SOL     OW20083   1.931   0.547   6.936  0.2252  0.4204 -0.4912
 2875SOL    HW120084   2.010   0.493   6.935 -0.2297 -0.2649  1.5749
 2875SOL    HW220085   1.922   0.575   6.845 -0.3707 -1.8861 -1.1349
 2876SOL     OW20086   0.253   2.274  15.240 -0.1129  0.2793  0.5029
 2876SOL    HW120087   0.208   2.295  15.322 -0.3021  1.9301 -0.0276
 2876SOL    HW220088   0.339   2.255  15.278  0.4040  0.3056 -0.6520
 2877SOL     OW20089   1.419   2.609   5.512 -0.5229 -0.1395  0.0140
 2877SOL    HW120090   1.450   2.691   5.472 -1.4592  0.5171  0.6427
 2877SOL    HW220091   1.358   2.571   5.449 -1.5091 -0.0261  0.9107
 2878SOL     OW20092   2.969   2.245   2.571  0.5284  0.4965 -0.7788
 2878SOL    HW120093   2.912   2.236   2.495 -0.0455  1.7480 -0.5031
 2878SOL    HW220094   3.020   2.165   2.575  1.9244  1.3859 -0.7828
 2879SOL     OW20095   3.684   3.211   1.402 -0.2477  0.1975 -0.4202
 2879SOL    HW120096   3.764   3.179   1.443 -0.4599  0.9274  0.5722
 2879SOL    HW220097   3.723   3.285   1.355  1.8868  0.5276  1.9005
 2880SOL     OW20098   0.202   0.054   4.649 -0.0621  0.0485  0.0611
 2880SOL    HW120099   0.267   0.076   4.583  1.2158  0.1735  1.3592
 2880SOL    HW220100   0.242   0.084   4.731  2.5554  2.8101 -2.2486
 2881SOL     OW20101   3.780   1.047  15.550 -0.1937 -0.0620 -0.2129
 2881SOL    HW120102   3.712   0.980  15.560  0.9306 -1.0762  0.6421
 2881SOL    HW220103   3.732   1.129  15.540 -1.6092 -0.8792 -0.1806
 2882SOL     OW20104   1.994   1.014   3.087  0.0158 -0.4516  0.0028
 2882SOL    HW120105   1.977   1.024   2.993 -1.0449  0.4812  0.2977
 2882SOL    HW220106   2.031   0.926   3.091  2.0108  0.2490 -2.3339
 2883SOL     OW20107   1.603   0.768  12.861  0.5274 -0.0225 -0.2422
 2883SOL    HW120108   1.657   0.762  12.940  0.1619  0.7792  0.0591
 2883SOL    HW220109   1.546   0.692  12.878 -2.9240  2.3135 -1.5458
 2884SOL     OW20110   2.817   1.831  10.949 -0.4053  0.5147  0.0827
 2884SOL    HW120111   2.866   1.804  10.872  0.1082  2.8334 -0.3949
 2884SOL    HW220112   2.830   1.757  11.008 -0.7997 -0.8105 -1.5164
 2885SOL     OW20113   3.226   2.148   1.839 -0.2473 -0.1214 -0.1360
 2885SOL    HW120114   3.276   2.161   1.758  0.6232  0.6372  0.5151
 2885SOL    HW220115   3.200   2.056   1.845  0.9866 -0.5191 -0.9090
 2886SOL     OW20116   1.970   4.273  16.009 -0.0158 -0.0802 -0.1806
 2886SOL    HW120117   1.963   4.289  15.915  1.1479  1.3233 -0.0246
 2886SOL    HW220118   1.896   4.327  16.037  0.3045  1.2163 -1.8195
 2887SOL     OW20119   3.326   2.161  14.359 -0.5132 -0.4627  0.2512
 2887SOL    HW120120   3.250   2.173  14.416 -0.0797  0.8201  0.5609
 2887SOL    HW220121   3.354   2.245  14.322  0.5354 -0.0443  2.0344
 2888SOL     OW20122   4.476   3.515   5.552  0.3801  0.0754  0.1342
 2888SOL    HW120123   4.568   3.504   5.528  0.1291 -1.0546 -0.3189
 2888SOL    HW220124   4.439   3.526   5.464 -0.0166 -0.2762  0.2527
 2889SOL     OW20125   1.942   2.453   5.146 -0.0110 -0.4216  0.2499
 2889SOL    HW120126   1.884   2.529   5.142 -0.3685 -0.4298  4.9070
 2889SOL    HW220127   1.875   2.396   5.109 -0.8900  0.7089  0.1019
 2890SOL     OW20128   2.628   4.332  12.995  0.2444  0.0720 -0.4543
 2890SOL    HW120129   2.636   4.425  12.978  2.1719  0.2185  1.3246
 2890SOL    HW220130   2.722   4.319  13.004  0.5625  0.8288 -2.8221
 2891SOL     OW20131   3.822   4.183   6.341 -0.4795  0.0964  0.1193
 2891SOL    HW120132   3.769   4.167   6.419  0.5788 -0.4227  0.7462
 2891SOL    HW220133   3.889   4.245   6.373  0.6092 -0.5395 -0.9501
 2892SOL     OW20134   0.795   0.193  14.139  0.5362  0.3424 -0.1179
 2892SOL    HW120135   0.786   0.285  14.115  0.5354  0.0028 -1.4136
 2892SOL    HW220136   0.873   0.171  14.088  0.1369  1.1522 -1.0729
 2893SOL     OW20137   1.805   0.992  12.658 -0.6736  0.1083 -0.4497
 2893SOL    HW120138   1.753   0.915  12.681 -1.1146  1.4951  3.2811
 2893SOL    HW220139   1.766   1.032  12.580 -0.0709  0.0701 -0.7695
 2894SOL     OW20140   2.341   3.915   2.791 -0.5434 -0.3053  0.3644
 2894SOL    HW120141   2.428   3.879   2.809  1.2966  2.7966 -2.3064
 2894SOL    HW220142   2.298   3.833   2.814 -0.8959  0.9010  3.9809
 2895SOL     OW20143   4.529   2.393   2.536  0.1311 -0.2094  0.3898
 2895SOL    HW120144   4.609   2.439   2.560 -0.0428  0.4243 -0.2647
 2895SOL    HW220145   4.573   2.326   2.482  1.2790  0.9689 -0.1421
 2896SOL     OW20146   3.708   1.347   8.121 -0.9188  0.0130  0.1097
 2896SOL    HW120147   3.612   1.351   8.110 -0.4465  0.4035 -4.1337
 2896SOL    HW220148   3.734   1.429   8.163 -1.7882  0.3782 -0.0520
 2897SOL     OW20149   1.345   4.660   6.183  0.3923 -0.3397  0.3094
 2897SOL    HW120150   1.265   4.671   6.130 -0.0202  0.7880  1.1603
 2897SOL    HW220151   1.384   0.020   6.163 -0.3037  0.2579  1.5151
 2898SOL     OW20152   2.174   2.741  16.471 -0.0237 -0.2852 -0.1874
 2898SOL    HW120153   2.091   2.693  16.472 -0.6145  0.8058  2.8474
 2898SOL    HW220154   2.172   2.776  16.382  0.8553  0.7801  0.2170
 2899SOL     OW20155   4.725   1.876   8.033 -0.6881 -0.4612  0.0971
 2899SOL    HW120156   4.667   1.841   8.101  0.1816 -1.5396  0.2781
 2899SOL    HW220157   4.671   1.951   8.007  0.8542  0.4167 -0.5576
 2900SOL     OW20158   1.983   4.017   3.303  0.1050  0.3693  0.2121
 2900SOL    HW120159   1.891   4.002   3.280 -0.3137  1.1460  1.4055
 2900SOL    HW220160   1.990   3.936   3.353  0.6428  1.1814  1.4516
 2901SOL     OW20161   0.431   1.669   5.916 -0.0176 -0.2778  0.3937
 2901SOL    HW120162   0.522   1.697   5.927 -0.1881 -0.2849  1.8984
 2901SOL    HW220163   0.386   1.753   5.921 -1.3906 -0.9986  0.0645
 2902SOL     OW20164   4.141   3.267   5.516 -0.1407  0.2108  0.3127
 2902SOL    HW120165   4.154   3.185   5.469  1.0479 -0.9034  2.5804
 2902SOL    HW220166   4.184   3.332   5.460 -0.6470  0.5244  0.2946
 2903SOL     OW20167   3.452   0.507   0.887 -0.0325 -0.1317 -0.0006
 2903SOL    HW120168   3.452   0.413   0.902 -2.2546  0.2744  2.4423
 2903SOL    HW220169   3.542   0.528   0.860  0.3791  0.6759  2.0303
 2904SOL     OW20170   2.042   0.063  15.343  0.0484  0.2271 -0.0568
 2904SOL    HW120171   1.954   0.048  15.310  0.6750 -2.3043 -0.5481
 2904SOL    HW220172   2.080   0.097  15.261  2.6768 -2.2759  0.1223
 2905SOL     OW20173   1.458   2.634   4.927 -0.6697 -0.4846  0.7036
 2905SOL    HW120174   1.547   2.622   4.894 -1.3111  3.2634 -2.3718
 2905SOL    HW220175   1.416   2.555   4.895 -1.3682  0.6604 -1.1568
 2906SOL     OW20176   1.712   2.020   2.915 -0.7591 -0.5305 -0.8803
 2906SOL    HW120177   1.643   1.954   2.918 -0.7159 -0.5277  0.4848
 2906SOL    HW220178   1.777   1.966   2.872  1.8980  0.9473  1.2611
 2907SOL     OW20179   4.159   0.037   3.561  0.4344  0.1635 -0.3540
 2907SOL    HW120180   4.191   0.061   3.648  1.5247 -1.2050 -0.3911
 2907SOL    HW220181   4.219   4.693   3.533 -0.7398 -0.0553 -2.3133
 2908SOL     OW20182   3.271   4.103  14.266  0.7716 -0.1538 -0.2977
 2908SOL    HW120183   3.249   4.010  14.276 -0.8707  0.3382  0.6045
 2908SOL    HW220184   3.224   4.126  14.185  0.1947 -0.5174 -0.0665
 2909SOL     OW20185   4.215   1.888   3.890 -0.0589 -0.0555 -0.3696
 2909SOL    HW120186   4.148   1.831   3.927  0.5026 -0.6341 -0.2433
 2909SOL    HW220187   4.215   1.864   3.798 -1.5779  2.9694 -1.1709
 2910SOL     OW20188   3.516   1.670  12.489 -0.2227  0.3667  0.2602
 2910SOL    HW120189   3.515   1.634  12.400 -2.6490 -1.1920  0.9255
 2910SOL    HW220190   3.484   1.598  12.544 -1.9545  1.2202  0.3765
 2911SOL     OW20191   0.958   4.690   5.196  0.1402 -0.2702 -0.1901
 2911SOL    HW120192   0.906   0.038   5.161 -0.6579 -1.3585 -1.2537
 2911SOL    HW220193   0.911   4.672   5.278  1.7477 -0.4553  0.6859
 2912SOL     OW20194   4.520   0.619  14.136  0.4790 -0.9680  0.0900
 2912SOL    HW120195   4.598   0.655  14.093  0.7334 -1.7371 -0.0955
 2912SOL    HW220196   4.456   0.650  14.072  0.5980  1.3878  1.0977
 2913SOL     OW20197   4.718   4.053   4.698 -0.7410  0.3906  0.0498
 2913SOL    HW120198   4.697   4.071   4.790  0.9534  1.3555  0.2550
 2913SOL    HW220199   4.715   3.959   4.681  0.7954  0.1319  1.1680
 2914SOL     OW20200   3.560   0.617  15.160 -0.2285 -0.2057  0.4688
 2914SOL    HW120201   3.501   0.654  15.226  0.5876 -0.1448  1.1619
 2914SOL    HW220202   3.606   0.695  15.131  0.8902 -1.6013 -1.4675
 2915SOL     OW20203   0.703   3.138  14.220  0.1680 -0.3662  0.3310
 2915SOL    HW120204   0.726   3.076  14.151  0.6049  1.5826 -1.2757
 2915SOL    HW220205   0.667   3.207  14.163  0.7943 -0.1061  0.2487
 2916SOL     OW20206   1.161   1.431   2.762  0.0105  0.0125  0.5726
 2916SOL    HW120207   1.249   1.450   2.795 -0.5517  1.4347  1.2359
 2916SOL    HW220208   1.111   1.407   2.840  2.5990  0.1993  2.2807
 2917SOL     OW20209   1.819   2.634   3.557 -0.0655  0.4797 -0.6515
 2917SOL    HW120210   1.905   2.673   3.540  0.7799 -0.8063  0.5835
 2917SOL    HW220211   1.777   2.616   3.473 -0.0781 -0.4960 -0.4430
 2918SOL     OW20212   0.505   3.245   3.659 -0.2719 -0.1490 -0.4867
 2918SOL    HW120213   0.530   3.338   3.650  2.0104 -0.7736 -0.7775
 2918SOL    HW220214   0.439   3.242   3.590 -0.5415 -1.3313 -0.1746
 2919SOL     OW20215   3.147   1.218   1.171  0.2526  0.0015  0.3475
 2919SOL    HW120216   3.178   1.252   1.087  1.3733 -0.8335  0.4229
 2919SOL    HW220217   3.103   1.138   1.140 -2.9772  2.1966 -0.7939
 2920SOL     OW20218   3.647   0.740   6.616  0.4827  0.3113  0.4159
 2920SOL    HW120219   3.628   0.748   6.710 -2.0702  2.8558 -0.3113
 2920SOL    HW220220   3.608   0.825   6.593  0.3561  0.2650  0.4589
 2921SOL     OW20221   3.571   1.732  15.474  0.3735  0.1632 -0.4690
 2921SOL    HW120222   3.616   1.722  15.390  0.5169 -0.6286 -0.3058
 2921SOL    HW220223   3.615   1.812  15.502  0.3083  1.1533 -3.2402
 2922SOL     OW20224   2.027   3.286   3.887  0.0032  0.4318 -0.0908
 2922SOL    HW120225   1.963   3.329   3.830 -0.2458  0.1864  0.0083
 2922SOL    HW220226   2.053   3.357   3.946  2.0697 -1.6067  1.4712
 2923SOL     OW20227   2.937   2.007   5.790  0.0658 -0.3678  0.3587
 2923SOL    HW120228   3.007   1.972   5.845  0.4472  6.2362  4.1421
 2923SOL    HW220229   2.889   1.926   5.776 -1.2833  0.6606 -1.0227
 2924SOL     OW20230   0.404   1.623   8.822 -0.0530  0.2859  0.5558
 2924SOL    HW120231   0.341   1.565   8.780 -0.4162  0.9495  0.1977
 2924SOL    HW220232   0.362   1.708   8.827  0.0476  0.4677 -1.6893
 2925SOL     OW20233   1.910   4.510   8.722  0.3748  0.1253 -0.4825
 2925SOL    HW120234   1.904   4.462   8.805  1.4934  1.6548  0.4752
 2925SOL    HW220235   1.831   4.563   8.732  0.7998  0.3630  1.6202
 2926SOL     OW20236   2.339   2.616   3.480 -0.2891  0.1353 -0.2046
 2926SOL    HW120237   2.255   2.571   3.471  1.0185 -2.6018  1.1011
 2926SOL    HW220238   2.361   2.598   3.572 -0.2494 -0.4822 -0.3321
 2927SOL     OW20239   3.361   1.173   6.142 -0.2057  0.5971  0.3273
 2927SOL    HW120240   3.369   1.157   6.048  1.1135  1.6153  0.2567
 2927SOL    HW220241   3.434   1.234   6.155 -0.5759  0.9673  0.6789
 2928SOL     OW20242   2.217   2.918   4.317 -0.0138 -0.5317 -0.3014
 2928SOL    HW120243   2.173   2.833   4.307 -1.7880  0.2222  1.1114
 2928SOL    HW220244   2.230   2.953   4.229 -1.6664  2.2102  0.5639
 2929SOL     OW20245   1.811   3.835  11.347 -0.3497 -0.1130 -0.3370
 2929SOL    HW120246   1.803   3.881  11.263 -2.4006 -1.3674 -0.8275
 2929SOL    HW220247   1.720   3.832  11.379  0.3404  4.0880  2.0164
 2930SOL     OW20248   1.898   0.742   6.442 -0.2692  0.0258 -0.5470
 2930SOL    HW120249   1.943   0.822   6.470 -0.2974  0.2818 -1.2472
 2930SOL    HW220250   1.815   0.759   6.487 -0.3039 -1.5293 -0.0091
 2931SOL     OW20251   3.453   1.315   8.828  0.4324  0.1816  0.1329
 2931SOL    HW120252   3.419   1.225   8.828  0.2019  0.2653  1.2537
 2931SOL    HW220253   3.549   1.308   8.830  0.4642  0.3912 -0.6134
 2932SOL     OW20254   3.094   1.992   2.619  0.3105 -0.1554 -0.1646
 2932SOL    HW120255   3.041   1.954   2.549 -1.5595  1.7887  0.1777
 2932SOL    HW220256   3.052   1.966   2.701  0.9175  1.1169  0.5504
 2933SOL     OW20257   2.711   3.305   8.596 -0.1645  0.0300 -0.4914
 2933SOL    HW120258   2.755   3.285   8.679  0.1284  1.1311 -0.3746
 2933SOL    HW220259   2.784   3.357   8.562 -0.3058  0.7856  0.3465
 2934SOL     OW20260   1.120   1.620   6.789 -0.2339  0.7867  0.2646
 2934SOL    HW120261   1.063   1.547   6.764 -0.5564  1.3969 -0.7888
 2934SOL    HW220262   1.100   1.623   6.883 -2.5406 -1.5094 -0.1358
 2935SOL     OW20263   2.890   4.032   5.169 -0.5129  0.0908 -0.2392
 2935SOL    HW120264   2.834   3.964   5.130  0.6754  0.2175 -2.1931
 2935SOL    HW220265   2.853   4.047   5.256 -1.6131 -1.8435 -0.3765
 2936SOL     OW20266   0.207   3.816   4.247 -0.2548  0.0974 -0.5202
 2936SOL    HW120267   0.227   3.738   4.196 -2.7720 -1.2938  0.6005
 2936SOL    HW220268   0.289   3.865   4.255  0.7756 -1.8592  0.8039
 2937SOL     OW20269   4.028   2.561  17.361  0.6192  0.4487  0.3435
 2937SOL    HW120270   4.072   2.561  17.276 -0.0334 -0.6188  0.0106
 2937SOL    HW220271   4.073   2.638  17.398 -1.3091  1.3264  0.8691
 2938SOL     OW20272   1.754   1.791   8.585 -0.1756  0.7813 -0.3414
 2938SOL    HW120273   1.710   1.712   8.616 -0.2429  0.1322 -2.0628
 2938SOL    HW220274   1.761   1.841   8.666  1.0474  0.8965 -0.5231
 2939SOL     OW20275   0.933   1.224  10.297  0.2108  0.3628  0.0893
 2939SOL    HW120276   0.988   1.217  10.375  2.0612 -0.6620 -1.3005
 2939SOL    HW220277   0.884   1.305  10.307 -2.0000 -1.0815  0.9958
 2940SOL     OW20278   1.008   3.343   7.999 -0.5880 -0.1658  0.4200
 2940SOL    HW120279   1.010   3.294   8.081 -0.7964 -0.5863  0.1764
 2940SOL    HW220280   0.992   3.435   8.022 -2.5546 -0.1361 -1.0194
 2941SOL     OW20281   3.595   2.917   4.691 -0.0936 -0.9674 -0.1735
 2941SOL    HW120282   3.595   2.876   4.604  1.2161  1.0192 -1.1158
 2941SOL    HW220283   3.644   2.854   4.743 -0.6877 -0.5855  0.8353
 2942SOL     OW20284   2.529   4.696   7.857  0.1832 -0.1772 -0.1096
 2942SOL    HW120285   2.501   4.640   7.930 -0.8517 -1.5457 -1.5387
 2942SOL    HW220286   2.618   4.663   7.844  0.4383  1.0593 -1.4191
 2943SOL     OW20287   2.956   0.891  12.260 -0.7431 -0.2592  0.1617
 2943SOL    HW120288   3.030   0.876  12.318 -0.2109  0.8525 -0.2179
 2943SOL    HW220289   2.894   0.930  12.321 -0.2617  0.3225  0.2822
 2944SOL     OW20290   2.080   2.018   3.923 -0.4322  0.7073 -0.2347
 2944SOL    HW120291   2.014   1.970   3.973 -1.6755  2.7313  0.1006
 2944SOL    HW220292   2.100   1.944   3.866  1.8272  2.3021 -1.5476
 2945SOL     OW20293   3.899   4.177   8.745 -0.0291  0.6324 -0.5207
 2945SOL    HW120294   3.916   4.110   8.812  2.9263  1.4040 -0.4921
 2945SOL    HW220295   3.865   4.249   8.797  0.4601  0.5470 -0.0788
 2946SOL     OW20296   4.629   2.100   5.007  0.0924  0.2736 -0.2307
 2946SOL    HW120297   4.718   2.068   5.022  0.9235  1.5011 -2.4583
 2946SOL    HW220298   4.599   2.023   4.960 -0.4505  0.4813 -0.2226
 2947SOL     OW20299   1.950   2.992   0.449 -0.2256  0.3258 -0.1897
 2947SOL    HW120300   1.892   3.023   0.379  0.7738 -0.6252 -1.4402
 2947SOL    HW220301   1.903   2.986   0.532  1.5423 -2.8810  0.5616
 2948SOL     OW20302   4.636   2.925   4.987  0.5248 -0.4810  0.3575
 2948SOL    HW120303   4.618   2.834   5.011  1.0830 -0.2296  1.7386
 2948SOL    HW220304   4.717   2.942   5.036  0.3149 -0.2640  0.6319
 2949SOL     OW20305   2.159   3.949   4.310  0.1946  0.3183  0.4902
 2949SOL    HW120306   2.189   3.922   4.223 -2.1018 -3.4266  0.8321
 2949SOL    HW220307   2.076   3.902   4.312  0.8152 -0.6974  2.8892
 2950SOL     OW20308   1.443   3.992   2.899 -0.4000 -0.7275 -0.1007
 2950SOL    HW120309   1.401   3.996   2.813  1.2132  0.4285 -0.8384
 2950SOL    HW220310   1.518   3.936   2.878 -0.3994 -0.8778  0.3051
 2951SOL     OW20311   4.212   1.606   3.401  0.0539 -0.1139  0.1724
 2951SOL    HW120312   4.205   1.611   3.305 -0.9328 -0.5208  0.2182
 2951SOL    HW220313   4.300   1.569   3.406  0.2012  0.1351 -0.5708
 2952SOL     OW20314   2.542   2.862   5.039 -0.0382  0.1947  0.1246
 2952SOL    HW120315   2.500   2.885   4.956 -2.2783  0.1005  1.2184
 2952SOL    HW220316   2.546   2.767   5.034 -0.6182  0.2744 -1.6866
 2953SOL     OW20317   1.279   1.064   2.720  0.8382  0.0382 -0.3396
 2953SOL    HW120318   1.281   1.006   2.644  3.0836  0.6952 -0.8006
 2953SOL    HW220319   1.339   1.136   2.698  1.8644 -0.5898  0.4244
 2954SOL     OW20320   2.408   1.859   7.221 -0.3280  0.1251 -0.3149
 2954SOL    HW120321   2.413   1.861   7.317 -0.4949 -0.1409 -0.2988
 2954SOL    HW220322   2.395   1.764   7.213 -0.3084  0.3984 -3.6227
 2955SOL     OW20323   3.800   2.977   3.850 -0.1606 -0.2924 -0.4240
 2955SOL    HW120324   3.848   3.059   3.865 -1.7325  0.8013 -1.2733
 2955SOL    HW220325   3.706   2.996   3.847 -0.2339 -0.2452  1.7224
 2956SOL     OW20326   0.925   0.577   7.403 -0.2744  0.3762 -0.6522
 2956SOL    HW120327   0.896   0.575   7.312 -1.3714 -0.3553 -0.2872
 2956SOL    HW220328   1.018   0.588   7.384 -0.1944 -0.5985 -0.8690
 2957SOL     OW20329   3.874   0.387  11.985 -0.4761  0.1366 -0.2843
 2957SOL    HW120330   3.790   0.388  12.031 -0.5777 -1.6622 -0.4229
 2957SOL    HW220331   3.904   0.478  11.983 -2.2617  0.7894  1.7021
 2958SOL     OW20332   3.143   2.557   6.067 -0.1043  0.0112  0.5979
 2958SOL    HW120333   3.061   2.599   6.038  0.8728  0.3657 -1.6736
 2958SOL    HW220334   3.137   2.579   6.160 -0.1901 -0.2350  0.6502
 2959SOL     OW20335   1.623   2.361  10.663 -0.8952  0.0852 -0.3157
 2959SOL    HW120336   1.608   2.280  10.615  0.7321  2.0491 -4.1266
 2959SOL    HW220337   1.635   2.426  10.594  1.3938  0.7198  0.6493
 2960SOL     OW20338   0.564   3.247   7.468 -0.0143  0.1948  0.3194
 2960SOL    HW120339   0.649   3.216   7.435 -0.5842 -0.6567 -0.3585
 2960SOL    HW220340   0.547   3.175   7.528  2.6432 -1.1313 -0.4737
 2961SOL     OW20341   1.430   2.719   5.783 -0.0789 -0.2174 -0.0018
 2961SOL    HW120342   1.441   2.680   5.697 -0.6270  0.8474 -0.5541
 2961SOL    HW220343   1.440   2.646   5.844  0.2653  0.6184  0.9456
 2962SOL     OW20344   4.522   1.376  11.943 -0.5004 -0.2388 -0.3066
 2962SOL    HW120345   4.529   1.453  11.999 -1.6604 -0.0317 -0.4325
 2962SOL    HW220346   4.458   1.407  11.879  1.5151  1.8280 -1.3078
 2963SOL     OW20347   0.112   0.520  15.402 -0.8750  0.0766 -0.3764
 2963SOL    HW120348   0.107   0.595  15.342  1.8532  2.7655  2.7271
 2963SOL    HW220349   0.206   0.502  15.401 -1.3068 -2.0329 -2.0312
 2964SOL     OW20350   2.092   0.011   9.943  0.1379 -0.3084  0.6806
 2964SOL    HW120351   2.089   4.667   9.876  0.3061  1.0130 -0.6891
 2964SOL    HW220352   2.187   0.013   9.956  0.0445  1.3621  1.1568
 2965SOL     OW20353   3.922   3.050  16.009 -0.3478 -0.0288  0.1939
 2965SOL    HW120354   3.998   3.097  16.043  0.2197 -2.2423  1.9687
 2965SOL    HW220355   3.960   2.965  15.985 -1.0097 -0.9195  2.2889
 2966SOL     OW20356   1.768   2.983   6.184  0.0792 -0.3961  0.2455
 2966SOL    HW120357   1.751   3.038   6.107 -1.9338 -0.5105  0.5991
 2966SOL    HW220358   1.684   2.939   6.196 -0.2432  0.3154  0.5619
 2967SOL     OW20359   2.095   4.041   7.294  0.3990  0.4360  0.2118
 2967SOL    HW120360   2.160   4.105   7.322  1.9630 -0.2089 -1.9600
 2967SOL    HW220361   2.056   4.021   7.380 -1.3075 -0.0335 -0.6571
 2968SOL     OW20362   0.606   3.838   9.538 -0.4637 -0.4990 -0.2217
 2968SOL    HW120363   0.659   3.826   9.617 -2.0272  0.2348  0.9471
 2968SOL    HW220364   0.641   3.927   9.529 -3.7758  0.6497 -1.8003
 2969SOL     OW20365   1.585   2.449   7.085  0.4203  0.2237  0.4643
 2969SOL    HW120366   1.663   2.401   7.055 -0.9347 -0.2838 -2.1832
 2969SOL    HW220367   1.580   2.530   7.035 -1.3368  0.8894  1.7105
 2970SOL     OW20368   2.678   1.061  17.627 -0.6400 -0.3825 -0.1643
 2970SOL    HW120369   2.685   1.142  17.576  1.6335 -0.5902 -0.1785
 2970SOL    HW220370   2.593   1.041  17.665  0.5403 -0.9739  2.1535
 2971SOL     OW20371   0.009   4.386   0.796  0.2801  0.6382  0.4368
 2971SOL    HW120372   0.070   4.320   0.829 -1.1586  0.5033  2.7614
 2971SOL    HW220373   0.019   4.451   0.865 -0.2779  1.2997 -0.1095
 2972SOL     OW20374   4.693   2.814   4.197 -0.3328 -0.2108  0.0830
 2972SOL    HW120375   0.052   2.860   4.204 -0.5730  0.2312  0.0147
 2972SOL    HW220376   4.639   2.890   4.175  1.1253 -0.0536 -2.9106
 2973SOL     OW20377   2.031   0.728   0.971 -0.4795 -0.1225  0.1741
 2973SOL    HW120378   2.100   0.707   1.034  0.4787  1.8164 -0.2221
 2973SOL    HW220379   2.040   0.823   0.961 -1.3619 -0.1899 -1.2212
 2974SOL     OW20380   2.159   2.107  17.213  0.0827 -0.0838 -0.8275
 2974SOL    HW120381   2.178   2.199  17.229  0.6987 -0.3604  0.0676
 2974SOL    HW220382   2.247   2.074  17.193 -0.5553 -1.9975 -0.4700
 2975SOL     OW20383   0.635   0.868   4.326  0.5487 -0.3074 -0.3662
 2975SOL    HW120384   0.726   0.842   4.339  1.7450  3.9838 -0.1973
 2975SOL    HW220385   0.633   0.884   4.232  1.5402 -1.1040 -0.5210
 2976SOL     OW20386   2.335   1.476   6.902  0.2398  0.0460  0.0228
 2976SOL    HW120387   2.380   1.553   6.870 -0.3684  0.4490  0.1399
 2976SOL    HW220388   2.272   1.457   6.832  2.0919 -0.5753 -1.4619
 2977SOL     OW20389   1.223   1.076  11.351  0.5940  0.0544  0.5821
 2977SOL    HW120390   1.255   1.112  11.434  2.6804  1.4850 -0.8501
 2977SOL    HW220391   1.227   0.981  11.363  1.3102  0.1337  0.9417
 2978SOL     OW20392   2.066   0.104   8.107  0.9057 -0.0972  0.1975
 2978SOL    HW120393   2.120   0.181   8.121  1.6004 -0.4781 -0.3695
 2978SOL    HW220394   1.981   0.141   8.131  0.9270 -1.4489  2.4178
 2979SOL     OW20395   0.279   0.775   8.529 -0.1395 -0.4863  0.1380
 2979SOL    HW120396   0.246   0.699   8.481 -2.0402  0.9754 -0.8896
 2979SOL    HW220397   0.310   0.722   8.602  4.3843 -0.2603 -1.6090
 2980SOL     OW20398   0.685   4.067   7.908  0.5243  0.6594 -0.1610
 2980SOL    HW120399   0.666   4.160   7.915 -0.7822  0.4599 -1.1223
 2980SOL    HW220400   0.710   4.057   7.817 -1.0921 -2.3815 -0.2702
 2981SOL     OW20401   1.105   3.974   4.908  0.3351  0.7352  0.2984
 2981SOL    HW120402   1.020   4.002   4.874  0.9233  0.5025 -1.3607
 2981SOL    HW220403   1.149   4.059   4.919 -0.6811  1.1618  1.0845
 2982SOL     OW20404   3.711   1.321   5.142 -0.2692  0.3815 -0.4846
 2982SOL    HW120405   3.801   1.290   5.139 -0.8370 -1.4391  1.3005
 2982SOL    HW220406   3.712   1.372   5.061 -1.9832  1.6083  0.2602
 2983SOL     OW20407   2.387   0.286   6.868  0.1649  0.1992 -0.2643
 2983SOL    HW120408   2.438   0.264   6.945 -1.1622 -2.1152 -0.0555
 2983SOL    HW220409   2.458   0.274   6.805 -0.5661 -0.7775 -0.8974
 2984SOL     OW20410   4.103   1.221   4.659 -0.3405 -0.2101  0.0579
 2984SOL    HW120411   4.131   1.138   4.697  0.2507  0.1694  0.4524
 2984SOL    HW220412   4.065   1.272   4.730 -0.3804  2.1804 -1.6635
 2985SOL     OW20413   0.145   1.977   5.030 -0.3890 -0.4651  0.0690
 2985SOL    HW120414   0.147   1.910   5.097  1.4244  1.8730  2.3522
 2985SOL    HW220415   0.238   1.994   5.017 -0.4628  1.1837  1.7345
 2986SOL     OW20416   0.231   4.420  15.781 -0.0838 -0.3421  0.3850
 2986SOL    HW120417   0.267   4.334  15.803  1.3865  0.5295  1.4243
 2986SOL    HW220418   0.309   4.476  15.776  2.1989 -3.4490  1.3670
 2987SOL     OW20419   3.452   0.960   2.517 -0.7066 -0.1354  0.5611
 2987SOL    HW120420   3.462   0.866   2.531  3.9317 -0.1974 -3.3717
 2987SOL    HW220421   3.408   0.962   2.432 -0.5275 -1.7283  0.4269
 2988SOL     OW20422   3.015   1.582  16.390  0.4819 -0.7684 -0.0585
 2988SOL    HW120423   3.001   1.510  16.451 -0.3854 -0.9125 -0.4302
 2988SOL    HW220424   2.923   1.600  16.373  0.9520  1.0299 -0.6537
 2989SOL     OW20425   1.550   0.859  16.580  0.5334 -0.0214 -0.3277
 2989SOL    HW120426   1.626   0.900  16.622 -0.0836  0.5659  0.1970
 2989SOL    HW220427   1.525   0.934  16.526  0.6457  0.4630  0.2966
 2990SOL     OW20428   1.919   1.125   9.655 -0.4023  0.2918  0.7247
 2990SOL    HW120429   1.839   1.169   9.683 -0.1443  0.6832  0.8501
 2990SOL    HW220430   1.907   1.034   9.683 -0.9634  0.2987  0.5086
 2991SOL     OW20431   2.502   2.590   4.981  0.3390 -0.5410 -0.5557
 2991SOL    HW120432   2.555   2.534   4.923  1.0681  2.7902 -3.0772
 2991SOL    HW220433   2.415   2.601   4.942 -0.3544 -0.1092  1.1576
 2992SOL     OW20434   2.454   0.065  11.250 -0.2115 -0.1437  0.2530
 2992SOL    HW120435   2.458   0.031  11.339  0.4010  1.5640  0.8797
 2992SOL    HW220436   2.490   0.152  11.268  0.1557  0.3889 -2.9200
 2993SOL     OW20437   3.696   4.058   4.697 -0.6069  0.5997  0.3400
 2993SOL    HW120438   3.762   4.009   4.648 -0.7192  0.9018 -0.1105
 2993SOL    HW220439   3.648   4.078   4.616 -0.5103 -0.7215 -0.0365
 2994SOL     OW20440   1.878   1.148   1.138 -0.0616 -0.3518  0.6129
 2994SOL    HW120441   1.956   1.167   1.190  0.1311 -0.7874  0.4864
 2994SOL    HW220442   1.843   1.071   1.184 -2.6782  0.4424 -0.0495
 2995SOL     OW20443   3.535   0.100   5.503 -0.4828 -0.5653  0.9071
 2995SOL    HW120444   3.571   0.017   5.473 -0.8232 -0.4968  0.3094
 2995SOL    HW220445   3.557   0.156   5.428  0.5198 -1.0986  0.8073
 2996SOL     OW20446   2.030   1.114   7.137  0.0710 -0.9742  0.2603
 2996SOL    HW120447   2.048   1.101   7.044  0.9467 -1.9768  0.5743
 2996SOL    HW220448   2.090   1.183   7.165 -1.2343  0.1141  0.4105
 2997SOL     OW20449   1.750   4.398  17.661 -0.5611  0.4662  0.2500
 2997SOL    HW120450   1.814   4.416   0.030 -1.1082  1.3336  0.5444
 2997SOL    HW220451   1.683   4.343   0.002 -0.1411  0.5577  1.0597
 2998SOL     OW20452   3.843   1.213  15.215  0.1311 -0.4714 -0.4908
 2998SOL    HW120453   3.861   1.259  15.297 -0.9576 -0.1915 -0.4101
 2998SOL    HW220454   3.888   1.270  15.154 -0.1277 -0.3492 -0.5648
 2999SOL     OW20455   2.872   1.842   6.952 -0.4994 -0.5513 -0.0653
 2999SOL    HW120456   2.944   1.783   6.974 -0.9099 -1.3534 -0.8686
 2999SOL    HW220457   2.810   1.855   7.024  0.4818  2.0105  0.3145
 3000SOL     OW20458   3.721   2.932  14.036  0.7215 -0.5090  0.3733
 3000SOL    HW120459   3.732   2.985  14.115 -0.5338  1.3064 -0.6799
 3000SOL    HW220460   3.767   2.852  14.061 -0.1622 -0.8748  0.8045
 3001SOL     OW20461   0.008   2.202  11.889 -0.4452  0.6827  0.8973
 3001SOL    HW120462   4.715   2.273  11.950 -1.3844  0.9368  0.3277
 3001SOL    HW220463   4.667   2.221  11.821  0.4074  2.0498  0.4603
 3002SOL     OW20464   3.030   0.953  11.717  0.3219 -0.1427  0.0807
 3002SOL    HW120465   3.006   0.892  11.787  1.0334 -0.7716 -0.2189
 3002SOL    HW220466   2.944   0.986  11.692  0.4310  0.5105  0.5579
 3003SOL     OW20467   4.624   2.052   8.748  0.2612  0.2871  0.6952
 3003SOL    HW120468   4.595   2.143   8.751  0.3537  0.3829 -1.3153
 3003SOL    HW220469   4.573   2.032   8.669 -1.1645  1.7929  1.2462
 3004SOL     OW20470   3.281   3.501   3.348 -0.2444 -0.7685 -0.2558
 3004SOL    HW120471   3.286   3.517   3.442 -1.6775 -1.5192 -0.0430
 3004SOL    HW220472   3.351   3.438   3.333 -1.2796 -1.4259 -2.3092
 3005SOL     OW20473   4.485   0.332  15.663 -0.5688  0.0003  0.9159
 3005SOL    HW120474   4.430   0.330  15.585  0.4069 -2.0644  0.2997
 3005SOL    HW220475   4.565   0.301  15.621 -3.5522 -2.4336 -2.8634
 3006SOL     OW20476   3.870   2.692   2.948 -0.1522 -0.1049  0.3465
 3006SOL    HW120477   3.964   2.679   2.938 -0.5853 -2.7084 -0.4540
 3006SOL    HW220478   3.841   2.605   2.977 -1.3126  0.0984 -0.2108
 3007SOL     OW20479   4.530   4.131  12.845  0.0811  0.1934 -0.2693
 3007SOL    HW120480   4.510   4.218  12.811 -0.6671  0.1549  0.0787
 3007SOL    HW220481   4.525   4.076  12.767 -0.9719  1.1464 -0.8639
 3008SOL     OW20482   3.100   2.329  15.638 -0.0619 -0.4058  0.0285
 3008SOL    HW120483   3.194   2.345  15.632 -0.5069  2.3635  0.2385
 3008SOL    HW220484   3.090   2.315  15.732 -1.0017 -1.0105 -0.1603
 3009SOL     OW20485   1.303   4.690   8.734 -0.4988  0.1927 -0.6570
 3009SOL    HW120486   1.216   4.722   8.711 -0.3615  1.8365  1.1068
 3009SOL    HW220487   1.298   4.710   8.827  0.2863  0.1542 -0.6047
 3010SOL     OW20488   1.633   0.812   6.521 -0.2578 -0.0027 -0.5395
 3010SOL    HW120489   1.624   0.791   6.614 -1.6347  1.1310 -0.4150
 3010SOL    HW220490   1.540   0.817   6.502 -0.0214  1.3568 -1.3358
 3011SOL     OW20491   2.668   3.682   2.067  0.0768 -0.0794  0.4254
 3011SOL    HW120492   2.657   3.657   2.158 -1.8971 -0.1043  0.1891
 3011SOL    HW220493   2.681   3.777   2.074  0.3463  0.0229 -1.4721
 3012SOL     OW20494   3.703   4.363   5.452 -0.2100 -0.1444 -0.1928
 3012SOL    HW120495   3.795   4.358   5.480  0.7985 -0.3436 -3.4861
 3012SOL    HW220496   3.700   4.300   5.380 -0.8665 -2.5097  1.8961
 3013SOL     OW20497   2.356   4.225  10.586 -0.1487  0.1076  0.0518
 3013SOL    HW120498   2.359   4.266  10.500 -0.8174 -1.9891 -0.9617
 3013SOL    HW220499   2.265   4.196  10.596 -0.5120  2.1160  2.8221
 3014SOL     OW20500   4.546   2.853   8.025  0.1864 -0.0139  0.0646
 3014SOL    HW120501   4.468   2.898   7.994  1.2077  1.5233 -0.3180
 3014SOL    HW220502   4.569   2.911   8.098 -0.7675 -1.5346  1.5740
 3015SOL     OW20503   2.699   2.528   7.064 -0.9166  0.1855  0.4007
 3015SOL    HW120504   2.625   2.549   7.006 -0.3808  1.8637  0.3194
 3015SOL    HW220505   2.681   2.593   7.133 -1.0579 -1.7358  2.1706
 3016SOL     OW20506   2.691   4.244   2.825 -0.1943 -0.4973  0.5890
 3016SOL    HW120507   2.604   4.206   2.818 -0.0985 -0.8202  1.1464
 3016SOL    HW220508   2.668   4.334   2.847  0.4500  0.0417 -0.9952
 3017SOL     OW20509   1.225   0.129   9.290  0.3868  0.6795  0.0485
 3017SOL    HW120510   1.142   0.122   9.243  0.5166 -1.4229  0.1510
 3017SOL    HW220511   1.257   0.216   9.267  0.2444  0.8665  0.5550
 3018SOL     OW20512   4.307   1.974   7.026  0.0319  0.0350 -0.0733
 3018SOL    HW120513   4.286   1.976   6.933  1.1529  0.6300 -0.3002
 3018SOL    HW220514   4.280   1.884   7.047 -3.4737  1.8717  3.3460
 3019SOL     OW20515   3.903   1.903   3.573 -0.0966 -0.2276 -0.3346
 3019SOL    HW120516   3.996   1.902   3.595  0.1264  1.9650 -1.2310
 3019SOL    HW220517   3.906   1.934   3.482 -1.0407  1.2644  0.1380
 3020SOL     OW20518   1.671   4.589   4.718  0.0959 -0.0684 -0.0005
 3020SOL    HW120519   1.750   4.643   4.715 -0.4601  0.6962 -0.8574
 3020SOL    HW220520   1.662   4.561   4.627  0.4509  0.6833 -0.2720
 3021SOL     OW20521   3.392   4.173  16.372  0.2439  0.0253 -0.3601
 3021SOL    HW120522   3.452   4.191  16.444  0.9147  2.4678 -1.5197
 3021SOL    HW220523   3.375   4.080  16.381 -0.3780  0.1988  0.2062
 3022SOL     OW20524   3.790   1.442  15.022  0.1373  0.2366  0.0380
 3022SOL    HW120525   3.853   1.509  14.996  1.5582  0.3284  3.6975
 3022SOL    HW220526   3.748   1.424  14.938 -0.4678  1.2281  0.1285
 3023SOL     OW20527   0.102   0.128   1.570 -0.1566 -0.8954 -0.1635
 3023SOL    HW120528   0.149   0.063   1.517 -0.4666 -0.0003 -1.5295
 3023SOL    HW220529   0.019   0.080   1.578  0.1881 -1.4340  0.2229
 3024SOL     OW20530   3.045   1.109   0.252  0.0553 -0.0815  0.3722
 3024SOL    HW120531   3.008   1.121   0.164 -0.4684 -3.5087  0.1078
 3024SOL    HW220532   3.079   1.020   0.239  0.9469  0.1502  1.1608
 3025SOL     OW20533   0.926   1.983   1.223  0.7370  0.8785  0.2924
 3025SOL    HW120534   1.021   1.988   1.216  0.8500 -3.1818 -1.2366
 3025SOL    HW220535   0.899   2.051   1.161  0.9305 -0.3676 -1.1480
 3026SOL     OW20536   0.081   3.822   8.753 -0.0273 -0.2722  0.0863
 3026SOL    HW120537   0.106   3.771   8.830  0.4865  1.6070  1.1619
 3026SOL    HW220538   0.105   3.759   8.685 -1.3200 -0.0881 -0.5464
 3027SOL     OW20539   3.288   0.540   7.577 -0.4630 -0.0766  0.4198
 3027SOL    HW120540   3.310   0.625   7.541 -0.6417 -0.6889 -1.1509
 3027SOL    HW220541   3.375   0.508   7.601  0.1337  0.6874 -0.7395
 3028SOL     OW20542   3.810   0.878   1.678 -0.0742  1.0560 -0.3966
 3028SOL    HW120543   3.785   0.857   1.768 -1.0608 -0.4717 -1.0340
 3028SOL    HW220544   3.864   0.955   1.696  1.1065  0.1181  0.0490
 3029SOL     OW20545   1.710   0.864  14.020  0.4656 -0.1335  0.5923
 3029SOL    HW120546   1.662   0.927  14.073  1.2986 -0.7759  2.1268
 3029SOL    HW220547   1.649   0.790  14.023 -0.2396  0.3801 -1.3987
 3030SOL     OW20548   0.870   0.251   4.545  0.4686 -0.2214  0.0053
 3030SOL    HW120549   0.867   0.206   4.460  0.2148  0.5022 -0.3633
 3030SOL    HW220550   0.779   0.246   4.574  0.6083 -1.4884  0.2384
 3031SOL     OW20551   1.137   0.242   7.042  0.2354  1.0253  0.5866
 3031SOL    HW120552   1.069   0.297   7.081  0.3780  1.0789  0.7647
 3031SOL    HW220553   1.102   0.154   7.028  1.1783  0.6456  0.5674
 3032SOL     OW20554   3.931   0.636   6.250 -0.4431  0.4569  0.1455
 3032SOL    HW120555   3.996   0.704   6.235 -0.4364  0.4376  0.0868
 3032SOL    HW220556   3.915   0.633   6.345 -2.3830 -0.0168 -0.2022
 3033SOL     OW20557   3.752   0.049  12.053 -0.5811  0.6376 -0.1027
 3033SOL    HW120558   3.840   0.042  12.089 -0.3472  1.8790 -0.4415
 3033SOL    HW220559   3.763   0.008  11.967  2.0208 -1.1722  1.1166
 3034SOL     OW20560   1.089   4.117   0.583 -0.1260  0.9553  0.5038
 3034SOL    HW120561   1.055   4.207   0.578 -0.3685  0.6618 -3.1792
 3034SOL    HW220562   1.170   4.129   0.533 -1.3184 -1.8208 -2.0902
 3035SOL     OW20563   3.027   2.813   8.126 -0.0454 -0.2740  0.2823
 3035SOL    HW120564   2.969   2.809   8.050 -0.1052 -0.1189  0.3202
 3035SOL    HW220565   3.026   2.905   8.151 -0.7993 -0.9497  2.7909
 3036SOL     OW20566   4.089   2.199  15.399  0.0932  0.1754  0.3115
 3036SOL    HW120567   4.049   2.166  15.319  0.1233 -2.3823  1.3383
 3036SOL    HW220568   4.091   2.291  15.373 -4.0082  0.5017  1.1849
 3037SOL     OW20569   3.535   4.436   2.878  0.1086  0.6023  0.3284
 3037SOL    HW120570   3.612   4.380   2.868  0.0663  0.5675  0.1994
 3037SOL    HW220571   3.570   4.524   2.896 -1.5550  1.5224 -0.9039
 3038SOL     OW20572   0.788   0.168  17.619 -0.2612 -0.6839 -0.4820
 3038SOL    HW120573   0.877   0.189  17.644 -0.3646 -0.7129 -0.0911
 3038SOL    HW220574   0.746   0.214  17.692 -0.1889  1.2273 -1.6540
 3039SOL     OW20575   3.366   1.743   6.033 -0.5483  0.7266 -0.5031
 3039SOL    HW120576   3.309   1.708   6.102  0.1220  0.9856  0.1795
 3039SOL    HW220577   3.374   1.835   6.059  1.9349  0.4081 -0.2090
 3040SOL     OW20578   1.886   0.259  10.717 -0.6468 -0.1893 -0.2957
 3040SOL    HW120579   1.862   0.300  10.800 -0.5188 -2.0306  0.6654
 3040SOL    HW220580   1.957   0.319  10.694 -0.9969 -0.4745 -2.1070
 3041SOL     OW20581   2.781   1.901   1.024 -0.2027 -0.0768 -0.1848
 3041SOL    HW120582   2.863   1.855   1.007  0.0205  0.6948 -1.1532
 3041SOL    HW220583   2.744   1.890   0.937  1.4959 -2.4732 -0.5922
 3042SOL     OW20584   4.201   2.147  15.715 -0.5787  0.1236 -0.4243
 3042SOL    HW120585   4.131   2.207  15.689 -2.1168 -1.8263 -0.7940
 3042SOL    HW220586   4.191   2.139  15.810 -0.0621 -0.0871 -0.3881
 3043SOL     OW20587   1.521   0.092   9.085 -0.0598  0.5496 -0.0424
 3043SOL    HW120588   1.550   0.171   9.130 -0.0220 -0.9218  2.4875
 3043SOL    HW220589   1.602   0.046   9.061  0.4871  0.1795  2.5318
 3044SOL     OW20590   1.474   3.641   4.742  0.1437  0.8092  0.2672
 3044SOL    HW120591   1.430   3.724   4.761 -2.5376 -1.0455  2.0972
 3044SOL    HW220592   1.420   3.583   4.796 -0.6192 -0.0037 -1.3612
 3045SOL     OW20593   4.075   1.747   1.773  0.5226 -0.0379  0.1814
 3045SOL    HW120594   4.068   1.707   1.687 -0.5668 -1.1045  0.7497
 3045SOL    HW220595   4.100   1.670   1.824  2.2606  0.5531  0.2203
 3046SOL     OW20596   0.409   3.420   3.116 -0.0184  0.1450 -0.2355
 3046SOL    HW120597   0.342   3.376   3.064 -0.2961 -1.0953  1.1911
 3046SOL    HW220598   0.360   3.451   3.192 -1.1918  1.2857 -1.4677
 3047SOL     OW20599   0.862   1.651  10.911 -0.3840  0.2313 -0.0284
 3047SOL    HW120600   0.903   1.625  10.994  1.5866  0.2754 -0.9693
 3047SOL    HW220601   0.799   1.580  10.897  2.6192 -2.2395 -1.0632
 3048SOL     OW20602   2.304   1.653   9.927  0.3018  0.3067 -0.0286
 3048SOL    HW120603   2.394   1.647   9.958  0.1139 -0.0208  0.4629
 3048SOL    HW220604   2.308   1.679   9.835 -2.3059 -0.0689 -0.2656
 3049SOL     OW20605   4.707   0.244   2.857 -0.2336  0.4521 -0.0535
 3049SOL    HW120606   4.718   0.241   2.952  0.4555  0.9351 -0.1150
 3049SOL    HW220607   4.661   0.162   2.838  0.0829 -0.0180  1.1874
 3050SOL     OW20608   4.397   2.770   8.904 -0.3951 -0.4813  0.1166
 3050SOL    HW120609   4.434   2.841   8.957  0.4247 -2.0135  1.6023
 3050SOL    HW220610   4.308   2.763   8.936 -0.4609  1.0843  0.3140
 3051SOL     OW20611   1.662   1.372   5.957  0.2579 -0.4532 -0.1517
 3051SOL    HW120612   1.609   1.431   6.010  0.8098 -0.2843  0.2056
 3051SOL    HW220613   1.686   1.435   5.889 -1.5241 -0.1165 -0.4715
 3052SOL     OW20614   0.715   1.314   5.143 -0.1297 -0.3455 -0.2619
 3052SOL    HW120615   0.774   1.276   5.078  0.5161  3.5076 -1.9552
 3052SOL    HW220616   0.684   1.231   5.180  2.2237 -0.5731  1.1409
 3053SOL     OW20617   3.087   2.573   6.352 -0.1615 -0.2229 -0.2350
 3053SOL    HW120618   3.099   2.667   6.369 -0.0207 -0.3015  0.0999
 3053SOL    HW220619   3.175   2.537   6.363 -0.0475 -0.2350 -1.2289
 3054SOL     OW20620   1.524   0.759   2.909  0.5078 -0.0515 -0.0615
 3054SOL    HW120621   1.554   0.837   2.956  1.4507  0.0797 -0.8935
 3054SOL    HW220622   1.429   0.765   2.897  0.7827 -1.3637 -2.7708
 3055SOL     OW20623   2.054   2.515  17.150 -0.1468 -0.0084 -0.6029
 3055SOL    HW120624   2.149   2.509  17.146 -0.2884 -2.8179  0.0552
 3055SOL    HW220625   2.034   2.492  17.241  0.6979 -2.1857 -0.9510
 3056SOL     OW20626   2.076   3.910   7.054 -0.0671  0.2990 -0.1522
 3056SOL    HW120627   2.060   3.973   6.984 -0.3482  0.6431  0.2171
 3056SOL    HW220628   2.097   3.971   7.125  0.3743 -0.1754  0.1252
 3057SOL     OW20629   0.804   1.655   7.659  0.2685  0.3234  0.3212
 3057SOL    HW120630   0.742   1.651   7.587 -1.0608 -1.9820  1.6084
 3057SOL    HW220631   0.745   1.688   7.726 -1.8046  1.0889 -1.9026
 3058SOL     OW20632   0.072   1.557   3.228  0.3004 -0.5233 -0.2135
 3058SOL    HW120633   0.107   1.619   3.291  0.7427 -3.8367  2.8122
 3058SOL    HW220634   0.124   1.575   3.149  2.0766 -3.2478  0.3091
 3059SOL     OW20635   3.251   0.837  12.812  0.2974  0.2243 -0.6136
 3059SOL    HW120636   3.169   0.886  12.805 -1.0879 -2.0857 -0.6485
 3059SOL    HW220637   3.311   0.903  12.844  0.6089 -0.7498  0.8146
 3060SOL     OW20638   0.101   3.554   8.114 -0.2134 -0.4640 -0.0885
 3060SOL    HW120639   0.179   3.553   8.058  1.8716  1.2816  2.7902
 3060SOL    HW220640   0.137   3.593   8.194 -0.1333 -0.6036 -0.0557
 3061SOL     OW20641   1.493   3.449  12.236  0.0590  0.1644  0.0706
 3061SOL    HW120642   1.547   3.528  12.230  0.2496  0.1334  1.4841
 3061SOL    HW220643   1.549   3.392  12.289 -0.2204 -2.0939 -2.0410
 3062SOL     OW20644   2.597   2.150   4.012 -0.1305 -0.0963  0.3249
 3062SOL    HW120645   2.599   2.090   3.938 -0.8240 -1.2687  1.2528
 3062SOL    HW220646   2.508   2.134   4.046 -1.1851  3.0469 -0.9203
 3063SOL     OW20647   1.898   0.307   3.776 -0.4626  0.0912  0.5955
 3063SOL    HW120648   1.886   0.314   3.871 -3.1356 -0.2230  0.2718
 3063SOL    HW220649   1.807   0.314   3.748 -0.1700 -0.5761 -0.5091
 3064SOL     OW20650   0.707   3.603   3.793 -0.0315  0.2196  0.0379
 3064SOL    HW120651   0.675   3.657   3.866  1.4183  0.9045  0.1607
 3064SOL    HW220652   0.801   3.598   3.811  0.3101 -1.0604 -2.0652
 3065SOL     OW20653   3.360   2.170   7.107 -0.2431  0.2686  0.0720
 3065SOL    HW120654   3.394   2.177   7.017 -0.7518 -3.0404 -0.3856
 3065SOL    HW220655   3.268   2.154   7.087 -0.6211  2.1828  0.3276
 3066SOL     OW20656   4.446   2.525   4.762  0.3682  0.4213 -0.7177
 3066SOL    HW120657   4.415   2.494   4.677  0.6258  0.5412 -0.8567
 3066SOL    HW220658   4.371   2.580   4.783 -0.1279 -0.1650 -0.9729
 3067SOL     OW20659   2.048   1.142   8.746  0.2762  0.4655  0.6024
 3067SOL    HW120660   2.129   1.192   8.762  0.4198  0.3407  0.2616
 3067SOL    HW220661   2.012   1.133   8.835  1.3593  3.1754  1.3194
 3068SOL     OW20662   2.923   2.869   0.903 -0.3085  0.2548 -0.4276
 3068SOL    HW120663   2.989   2.845   0.968  0.2440 -0.9167 -1.4339
 3068SOL    HW220664   2.905   2.959   0.931 -0.3277 -0.6609  2.4063
 3069SOL     OW20665   2.752   2.465   9.834  0.2179  0.3770 -0.0848
 3069SOL    HW120666   2.773   2.378   9.867 -1.5424  0.5717  1.5490
 3069SOL    HW220667   2.755   2.528   9.907 -1.3242 -1.5273  1.6005
 3070SOL     OW20668   3.285   0.481   5.708  0.6861  0.4908  0.0216
 3070SOL    HW120669   3.209   0.437   5.746 -0.2618  0.6995 -1.6531
 3070SOL    HW220670   3.305   0.427   5.632  2.0748  1.0083  0.0316
 3071SOL     OW20671   2.703   4.588  12.986  0.3884  0.2461  0.2964
 3071SOL    HW120672   2.654   4.652  13.037  0.3417  2.3251 -2.3618
 3071SOL    HW220673   2.792   4.624  12.987  0.4735  0.0008  1.6460
 3072SOL     OW20674   0.665   2.859   5.842 -0.1198 -0.0934  0.2735
 3072SOL    HW120675   0.695   2.768   5.845  0.3447  0.0307 -0.6825
 3072SOL    HW220676   0.610   2.867   5.919 -0.8926  0.2677 -0.3209
 3073SOL     OW20677   0.517   0.088   2.255  0.7052  0.3299  0.0722
 3073SOL    HW120678   0.607   0.077   2.284 -0.0032 -1.1353  1.7117
 3073SOL    HW220679   0.494   0.002   2.289  0.3796  0.1198 -0.7027
 3074SOL     OW20680   0.549   1.647  17.327 -0.3506 -0.3053 -0.0963
 3074SOL    HW120681   0.508   1.636  17.242 -1.3805 -3.2277  0.7889
 3074SOL    HW220682   0.486   1.701  17.376  1.1132 -0.2864  1.7798
 3075SOL     OW20683   3.609   2.148  14.981  0.2053 -0.2216  0.7930
 3075SOL    HW120684   3.520   2.165  14.951 -0.2953 -0.3360  2.1982
 3075SOL    HW220685   3.604   2.144  15.077 -0.7483  0.1265  0.7521
 3076SOL     OW20686   1.319   1.302  12.438  0.4135  0.2532 -0.8282
 3076SOL    HW120687   1.409   1.269  12.439 -0.1637 -1.1632  3.9314
 3076SOL    HW220688   1.316   1.362  12.513 -0.5359 -1.5571  0.5989
 3077SOL     OW20689   2.522   3.810  11.029 -0.0197  0.4593 -0.4291
 3077SOL    HW120690   2.482   3.741  11.082  1.6674  1.4646  2.1949
 3077SOL    HW220691   2.449   3.833  10.972 -1.2826  0.9840  1.3726
 3078SOL     OW20692   3.877   3.980   8.969 -0.6344  0.2644 -0.2434
 3078SOL    HW120693   3.933   4.026   9.031 -1.5734 -2.8925  2.9322
 3078SOL    HW220694   3.855   3.894   9.005  0.2844 -0.0363 -0.4046
 3079SOL     OW20695   4.115   3.196  10.997 -0.6092 -0.2086  0.4303
 3079SOL    HW120696   4.113   3.227  10.906  0.7297  0.2174  0.5465
 3079SOL    HW220697   4.154   3.268  11.046  0.3079 -0.2055 -0.3152
 3080SOL     OW20698   2.975   3.583   6.373  0.1347 -0.4014  0.3893
 3080SOL    HW120699   2.923   3.544   6.303  1.0644 -0.7925 -0.0815
 3080SOL    HW220700   2.916   3.654   6.399  0.5413 -0.4788  1.5124
 3081SOL     OW20701   2.326   0.211   9.478  0.0106 -0.3191 -0.4661
 3081SOL    HW120702   2.273   0.131   9.479 -0.6071  0.1303  2.9698
 3081SOL    HW220703   2.263   0.281   9.463  3.1142  2.1546 -1.8136
 3082SOL     OW20704   1.426   1.336   6.809  0.1017  0.4599  0.4398
 3082SOL    HW120705   1.350   1.297   6.853  0.1666 -1.9831 -1.6346
 3082SOL    HW220706   1.373   1.403   6.766 -1.2834 -1.1802 -0.4644
 3083SOL     OW20707   3.571   2.386  11.162  0.0490 -0.4105  0.4853
 3083SOL    HW120708   3.517   2.424  11.231  0.8300  1.0752  0.2772
 3083SOL    HW220709   3.577   2.458  11.100 -0.9855 -1.6218 -1.0243
 3084SOL     OW20710   2.646   4.304   7.398  0.7910 -0.0291 -0.4310
 3084SOL    HW120711   2.611   4.239   7.338 -0.5191 -0.1940  0.4955
 3084SOL    HW220712   2.624   4.392   7.367 -0.9747 -0.2949  0.0290
 3085SOL     OW20713   3.321   4.593   1.653 -0.5837 -0.1034  0.2418
 3085SOL    HW120714   3.400   4.543   1.635  0.7083  3.1780 -3.1647
 3085SOL    HW220715   3.373   4.673   1.662  1.8507 -1.6428 -0.1433
 3086SOL     OW20716   3.523   1.602   9.646  0.0232 -0.7794  0.4492
 3086SOL    HW120717   3.571   1.574   9.568 -0.9645 -1.6307  0.1546
 3086SOL    HW220718   3.557   1.531   9.700  1.2092 -0.5446  0.0175
 3087SOL     OW20719   0.586   0.419   9.667  0.0271  0.0372  0.2052
 3087SOL    HW120720   0.600   0.459   9.581  0.8781  0.4369  0.5391
 3087SOL    HW220721   0.504   0.459   9.696  0.3726  0.5631  0.4449
 3088SOL     OW20722   3.429   0.452   3.872 -0.1466 -0.0518 -0.6399
 3088SOL    HW120723   3.504   0.461   3.931 -0.3681 -2.5820  0.0162
 3088SOL    HW220724   3.381   0.533   3.891  0.1480 -0.4465  1.7635
 3089SOL     OW20725   2.408   2.816   9.805  0.2037 -0.5894  0.3215
 3089SOL    HW120726   2.342   2.760   9.764 -0.3758 -0.3970  1.0079
 3089SOL    HW220727   2.365   2.831   9.889 -0.2538  1.0097 -0.2085
 3090SOL     OW20728   4.049   4.348   6.874  0.4331 -0.0072 -0.3752
 3090SOL    HW120729   4.127   4.364   6.821  0.4177 -0.7000 -0.6106
 3090SOL    HW220730   4.087   4.272   6.919 -1.3064 -0.1964  0.7946
 3091SOL     OW20731   4.445   0.148   8.965 -0.2176  0.0858 -0.6291
 3091SOL    HW120732   4.525   0.110   8.930  1.0774  0.8038  1.5115
 3091SOL    HW220733   4.413   0.070   9.011 -1.2453  2.8359  3.4014
 3092SOL     OW20734   0.572   1.754   4.634 -0.3680  0.3262  0.1402
 3092SOL    HW120735   0.514   1.703   4.691 -0.2778 -0.5597 -0.5539
 3092SOL    HW220736   0.552   1.716   4.548  2.7429 -1.1150  0.0375
 3093SOL     OW20737   0.625   0.033   0.209  0.1171  0.3543  0.3469
 3093SOL    HW120738   0.662   0.102   0.154 -0.1418  0.0021 -0.2743
 3093SOL    HW220739   0.532   0.058   0.203 -0.1303 -0.7752 -0.6343
 3094SOL     OW20740   0.084   2.032   5.658  0.2766 -0.4212  0.6929
 3094SOL    HW120741   0.178   2.023   5.642  0.1499 -0.3849 -0.0842
 3094SOL    HW220742   0.055   1.944   5.682 -2.0954 -0.1645 -1.2346
 3095SOL     OW20743   0.061   4.497   6.036  0.0662  0.0733  0.5523
 3095SOL    HW120744   0.026   4.559   6.100 -0.0609 -0.2059  0.7592
 3095SOL    HW220745   0.019   4.538   5.961  2.6936 -1.5542 -1.7917
 3096SOL     OW20746   3.576   2.055  15.252  0.2982 -0.0117  0.2889
 3096SOL    HW120747   3.511   1.987  15.235  0.2292  0.6731 -2.2173
 3096SOL    HW220748   3.600   2.031  15.341 -1.9300 -2.0206  0.3270
 3097SOL     OW20749   1.976   0.457   6.472 -0.4080  0.2791 -0.0607
 3097SOL    HW120750   1.897   0.405   6.481 -0.0685 -0.0327  1.1255
 3097SOL    HW220751   1.935   0.544   6.475  0.5637  0.7489 -0.1919
 3098SOL     OW20752   2.790   1.288   3.847  0.4553  0.0069 -0.0389
 3098SOL    HW120753   2.728   1.226   3.886 -1.5652  2.5846  0.7637
 3098SOL    HW220754   2.837   1.230   3.787  0.9844  0.3700  0.0217
 3099SOL     OW20755   2.409   2.185  15.059 -0.2356 -0.0573  0.2167
 3099SOL    HW120756   2.343   2.120  15.037  0.9136 -1.1164 -0.1084
 3099SOL    HW220757   2.361   2.267  15.047  0.6207  0.6826  1.8614
 3100SOL     OW20758   3.563   0.846   3.922  0.4473 -0.3161 -0.6483
 3100SOL    HW120759   3.473   0.863   3.949  1.4594  3.0948  0.5606
 3100SOL    HW220760   3.553   0.829   3.828 -2.1786 -1.6869 -0.1316
 3101SOL     OW20761   2.724   2.695   0.335 -0.0405 -0.0194  0.5086
 3101SOL    HW120762   2.724   2.723   0.427  0.5497  1.6037  0.0192
 3101SOL    HW220763   2.663   2.761   0.300 -1.0721 -0.0630  2.1912
 3102SOL     OW20764   1.186   4.159   3.600 -0.0909 -0.2801  0.3301
 3102SOL    HW120765   1.155   4.078   3.560  3.4651 -1.3184 -0.3056
 3102SOL    HW220766   1.262   4.175   3.545  0.5047 -1.8455  0.7073
 3103SOL     OW20767   3.271   1.520   8.374  0.5618  0.4537 -0.6404
 3103SOL    HW120768   3.203   1.586   8.390 -0.6785 -0.7487 -0.9521
 3103SOL    HW220769   3.269   1.486   8.464 -1.9124  0.4200 -0.6882
 3104SOL     OW20770   3.771   4.643   2.544  0.3563  0.0885 -0.0006
 3104SOL    HW120771   3.681   4.649   2.575  0.3562  0.9819 -0.1540
 3104SOL    HW220772   3.809   4.724   2.578 -1.9556  0.6415  1.2808
 3105SOL     OW20773   4.724   2.958   9.216  0.2527  0.0771  0.5621
 3105SOL    HW120774   0.055   2.893   9.173 -0.8191  0.1323 -0.8994
 3105SOL    HW220775   0.001   2.944   9.310  2.4630 -1.8273  0.2356
 3106SOL     OW20776   1.447   3.253   6.029 -0.0954 -0.1129 -0.2847
 3106SOL    HW120777   1.411   3.184   6.084  0.9657  0.2055  0.8125
 3106SOL    HW220778   1.430   3.213   5.944 -1.2720 -0.2417  0.0228
 3107SOL     OW20779   2.947   4.012   3.375 -0.0090  0.4526  0.4158
 3107SOL    HW120780   2.866   4.042   3.334  0.2339 -0.5209 -0.7786
 3107SOL    HW220781   2.961   3.941   3.312 -0.4836  1.2040 -0.5163
 3108SOL     OW20782   3.521   1.698  11.949 -0.4973  0.0023 -0.3125
 3108SOL    HW120783   3.579   1.734  11.881 -0.4931  0.7003  0.0610
 3108SOL    HW220784   3.458   1.770  11.956  1.6567  2.0923 -2.0990
 3109SOL     OW20785   2.014   0.696   3.037  0.8418 -0.2274 -0.2984
 3109SOL    HW120786   2.004   0.609   3.075 -0.9125 -0.3188 -0.9846
 3109SOL    HW220787   2.090   0.727   3.086  0.1620  1.5514 -0.3684
 3110SOL     OW20788   2.235   4.101   6.572  0.7203  0.1979 -0.0681
 3110SOL    HW120789   2.221   4.009   6.593  0.4948  0.2387 -0.0406
 3110SOL    HW220790   2.246   4.145   6.656  0.0778 -1.7681  1.0571
 3111SOL     OW20791   2.322   2.262  13.900 -0.4659 -0.7301 -0.4650
 3111SOL    HW120792   2.287   2.270  13.989  2.1376  1.7675  0.3143
 3111SOL    HW220793   2.245   2.223  13.859  0.3471 -1.0818 -1.6308
 3112SOL     OW20794   0.971   1.195  16.943  0.3217  0.3599 -0.4316
 3112SOL    HW120795   0.923   1.232  17.018  2.3140  1.8236  0.1410
 3112SOL    HW220796   0.941   1.105  16.941 -2.2248  1.2145 -0.6002
 3113SOL     OW20797   3.932   3.532   5.036 -0.0584  0.2347 -0.6225
 3113SOL    HW120798   4.011   3.585   5.025  1.1374 -1.1080  1.6473
 3113SOL    HW220799   3.872   3.599   5.069  0.3697  0.8675 -1.1195
 3114SOL     OW20800   2.789   3.462   1.969 -0.6717 -0.0175  0.0356
 3114SOL    HW120801   2.788   3.426   2.058  0.4389 -0.3871 -0.1091
 3114SOL    HW220802   2.745   3.547   1.974 -0.2470  0.1187  1.6315
 3115SOL     OW20803   3.838   0.274   2.199  0.1892 -0.1777  0.1852
 3115SOL    HW120804   3.767   0.228   2.155  0.6324 -1.0366  0.3507
 3115SOL    HW220805   3.790   0.310   2.274 -1.8394 -1.3311 -0.5620
 3116SOL     OW20806   1.272   2.930   1.716 -0.3181 -0.3307  0.1918
 3116SOL    HW120807   1.203   2.913   1.653 -1.0007 -0.7555  1.0656
 3116SOL    HW220808   1.323   2.992   1.664 -2.0732 -1.0350 -2.3564
 3117SOL     OW20809   3.954   3.729  10.197 -0.0585 -0.4935 -0.0522
 3117SOL    HW120810   4.004   3.729  10.278  1.0492 -0.9205 -0.7337
 3117SOL    HW220811   4.023   3.700  10.138 -0.9463 -1.8877 -0.4083
 3118SOL     OW20812   4.609   3.150   4.338 -0.2702  0.1099 -0.1696
 3118SOL    HW120813   4.684   3.181   4.287 -0.0808 -1.5887 -0.9320
 3118SOL    HW220814   4.625   3.057   4.322  0.5885  0.2983 -0.3906
 3119SOL     OW20815   3.297   4.318   2.414  0.3281  0.9700 -0.0598
 3119SOL    HW120816   3.295   4.328   2.509  2.8075 -0.7675  0.1754
 3119SOL    HW220817   3.382   4.281   2.389 -0.4407 -2.8653  3.0906
 3120SOL     OW20818   1.660   2.272  11.749 -0.5719  0.3135  0.4948
 3120SOL    HW120819   1.637   2.304  11.836  0.3965 -0.2827  0.9704
 3120SOL    HW220820   1.719   2.198  11.766  1.3178  1.4896 -0.9034
 3121SOL     OW20821   4.610   3.342   2.972 -0.1574  0.7781  0.0959
 3121SOL    HW120822   4.560   3.378   2.899  0.1957 -1.3546 -1.1928
 3121SOL    HW220823   4.545   3.277   2.998  1.4377 -0.4711  0.8717
 3122SOL     OW20824   1.781   3.937   2.767 -0.2669  0.5054  0.0185
 3122SOL    HW120825   1.864   3.914   2.809 -0.4467 -0.4474 -0.1519
 3122SOL    HW220826   1.815   4.002   2.706 -1.6743  2.4119  1.2253
 3123SOL     OW20827   0.706   0.924  16.182 -0.2134 -0.4342 -0.1625
 3123SOL    HW120828   0.757   0.955  16.107 -0.5561 -2.2581 -1.1714
 3123SOL    HW220829   0.770   0.894  16.247  0.7264  0.6234 -0.5877
 3124SOL     OW20830   1.978   3.817  10.038  0.5768  0.7585  0.0007
 3124SOL    HW120831   1.886   3.796  10.021  1.5543 -0.0264 -4.1508
 3124SOL    HW220832   1.970   3.876  10.113 -1.9840  0.1105  0.2603
 3125SOL     OW20833   3.683   3.451   7.101 -0.3062  0.3501  0.0871
 3125SOL    HW120834   3.649   3.539   7.120 -0.1211  0.5010 -0.2754
 3125SOL    HW220835   3.622   3.398   7.152  0.1872 -0.9987 -0.7218
 3126SOL     OW20836   2.679   0.735   6.836  0.2016 -0.4806  0.2824
 3126SOL    HW120837   2.715   0.657   6.795 -3.1570 -0.6511 -2.3251
 3126SOL    HW220838   2.692   0.711   6.927 -1.7047  0.1340  0.7150
 3127SOL     OW20839   1.848   3.986  16.181  0.3912  1.0393  0.3711
 3127SOL    HW120840   1.837   4.022  16.092  0.9613  0.2702 -0.0117
 3127SOL    HW220841   1.940   3.962  16.166 -0.3083 -0.5197 -1.3943
 3128SOL     OW20842   0.177   0.288  15.976  0.1275  0.6029 -0.1180
 3128SOL    HW120843   0.200   0.206  15.933 -0.0449  0.4937 -0.0001
 3128SOL    HW220844   0.085   0.290  15.950  0.3148  0.9290 -0.7705
 3129SOL     OW20845   3.541   2.277   3.292  0.0167 -0.5540  0.3888
 3129SOL    HW120846   3.509   2.222   3.364 -0.1357 -0.8261  0.1121
 3129SOL    HW220847   3.634   2.269   3.313  0.3295 -0.5997 -0.9972
 3130SOL     OW20848   3.191   0.967   5.328  0.1926  0.5540  0.3835
 3130SOL    HW120849   3.139   1.019   5.389  0.1705  1.2193 -0.2008
 3130SOL    HW220850   3.120   0.926   5.278  0.1860  1.2408 -0.1741
 3131SOL     OW20851   2.285   1.988   8.722  0.0192  0.0119 -0.0574
 3131SOL    HW120852   2.209   1.942   8.687  0.7591 -0.9352 -0.4523
 3131SOL    HW220853   2.275   1.978   8.816 -1.8743 -0.7498 -0.3377
 3132SOL     OW20854   2.963   2.977   3.435  0.3967 -0.1200  0.4487
 3132SOL    HW120855   2.928   2.892   3.409 -1.7429  0.6476  0.8068
 3132SOL    HW220856   2.900   3.009   3.500  0.5973 -1.2627  1.2225
 3133SOL     OW20857   1.163   4.157   9.569 -0.2158  0.2688  0.0278
 3133SOL    HW120858   1.224   4.084   9.562 -2.0570 -0.8362 -4.6010
 3133SOL    HW220859   1.082   4.108   9.579  1.2674 -2.1400  0.3765
 3134SOL     OW20860   0.531   1.146   7.128 -0.7266  0.5049  0.3709
 3134SOL    HW120861   0.467   1.095   7.177  0.2659 -1.7624 -0.7169
 3134SOL    HW220862   0.471   1.178   7.061  2.5668  2.9523 -1.4230
 3135SOL     OW20863   3.164   4.219   5.883 -0.5823  0.1853  0.0475
 3135SOL    HW120864   3.201   4.284   5.823 -0.3859 -0.7133 -0.8021
 3135SOL    HW220865   3.237   4.207   5.945  0.4377  1.3811 -0.9377
 3136SOL     OW20866   3.618   2.149   7.164  0.3129  0.0153 -0.1840
 3136SOL    HW120867   3.523   2.146   7.149  0.5147  0.1675 -1.4778
 3136SOL    HW220868   3.653   2.158   7.075 -0.1790  0.2272 -0.3575
 3137SOL     OW20869   3.112   2.240   7.515  0.4298  0.0465  0.2973
 3137SOL    HW120870   3.062   2.271   7.439 -0.2259 -1.1525  0.2591
 3137SOL    HW220871   3.177   2.310   7.526  0.1819  0.4921 -1.0444
 3138SOL     OW20872   2.001   3.785   2.057  0.0375 -0.4079  0.0413
 3138SOL    HW120873   2.026   3.876   2.069 -0.2421 -0.2853 -0.3197
 3138SOL    HW220874   2.071   3.736   2.100 -0.4291 -0.4313  0.7841
 3139SOL     OW20875   2.294   2.574  16.816 -0.0779  0.2880  0.3043
 3139SOL    HW120876   2.382   2.551  16.787 -0.6786  1.1702 -2.2059
 3139SOL    HW220877   2.320   2.629  16.890 -1.7420 -1.4583  2.1806
 3140SOL     OW20878   3.502   2.705   3.057 -0.3229 -0.3795 -0.1383
 3140SOL    HW120879   3.527   2.639   2.992 -2.7109 -1.1335 -0.2880
 3140SOL    HW220880   3.443   2.764   3.011 -3.8029 -2.3586  1.7563
 3141SOL     OW20881   1.305   3.681  16.798  0.2908 -0.2361  0.0307
 3141SOL    HW120882   1.227   3.675  16.744  0.8823 -1.6833 -0.6791
 3141SOL    HW220883   1.265   3.711  16.879  0.2137  0.7786 -0.3947
 3142SOL     OW20884   3.702   3.630  13.769  0.1980  0.2230  0.2942
 3142SOL    HW120885   3.726   3.644  13.677  2.2797  1.7289  1.0664
 3142SOL    HW220886   3.728   3.718  13.797  0.2864  1.3231 -3.2015
 3143SOL     OW20887   0.513   4.213   5.455  0.0063  0.3085 -0.2769
 3143SOL    HW120888   0.559   4.297   5.450 -3.0763  2.0082  0.3010
 3143SOL    HW220889   0.457   4.222   5.378  0.6289  0.0504 -0.7715
 3144SOL     OW20890   2.757   2.520   5.333 -0.3070 -0.3177 -0.3632
 3144SOL    HW120891   2.788   2.532   5.243  1.2850 -2.0632 -0.0720
 3144SOL    HW220892   2.794   2.443   5.377 -1.9206 -0.6475  0.4302
 3145SOL     OW20893   0.081   2.371   3.644 -0.4516  0.4314  0.1212
 3145SOL    HW120894   0.083   2.409   3.556 -1.5215 -1.1287 -0.5813
 3145SOL    HW220895   0.066   2.451   3.693  2.5930 -0.0691  1.8763
 3146SOL     OW20896   0.732   2.477   7.073  0.4883  0.2305 -0.4253
 3146SOL    HW120897   0.754   2.453   7.163 -0.8646 -1.4938 -0.5324
 3146SOL    HW220898   0.733   2.392   7.030 -1.8898  0.5025 -1.0254
 3147SOL     OW20899   2.426   3.074   8.254  0.1171 -0.9582  0.3504
 3147SOL    HW120900   2.383   3.005   8.304 -2.6850 -1.0944 -2.2511
 3147SOL    HW220901   2.462   3.112   8.334  0.7567 -0.0663 -0.3652
 3148SOL     OW20902   1.545   0.654  11.281  0.6049  0.1518  0.9157
 3148SOL    HW120903   1.566   0.631  11.190 -0.1462 -1.7217  1.2189
 3148SOL    HW220904   1.623   0.705  11.302 -0.5763  2.2664  0.1638
 3149SOL     OW20905   0.455   1.463   2.514  0.3632 -0.1927  0.2871
 3149SOL    HW120906   0.462   1.547   2.561 -3.6615  0.7396 -0.7453
 3149SOL    HW220907   0.412   1.404   2.575 -2.6722  0.8618 -0.7992
 3150SOL     OW20908   3.160   0.551  17.602  0.4138  0.0474  0.0007
 3150SOL    HW120909   3.237   0.585  17.557  1.0124 -3.3543 -1.5763
 3150SOL    HW220910   3.092   0.597  17.551 -1.2362 -0.9057  1.3398
 3151SOL     OW20911   1.768   3.439   8.905  0.2955  0.0049  0.6869
 3151SOL    HW120912   1.683   3.403   8.931  0.2817  0.1711  0.8775
 3151SOL    HW220913   1.827   3.390   8.961  1.3000  0.3702 -0.0636
 3152SOL     OW20914   2.535   3.039   7.421  0.5727 -0.3494 -0.4907
 3152SOL    HW120915   2.557   3.098   7.494  0.2963  0.3837 -1.0011
 3152SOL    HW220916   2.455   3.081   7.391 -0.8460 -1.5004  1.6898
 3153SOL     OW20917   1.591   3.337   6.897 -0.0699  0.2909  0.3367
 3153SOL    HW120918   1.573   3.423   6.934 -2.7611  0.5103 -1.4795
 3153SOL    HW220919   1.686   3.329   6.905 -0.3305 -0.5406  2.6593
 3154SOL     OW20920   0.810   2.321  16.065 -0.6706 -0.0857  0.0189
 3154SOL    HW120921   0.896   2.360  16.083 -0.9880  0.5385  0.1664
 3154SOL    HW220922   0.837   2.265  15.992 -2.3190 -0.7026 -0.0999
 3155SOL     OW20923   2.166   2.974   7.747 -0.0007  0.3075  0.3844
 3155SOL    HW120924   2.199   3.045   7.803 -1.9802  0.9130  0.7897
 3155SOL    HW220925   2.233   2.906   7.749 -1.5573 -1.2111  0.7352
 3156SOL     OW20926   3.477   3.479   8.652 -0.1450 -0.6070 -0.0050
 3156SOL    HW120927   3.452   3.520   8.570 -0.9983  2.1981  1.6573
 3156SOL    HW220928   3.532   3.546   8.694  1.2282 -1.3384 -0.6192
 3157SOL     OW20929   3.871   2.103   1.525 -0.1693  0.5680 -0.3452
 3157SOL    HW120930   3.960   2.078   1.550 -0.6206  0.5197  1.2188
 3157SOL    HW220931   3.835   2.015   1.531 -1.1397  1.0479  0.8418
 3158SOL     OW20932   0.030   4.422   9.533  0.1823  0.4319  0.2287
 3158SOL    HW120933   0.094   4.355   9.557 -1.3852 -0.7253  1.1227
 3158SOL    HW220934   4.673   4.384   9.564 -0.1109  0.3018 -0.6816
 3159SOL     OW20935   0.844   0.988   2.771  0.4311 -0.6222  0.2963
 3159SOL    HW120936   0.835   0.910   2.716  1.8754 -0.3176 -0.3792
 3159SOL    HW220937   0.828   1.058   2.709 -0.7573 -1.3555 -0.2107
 3160SOL     OW20938   2.058   0.088   3.768  0.0305  0.1167 -0.6835
 3160SOL    HW120939   2.000   0.164   3.759  0.7166  0.8640  1.1570
 3160SOL    HW220940   1.999   0.014   3.780  0.5350 -0.2496 -0.4864
 3161SOL     OW20941   3.403   2.658   6.064 -0.5093 -0.2131  0.1411
 3161SOL    HW120942   3.404   2.742   6.109 -3.3009  0.5411 -1.1472
 3161SOL    HW220943   3.310   2.633   6.071 -0.5452  0.4120  1.7694
 3162SOL     OW20944   2.265   0.600   1.148 -0.2916 -1.0590 -0.2860
 3162SOL    HW120945   2.346   0.550   1.159 -0.2084 -0.1624  3.4267
 3162SOL    HW220946   2.307   0.683   1.168  1.9661 -2.5019  0.9648
 3163SOL     OW20947   4.245   1.000   8.262 -0.3794 -0.0853  0.1232
 3163SOL    HW120948   4.307   1.071   8.280  2.0150 -1.7374 -1.6056
 3163SOL    HW220949   4.255   0.994   8.167 -0.1214  1.3285  0.0531
 3164SOL     OW20950   3.095   4.589   6.679 -0.0469  0.5023  0.0797
 3164SOL    HW120951   3.102   4.681   6.703  0.9030  0.3013  0.5722
 3164SOL    HW220952   3.187   4.562   6.685  0.6722  2.7184 -0.8493
 3165SOL     OW20953   2.254   1.798   2.969 -0.1246 -0.4734  0.3035
 3165SOL    HW120954   2.248   1.723   3.028 -1.9722 -0.1614  0.5295
 3165SOL    HW220955   2.166   1.832   2.986  0.8679  2.7603 -0.9569
 3166SOL     OW20956   3.013   1.923   7.913 -0.1257 -0.0860 -0.1356
 3166SOL    HW120957   3.023   1.997   7.852  0.5654 -0.2916 -0.2782
 3166SOL    HW220958   3.099   1.917   7.954 -0.8032 -2.3343  0.9165
 3167SOL     OW20959   4.189   1.294  11.795 -0.5375 -0.1202  0.1394
 3167SOL    HW120960   4.250   1.360  11.829 -0.3442 -0.4853  0.4988
 3167SOL    HW220961   4.251   1.227  11.767  1.5919  1.9493 -0.0810
 3168SOL     OW20962   3.852   0.603   3.941  0.2365  0.1327 -0.0915
 3168SOL    HW120963   3.905   0.678   3.914 -2.0071  0.6141 -3.1838
 3168SOL    HW220964   3.917   0.535   3.955  0.5057  0.2881 -0.5665
 3169SOL     OW20965   3.601   3.611   3.952  0.0954 -0.1178  0.2369
 3169SOL    HW120966   3.535   3.579   4.012 -1.2622  1.6834 -0.3015
 3169SOL    HW220967   3.550   3.680   3.911  1.6276  2.0285  1.9185
 3170SOL     OW20968   4.340   3.425   7.073 -0.3140  0.3762  1.0285
 3170SOL    HW120969   4.381   3.351   7.118 -1.1018  1.0183  2.7895
 3170SOL    HW220970   4.302   3.467   7.150 -1.8499 -1.1964  1.1348
 3171SOL     OW20971   1.332   0.753   4.706 -0.0159  0.1474  0.0600
 3171SOL    HW120972   1.379   0.771   4.624  0.3732 -0.4684  0.1475
 3171SOL    HW220973   1.399   0.709   4.758 -1.8109 -0.9308  1.4503
 3172SOL     OW20974   4.614   1.381  14.859  0.6688 -0.2787  0.5051
 3172SOL    HW120975   4.584   1.468  14.833  0.9223  0.1164  1.5221
 3172SOL    HW220976   4.539   1.326  14.836  1.2226 -0.8150  0.0021
 3173SOL     OW20977   2.232   2.340  13.259 -0.4635  0.2033  0.3936
 3173SOL    HW120978   2.168   2.397  13.217 -1.3567 -1.1489 -0.0755
 3173SOL    HW220979   2.216   2.349  13.353 -2.1624  2.2075 -0.0855
 3174SOL     OW20980   3.300   3.543  15.398 -0.4619 -0.1754 -0.2875
 3174SOL    HW120981   3.243   3.602  15.348 -1.3086 -0.6912  0.0772
 3174SOL    HW220982   3.361   3.519  15.328 -0.9737 -1.2636 -0.3519
 3175SOL     OW20983   4.029   0.865  10.918  0.9608 -0.0107 -0.0978
 3175SOL    HW120984   4.123   0.852  10.924  0.7666 -1.4923 -0.3348
 3175SOL    HW220985   4.015   0.807  10.843 -1.9628 -0.2808  0.6261
 3176SOL     OW20986   3.730   2.670   4.750 -0.0930  0.0090 -0.3346
 3176SOL    HW120987   3.794   2.643   4.816 -1.8375 -1.1752  0.8797
 3176SOL    HW220988   3.749   2.609   4.679  1.2662  1.0551 -0.8657
 3177SOL     OW20989   3.762   1.905   5.067  0.6642  0.7745  0.6961
 3177SOL    HW120990   3.840   1.850   5.059  0.3357  0.5358 -0.7688
 3177SOL    HW220991   3.732   1.885   5.156 -0.1865  1.6304  0.5986
 3178SOL     OW20992   3.111   4.498  17.626  0.3520  0.1266  0.0134
 3178SOL    HW120993   3.168   4.431  17.664 -1.2469 -1.1352  0.1920
 3178SOL    HW220994   3.024   4.463  17.646  0.7437 -0.0381  1.4389
 3179SOL     OW20995   3.913   0.243  11.529 -0.3823  0.3262 -1.0434
 3179SOL    HW120996   3.836   0.199  11.565 -0.2847  0.4007 -0.7383
 3179SOL    HW220997   3.976   0.231  11.600 -1.9152 -2.2977 -0.1045
 3180SOL     OW20998   4.305   2.500   8.309  0.0568  0.6363 -0.7802
 3180SOL    HW120999   4.399   2.512   8.296  0.8756 -4.3702  0.6218
 3180SOL    HW221000   4.270   2.470   8.225 -2.0238  0.9232 -0.0246
 3181SOL     OW21001   2.816   2.897  13.222  0.1028 -0.3721  0.0799
 3181SOL    HW121002   2.860   2.914  13.305 -0.4827  0.3732  0.2382
 3181SOL    HW221003   2.895   2.882  13.170 -0.0030  0.0403 -0.2000
 3182SOL     OW21004   0.253   2.447   4.514  0.6416  0.0840  0.3076
 3182SOL    HW121005   0.252   2.351   4.510 -1.0150  0.1185  0.2013
 3182SOL    HW221006   0.253   2.449   4.609 -1.3546  0.7103  0.2759
 3183SOL     OW21007   1.088   2.113  15.247  0.3320  0.3854 -0.3905
 3183SOL    HW121008   1.139   2.160  15.181  1.9370 -1.7042 -0.6340
 3183SOL    HW221009   1.027   2.179  15.280  0.7254 -0.2505  1.5764
 3184SOL     OW21010   1.486   1.765   0.124  0.3755  0.7109 -0.2453
 3184SOL    HW121011   1.410   1.706   0.119 -0.5554  1.6663  2.6285
 3184SOL    HW221012   1.440   1.836   0.169 -0.0173  0.2853  0.0365
 3185SOL     OW21013   3.818   2.959   2.975 -0.5436 -0.3884 -0.5195
 3185SOL    HW121014   3.824   2.952   2.880 -1.3382 -0.8314 -0.5398
 3185SOL    HW221015   3.821   2.866   2.998  0.0119 -0.3471 -0.4438
 3186SOL     OW21016   4.200   1.116   7.481  0.1136  0.0292 -0.2574
 3186SOL    HW121017   4.283   1.159   7.457 -0.4377  1.2425  0.0033
 3186SOL    HW221018   4.166   1.094   7.394 -1.6722 -2.9811  1.2237
 3187SOL     OW21019   0.207   2.639  12.768 -0.3737 -0.9093 -0.6105
 3187SOL    HW121020   0.152   2.658  12.692 -0.1738 -0.3185 -0.6071
 3187SOL    HW221021   0.151   2.577  12.813 -0.6773  1.4508  2.2564
 3188SOL     OW21022   3.109   1.679   6.145  0.1965  0.0526 -0.1269
 3188SOL    HW121023   3.080   1.596   6.106 -2.0012  1.1434 -0.8039
 3188SOL    HW221024   3.023   1.706   6.178 -0.3830  0.1831 -1.7388
 3189SOL     OW21025   1.563   1.278   5.574 -0.0553 -0.3421 -0.1311
 3189SOL    HW121026   1.522   1.216   5.634 -0.7837 -2.1047 -2.4397
 3189SOL    HW221027   1.512   1.356   5.594 -0.3259 -0.2442 -1.2101
 3190SOL     OW21028   2.896   3.541   4.769  0.0725 -0.3147  0.4986
 3190SOL    HW121029   2.939   3.512   4.689 -0.8150 -1.2323  0.3551
 3190SOL    HW221030   2.869   3.456   4.804  3.0013 -1.4554 -0.0120
 3191SOL     OW21031   4.163   2.820  16.190  0.2905  0.2367  0.1386
 3191SOL    HW121032   4.193   2.766  16.263  0.7212  0.6931  0.3092
 3191SOL    HW221033   4.175   2.907  16.229  2.1536 -0.1301  0.3905
 3192SOL     OW21034   1.119   3.464   3.444 -0.4130  0.4361 -0.0033
 3192SOL    HW121035   1.088   3.538   3.392 -1.1259  1.3564  1.7562
 3192SOL    HW221036   1.044   3.440   3.498  0.5709 -1.5198  0.4926
 3193SOL     OW21037   0.197   4.406   1.486 -0.1479  0.8796  0.1719
 3193SOL    HW121038   0.135   4.338   1.510  1.3174 -0.6599 -0.4026
 3193SOL    HW221039   0.259   4.350   1.439  1.0652  1.6510  0.8275
 3194SOL     OW21040   0.228   2.330  12.678 -0.3858  0.2790 -0.1341
 3194SOL    HW121041   0.155   2.377  12.719  0.2319  0.5780  0.6301
 3194SOL    HW221042   0.199   2.323  12.587 -0.8887  0.2345  0.0306
 3195SOL     OW21043   0.162   2.627   5.178 -0.0802  0.2715 -0.0732
 3195SOL    HW121044   0.087   2.661   5.129 -1.7273 -0.6010  1.8703
 3195SOL    HW221045   0.141   2.534   5.174 -0.3764  0.2902  1.0805
 3196SOL     OW21046   0.752   0.981   0.779  0.4647  0.6189  0.2653
 3196SOL    HW121047   0.702   1.023   0.709  1.9748  1.2312 -0.4480
 3196SOL    HW221048   0.806   1.057   0.802  0.5561 -0.0804  2.3682
 3197SOL     OW21049   2.121   1.705   4.636  0.1987  0.0472  0.6500
 3197SOL    HW121050   2.042   1.666   4.672 -0.2419 -1.8275 -2.2907
 3197SOL    HW221051   2.183   1.684   4.705  3.3064  2.9945 -1.2397
 3198SOL     OW21052   3.548   4.624  12.127  0.1878 -0.2723  0.3317
 3198SOL    HW121053   3.492   4.698  12.149 -1.9088 -2.5936  2.9331
 3198SOL    HW221054   3.622   4.678  12.101 -0.2659  0.3629  0.3731
 3199SOL     OW21055   0.939   3.492   6.091 -0.3693 -0.4528  0.2226
 3199SOL    HW121056   0.964   3.510   6.181 -0.1224 -1.6493  0.3973
 3199SOL    HW221057   0.863   3.551   6.083 -0.9233 -1.0986  0.7088
 3200SOL     OW21058   4.340   2.968  15.390  0.3457  0.5091 -0.5573
 3200SOL    HW121059   4.339   3.059  15.363 -0.7225  0.6124 -0.1985
 3200SOL    HW221060   4.391   2.973  15.471 -2.2808  2.2292  0.9755
 3201SOL     OW21061   0.621   3.593   5.676 -0.1133 -0.2146 -0.5471
 3201SOL    HW121062   0.636   3.507   5.636  2.5385  0.3100 -0.6390
 3201SOL    HW221063   0.532   3.571   5.703  0.4217 -2.6986 -0.7437
 3202SOL     OW21064   0.879   4.602   5.825  0.4441  0.2545  0.5240
 3202SOL    HW121065   0.937   4.532   5.796 -0.9005  0.1369 -1.8667
 3202SOL    HW221066   0.816   4.610   5.753 -2.4561  1.8953  3.2448
 3203SOL     OW21067   1.246   3.623   1.405 -0.3999  0.1900  0.0102
 3203SOL    HW121068   1.220   3.608   1.495  1.5890 -1.0674  0.3893
 3203SOL    HW221069   1.176   3.685   1.383 -0.8144 -0.6967 -1.1807
 3204SOL     OW21070   0.419   3.340   2.527 -0.7404  0.4507  0.0282
 3204SOL    HW121071   0.464   3.404   2.472 -0.3479 -1.8398 -2.2822
 3204SOL    HW221072   0.357   3.313   2.459  0.2864 -3.2269  0.5713
 3205SOL     OW21073   1.129   4.285   6.461  0.0201 -0.1255  0.0637
 3205SOL    HW121074   1.137   4.329   6.377  0.3358  1.3691  0.8765
 3205SOL    HW221075   1.044   4.244   6.445 -0.2472  0.0348  1.0383
 3206SOL     OW21076   0.726   0.728   9.773 -0.3644 -0.3777 -0.5690
 3206SOL    HW121077   0.787   0.802   9.770 -0.7877  0.0396  1.0809
 3206SOL    HW221078   0.687   0.749   9.858 -1.1801 -0.9100 -0.8196
 3207SOL     OW21079   2.595   2.549   4.652  0.3727  0.4581 -0.1555
 3207SOL    HW121080   2.522   2.528   4.594  0.7652  1.4622 -1.0054
 3207SOL    HW221081   2.650   2.471   4.650  2.6044  1.9816  2.2610
 3208SOL     OW21082   4.567   0.687   6.245 -0.0440  0.0134 -0.5582
 3208SOL    HW121083   4.490   0.741   6.232 -0.6105 -0.5680  0.3479
 3208SOL    HW221084   4.632   0.737   6.197  3.5389 -2.2191  1.9012
 3209SOL     OW21085   4.599   2.736   9.989  0.8067 -0.2678  0.2865
 3209SOL    HW121086   4.679   2.720   9.939  0.0728  2.4372 -1.7733
 3209SOL    HW221087   4.633   2.779  10.068 -1.7715  0.1840  1.1415
 3210SOL     OW21088   4.300   1.937  12.422 -0.2782 -0.5020 -0.0977
 3210SOL    HW121089   4.346   1.927  12.505 -0.5908  1.9144  0.3633
 3210SOL    HW221090   4.364   1.986  12.371 -2.1409  0.6117 -1.3545
 3211SOL     OW21091   2.437   0.075   4.414 -0.7143 -0.7597  0.0830
 3211SOL    HW121092   2.400   0.150   4.367  1.9958  0.2291 -0.4961
 3211SOL    HW221093   2.508   0.112   4.467  0.1106 -1.6452 -0.4060
 3212SOL     OW21094   0.551   2.521   2.478 -0.2861  0.0816 -0.4800
 3212SOL    HW121095   0.466   2.562   2.459  0.0403  0.8876 -0.1817
 3212SOL    HW221096   0.547   2.547   2.570 -4.2631 -1.7705 -0.1217
 3213SOL     OW21097   0.269   0.134   8.423  0.5347 -0.1138  0.1890
 3213SOL    HW121098   0.333   0.095   8.482  0.2645 -0.4602  0.2499
 3213SOL    HW221099   0.217   0.191   8.481  0.1445  1.1160 -1.3643
 3214SOL     OW21100   1.034   1.883  17.060 -0.3265 -0.0424 -0.2360
 3214SOL    HW121101   1.072   1.801  17.092 -2.4263 -1.6582 -1.8568
 3214SOL    HW221102   0.959   1.850  17.011 -1.8820  2.7601  0.2777
 3215SOL     OW21103   1.505   0.492  17.127  0.1137 -0.5126 -0.1241
 3215SOL    HW121104   1.582   0.527  17.171 -0.8903  2.0335 -0.4171
 3215SOL    HW221105   1.468   0.428  17.187  1.3742 -0.4971  0.6665
 3216SOL     OW21106   2.945   2.386   4.784  0.9412 -0.5047 -0.3860
 3216SOL    HW121107   2.928   2.426   4.869 -1.3235 -0.6722 -0.7563
 3216SOL    HW221108   3.022   2.432   4.751 -0.7386  2.1852 -0.5308
 3217SOL     OW21109   3.326   1.886  11.997 -0.4616 -0.0875  0.0342
 3217SOL    HW121110   3.338   1.978  11.974 -0.6690 -0.2598 -0.7513
 3217SOL    HW221111   3.245   1.883  12.049 -0.9136  0.0492 -0.6624
 3218SOL     OW21112   3.196   0.158   3.540 -0.5985 -0.3619  0.1041
 3218SOL    HW121113   3.263   0.096   3.569  0.7931  1.3582  0.5835
 3218SOL    HW221114   3.213   0.228   3.602 -1.5089  0.8368 -1.0090
 3219SOL     OW21115   4.002   3.877   7.380 -0.4616 -0.7030 -0.2900
 3219SOL    HW121116   3.923   3.873   7.435  0.8129  1.0695  1.6521
 3219SOL    HW221117   4.069   3.844   7.440 -2.4183  0.8151  2.7471
 3220SOL     OW21118   1.437   3.880   6.998 -0.1050 -0.0877  0.2012
 3220SOL    HW121119   1.401   3.947   7.057  0.2448 -0.0162  0.3326
 3220SOL    HW221120   1.519   3.851   7.038 -1.0397 -1.1117  1.4009
 3221SOL     OW21121   3.103   1.468   7.154  0.5957  0.0269  0.4150
 3221SOL    HW121122   3.191   1.453   7.187 -0.0538 -0.6075  1.8867
 3221SOL    HW221123   3.080   1.381   7.122 -0.3715  0.9061 -1.2569
 3222SOL     OW21124   2.279   4.003   5.461 -0.1115  0.0773  0.4938
 3222SOL    HW121125   2.191   4.041   5.451  0.0494 -0.0587 -1.3745
 3222SOL    HW221126   2.335   4.075   5.491 -1.8013  1.2219  0.9424
 3223SOL     OW21127   3.431   1.859   6.975 -0.6392 -0.1965 -0.1874
 3223SOL    HW121128   3.356   1.874   6.918 -0.4498 -2.3804 -1.0083
 3223SOL    HW221129   3.406   1.892   7.061  1.1718  1.8141 -0.4384
 3224SOL     OW21130   0.422   2.554  16.364  0.2251  0.3501  0.1325
 3224SOL    HW121131   0.432   2.607  16.285  0.2936  2.3505  1.5040
 3224SOL    HW221132   0.332   2.571  16.393  0.4792  1.0770  0.4765
 3225SOL     OW21133   2.972   0.959   2.875 -0.2999 -0.3611  0.0656
 3225SOL    HW121134   3.014   1.034   2.834 -0.4842 -0.1594  0.2457
 3225SOL    HW221135   2.884   0.958   2.836 -0.2019 -2.8673 -0.0677
 3226SOL     OW21136   2.831   0.195   1.946  0.1725  0.2284 -0.5041
 3226SOL    HW121137   2.782   0.259   1.895 -0.1533 -0.4083 -0.9905
 3226SOL    HW221138   2.826   0.113   1.896 -2.3567  0.4399 -0.5522
 3227SOL     OW21139   3.652   2.132  10.536  0.2168  0.0462  0.0140
 3227SOL    HW121140   3.734   2.179  10.522 -0.5707  1.2981 -0.3998
 3227SOL    HW221141   3.656   2.098  10.625 -0.6279 -4.4134 -1.6452
 3228SOL     OW21142   3.298   2.472   7.568  0.0436  0.0110  0.1490
 3228SOL    HW121143   3.279   2.512   7.653 -1.6423 -0.7968  0.1360
 3228SOL    HW221144   3.305   2.548   7.510 -0.8125  1.0567  1.4135
 3229SOL     OW21145   3.224   2.078   0.512  0.1485 -0.0059  0.4799
 3229SOL    HW121146   3.285   2.079   0.586 -1.4145  1.2824  1.7481
 3229SOL    HW221147   3.204   2.171   0.524 -0.0798 -0.4078  3.1972
 3230SOL     OW21148   2.631   3.527   2.664 -0.1086  0.7922  0.4503
 3230SOL    HW121149   2.577   3.464   2.616  1.3103  0.2313 -0.4408
 3230SOL    HW221150   2.695   3.551   2.597 -2.4727 -0.2130 -2.1511
 3231SOL     OW21151   2.674   1.946   8.100  0.3050  0.1499  0.1121
 3231SOL    HW121152   2.732   1.874   8.127  0.7988  0.4930 -0.0352
 3231SOL    HW221153   2.638   1.959   8.188 -1.6462  0.6534 -0.7647
 3232SOL     OW21154   1.648   2.929   1.159 -0.0898 -0.5289 -0.0712
 3232SOL    HW121155   1.609   3.016   1.157 -0.2104 -0.5824 -0.0781
 3232SOL    HW221156   1.607   2.898   1.239  0.7131 -1.4482 -0.0162
 3233SOL     OW21157   3.323   3.025   0.360  0.1488 -0.3602  0.2674
 3233SOL    HW121158   3.330   3.120   0.357 -1.3847 -0.1797  2.0122
 3233SOL    HW221159   3.294   3.008   0.450  0.1173  0.4167  0.3986
 3234SOL     OW21160   3.604   2.068  14.341 -0.3804 -0.0957  0.5312
 3234SOL    HW121161   3.525   2.069  14.287 -0.5334  0.8168  0.7636
 3234SOL    HW221162   3.682   2.050  14.289  0.1405 -2.7961  2.2616
 3235SOL     OW21163   0.704   3.722   8.083  1.0180  0.2175  0.0439
 3235SOL    HW121164   0.710   3.774   8.164 -2.0138 -0.5098  0.7411
 3235SOL    HW221165   0.629   3.764   8.042  1.9604  2.3927  0.5235
 3236SOL     OW21166   4.664   1.172   1.233  0.2572 -0.2476  0.3991
 3236SOL    HW121167   4.568   1.170   1.233  0.2389  0.6199  0.2423
 3236SOL    HW221168   4.678   1.085   1.194 -1.0330 -0.1769 -0.2079
 3237SOL     OW21169   4.545   2.514   1.175 -0.1453 -0.6758 -0.8017
 3237SOL    HW121170   4.554   2.536   1.082  3.0084 -0.7527 -0.5359
 3237SOL    HW221171   4.478   2.579   1.197  2.8180  1.9994  0.4156
 3238SOL     OW21172   3.313   4.341  14.657  0.4916  0.9202  0.1018
 3238SOL    HW121173   3.357   4.423  14.679 -0.6493  1.4164  0.5180
 3238SOL    HW221174   3.314   4.345  14.562 -1.8159  0.5135  0.0569
 3239SOL     OW21175   2.488   1.878  16.168 -0.2742  0.2906  0.2180
 3239SOL    HW121176   2.500   1.787  16.195 -0.2823  0.2328  0.0293
 3239SOL    HW221177   2.417   1.905  16.226  1.1170  2.8581  0.7298
 3240SOL     OW21178   4.163   4.547   7.807  0.2844 -0.0880  0.1378
 3240SOL    HW121179   4.229   4.478   7.806  1.8443  1.3876 -0.0490
 3240SOL    HW221180   4.191   4.597   7.883  1.7477 -0.5852 -0.0761
 3241SOL     OW21181   1.177   3.578   7.614  0.7296 -0.1100 -0.2022
 3241SOL    HW121182   1.165   3.544   7.703  0.2479  1.3561  0.2885
 3241SOL    HW221183   1.098   3.552   7.569  0.9532 -1.4296  0.1722
 3242SOL     OW21184   0.510   0.400   3.136  0.1163 -0.2317 -0.2750
 3242SOL    HW121185   0.528   0.363   3.049  1.6148 -1.0983  0.4080
 3242SOL    HW221186   0.600   0.406   3.168  0.4385 -0.3912 -1.1456
 3243SOL     OW21187   3.348   0.420   5.424 -0.7496 -0.4320  0.6246
 3243SOL    HW121188   3.331   0.485   5.357  2.7158 -0.7565 -0.5350
 3243SOL    HW221189   3.391   0.350   5.375 -0.9578 -0.0665 -0.0739
 3244SOL     OW21190   2.323   4.606   5.375  0.1310 -0.3849 -0.6343
 3244SOL    HW121191   2.370   4.530   5.411 -0.1779 -0.4302 -0.3248
 3244SOL    HW221192   2.352   4.671   5.438 -2.7451  1.0592 -0.8386
 3245SOL     OW21193   2.413   4.714   2.518  0.1220 -0.3659  0.1808
 3245SOL    HW121194   2.428   4.621   2.534  1.2217 -0.1428  0.4795
 3245SOL    HW221195   2.364   0.014   2.597 -0.2080 -0.4154 -0.0081
 3246SOL     OW21196   1.528   0.461   4.619  0.5895 -0.3855 -0.3678
 3246SOL    HW121197   1.440   0.449   4.583 -0.3711  1.0895  1.4725
 3246SOL    HW221198   1.512   0.503   4.704  1.2476 -0.4239 -0.2230
 3247SOL     OW21199   1.951   2.847   5.973 -0.6265 -0.4205  0.1972
 3247SOL    HW121200   1.869   2.799   5.988 -1.2218 -0.0209 -1.7539
 3247SOL    HW221201   1.932   2.907   5.901  1.1173 -0.3498 -0.1935
 3248SOL     OW21202   1.437   0.663   2.503 -0.0232 -0.1588  0.1100
 3248SOL    HW121203   1.497   0.636   2.433 -0.6591 -0.6939 -0.2272
 3248SOL    HW221204   1.376   0.591   2.515 -0.6270  0.8993  3.4160
 3249SOL     OW21205   3.495   2.528   4.653 -0.0708  0.2137 -0.3146
 3249SOL    HW121206   3.406   2.537   4.686 -0.4733 -0.9963 -1.0818
 3249SOL    HW221207   3.543   2.594   4.703 -2.9115  1.4842  0.7308
 3250SOL     OW21208   3.436   3.397   5.068  0.1501 -0.2224  0.1614
 3250SOL    HW121209   3.427   3.302   5.077  0.4722 -0.1225  1.4781
 3250SOL    HW221210   3.528   3.401   5.040  0.3178  0.8013  0.8779
 3251SOL     OW21211   3.598   4.252   5.866 -0.1121 -0.0902 -0.1407
 3251SOL    HW121212   3.564   4.319   5.925 -0.7898 -0.9378  0.4523
 3251SOL    HW221213   3.653   4.202   5.926  0.2519  0.0670 -0.3440
 3252SOL     OW21214   3.724   3.043  17.643  0.1273  0.1722  0.3599
 3252SOL    HW121215   3.761   2.972  17.696  1.3362  1.2659  0.9969
 3252SOL    HW221216   3.798   3.103  17.657  0.5623 -0.1954 -0.3603
 3253SOL     OW21217   2.487   0.721   0.573 -0.2908  0.8382  0.0579
 3253SOL    HW121218   2.473   0.732   0.667 -3.5351  1.4768 -0.4780
 3253SOL    HW221219   2.555   0.786   0.555  0.6814  0.5304  2.6166
 3254SOL     OW21220   3.159   0.436   4.982  0.5424  0.1052  0.6149
 3254SOL    HW121221   3.165   0.496   5.056  2.6517  3.2678 -2.1521
 3254SOL    HW221222   3.064   0.436   4.972  0.7582  1.1898 -1.3283
 3255SOL     OW21223   0.291   1.798   5.505 -0.2633  0.0722  0.0870
 3255SOL    HW121224   0.200   1.768   5.502  0.0010 -0.4432 -2.2965
 3255SOL    HW221225   0.298   1.858   5.432 -3.0283 -1.7165 -1.6434
 3256SOL     OW21226   4.279   1.621  15.825 -0.1823  0.6413 -0.0480
 3256SOL    HW121227   4.190   1.588  15.817  0.2017 -0.3101 -0.4501
 3256SOL    HW221228   4.305   1.576  15.906  1.4825  0.9940 -0.3812
 3257SOL     OW21229   2.580   0.624   5.104 -0.1323  0.4225 -0.7925
 3257SOL    HW121230   2.648   0.685   5.074  0.5862 -0.3203 -0.6746
 3257SOL    HW221231   2.626   0.542   5.119 -0.1394  0.4806 -0.4535
 3258SOL     OW21232   3.408   0.111  12.203  0.2979 -0.0058 -0.3871
 3258SOL    HW121233   3.451   0.170  12.265 -1.8874  1.5879 -0.3896
 3258SOL    HW221234   3.328   0.085  12.249  1.2846  0.9703  1.8918
 3259SOL     OW21235   4.058   1.090   5.130  0.2184  0.7947  0.2137
 3259SOL    HW121236   4.002   1.058   5.059  0.4215 -1.9851  1.3086
 3259SOL    HW221237   4.019   1.043   5.204  2.6027  1.5574  1.9462
 3260SOL     OW21238   3.654   2.792  15.825  0.6499 -0.1479 -0.6032
 3260SOL    HW121239   3.672   2.823  15.913 -0.9890 -0.4478 -0.1633
 3260SOL    HW221240   3.621   2.872  15.783 -0.4223  0.5498  1.6135
 3261SOL     OW21241   4.032   4.078   6.565 -0.4066 -0.0275  0.4579
 3261SOL    HW121242   3.971   4.111   6.630 -1.1943 -1.2187  0.3180
 3261SOL    HW221243   4.097   4.148   6.561 -0.9804  0.3920 -1.3955
 3262SOL     OW21244   0.791   0.422   4.198 -0.2436  0.3574  0.2307
 3262SOL    HW121245   0.844   0.439   4.120  0.2119 -0.3811  0.3798
 3262SOL    HW221246   0.702   0.408   4.165 -0.2559 -1.4399  1.0318
 3263SOL     OW21247   3.060   1.028  12.007 -0.3822 -0.1038  0.2925
 3263SOL    HW121248   2.966   1.009  12.004  0.1096 -2.4484  0.2112
 3263SOL    HW221249   3.066   1.049  12.100 -4.0699 -0.4716  0.6226
 3264SOL     OW21250   0.314   1.140   2.881  0.5205 -0.1130 -0.1760
 3264SOL    HW121251   0.293   1.088   2.803  1.3776 -0.2486 -0.3077
 3264SOL    HW221252   0.225   1.150   2.917  0.3139 -1.2395 -0.3709
 3265SOL     OW21253   2.136   1.779   5.546 -0.0872  0.0462  0.1691
 3265SOL    HW121254   2.126   1.783   5.641 -2.9065  3.0108 -0.2333
 3265SOL    HW221255   2.176   1.694   5.529  0.9006  0.6159 -0.3790
 3266SOL     OW21256   3.379   1.019   3.492 -0.5333 -0.0997 -0.1789
 3266SOL    HW121257   3.318   1.040   3.422 -1.5653 -0.7769  0.5217
 3266SOL    HW221258   3.366   1.099   3.542 -0.4919 -0.5838  0.6095
 3267SOL     OW21259   2.022   2.448   4.562  0.5685  0.0295 -0.2281
 3267SOL    HW121260   2.114   2.424   4.551  0.8583  1.3513 -0.6824
 3267SOL    HW221261   2.020   2.515   4.494  0.4929  1.2623  0.9849
 3268SOL     OW21262   2.855   0.341  10.605 -0.2996 -0.8299 -0.2513
 3268SOL    HW121263   2.847   0.301  10.518 -0.3233  1.2341 -1.1954
 3268SOL    HW221264   2.787   0.296  10.656  0.3616  0.6807  1.9483
 3269SOL     OW21265   2.468   4.192  12.405 -0.2605 -0.2145  0.1444
 3269SOL    HW121266   2.459   4.148  12.489  1.3398 -0.7338  0.0600
 3269SOL    HW221267   2.445   4.118  12.349  1.2236 -1.3915  1.0759
 3270SOL     OW21268   2.909   4.555   4.440  0.6511 -0.4015  0.4330
 3270SOL    HW121269   2.889   4.628   4.498  0.9390  0.2457 -0.2858
 3270SOL    HW221270   2.824   4.512   4.429  0.2116  1.4763 -3.5416
 3271SOL     OW21271   2.623   2.973  12.003  0.6237  0.3576  0.3359
 3271SOL    HW121272   2.576   3.042  11.957 -0.5415 -0.1071  0.8307
 3271SOL    HW221273   2.717   2.980  11.987  0.0414  0.1083 -3.1538
 3272SOL     OW21274   3.720   0.343   3.121  0.0063 -0.1414  0.2556
 3272SOL    HW121275   3.802   0.381   3.089 -0.2571  0.7482  0.6068
 3272SOL    HW221276   3.719   0.254   3.088 -1.0860  1.1102 -3.0841
 3273SOL     OW21277   1.357   2.763  10.967 -0.3153 -0.1336 -0.2446
 3273SOL    HW121278   1.289   2.733  11.027 -0.0064  2.4849  1.3919
 3273SOL    HW221279   1.379   2.683  10.919 -2.8026 -0.0385 -1.5571
 3274SOL     OW21280   2.072   2.253  14.801  0.6339  0.0039 -0.5915
 3274SOL    HW121281   2.139   2.290  14.859 -0.1704  0.9183 -0.2514
 3274SOL    HW221282   2.061   2.174  14.854  0.8661  1.3739  1.4912
 3275SOL     OW21283   2.131   1.158  13.737 -0.5143 -1.0118  0.0931
 3275SOL    HW121284   2.071   1.097  13.780 -2.3620  1.5104  1.0847
 3275SOL    HW221285   2.160   1.203  13.816  0.7688 -1.4665 -0.1032
 3276SOL     OW21286   3.589   2.545  14.290 -0.0879  0.2115 -0.1763
 3276SOL    HW121287   3.625   2.490  14.219  0.4490  0.6365 -0.2328
 3276SOL    HW221288   3.654   2.615  14.288 -0.7515  0.8021 -0.7370
 3277SOL     OW21289   2.593   3.946  14.810 -0.8694  0.0030  0.4554
 3277SOL    HW121290   2.598   4.014  14.743 -1.2542 -0.2777  0.1395
 3277SOL    HW221291   2.504   3.958  14.845 -0.8413 -1.3355  1.0264
 3278SOL     OW21292   1.343   2.321  17.564  0.1066 -0.1387 -0.0774
 3278SOL    HW121293   1.376   2.234  17.589 -1.9830 -0.0485  2.9777
 3278SOL    HW221294   1.403   2.344  17.493 -0.8002 -3.2270 -1.8542
 3279SOL     OW21295   2.316   0.120   7.777 -0.1201 -0.5337  0.0739
 3279SOL    HW121296   2.294   0.065   7.701 -0.3907 -0.8764  0.4008
 3279SOL    HW221297   2.393   0.073   7.810 -0.1338 -0.5880  0.0289
 3280SOL     OW21298   0.192   3.324   5.868  0.5335  0.0514  0.4956
 3280SOL    HW121299   0.260   3.257   5.872  1.2375  0.7104 -0.2577
 3280SOL    HW221300   0.233   3.384   5.930 -0.2088  2.0353 -0.9410
 3281SOL     OW21301   2.313   0.677   7.995 -0.0395 -0.0386 -0.5400
 3281SOL    HW121302   2.218   0.684   7.996 -0.0859 -0.7524  0.0076
 3281SOL    HW221303   2.343   0.664   8.085  0.8869  1.6023 -0.5936
 3282SOL     OW21304   2.637   2.582   4.264 -0.2272 -0.0232  0.0643
 3282SOL    HW121305   2.613   2.523   4.193 -3.8665  0.4548  0.8877
 3282SOL    HW221306   2.585   2.547   4.337  0.0613  2.0604  1.2858
 3283SOL     OW21307   2.368   0.019   9.211 -0.0320  0.6553 -0.3451
 3283SOL    HW121308   2.352   4.650   9.203  2.0266  0.2171  0.9426
 3283SOL    HW221309   2.422   0.035   9.134  1.3113  2.7141  1.0401
 3284SOL     OW21310   4.502   0.862   6.979  0.4082 -0.5212  0.5314
 3284SOL    HW121311   4.417   0.866   6.934  0.0320  0.0292  1.2826
 3284SOL    HW221312   4.568   0.851   6.911 -0.5787 -1.3144 -0.2998
 3285SOL     OW21313   4.550   0.943   8.186 -0.4130  0.0207  0.2083
 3285SOL    HW121314   4.542   1.000   8.110  0.0275 -0.3591 -0.1208
 3285SOL    HW221315   4.645   0.935   8.198 -0.3454 -0.4538 -0.6781
 3286SOL     OW21316   4.571   2.736   2.291  0.3382  0.4351 -0.1530
 3286SOL    HW121317   4.486   2.723   2.332  0.5599 -1.8095 -0.3896
 3286SOL    HW221318   4.550   2.798   2.221 -2.1281 -1.6286 -1.2713
 3287SOL     OW21319   4.671   1.639   6.438  0.2124 -0.0069  0.2706
 3287SOL    HW121320   4.612   1.705   6.400 -0.8292  0.1269  2.1543
 3287SOL    HW221321   4.644   1.620   6.528  0.0235  2.2585  0.7050
 3288SOL     OW21322   2.406   2.361   9.586 -0.6790 -0.3221  0.6208
 3288SOL    HW121323   2.412   2.324   9.674 -1.4514  0.6770  1.0971
 3288SOL    HW221324   2.382   2.279   9.542 -0.1042 -0.1898  0.0592
 3289SOL     OW21325   0.334   4.373   7.761 -0.0998 -0.1478  0.4365
 3289SOL    HW121326   0.304   4.295   7.715  0.0408 -0.8225  1.4685
 3289SOL    HW221327   0.329   4.439   7.692 -1.2596 -1.4079 -0.6859
 3290SOL     OW21328   0.066   3.989   8.227 -0.1402  0.1018  0.3866
 3290SOL    HW121329   0.118   4.064   8.254  1.2219 -0.4318 -0.7568
 3290SOL    HW221330   4.702   4.026   8.227 -1.1052 -2.1867  0.2536
 3291SOL     OW21331   2.855   3.722   8.705  0.7035 -0.1263 -0.3387
 3291SOL    HW121332   2.787   3.755   8.763 -0.1882 -2.8721  0.1786
 3291SOL    HW221333   2.934   3.772   8.724  1.6873 -1.6067 -0.5698
 3292SOL     OW21334   0.362   1.701   0.533 -0.7501 -0.0509  0.2234
 3292SOL    HW121335   0.413   1.701   0.614 -1.2261 -0.0593  0.5199
 3292SOL    HW221336   0.301   1.631   0.558  0.3873 -0.5114  1.6821
 3293SOL     OW21337   4.477   1.380   9.040  0.2231  0.7675  0.3272
 3293SOL    HW121338   4.382   1.372   9.040  0.3665 -1.0058  0.3879
 3293SOL    HW221339   4.489   1.318   8.968  0.1908  1.0301  0.0962
 3294SOL     OW21340   0.418   3.115   4.496  0.3061  0.0199  0.5427
 3294SOL    HW121341   0.461   3.136   4.414  0.4496 -2.0906  0.0966
 3294SOL    HW221342   0.343   3.059   4.476  0.0916  1.7271 -3.4632
 3295SOL     OW21343   4.692   1.509   8.221  0.0802  0.5999  0.0531
 3295SOL    HW121344   0.013   1.428   8.244  1.4408  1.3114 -0.1780
 3295SOL    HW221345   4.627   1.482   8.155 -1.3802  0.7389  1.4327
 3296SOL     OW21346   1.008   3.787   6.930 -0.5562 -0.2185  0.0818
 3296SOL    HW121347   1.073   3.857   6.931 -1.6555  0.7910  1.0738
 3296SOL    HW221348   0.927   3.837   6.941  0.6701  1.5633  1.1173
 3297SOL     OW21349   2.564   1.834  13.632  0.5224 -0.2161  0.2404
 3297SOL    HW121350   2.609   1.805  13.553  1.5734 -0.7069  1.0002
 3297SOL    HW221351   2.544   1.749  13.671  2.3042 -1.2322 -1.0698
 3298SOL     OW21352   3.070   1.896   6.467  0.3958 -0.3296 -0.1814
 3298SOL    HW121353   3.006   1.901   6.538 -2.0653  0.3505 -2.4081
 3298SOL    HW221354   3.152   1.908   6.514  0.4543  2.4681 -0.9784
 3299SOL     OW21355   1.361   3.711   0.407  0.0778  0.6455  0.2397
 3299SOL    HW121356   1.394   3.780   0.464 -0.7333 -0.1595  1.6828
 3299SOL    HW221357   1.418   3.714   0.330  0.6193  0.8762  0.6491
 3300SOL     OW21358   3.950   3.173  10.672  0.1201  0.5813 -0.4080
 3300SOL    HW121359   4.035   3.195  10.634  0.8956 -2.4214 -0.3273
 3300SOL    HW221360   3.937   3.243  10.737 -0.1606  0.3697 -0.2345
 3301SOL     OW21361   0.410   3.912   2.453 -0.1629  0.0296 -0.1731
 3301SOL    HW121362   0.332   3.862   2.478 -0.6123  1.3556  1.1331
 3301SOL    HW221363   0.417   3.880   2.364  0.2313  0.5108 -0.3171
 3302SOL     OW21364   4.096   4.195   8.331 -0.5894  0.3004 -0.4335
 3302SOL    HW121365   4.149   4.253   8.387 -0.8543  0.3125 -0.1975
 3302SOL    HW221366   4.038   4.259   8.290 -1.6029  0.5807  1.4458
 3303SOL     OW21367   2.785   3.775   4.653 -0.6865 -0.3405  0.0188
 3303SOL    HW121368   2.872   3.809   4.674 -0.4354 -0.5503 -0.6905
 3303SOL    HW221369   2.773   3.697   4.706  0.1748 -0.7217 -0.3517
 3304SOL     OW21370   1.505   4.671   9.442 -0.0821  0.2036  0.0172
 3304SOL    HW121371   1.429   4.629   9.401 -1.1311 -0.2375  2.3823
 3304SOL    HW221372   1.459   0.014   9.492 -0.5722 -0.2073  0.1253
 3305SOL     OW21373   2.227   0.619   7.647  0.1915 -0.0365  0.4839
 3305SOL    HW121374   2.257   0.545   7.700  1.3907  1.5177  1.9973
 3305SOL    HW221375   2.167   0.570   7.592 -0.6240 -1.0848  2.3015
 3306SOL     OW21376   2.863   1.683   8.750 -0.0887 -0.1933 -0.2212
 3306SOL    HW121377   2.836   1.774   8.741  1.6085  0.4021  0.5393
 3306SOL    HW221378   2.784   1.644   8.788  0.0113 -0.2735 -0.0912
 3307SOL     OW21379   0.433   3.335   5.065 -0.0899 -0.0592 -0.2797
 3307SOL    HW121380   0.422   3.429   5.084 -0.4094 -0.4475  1.4439
 3307SOL    HW221381   0.527   3.331   5.045 -0.0232  1.4011 -0.2663
 3308SOL     OW21382   0.817   0.223   8.508 -0.4210 -0.7260  0.3995
 3308SOL    HW121383   0.737   0.213   8.456  0.7395 -0.4555 -1.4519
 3308SOL    HW221384   0.882   0.233   8.438 -0.4169 -3.8345 -0.0570
 3309SOL     OW21385   0.170   1.573   4.797 -0.3059 -0.0548  0.4191
 3309SOL    HW121386   0.134   1.499   4.748 -1.4788  1.0512 -0.3982
 3309SOL    HW221387   0.180   1.636   4.726  1.0369  0.8642  1.4300
 3310SOL     OW21388   2.567   1.838   3.925 -0.2717  0.4588  0.4676
 3310SOL    HW121389   2.615   1.817   4.005  0.0835 -3.8713 -0.8716
 3310SOL    HW221390   2.528   1.752   3.908 -1.1336  1.0726 -0.6390
 3311SOL     OW21391   1.326   2.096   7.361 -0.5028  0.3381  0.2395
 3311SOL    HW121392   1.386   2.028   7.389  0.2084  0.8056 -0.1543
 3311SOL    HW221393   1.367   2.143   7.288  1.5899  0.1083  1.2826
 3312SOL     OW21394   4.317   2.394   7.509 -0.0097 -0.9910  0.0185
 3312SOL    HW121395   4.408   2.394   7.480 -0.1732  0.3817 -0.5122
 3312SOL    HW221396   4.315   2.309   7.552 -2.1680 -0.5662  0.7797
 3313SOL     OW21397   2.179   2.169   7.350  0.0183 -0.0913 -0.2376
 3313SOL    HW121398   2.163   2.263   7.347 -1.2494 -0.2121  2.2971
 3313SOL    HW221399   2.267   2.177   7.385  1.3207 -3.3505 -2.6746
 3314SOL     OW21400   0.858   0.973  16.942  0.0867 -0.0435  0.5207
 3314SOL    HW121401   0.849   0.896  16.998  0.6038 -1.2201 -1.0012
 3314SOL    HW221402   0.842   0.930  16.857 -0.0753 -0.2219  0.6409
 3315SOL     OW21403   0.921   2.392   5.843 -0.1720 -0.4158  0.0150
 3315SOL    HW121404   0.963   2.307   5.836  1.0264  0.2041 -0.3149
 3315SOL    HW221405   0.998   2.449   5.836  1.5162 -2.8197 -0.7675
 3316SOL     OW21406   2.086   3.034   6.155  0.5361 -0.3679 -0.2201
 3316SOL    HW121407   2.035   2.968   6.108 -0.9323 -0.7780  1.9270
 3316SOL    HW221408   2.044   3.112   6.119 -0.0325 -0.5446  0.0640
 3317SOL     OW21409   1.836   2.888   0.969 -0.7612 -0.3414 -0.0976
 3317SOL    HW121410   1.886   2.870   1.049  0.3451  2.4411 -0.1705
 3317SOL    HW221411   1.752   2.913   1.008 -0.6626 -1.1166  0.6128
 3318SOL     OW21412   3.051   0.608   8.605 -0.3246  0.3924  0.7356
 3318SOL    HW121413   3.132   0.657   8.588 -0.3224 -0.3641 -1.4488
 3318SOL    HW221414   3.014   0.652   8.681 -2.3215 -3.6290  2.0623
 3319SOL     OW21415   0.091   0.098   1.860 -1.0271 -0.2023 -0.3036
 3319SOL    HW121416   0.083   0.126   1.769  0.0296  2.8109  0.5278
 3319SOL    HW221417   0.069   0.178   1.907  0.1990  1.6298 -2.8083
 3320SOL     OW21418   1.616   3.591   9.664 -0.1360 -0.4251 -0.0077
 3320SOL    HW121419   1.574   3.612   9.747  1.5960 -3.5904  1.6747
 3320SOL    HW221420   1.617   3.680   9.630  1.1839  0.8201  3.2711
 3321SOL     OW21421   4.023   1.628   2.242  0.3807  0.5472 -0.2612
 3321SOL    HW121422   4.026   1.687   2.318 -2.2788  0.8382 -0.3833
 3321SOL    HW221423   4.076   1.676   2.178  0.5597  0.8528  0.1124
 3322SOL     OW21424   3.901   2.143   8.569 -0.5624 -1.0993 -0.2731
 3322SOL    HW121425   3.892   2.170   8.477  0.8279 -1.5311 -0.5331
 3322SOL    HW221426   3.814   2.145   8.607 -0.5518  3.1566 -0.4300
 3323SOL     OW21427   2.426   0.126   8.135  0.0850  0.5151  0.2640
 3323SOL    HW121428   2.480   0.064   8.087 -0.0773  1.2313 -0.8397
 3323SOL    HW221429   2.479   0.110   8.213 -0.1485  2.8726  0.9136
 3324SOL     OW21430   1.326   2.376  13.052  0.0771  0.0230 -0.1343
 3324SOL    HW121431   1.418   2.357  13.074 -0.3093 -0.3088  1.1779
 3324SOL    HW221432   1.279   2.302  13.089 -1.0676  0.8059 -0.0159
 3325SOL     OW21433   3.047   4.380   3.574  0.6057 -0.0930 -0.2418
 3325SOL    HW121434   3.072   4.342   3.659  0.3446  0.7786  0.2308
 3325SOL    HW221435   3.105   4.338   3.511 -1.1345 -2.4992 -0.2657
 3326SOL     OW21436   0.170   1.185   9.608  0.4145 -0.3433  0.0426
 3326SOL    HW121437   0.166   1.211   9.699 -0.3622  1.1867 -0.4330
 3326SOL    HW221438   0.088   1.211   9.565  1.2287  0.9180 -0.7438
 3327SOL     OW21439   2.193   4.014   2.240  0.6480 -0.1243 -0.3512
 3327SOL    HW121440   2.159   4.100   2.264  0.1824 -0.4399  0.1261
 3327SOL    HW221441   2.169   4.020   2.148  1.0226 -1.5227 -0.5463
 3328SOL     OW21442   3.455   1.983   1.260  0.3265 -0.0194 -0.1898
 3328SOL    HW121443   3.364   1.962   1.280  0.8741  0.5123  2.8322
 3328SOL    HW221444   3.458   1.963   1.167 -0.9592  2.1704 -0.6948
 3329SOL     OW21445   3.712   1.783   5.289 -0.1562  0.0938  0.4058
 3329SOL    HW121446   3.722   1.822   5.376  1.3073 -1.3002  0.8828
 3329SOL    HW221447   3.698   1.690   5.310 -0.2027 -0.4796 -2.1669
 3330SOL     OW21448   2.692   4.492   5.348 -0.5780 -0.1100  0.0642
 3330SOL    HW121449   2.769   4.485   5.291  0.0933 -0.6079  1.0501
 3330SOL    HW221450   2.639   4.553   5.296  1.0205  1.7014  0.5833
 3331SOL     OW21451   3.624   2.068   2.883  0.9699  0.2322  0.1243
 3331SOL    HW121452   3.593   2.137   2.823 -2.6764 -0.6718  1.0045
 3331SOL    HW221453   3.564   2.079   2.957 -0.5387  0.2583 -1.1150
 3332SOL     OW21454   1.026   1.254   8.558 -0.0466  0.2648  0.3029
 3332SOL    HW121455   1.105   1.253   8.505 -0.0096 -0.8477  0.3836
 3332SOL    HW221456   0.969   1.317   8.514 -0.1305 -0.4746 -0.6430
 3333SOL     OW21457   2.283   1.679   7.836 -0.0836  0.6522  0.3985
 3333SOL    HW121458   2.193   1.701   7.860 -0.2786 -1.4254  1.5798
 3333SOL    HW221459   2.283   1.590   7.871 -0.5107  0.4438 -0.1459
 3334SOL     OW21460   2.346   3.478   3.033  0.4164 -0.4928  0.0107
 3334SOL    HW121461   2.384   3.485   3.120 -0.6448 -0.0364  0.4386
 3334SOL    HW221462   2.409   3.427   2.981  0.2681 -2.5850  1.8683
 3335SOL     OW21463   4.008   3.497  12.731 -0.2558  0.6254  0.0211
 3335SOL    HW121464   4.000   3.465  12.641 -1.4503  1.6353 -0.2285
 3335SOL    HW221465   4.101   3.519  12.727 -0.4438  1.5977  1.1759
 3336SOL     OW21466   4.280   2.471  12.579  0.5958 -0.2329  0.0126
 3336SOL    HW121467   4.302   2.524  12.656  1.8943 -0.7952  0.0133
 3336SOL    HW221468   4.190   2.448  12.602  0.8933  0.2622  1.6792
 3337SOL     OW21469   4.007   0.105   6.243  0.3171 -0.2114  0.7395
 3337SOL    HW121470   3.917   0.121   6.215  1.0612  0.5664 -1.2226
 3337SOL    HW221471   3.990   0.021   6.285 -0.4668  0.1146  1.0752
 3338SOL     OW21472   0.712   0.045   9.412 -0.2761  0.1918 -0.1762
 3338SOL    HW121473   0.635   0.092   9.445  0.4240  0.7309  0.6711
 3338SOL    HW221474   0.666   4.692   9.379 -0.3025 -0.9377  2.5043
 3339SOL     OW21475   0.160   2.123  17.563 -0.0787  0.1592 -0.4386
 3339SOL    HW121476   0.069   2.099  17.549 -0.4632  3.4311 -3.5242
 3339SOL    HW221477   0.208   2.040  17.565  0.2665  0.3767  0.2363
 3340SOL     OW21478   2.651   2.805  11.265  0.2442  0.4143  0.0607
 3340SOL    HW121479   2.711   2.783  11.336 -1.9399 -1.2102  1.3870
 3340SOL    HW221480   2.695   2.884  11.232  0.4767  1.5366  3.1149
 3341SOL     OW21481   3.370   4.444  14.132  0.2278 -0.6108 -0.2152
 3341SOL    HW121482   3.345   4.535  14.140 -0.6682 -0.9083  0.3481
 3341SOL    HW221483   3.289   4.434  14.082 -0.0150 -0.6982  0.1952
 3342SOL     OW21484   0.221   1.711   2.708 -0.5766  0.0119  0.2531
 3342SOL    HW121485   0.191   1.680   2.793  0.1634  0.5289  0.6960
 3342SOL    HW221486   0.290   1.773   2.731 -0.6484  1.0819 -2.3116
 3343SOL     OW21487   3.665   2.947   6.104 -0.0163  0.0662 -0.7228
 3343SOL    HW121488   3.569   2.954   6.104 -0.0317 -0.1750  0.8984
 3343SOL    HW221489   3.673   2.882   6.033 -1.0041  0.9157 -1.6229
 3344SOL     OW21490   3.592   3.988   2.925 -0.2073 -0.1832  0.1232
 3344SOL    HW121491   3.537   4.052   2.878  2.1159  0.4690 -1.7095
 3344SOL    HW221492   3.668   3.981   2.868 -1.4550  0.6148 -1.6566
 3345SOL     OW21493   3.192   4.127  16.194  0.1061  0.3139  0.0434
 3345SOL    HW121494   3.283   4.139  16.224 -0.0645 -0.3967  0.8367
 3345SOL    HW221495   3.142   4.110  16.274 -1.7987  0.2403 -1.1768
 3346SOL     OW21496   4.089   2.385   7.858 -0.7363  0.1200 -0.5088
 3346SOL    HW121497   4.155   2.395   7.790 -0.2736 -0.7618 -0.1818
 3346SOL    HW221498   4.071   2.479   7.855 -0.1909  0.2662  0.8701
 3347SOL     OW21499   3.374   2.551   5.696  0.3876  0.0393  0.3809
 3347SOL    HW121500   3.436   2.621   5.671 -0.4521  0.7315  0.2362
 3347SOL    HW221501   3.293   2.590   5.727  2.2466  1.7735  3.0868
 3348SOL     OW21502   3.989   2.737  14.666  0.2146 -0.0172 -0.0736
 3348SOL    HW121503   4.077   2.712  14.696  0.9548 -0.8763 -2.9640
 3348SOL    HW221504   3.938   2.674  14.715 -1.3261  1.3177  0.0272
 3349SOL     OW21505   1.763   4.134   4.633  0.2800  0.4237  0.9557
 3349SOL    HW121506   1.684   4.186   4.648  1.1787  1.5977  1.6283
 3349SOL    HW221507   1.753   4.115   4.540 -0.9497 -1.2590  1.4294
 3350SOL     OW21508   2.020   2.052   5.523  0.4602 -0.5516 -0.0907
 3350SOL    HW121509   2.044   2.097   5.442  0.8510 -1.1206 -0.2935
 3350SOL    HW221510   2.102   2.006   5.539  0.8685 -0.0697 -0.8110
 3351SOL     OW21511   0.380   0.432   2.097 -0.1056  0.4410  0.7134
 3351SOL    HW121512   0.356   0.522   2.119 -1.7996 -0.0843  1.0180
 3351SOL    HW221513   0.308   0.402   2.041 -0.8305  1.2666  1.2149
 3352SOL     OW21514   2.221   0.653   4.376 -0.4100 -0.3084 -0.4710
 3352SOL    HW121515   2.151   0.587   4.369  0.4963 -1.4679  1.3501
 3352SOL    HW221516   2.251   0.638   4.466 -0.6379 -0.2024 -0.3757
 3353SOL     OW21517   3.008   2.788  16.769  0.1910 -0.3993  0.2085
 3353SOL    HW121518   3.004   2.875  16.730  1.1940 -0.0838  0.7942
 3353SOL    HW221519   3.067   2.806  16.843  1.9813 -1.5059 -0.9463
 3354SOL     OW21520   0.930   2.118   3.592 -0.1976 -0.5952  0.2557
 3354SOL    HW121521   0.981   2.037   3.601 -0.6772 -0.9881 -0.6256
 3354SOL    HW221522   1.001   2.172   3.557 -0.1812  0.4972  1.9587
 3355SOL     OW21523   1.570   4.518   6.030 -0.0481  0.1570  0.5633
 3355SOL    HW121524   1.540   4.494   6.117 -2.2188  0.8286  0.0082
 3355SOL    HW221525   1.623   4.596   6.044 -0.1888  0.7327 -2.0981
 3356SOL     OW21526   2.368   3.264   5.540 -0.0381 -0.4448 -0.6264
 3356SOL    HW121527   2.433   3.306   5.595 -0.6347 -0.4081  0.0508
 3356SOL    HW221528   2.295   3.325   5.527  0.6654  0.6098  0.3728
 3357SOL     OW21529   4.530   4.681   0.919 -0.9817 -0.0787 -0.1798
 3357SOL    HW121530   4.515   4.702   0.827 -2.4966  0.2398  0.1264
 3357SOL    HW221531   4.624   4.667   0.922 -0.8696  1.0570  1.4556
 3358SOL     OW21532   3.502   1.193   1.889 -0.1468 -0.0600 -0.3976
 3358SOL    HW121533   3.567   1.165   1.825  3.0512 -0.8088  3.1962
 3358SOL    HW221534   3.425   1.207   1.834  0.2788  0.1219 -0.9380
 3359SOL     OW21535   3.863   0.858   3.446 -0.1113 -0.1920 -0.1343
 3359SOL    HW121536   3.924   0.820   3.510  1.7749  0.1527 -1.7306
 3359SOL    HW221537   3.897   0.849   3.357  0.4556 -0.1801  0.0773
 3360SOL     OW21538   3.893   2.153  15.214 -0.2475 -0.1702 -0.0222
 3360SOL    HW121539   3.829   2.083  15.222  3.2014 -3.5584 -2.3948
 3360SOL    HW221540   3.842   2.224  15.175  0.6040  0.3920 -0.1131
 3361SOL     OW21541   2.198   2.902   4.821  0.1146  0.4912 -0.1870
 3361SOL    HW121542   2.156   2.840   4.881  2.2815 -0.7315  0.1092
 3361SOL    HW221543   2.164   2.985   4.854 -1.5786  0.5111 -1.9795
 3362SOL     OW21544   1.656   0.120  12.343 -0.5603 -0.4365  0.2236
 3362SOL    HW121545   1.604   0.165  12.277  0.6725  0.6607  0.0120
 3362SOL    HW221546   1.680   0.191  12.402  1.2642  0.7858 -2.0183
 3363SOL     OW21547   3.753   4.012   4.167 -0.4736  0.5577 -0.0383
 3363SOL    HW121548   3.824   4.055   4.120  1.2704 -1.5815  0.6827
 3363SOL    HW221549   3.814   3.953   4.211 -2.3565 -2.1017 -1.0158
 3364SOL     OW21550   2.044   2.603  10.040  0.3598  0.1821 -0.6476
 3364SOL    HW121551   1.956   2.640  10.026  0.2039 -0.3206 -0.9975
 3364SOL    HW221552   2.043   2.576  10.131 -3.8382 -0.1354 -0.7842
 3365SOL     OW21553   1.487   1.326   7.598  0.4162  0.1535 -0.1756
 3365SOL    HW121554   1.442   1.326   7.682 -0.8011 -1.3417 -0.8227
 3365SOL    HW221555   1.470   1.416   7.570  0.9048  0.4584  0.5133
 3366SOL     OW21556   0.815   3.345   3.514  0.0628 -0.8287 -0.0761
 3366SOL    HW121557   0.819   3.283   3.442 -1.0611 -3.1053  1.8125
 3366SOL    HW221558   0.794   3.427   3.471 -1.9362 -2.3914 -2.0698
 3367SOL     OW21559   0.345   0.398   6.746 -0.0176 -0.2278 -0.4518
 3367SOL    HW121560   0.357   0.487   6.712  0.2524  1.0974  3.1778
 3367SOL    HW221561   0.387   0.396   6.832 -2.7775 -0.0240  0.8752
 3368SOL     OW21562   0.027   1.097  15.011 -0.6485  0.6812 -0.2428
 3368SOL    HW121563   0.098   1.107  14.948 -0.2256  0.2050  0.1578
 3368SOL    HW221564   4.686   1.059  14.953 -1.2722  0.5339  0.5565
 3369SOL     OW21565   2.900   2.248   8.001 -0.1277  0.0502 -1.2519
 3369SOL    HW121566   2.952   2.328   8.010 -0.4783 -0.0841  1.7381
 3369SOL    HW221567   2.956   2.187   8.048 -0.1042  0.5002 -0.7047
 3370SOL     OW21568   3.625   4.684   0.160  0.0699  0.2866  0.3151
 3370SOL    HW121569   3.670   0.014   0.225 -0.2878 -0.2583  1.0266
 3370SOL    HW221570   3.532   4.700   0.170 -0.0797 -0.4057  0.0224
 3371SOL     OW21571   1.223   3.778   7.355  0.2453  0.4092 -0.3164
 3371SOL    HW121572   1.267   3.862   7.353 -0.0934  0.5448 -2.4090
 3371SOL    HW221573   1.290   3.722   7.393  0.8165  4.0747  4.0602
 3372SOL     OW21574   3.161   0.725   5.483  0.0368 -0.5808 -0.2457
 3372SOL    HW121575   3.079   0.747   5.439 -0.8724 -1.7965  0.8339
 3372SOL    HW221576   3.145   0.725   5.577  0.6585 -0.0639 -0.1457
 3373SOL     OW21577   1.554   1.539   4.936  0.5024  0.2023 -0.0507
 3373SOL    HW121578   1.555   1.483   5.013  0.6192  1.0752  0.5813
 3373SOL    HW221579   1.475   1.590   4.955 -0.5149 -0.6676 -1.8752
 3374SOL     OW21580   2.996   3.565  12.671  0.0604 -0.1312  0.0081
 3374SOL    HW121581   2.931   3.501  12.700  0.4176 -0.2577  0.5247
 3374SOL    HW221582   2.957   3.604  12.593  0.6542 -1.6579 -1.0568
 3375SOL     OW21583   0.611   4.126   5.052 -0.0969 -0.0015 -0.5644
 3375SOL    HW121584   0.546   4.173   5.001  2.1306  1.3911 -2.1414
 3375SOL    HW221585   0.556   4.101   5.126  1.2312  2.4054  1.2159
 3376SOL     OW21586   4.300   3.157   4.187 -0.5527  0.3079  0.1589
 3376SOL    HW121587   4.335   3.245   4.169  0.1455  0.2221  1.0663
 3376SOL    HW221588   4.367   3.108   4.140  0.9149 -0.2667  2.8588
 3377SOL     OW21589   2.911   2.682   5.950 -0.4953 -0.1939 -0.3256
 3377SOL    HW121590   2.947   2.726   6.027 -0.3421  0.9632 -1.0541
 3377SOL    HW221591   2.823   2.719   5.952 -0.1667  0.5763 -0.0386
 3378SOL     OW21592   4.072   3.503   6.993  0.4584 -0.4916  0.1146
 3378SOL    HW121593   4.167   3.502   6.981  0.6355 -1.1341  1.4595
 3378SOL    HW221594   4.066   3.554   7.074  0.1047 -3.5218  2.0157
 3379SOL     OW21595   4.649   1.223   1.828  0.4392 -0.2418  0.4158
 3379SOL    HW121596   4.699   1.165   1.771 -2.0656 -1.0400 -0.9771
 3379SOL    HW221597   4.692   1.195   1.909  0.1440 -3.6368 -0.6140
 3380SOL     OW21598   2.055   1.562   0.928 -0.0305  0.8731  0.0880
 3380SOL    HW121599   2.128   1.501   0.917  0.4637  1.3567  0.6613
 3380SOL    HW221600   2.027   1.563   0.837  0.9206 -2.3257 -0.2370
 3381SOL     OW21601   2.464   4.539   8.992  0.0114  0.6276  0.1901
 3381SOL    HW121602   2.437   4.562   8.903 -0.2319 -1.6114 -0.3064
 3381SOL    HW221603   2.410   4.464   9.015  0.8127 -0.0563 -0.1769
 3382SOL     OW21604   3.429   1.182   4.826 -0.0926  0.1430 -0.2521
 3382SOL    HW121605   3.523   1.203   4.822  0.3563 -1.7616  0.2040
 3382SOL    HW221606   3.422   1.148   4.737 -2.5971 -1.3315  0.5132
 3383SOL     OW21607   4.658   3.764  16.620  0.1214  0.3028  0.0959
 3383SOL    HW121608   4.687   3.754  16.711 -3.2945 -1.4009  1.0086
 3383SOL    HW221609   0.002   3.709  16.581  0.2164  0.9436 -0.6368
 3384SOL     OW21610   2.617   0.882  12.990 -0.0819  0.0476  0.2896
 3384SOL    HW121611   2.550   0.935  12.947 -0.1595 -0.4382 -0.1900
 3384SOL    HW221612   2.564   0.803  12.984  0.2540 -0.1939  0.4822
 3385SOL     OW21613   1.267   0.411   4.584  0.3601  0.1868  0.2172
 3385SOL    HW121614   1.211   0.414   4.506  0.5129 -0.1338  0.0938
 3385SOL    HW221615   1.236   0.329   4.623  2.2288 -0.0674  1.1753
 3386SOL     OW21616   1.137   3.617   4.505 -0.0830  0.1766  0.8261
 3386SOL    HW121617   1.083   3.678   4.555 -2.3597  0.4688 -1.9919
 3386SOL    HW221618   1.159   3.564   4.581 -1.4284 -0.8840  0.4737
 3387SOL     OW21619   0.092   3.591   7.480  0.0035  0.0470  0.2212
 3387SOL    HW121620   0.177   3.631   7.500  0.8878 -3.1328  2.7134
 3387SOL    HW221621   0.060   3.561   7.564  2.9925 -2.2510  0.5564
 3388SOL     OW21622   0.631   0.784   3.293  0.2148 -0.0100  0.9624
 3388SOL    HW121623   0.673   0.770   3.208 -0.0356  1.0118  0.6721
 3388SOL    HW221624   0.684   0.727   3.349  1.1998  0.2139  0.2561
 3389SOL     OW21625   0.861   3.121   6.798  0.0667 -0.0025 -0.1264
 3389SOL    HW121626   0.874   3.043   6.743 -0.7051 -0.9688  1.0689
 3389SOL    HW221627   0.767   3.108   6.811  0.2993 -1.1479  0.4618
 3390SOL     OW21628   0.565   2.539   4.602 -0.0140 -0.0432 -0.2390
 3390SOL    HW121629   0.480   2.567   4.569  0.9738  2.0807 -0.9834
 3390SOL    HW221630   0.615   2.508   4.526  0.8406  0.1462  0.2441
 3391SOL     OW21631   1.079   0.203  10.354 -0.0318  0.0550 -0.0513
 3391SOL    HW121632   1.053   0.119  10.392 -1.0586  0.6223  0.5114
 3391SOL    HW221633   1.001   0.257  10.369 -0.6217 -1.0053  0.6772
 3392SOL     OW21634   3.826   0.117   4.832 -0.3123 -0.2943 -0.0457
 3392SOL    HW121635   3.779   0.089   4.753 -0.5022  1.7992 -0.6787
 3392SOL    HW221636   3.754   0.161   4.876  0.2022 -2.3981  2.9248
 3393SOL     OW21637   1.104   2.356   3.508 -0.0191  0.6259  0.2238
 3393SOL    HW121638   1.141   2.328   3.425 -2.4446 -0.3989 -0.5219
 3393SOL    HW221639   1.035   2.411   3.471 -0.9839  0.1725  1.3330
 3394SOL     OW21640   4.082   0.624  10.389 -0.3850 -0.3031 -0.0384
 3394SOL    HW121641   4.170   0.635  10.355 -0.8790 -1.1783 -1.5827
 3394SOL    HW221642   4.072   0.710  10.430  0.6882 -1.5321  2.8005
 3395SOL     OW21643   4.677   0.464   7.079 -0.5319 -0.4239  0.2657
 3395SOL    HW121644   0.044   0.437   7.085 -0.9054 -1.7272  0.1680
 3395SOL    HW221645   4.653   0.447   7.170  0.0266  3.6849  1.1965
 3396SOL     OW21646   3.919   4.596   6.299 -0.2875  0.1029  0.2287
 3396SOL    HW121647   3.836   4.554   6.278  0.9128 -1.4025 -1.5183
 3396SOL    HW221648   3.937   4.552   6.382  0.0299 -1.0560 -0.4519
 3397SOL     OW21649   1.280   1.180  11.605  0.6086 -0.1295  0.4249
 3397SOL    HW121650   1.341   1.143  11.668  1.0190  0.8318  0.5955
 3397SOL    HW221651   1.195   1.179  11.648  0.3471 -0.2619 -0.0912
 3398SOL     OW21652   0.867   0.395   9.096  0.3846  0.3767 -0.0007
 3398SOL    HW121653   0.948   0.445   9.088 -0.8944  2.4425 -0.0484
 3398SOL    HW221654   0.871   0.369   9.188  1.5645 -2.6578 -0.9046
 3399SOL     OW21655   3.329   0.329  15.496 -0.4051  0.3431  0.8046
 3399SOL    HW121656   3.334   0.249  15.549  2.7277 -1.0984 -1.7053
 3399SOL    HW221657   3.235   0.346  15.486 -0.3217 -1.2502 -2.5640
 3400SOL     OW21658   3.693   0.206   8.552  0.0927  0.0382  0.3675
 3400SOL    HW121659   3.643   0.272   8.505  1.1275 -0.3397 -1.2480
 3400SOL    HW221660   3.673   0.126   8.504  1.1400 -0.5226  0.8440
 3401SOL     OW21661   0.619   4.554   3.601 -0.6101  0.3056  0.0163
 3401SOL    HW121662   0.610   4.466   3.637 -0.5009  0.5605  0.6670
 3401SOL    HW221663   0.567   4.610   3.659  3.1803  2.8097  1.0172
 3402SOL     OW21664   1.078   3.661   6.689 -0.2138  0.2790 -0.4298
 3402SOL    HW121665   1.053   3.705   6.770 -2.2767  0.2919 -1.0698
 3402SOL    HW221666   1.016   3.589   6.677  0.6540 -0.5381 -0.0258
 3403SOL     OW21667   2.243   2.413  14.975  0.2408  0.3875  0.4770
 3403SOL    HW121668   2.313   2.462  14.933 -0.6507  0.9036 -0.4341
 3403SOL    HW221669   2.182   2.483  14.999  0.6149  0.5941  0.8114
 3404SOL     OW21670   2.662   3.192   7.646 -0.0311 -0.6071  0.5349
 3404SOL    HW121671   2.688   3.188   7.738 -0.7037  0.3616  0.7679
 3404SOL    HW221672   2.612   3.273   7.645  0.3935 -0.3117  3.6965
 3405SOL     OW21673   0.789   3.931  10.040 -0.4676 -0.3564 -0.5887
 3405SOL    HW121674   0.853   3.868  10.006  1.0275  0.6028  0.4893
 3405SOL    HW221675   0.837   3.965  10.115 -0.9006  0.7524 -0.8101
 3406SOL     OW21676   2.494   4.352   1.060 -0.0885 -0.1230 -0.5331
 3406SOL    HW121677   2.543   4.379   0.982 -2.4781 -0.4534 -2.1277
 3406SOL    HW221678   2.562   4.317   1.118 -0.9918  1.2673  1.3499
 3407SOL     OW21679   0.680   2.970   3.072  0.3033 -0.4546  0.3413
 3407SOL    HW121680   0.627   2.928   3.004 -1.5458  0.5083  1.1880
 3407SOL    HW221681   0.766   2.927   3.065  0.9600  0.8278  0.5235
 3408SOL     OW21682   3.121   0.522  10.184  0.8075  0.2763 -0.5039
 3408SOL    HW121683   3.172   0.498  10.106 -0.1376 -1.2483 -0.6463
 3408SOL    HW221684   3.063   0.589  10.147 -0.4712 -0.9898 -0.7572
 3409SOL     OW21685   3.792   4.181   2.575  0.0618  0.1436 -0.1486
 3409SOL    HW121686   3.872   4.212   2.532  1.2263 -1.5192  0.8146
 3409SOL    HW221687   3.788   4.245   2.646 -1.5236  2.3840 -2.2769
 3410SOL     OW21688   1.279   0.770   3.145  0.0013 -0.1897 -0.1481
 3410SOL    HW121689   1.244   0.803   3.063  1.6275 -2.8164 -1.8750
 3410SOL    HW221690   1.335   0.839   3.179 -1.2368  2.1040 -2.7691
 3411SOL     OW21691   3.828   4.272  10.491 -0.6528  0.6142 -0.2170
 3411SOL    HW121692   3.830   4.302  10.400  1.1141  1.8844  0.2163
 3411SOL    HW221693   3.907   4.218  10.491 -1.2340 -0.2022 -1.9609
 3412SOL     OW21694   4.707   2.157  12.233  0.4724 -0.0295  0.6075
 3412SOL    HW121695   4.633   2.098  12.241  1.3712 -1.0531  1.3744
 3412SOL    HW221696   0.014   2.147  12.143  2.0808 -1.1072  1.2889
 3413SOL     OW21697   4.645   0.941   9.259  0.2325  0.6545  0.6837
 3413SOL    HW121698   4.719   0.978   9.307  0.1494 -1.3105  2.3396
 3413SOL    HW221699   4.685   0.881   9.195 -2.1905  0.3069 -0.5184
 3414SOL     OW21700   4.087   3.391   4.399  0.3568 -0.2745 -0.3081
 3414SOL    HW121701   4.180   3.416   4.397  0.7357 -1.7240 -1.1693
 3414SOL    HW221702   4.049   3.443   4.328 -0.1590 -1.1105 -0.6466
 3415SOL     OW21703   4.054   3.825  13.741  0.3065  0.5268  0.5073
 3415SOL    HW121704   4.083   3.906  13.783 -2.3532  1.9172 -0.3251
 3415SOL    HW221705   3.979   3.804  13.798 -0.6840 -0.7028 -1.2441
 3416SOL     OW21706   0.422   0.512   5.768  0.1514  0.2095  0.2453
 3416SOL    HW121707   0.475   0.444   5.727  0.6376  1.4757 -1.2166
 3416SOL    HW221708   0.334   0.484   5.742 -0.0940  1.3265 -0.1429
 3417SOL     OW21709   1.728   1.059   2.815  0.1656 -0.1855  0.4596
 3417SOL    HW121710   1.741   1.138   2.761 -1.2533  0.9732  1.8038
 3417SOL    HW221711   1.765   0.995   2.754  0.5563  1.2231 -0.7720
 3418SOL     OW21712   1.294   2.042   6.424  0.6592  0.3380  0.0237
 3418SOL    HW121713   1.261   2.081   6.505 -0.2449  1.9332 -1.0986
 3418SOL    HW221714   1.253   2.105   6.363 -0.6615 -0.5809 -0.0333
 3419SOL     OW21715   2.468   0.901   6.172 -0.0964 -0.0201  0.6690
 3419SOL    HW121716   2.468   0.995   6.191 -1.6282  0.0969  0.1686
 3419SOL    HW221717   2.412   0.903   6.094  0.8402  1.2913  0.0271
 3420SOL     OW21718   3.848   0.435  17.358 -0.4131  0.0998 -0.5886
 3420SOL    HW121719   3.936   0.451  17.325 -0.8489  2.2975 -0.6563
 3420SOL    HW221720   3.816   0.369  17.296 -1.4308  2.1662 -2.2456
 3421SOL     OW21721   3.207   2.603   4.179  0.1389  0.0095 -0.1569
 3421SOL    HW121722   3.154   2.682   4.191  0.8587  0.8178 -2.2147
 3421SOL    HW221723   3.224   2.579   4.270  0.3318  1.8790  0.3057
 3422SOL     OW21724   4.199   4.596   9.001 -0.5395 -0.4111 -0.9219
 3422SOL    HW121725   4.264   4.658   9.034 -0.4828  0.2960 -2.3604
 3422SOL    HW221726   4.175   4.628   8.914 -0.5134 -1.8817 -1.4762
 3423SOL     OW21727   0.303   4.275  16.908 -0.2595 -0.4138  0.2014
 3423SOL    HW121728   0.358   4.265  16.985 -1.3676  0.2058  1.0744
 3423SOL    HW221729   0.292   4.370  16.906  2.1777 -0.1235  0.6799
 3424SOL     OW21730   3.218   1.366   0.931  0.5885  0.2027 -0.0357
 3424SOL    HW121731   3.189   1.350   0.841  3.5445 -1.2685 -0.7139
 3424SOL    HW221732   3.309   1.387   0.912  0.1484 -0.1046 -2.5002
 3425SOL     OW21733   2.824   2.450  14.658 -0.3026  0.1796 -0.0856
 3425SOL    HW121734   2.738   2.409  14.649 -0.3712  0.3497 -0.2087
 3425SOL    HW221735   2.795   2.538  14.633 -1.4891 -0.1587  0.0597
 3426SOL     OW21736   3.985   3.933   1.122 -0.1248  0.4186  0.3479
 3426SOL    HW121737   4.021   3.849   1.095 -0.1142  0.3827  0.4723
 3426SOL    HW221738   4.064   3.987   1.115 -1.4888  2.0705 -2.4352
 3427SOL     OW21739   2.100   3.198   9.351 -0.0146  0.6576  0.3121
 3427SOL    HW121740   2.053   3.149   9.419 -0.0213  0.4518  0.1582
 3427SOL    HW221741   2.050   3.279   9.360 -0.1272  0.5063  1.0849
 3428SOL     OW21742   1.178   1.135   4.451 -0.1028 -0.0694 -0.2274
 3428SOL    HW121743   1.230   1.138   4.371 -0.3839 -1.4783 -0.4646
 3428SOL    HW221744   1.117   1.204   4.424 -0.6800 -0.5942 -0.2692
 3429SOL     OW21745   3.638   1.141  10.814  0.1574 -0.2155 -0.1353
 3429SOL    HW121746   3.561   1.187  10.845 -0.2816 -0.2161 -1.2285
 3429SOL    HW221747   3.693   1.217  10.797  0.5459 -0.4093  0.2478
 3430SOL     OW21748   1.695   2.456   0.737  0.2564 -0.3539 -0.3386
 3430SOL    HW121749   1.784   2.465   0.703  1.6452 -0.9017  3.1783
 3430SOL    HW221750   1.647   2.479   0.657 -0.6987 -0.0215  0.3262
 3431SOL     OW21751   3.449   3.591  10.033  0.1786  0.2784 -0.2881
 3431SOL    HW121752   3.394   3.628   9.964  1.4021  0.4207 -1.1885
 3431SOL    HW221753   3.410   3.632  10.111  3.4455  1.3442  0.7884
 3432SOL     OW21754   0.041   2.582   8.085 -0.0597 -0.5175 -0.4169
 3432SOL    HW121755   4.724   2.666   8.067 -0.0472 -0.3020  0.5668
 3432SOL    HW221756   0.125   2.587   8.038 -0.6031 -0.7984 -1.4077
 3433SOL     OW21757   1.448   3.563  16.571  0.6058 -0.3447 -0.3181
 3433SOL    HW121758   1.533   3.543  16.610  0.2130 -1.3814 -0.0009
 3433SOL    HW221759   1.415   3.623  16.639  0.0630  0.5010 -1.3225
 3434SOL     OW21760   4.437   3.784   3.603 -0.5203 -0.0923  0.0467
 3434SOL    HW121761   4.420   3.841   3.529 -1.4608 -1.0757 -0.4858
 3434SOL    HW221762   4.353   3.787   3.649 -0.3785  1.2219  0.2237
 3435SOL     OW21763   1.519   1.960   7.110 -0.0448 -0.1080  0.3215
 3435SOL    HW121764   1.523   1.867   7.088 -0.5812  0.1030 -0.6589
 3435SOL    HW221765   1.426   1.965   7.087  0.3048  1.6159 -0.6642
 3436SOL     OW21766   2.317   2.966   6.268  0.3027  0.7293 -0.3175
 3436SOL    HW121767   2.315   2.881   6.224 -0.4423  0.4318  0.2739
 3436SOL    HW221768   2.235   3.006   6.239 -0.6517 -0.1392  1.1527
 3437SOL     OW21769   1.769   1.610   6.843  0.4414  0.0385 -0.0261
 3437SOL    HW121770   1.709   1.674   6.804 -1.2645 -0.6571  1.4885
 3437SOL    HW221771   1.847   1.665   6.851 -0.2679  1.3780 -2.0878
 3438SOL     OW21772   0.510   1.963   6.131 -0.5596  0.0831  0.5559
 3438SOL    HW121773   0.537   2.026   6.197  2.1291 -0.9471  0.4488
 3438SOL    HW221774   0.463   1.898   6.183 -0.7330 -0.5987 -0.4416
 3439SOL     OW21775   4.295   0.056   2.873 -0.4834 -0.6954  0.0939
 3439SOL    HW121776   4.355   0.012   2.812  0.6197  0.5773  0.2590
 3439SOL    HW221777   4.298   0.150   2.860 -1.3968 -0.7551 -0.5926
 3440SOL     OW21778   3.137   3.556   8.223 -0.4561  0.0909 -0.0270
 3440SOL    HW121779   3.102   3.625   8.279  0.6965  0.9178 -0.3232
 3440SOL    HW221780   3.218   3.594   8.191  0.1377  0.8819  2.4156
 3441SOL     OW21781   4.248   3.784  14.698 -0.6418 -0.2200  0.2686
 3441SOL    HW121782   4.303   3.715  14.661 -1.3444 -0.3361 -0.5570
 3441SOL    HW221783   4.186   3.744  14.760  1.3857  0.2522  2.5903
 3442SOL     OW21784   1.055   2.061   6.925  0.6767  0.4665  0.0431
 3442SOL    HW121785   0.988   2.038   6.860 -0.2649  1.7691  0.5502
 3442SOL    HW221786   1.049   2.157   6.930  0.2660  0.4463 -0.0523
 3443SOL     OW21787   3.969   2.006  15.543  0.4537 -0.2668  0.7998
 3443SOL    HW121788   4.024   2.073  15.502 -0.5849  0.4843  0.6452
 3443SOL    HW221789   4.041   1.952  15.577 -1.5068 -3.1943  0.3365
 3444SOL     OW21790   0.466   4.340   4.958  0.0020  0.3527  0.0702
 3444SOL    HW121791   0.475   4.429   4.924 -1.1410  1.1652  1.9267
 3444SOL    HW221792   0.372   4.328   4.948  0.1411  0.8048 -1.7625
 3445SOL     OW21793   1.787   1.165  13.267  0.5638  0.1789 -0.2001
 3445SOL    HW121794   1.797   1.166  13.362  4.6157 -0.5759 -0.6266
 3445SOL    HW221795   1.699   1.128  13.264  0.8566 -0.4569 -0.8206
 3446SOL     OW21796   3.351   1.736   1.596  0.6501  0.4466  0.1460
 3446SOL    HW121797   3.368   1.642   1.596  0.7540  0.4655  1.6536
 3446SOL    HW221798   3.280   1.741   1.532 -0.5743 -0.9005  1.3947
 3447SOL     OW21799   0.133   3.939  15.007  0.4789  0.0931  0.0686
 3447SOL    HW121800   0.048   3.927  14.964  0.8759  1.0673 -0.9854
 3447SOL    HW221801   0.140   4.032  15.027 -1.7785  0.1093  0.7291
 3448SOL     OW21802   0.858   4.249   9.920  0.1532 -0.3794 -0.4512
 3448SOL    HW121803   0.895   4.293   9.843  0.6636  1.9941  1.1475
 3448SOL    HW221804   0.945   4.228   9.955  0.0324  0.1016  0.1232
 3449SOL     OW21805   0.645   4.346   1.227  0.4417  0.1187 -0.3421
 3449SOL    HW121806   0.555   4.323   1.251  0.5236  1.5551  1.2937
 3449SOL    HW221807   0.687   4.262   1.207 -2.1349 -1.6485  1.6810
 3450SOL     OW21808   3.546   2.128   8.952  0.0482  0.1712 -0.7095
 3450SOL    HW121809   3.501   2.213   8.953  1.2880  0.8786 -4.0589
 3450SOL    HW221810   3.583   2.134   8.864 -2.2856  2.6226 -1.5482
 3451SOL     OW21811   3.752   2.423   4.622 -0.3892 -0.5337  0.4126
 3451SOL    HW121812   3.670   2.392   4.583 -0.5827 -0.5868  0.8693
 3451SOL    HW221813   3.782   2.346   4.669 -1.8493 -0.8824  0.7816
 3452SOL     OW21814   0.982   3.749  10.055  0.3380 -0.1870 -0.2761
 3452SOL    HW121815   0.927   3.690  10.107 -3.0254  0.0041 -3.6187
 3452SOL    HW221816   1.006   3.697   9.978 -1.4374 -0.2855 -0.7715
 3453SOL     OW21817   0.648   3.748  11.281 -0.1085 -0.2314 -0.1806
 3453SOL    HW121818   0.674   3.657  11.267 -3.2117 -1.3775  1.4602
 3453SOL    HW221819   0.585   3.763  11.211 -1.2279  1.0980  1.0907
 3454SOL     OW21820   2.974   3.686   5.623  0.2281 -0.6797 -0.2994
 3454SOL    HW121821   3.020   3.767   5.604 -0.9809  0.3809  1.2612
 3454SOL    HW221822   2.888   3.697   5.583  0.5317 -0.8977 -1.0033
 3455SOL     OW21823   4.625   2.490   8.345 -0.2865 -0.1235  0.1444
 3455SOL    HW121824   4.686   2.523   8.279 -0.2281 -1.0149 -0.2487
 3455SOL    HW221825   4.646   2.555   8.413 -1.8298 -0.3054  0.7991
 3456SOL     OW21826   1.448   4.140  13.124  0.2954 -0.1072  0.2507
 3456SOL    HW121827   1.425   4.080  13.053 -1.3990 -1.2207  1.7450
 3456SOL    HW221828   1.473   4.079  13.194  0.6230 -0.1254  0.1202
 3457SOL     OW21829   4.663   1.003   7.127 -0.2594 -1.0729  0.4033
 3457SOL    HW121830   4.594   0.969   7.070  1.2082 -0.0320 -2.0126
 3457SOL    HW221831   4.646   0.955   7.208 -1.6025 -0.8033  0.2848
 3458SOL     OW21832   4.560   0.064   4.752 -0.1732 -0.0257 -0.5476
 3458SOL    HW121833   4.478   0.069   4.703 -0.8809 -0.0797  0.6256
 3458SOL    HW221834   4.526   0.035   4.836  0.5357  3.4303  0.9308
 3459SOL     OW21835   3.558   0.354   1.233 -0.2993 -0.2040  0.0071
 3459SOL    HW121836   3.608   0.393   1.305  0.4447 -1.6277  0.2638
 3459SOL    HW221837   3.493   0.419   1.208 -0.0629  0.0267 -0.0042
 3460SOL     OW21838   4.263   4.613   5.709  0.1260 -0.4360  0.4504
 3460SOL    HW121839   4.171   4.591   5.697  0.2765 -0.0078 -1.4174
 3460SOL    HW221840   4.245   4.697   5.752  1.4330 -0.7672  1.6475
 3461SOL     OW21841   3.993   0.726  11.720  0.3505 -0.0794 -0.6413
 3461SOL    HW121842   3.962   0.727  11.810  0.7312  0.0654 -0.5108
 3461SOL    HW221843   3.965   0.636  11.702 -0.3193 -0.1666  0.8865
 3462SOL     OW21844   0.659   2.656  13.267  0.1557  0.2878 -0.2214
 3462SOL    HW121845   0.664   2.700  13.182 -0.4018 -2.2080 -1.5542
 3462SOL    HW221846   0.567   2.633  13.280  0.4340  0.2041  1.5462
 3463SOL     OW21847   4.024   0.541   1.965  0.6940  0.5242  0.1851
 3463SOL    HW121848   3.981   0.573   1.886 -0.0247 -0.3443  0.2245
 3463SOL    HW221849   3.974   0.595   2.025  0.4263 -0.5145  0.8974
 3464SOL     OW21850   0.400   2.019   4.965 -0.2088 -0.4568 -0.2352
 3464SOL    HW121851   0.405   2.099   4.914 -0.2192 -1.1070 -1.2496
 3464SOL    HW221852   0.486   1.978   4.957 -0.0201  0.1432 -1.2573
 3465SOL     OW21853   4.120   2.833   8.477 -0.0936 -0.2756 -0.0329
 3465SOL    HW121854   4.146   2.914   8.520  2.4934  0.0632 -2.2271
 3465SOL    HW221855   4.162   2.771   8.538 -1.2718 -1.4156 -0.3789
 3466SOL     OW21856   1.902   4.209   4.185  0.2725  0.0958 -0.5484
 3466SOL    HW121857   1.990   4.185   4.215 -0.0042  3.7395  3.2081
 3466SOL    HW221858   1.844   4.183   4.257 -1.8664  0.3259 -2.2023
 3467SOL     OW21859   2.536   1.433   8.076  0.0261 -0.5677  0.2918
 3467SOL    HW121860   2.521   1.525   8.055 -0.7131 -0.4763  1.2242
 3467SOL    HW221861   2.626   1.430   8.108 -0.9812 -2.9323  2.8493
 3468SOL     OW21862   4.081   3.863  14.476 -0.1872 -1.1203  0.7733
 3468SOL    HW121863   4.119   3.858  14.563  1.4927 -0.5645  0.0604
 3468SOL    HW221864   4.158   3.883  14.423 -0.5331  1.3972  1.2355
 3469SOL     OW21865   0.462   1.911   3.415  0.1055  0.2267  0.1782
 3469SOL    HW121866   0.458   1.868   3.501  1.5141 -1.4171 -0.5758
 3469SOL    HW221867   0.554   1.909   3.390  0.2992  1.1500  0.7926
 3470SOL     OW21868   3.486   0.107  15.306 -0.3896 -1.1915 -0.1304
 3470SOL    HW121869   3.556   0.114  15.240  0.2457  0.0454  0.6763
 3470SOL    HW221870   3.453   0.196  15.319  0.0490 -1.0584  0.0812
 3471SOL     OW21871   0.893   2.514  14.862  0.0407 -0.6152 -0.4646
 3471SOL    HW121872   0.948   2.490  14.787 -0.3852  3.5069 -2.0710
 3471SOL    HW221873   0.829   2.574  14.825  0.1307 -1.5198 -2.0781
 3472SOL     OW21874   0.040   3.286   6.964 -0.0794 -0.3306 -0.0366
 3472SOL    HW121875   0.002   3.374   6.957  1.6618  0.3825 -0.6870
 3472SOL    HW221876   0.117   3.294   7.020 -1.4444 -0.4953  1.8621
 3473SOL     OW21877   3.889   1.067   2.979 -0.2857 -0.0013  0.2793
 3473SOL    HW121878   3.798   1.066   2.948  0.8277 -1.6189 -2.9675
 3473SOL    HW221879   3.925   1.147   2.941 -1.5147 -0.7253 -2.4187
 3474SOL     OW21880   1.853   3.275   6.919  0.2275  0.3756  0.2348
 3474SOL    HW121881   1.906   3.196   6.909  1.2216  1.0259  0.3434
 3474SOL    HW221882   1.904   3.333   6.976  2.1442  0.2036 -1.2959
 3475SOL     OW21883   2.013   3.019   3.216 -0.1409  0.0663  0.0493
 3475SOL    HW121884   1.996   2.925   3.221  1.9714 -0.4478 -2.3952
 3475SOL    HW221885   1.967   3.059   3.289 -0.6495  0.0918 -0.2832
 3476SOL     OW21886   1.841   1.208   0.292  0.5371  0.2608 -0.0074
 3476SOL    HW121887   1.843   1.286   0.237 -0.5008 -0.5473 -1.2095
 3476SOL    HW221888   1.751   1.212   0.327 -0.1277 -0.4856 -1.6230
 3477SOL     OW21889   2.192   3.783   7.964  0.2809  0.5527 -0.4774
 3477SOL    HW121890   2.164   3.706   8.014  2.8671  0.2751  0.5666
 3477SOL    HW221891   2.130   3.851   7.991 -1.9650 -0.9236 -1.9615
 3478SOL     OW21892   0.775   2.794   4.589  0.2601 -0.0920  0.1700
 3478SOL    HW121893   0.858   2.773   4.546 -0.5300  0.2573 -1.5594
 3478SOL    HW221894   0.740   2.705   4.597 -1.8169  0.6472 -0.6205
 3479SOL     OW21895   3.478   0.921   3.133 -0.0436 -0.3330  0.0771
 3479SOL    HW121896   3.514   0.994   3.183  0.8045  0.0385 -1.0646
 3479SOL    HW221897   3.512   0.946   3.046 -1.6952  1.9852  0.1019
 3480SOL     OW21898   2.315   3.166   7.344 -0.3049  0.0031  0.1964
 3480SOL    HW121899   2.246   3.134   7.286  0.0853 -0.6702  0.1175
 3480SOL    HW221900   2.257   3.212   7.405 -3.1413 -1.1823 -1.6291
 3481SOL     OW21901   3.056   0.258   2.111 -0.2391 -0.0678 -0.4333
 3481SOL    HW121902   2.993   0.249   2.040  0.1088  0.3907 -0.7948
 3481SOL    HW221903   3.029   0.192   2.175 -2.0364 -0.3712 -1.5183
 3482SOL     OW21904   4.655   3.009  14.213  0.3192  0.6227 -0.1728
 3482SOL    HW121905   4.698   2.948  14.154 -0.4208 -0.9245  0.8765
 3482SOL    HW221906   4.713   3.084  14.223  1.2889  0.1281 -2.2609
 3483SOL     OW21907   2.635   3.150   3.493  0.1192  0.7565 -0.0154
 3483SOL    HW121908   2.619   3.100   3.413  0.2487  0.9609 -0.1657
 3483SOL    HW221909   2.555   3.119   3.537 -0.1321  1.1236 -0.2243
 3484SOL     OW21910   0.912   1.116   5.916  0.6482  0.1993  0.5500
 3484SOL    HW121911   0.850   1.189   5.912  0.8972  0.4767  1.8170
 3484SOL    HW221912   0.940   1.109   5.824  1.0285  0.3011  0.6577
 3485SOL     OW21913   1.659   1.324   4.159  0.7081  0.0691 -0.7868
 3485SOL    HW121914   1.634   1.239   4.195  1.0986  0.1733 -0.2617
 3485SOL    HW221915   1.731   1.349   4.218  0.2272  0.2656 -0.2838
 3486SOL     OW21916   2.173   4.210   4.738 -0.3429 -0.3516  0.3701
 3486SOL    HW121917   2.125   4.169   4.667  1.1038  0.0641 -0.8444
 3486SOL    HW221918   2.251   4.154   4.740  0.6813  1.0208 -1.3418
 3487SOL     OW21919   0.522   4.290   9.650  0.0460 -0.1128  0.1036
 3487SOL    HW121920   0.454   4.226   9.671 -0.9066  0.6112 -0.7582
 3487SOL    HW221921   0.525   4.347   9.727 -1.1340  2.7718 -1.9995
 3488SOL     OW21922   0.615   2.580   1.165  0.2305  0.1801 -0.6804
 3488SOL    HW121923   0.612   2.660   1.113  1.8413  1.5455  1.3118
 3488SOL    HW221924   0.673   2.607   1.237 -0.4832 -0.7066  0.2189
 3489SOL     OW21925   0.960   4.297   0.814 -1.1221  0.2094  0.3983
 3489SOL    HW121926   0.947   4.203   0.825  1.7623 -0.3147 -0.6725
 3489SOL    HW221927   0.923   4.332   0.895 -0.5846  1.0211  0.2980
 3490SOL     OW21928   4.454   0.829   3.270 -0.4221  0.5617 -0.4534
 3490SOL    HW121929   4.484   0.819   3.180 -0.4781 -2.6833 -0.1157
 3490SOL    HW221930   4.529   0.791   3.316 -1.9999  0.6971  2.2538
 3491SOL     OW21931   4.001   4.539  11.499  0.2144 -0.0525  0.5320
 3491SOL    HW121932   4.069   4.476  11.521  0.1102 -0.0958  0.7259
 3491SOL    HW221933   4.029   4.584  11.419 -3.4140 -3.0384 -2.3852
 3492SOL     OW21934   2.406   2.486  10.221  0.5072  0.4816 -0.2192
 3492SOL    HW121935   2.423   2.523  10.134  1.5683  1.0987  0.2527
 3492SOL    HW221936   2.364   2.560  10.266 -0.1643  0.0655 -0.1570
 3493SOL     OW21937   4.548   2.193   6.189 -0.1096 -0.0345 -0.2716
 3493SOL    HW121938   4.630   2.185   6.238 -0.0795  1.5410 -0.0702
 3493SOL    HW221939   4.566   2.159   6.102  2.3391 -0.9951  0.6005
 3494SOL     OW21940   2.654   1.839   6.726 -0.1044 -0.2057  0.4374
 3494SOL    HW121941   2.746   1.847   6.752 -0.1900 -2.0422  1.3014
 3494SOL    HW221942   2.634   1.932   6.736  0.3569 -0.2456  1.7774
 3495SOL     OW21943   0.688   1.588   8.473  0.7020  0.0402  0.3080
 3495SOL    HW121944   0.609   1.586   8.419  0.5565  1.2770  0.4829
 3495SOL    HW221945   0.648   1.566   8.557 -1.1086  2.0371 -0.0175
 3496SOL     OW21946   4.399   2.593   4.413  0.2765  0.3993 -0.0742
 3496SOL    HW121947   4.361   2.506   4.399 -1.8893  1.2330  0.6122
 3496SOL    HW221948   4.382   2.630   4.326  0.0324  0.7795  0.1360
 3497SOL     OW21949   1.111   4.378   2.940 -0.2527 -0.1064  0.4103
 3497SOL    HW121950   1.054   4.308   2.974  2.9384 -1.6992  2.4594
 3497SOL    HW221951   1.192   4.328   2.944  0.5431  1.1449 -0.1986
 3498SOL     OW21952   1.268   4.342  10.048 -0.1997 -0.2929 -0.3019
 3498SOL    HW121953   1.362   4.349  10.028 -0.8084  2.1312 -2.2734
 3498SOL    HW221954   1.270   4.276  10.118  0.8670  1.1218  1.0276
 3499SOL     OW21955   0.634   1.311  17.427  0.1002 -0.7173 -0.2358
 3499SOL    HW121956   0.562   1.295  17.366 -1.1182  1.2234  0.7054
 3499SOL    HW221957   0.592   1.340  17.508  0.4973 -0.3048 -0.1779
 3500SOL     OW21958   1.338   0.086   4.434 -0.4746 -0.1333  0.5154
 3500SOL    HW121959   1.302   0.140   4.364 -1.6739 -1.5805  0.0076
 3500SOL    HW221960   1.433   0.097   4.424 -0.4756 -0.1264  0.5139
 3501SOL     OW21961   2.665   3.469  13.829 -0.0118 -0.2030 -0.0470
 3501SOL    HW121962   2.608   3.524  13.775  1.4645 -1.0935 -2.5275
 3501SOL    HW221963   2.721   3.427  13.763 -0.9143  0.3287 -1.1619
 3502SOL     OW21964   1.586   4.404   5.076 -0.2094  0.7374  0.3644
 3502SOL    HW121965   1.605   4.495   5.099 -0.5504  1.3311 -1.6156
 3502SOL    HW221966   1.492   4.401   5.094  0.3253 -2.1280  2.6862
 3503SOL     OW21967   4.582   2.172   2.891 -0.0981  0.0132 -0.3886
 3503SOL    HW121968   4.590   2.137   2.980 -0.0164 -0.8579 -0.7440
 3503SOL    HW221969   4.630   2.106   2.842  0.7564 -0.5223  1.1426
 3504SOL     OW21970   2.323   3.401   1.306  0.7507 -0.1088  1.0343
 3504SOL    HW121971   2.378   3.475   1.278 -0.5806  1.0003  1.3173
 3504SOL    HW221972   2.248   3.459   1.321  0.9679  0.3865  0.2209
 3505SOL     OW21973   4.679   1.187  16.817  0.2632  0.3141  0.4916
 3505SOL    HW121974   4.695   1.278  16.842  2.3207  0.1471 -0.2595
 3505SOL    HW221975   4.590   1.185  16.781  0.1976  2.4854  0.5427
 3506SOL     OW21976   1.640   1.732   6.041  0.0050  0.1653 -0.3956
 3506SOL    HW121977   1.717   1.676   6.051  0.7088  0.8928 -1.7285
 3506SOL    HW221978   1.561   1.678   6.033  0.0737 -0.3348  2.1696
 3507SOL     OW21979   0.490   1.621  13.778 -0.7869 -0.5819  0.0732
 3507SOL    HW121980   0.423   1.685  13.802 -0.1542 -0.7154  2.1601
 3507SOL    HW221981   0.514   1.579  13.860  0.4809 -0.1820 -0.0858
 3508SOL     OW21982   1.710   3.045  17.694 -0.0933 -0.2529 -0.0316
 3508SOL    HW121983   1.673   3.088  17.617  2.0192  1.3610 -0.1107
 3508SOL    HW221984   1.719   2.954  17.666 -0.9083  0.5164 -2.8273
 3509SOL     OW21985   1.925   4.230   8.281  0.2278 -0.1347  0.0328
 3509SOL    HW121986   1.948   4.137   8.274  0.1174 -0.1975  0.5016
 3509SOL    HW221987   1.926   4.245   8.376  1.5450 -0.4251  0.0617
 3510SOL     OW21988   0.260   4.210   3.021 -0.5890  0.4052  0.1773
 3510SOL    HW121989   0.277   4.253   2.937 -0.8803 -1.7549 -0.9867
 3510SOL    HW221990   0.293   4.279   3.078  0.9081 -0.5233  0.4108
 3511SOL     OW21991   1.354   3.710   3.284  0.0988  0.1245  0.2384
 3511SOL    HW121992   1.428   3.657   3.253  0.5823  0.8940  0.0760
 3511SOL    HW221993   1.285   3.670   3.231  1.9167  0.6383 -2.4944
 3512SOL     OW21994   0.052   2.193   6.339 -0.1922 -0.4679 -0.4136
 3512SOL    HW121995   0.082   2.282   6.358 -2.0453  0.6609 -2.7985
 3512SOL    HW221996   0.035   2.160   6.428  1.6890  0.1154  0.1665
 3513SOL     OW21997   0.222   1.052   4.575 -0.2395 -0.0647  0.3174
 3513SOL    HW121998   0.285   1.025   4.642 -1.0881 -1.3419  0.6021
 3513SOL    HW221999   0.261   1.018   4.494 -0.7898 -0.8813  0.3970
 3514SOL     OW22000   4.612   0.366   0.702 -0.3066  0.0572 -0.0966
 3514SOL    HW122001   4.527   0.410   0.695 -1.2513 -1.8433 -0.5849
 3514SOL    HW222002   4.658   0.429   0.758  0.3300 -0.4747 -0.0217
 3515SOL     OW22003   0.443   2.188   8.122  0.4276 -0.0339 -0.6945
 3515SOL    HW122004   0.369   2.128   8.107  0.7156 -0.9302  1.6130
 3515SOL    HW222005   0.509   2.122   8.143  1.1837  0.8136 -0.4028
 3516SOL     OW22006   0.067   3.168   3.525 -0.2070  0.1798 -0.6969
 3516SOL    HW122007   0.142   3.121   3.490 -1.4969 -1.5296 -1.1072
 3516SOL    HW222008   0.001   3.173   3.456 -0.0570  1.9223 -0.7267
 3517SOL     OW22009   0.171   0.081   9.670 -0.2254  0.0442  0.5533
 3517SOL    HW122010   0.165   0.176   9.657  1.3758  0.1824  0.9158
 3517SOL    HW222011   0.242   0.075   9.733  0.6355  1.9155 -0.2294
 3518SOL     OW22012   0.983   0.975   7.246  0.1707 -0.1767 -0.3060
 3518SOL    HW122013   1.012   0.960   7.336 -0.5889  0.2622  0.0106
 3518SOL    HW222014   0.932   1.056   7.243  3.4402  1.8517 -0.8203
 3519SOL     OW22015   0.270   4.269  13.171 -0.2787  0.1176  0.3100
 3519SOL    HW122016   0.257   4.244  13.080  2.5291  1.0835 -0.3568
 3519SOL    HW222017   0.319   4.351  13.164  0.2672 -0.3095 -0.8294
 3520SOL     OW22018   0.573   0.895   3.742  0.6193 -0.0597 -0.1634
 3520SOL    HW122019   0.575   0.811   3.696 -1.6673 -0.3204  0.1941
 3520SOL    HW222020   0.531   0.871   3.825  0.2285  1.0003 -0.0575
 3521SOL     OW22021   0.144   3.024   6.073 -0.1541  0.3815 -0.7043
 3521SOL    HW122022   0.199   3.084   6.123  1.2160 -1.3123 -0.1480
 3521SOL    HW222023   0.211   2.986   6.017  1.1596 -3.1965  3.2140
 3522SOL     OW22024   3.791   1.001  11.000 -0.0488  0.4296  0.6201
 3522SOL    HW122025   3.756   1.053  10.927  2.5181 -1.8589 -2.2688
 3522SOL    HW222026   3.877   0.976  10.966 -0.0796  4.0361 -2.0565
 3523SOL     OW22027   1.329   1.675   7.068 -0.2255  0.2837  0.1732
 3523SOL    HW122028   1.376   1.592   7.077  1.3790  1.0239 -1.4780
 3523SOL    HW222029   1.254   1.652   7.124  0.9490 -1.4294  1.0546
 3524SOL     OW22030   3.142   1.281   5.070 -0.0307 -0.1545 -0.0480
 3524SOL    HW122031   3.221   1.275   5.123 -1.3198  0.8951  2.0158
 3524SOL    HW222032   3.086   1.346   5.113 -0.2401 -0.8265  0.7060
 3525SOL     OW22033   4.533   1.856   6.367 -0.0687  0.2357  0.4587
 3525SOL    HW122034   4.459   1.842   6.426 -1.8552  1.7726 -1.4276
 3525SOL    HW222035   4.570   1.935   6.408  2.5065 -0.3089 -0.8104
 3526SOL     OW22036   3.594   1.334   5.768 -0.0292  0.7954 -0.0926
 3526SOL    HW122037   3.550   1.414   5.797  1.4313  1.2742  0.8015
 3526SOL    HW222038   3.646   1.364   5.694 -0.8363 -0.1878 -1.0669
 3527SOL     OW22039   4.318   1.631  16.911  0.2348  0.1145  0.2719
 3527SOL    HW122040   4.399   1.656  16.956  0.9478  2.7504 -2.5104
 3527SOL    HW222041   4.272   1.714  16.903 -0.0249 -0.3523 -3.0636
 3528SOL     OW22042   0.788   2.751   3.737 -0.2010  0.3769  0.2599
 3528SOL    HW122043   0.709   2.733   3.788  0.6156 -0.6241  1.1729
 3528SOL    HW222044   0.770   2.779   3.647  0.6250 -0.3854 -0.1469
 3529SOL     OW22045   2.557   2.850   0.203 -0.0690 -0.3647 -0.6598
 3529SOL    HW122046   2.480   2.903   0.182 -0.1732 -0.0307  0.5901
 3529SOL    HW222047   2.623   2.907   0.163  1.8247 -0.1253  2.7536
 3530SOL     OW22048   4.478   3.240   6.160  0.3576 -0.1400 -0.0755
 3530SOL    HW122049   4.475   3.335   6.147  1.3006  0.0092  0.8113
 3530SOL    HW222050   4.389   3.219   6.132 -0.2133  0.2747  1.4373
 3531SOL     OW22051   3.106   3.081   6.811 -0.5290 -0.1061 -0.3408
 3531SOL    HW122052   3.045   3.149   6.840  0.2806  1.6194 -2.6584
 3531SOL    HW222053   3.184   3.125   6.846 -0.6877  0.8145 -1.1670
 3532SOL     OW22054   3.921   0.160  11.266  0.2898 -0.0163 -0.3982
 3532SOL    HW122055   3.911   0.196  11.354  1.5595  1.3719 -0.8340
 3532SOL    HW222056   3.987   0.091  11.276 -0.9020 -1.1005 -0.0618
 3533SOL     OW22057   1.507   3.780  17.679  0.0305  0.4416  0.0135
 3533SOL    HW122058   1.518   3.752   0.069  0.1578  1.6762  0.3778
 3533SOL    HW222059   1.412   3.785  17.686 -0.1073 -0.6998 -0.8179
 3534SOL     OW22060   1.670   3.737   2.611  0.0802 -0.1815 -0.3955
 3534SOL    HW122061   1.700   3.813   2.661  0.7321 -1.0380  0.4802
 3534SOL    HW222062   1.749   3.701   2.571 -0.1244  0.8347 -1.7232
 3535SOL     OW22063   2.357   4.054   3.828 -0.6655  0.3484 -0.4129
 3535SOL    HW122064   2.380   4.146   3.840 -1.2251  0.2910  1.1668
 3535SOL    HW222065   2.432   4.031   3.774  0.3742 -0.5551  1.4193
 3536SOL     OW22066   3.346   2.193  14.930  0.1254 -0.1399 -0.4032
 3536SOL    HW122067   3.343   2.279  14.973 -3.6037 -0.4657  0.0554
 3536SOL    HW222068   3.252   2.184  14.913 -0.0457  1.1917 -0.1897
 3537SOL     OW22069   4.519   3.526   8.862 -0.2533  0.0356 -0.5771
 3537SOL    HW122070   4.603   3.485   8.883 -1.1652 -0.9482  1.1088
 3537SOL    HW222071   4.549   3.617   8.871  0.1069 -0.2465  1.0435
 3538SOL     OW22072   3.641   1.412  15.270  0.1677 -0.5904 -0.6578
 3538SOL    HW122073   3.688   1.426  15.187  1.7671 -1.0918  0.1722
 3538SOL    HW222074   3.573   1.479  15.256  1.4324  1.1705  1.5652
 3539SOL     OW22075   2.891   3.764  10.092 -0.2951 -0.0741  0.4783
 3539SOL    HW122076   2.859   3.681  10.057 -0.8916  0.7442 -0.9559
 3539SOL    HW222077   2.810   3.803  10.126  0.1874  0.2892  1.2073
 3540SOL     OW22078   4.103   2.616   6.606 -0.0236 -0.6194  0.6503
 3540SOL    HW122079   4.187   2.576   6.630  1.4250  1.0797 -1.6040
 3540SOL    HW222080   4.045   2.587   6.676  0.0489 -0.8260  0.6267
 3541SOL     OW22081   3.869   3.315   5.721  0.1411  0.5071 -0.1861
 3541SOL    HW122082   3.824   3.271   5.649  2.5641 -0.3509 -1.1883
 3541SOL    HW222083   3.954   3.321   5.677 -0.0405 -0.9176 -0.7267
 3542SOL     OW22084   0.011   1.970   2.795  0.2428 -0.0795 -0.2197
 3542SOL    HW122085   0.089   1.952   2.846  0.2053 -0.3739 -0.2687
 3542SOL    HW222086   0.045   1.995   2.709 -0.6157 -0.8510 -0.7946
 3543SOL     OW22087   3.970   1.094   5.709 -0.1127  0.0531 -0.3779
 3543SOL    HW122088   4.062   1.117   5.716 -0.2116 -0.0172  1.2211
 3543SOL    HW222089   3.945   1.125   5.796 -3.9614 -0.2520 -1.3799
 3544SOL     OW22090   2.859   1.565  14.457 -0.5354 -0.0973  0.0461
 3544SOL    HW122091   2.810   1.647  14.464  1.4208  1.0198  0.4555
 3544SOL    HW222092   2.854   1.538  14.549 -0.2685  2.0149  0.6842
 3545SOL     OW22093   4.417   0.889  13.508  0.2221  0.4237  0.7771
 3545SOL    HW122094   4.424   0.985  13.514  3.4029  0.2292  0.0596
 3545SOL    HW222095   4.323   0.878  13.525  0.2444 -0.9027  0.0377
 3546SOL     OW22096   4.569   4.430  15.601  0.4485 -0.3665  0.1917
 3546SOL    HW122097   4.569   4.523  15.624 -2.1720 -0.7593  1.7247
 3546SOL    HW222098   4.635   4.428  15.532 -2.3807  0.9431 -2.5716
 3547SOL     OW22099   3.052   3.825   5.227 -0.4401  0.3565  0.0151
 3547SOL    HW122100   3.059   3.809   5.321  0.6015  0.3479 -0.0618
 3547SOL    HW222101   2.973   3.877   5.214  2.9333  5.5315  0.1261
 3548SOL     OW22102   2.998   1.241   1.820  0.1814 -0.0153  0.3786
 3548SOL    HW122103   3.035   1.265   1.736 -1.4898  0.2365 -0.2804
 3548SOL    HW222104   3.046   1.161   1.845  0.2459  0.0443  0.4481
 3549SOL     OW22105   2.052   1.746   6.546  0.3779  0.3058  0.2522
 3549SOL    HW122106   2.014   1.768   6.631  0.3732 -0.0715  0.3492
 3549SOL    HW222107   2.037   1.822   6.490  0.9291 -0.1655 -0.5459
 3550SOL     OW22108   4.212   0.625  14.669 -0.3171 -0.1039  0.1814
 3550SOL    HW122109   4.249   0.540  14.643 -1.5274  0.1731 -2.4584
 3550SOL    HW222110   4.288   0.678  14.692 -1.1547  0.7333  0.9782
 3551SOL     OW22111   3.614   0.008   4.303 -0.0763  0.1100  0.0833
 3551SOL    HW122112   3.589   4.704   4.215  0.6897 -0.2717 -0.0104
 3551SOL    HW222113   3.555   4.670   4.347  1.3897 -0.0963  1.7696
 3552SOL     OW22114   3.514   0.975  11.392  0.8219  0.2732 -0.3631
 3552SOL    HW122115   3.498   1.041  11.459  1.2044 -1.1102  1.1089
 3552SOL    HW222116   3.450   1.000  11.326  0.0190 -0.1020  0.2642
 3553SOL     OW22117   4.622   2.374   4.946 -0.1238 -0.6547  0.0633
 3553SOL    HW122118   4.603   2.282   4.960 -0.6031 -0.4798  0.5632
 3553SOL    HW222119   4.569   2.396   4.870  0.1695  4.9925  1.4455
 3554SOL     OW22120   1.787   0.130   2.899 -0.1965 -0.3396 -0.1248
 3554SOL    HW122121   1.695   0.121   2.872 -0.6592 -2.2033  2.0634
 3554SOL    HW222122   1.832   0.117   2.816 -0.3671  0.8528 -0.4076
 3555SOL     OW22123   2.930   1.993  12.364 -0.3985 -0.0860  0.1606
 3555SOL    HW122124   2.988   1.936  12.314 -0.4880 -0.3363  0.3408
 3555SOL    HW222125   2.946   1.952  12.449  1.2114  1.0540  0.3993
 3556SOL     OW22126   4.469   2.976   7.699 -0.6419 -0.1659 -0.2992
 3556SOL    HW122127   4.478   3.031   7.621 -0.1453 -0.1495 -0.2282
 3556SOL    HW222128   4.529   2.907   7.669  0.5893  1.1510 -0.8914
 3557SOL     OW22129   4.446   0.476  10.315  0.3070  0.2330  0.2963
 3557SOL    HW122130   4.419   0.491  10.406  3.2222 -2.4869  1.6232
 3557SOL    HW222131   4.403   0.551  10.276  0.5604 -0.3785 -1.1505
 3558SOL     OW22132   4.212   0.681   5.134 -0.1093  0.7396  0.0530
 3558SOL    HW122133   4.162   0.747   5.087 -1.4547  1.0466  1.8967
 3558SOL    HW222134   4.300   0.714   5.122  0.7231 -3.0999 -4.3760
 3559SOL     OW22135   1.690   3.513  11.169  0.0846 -0.0860 -0.0272
 3559SOL    HW122136   1.699   3.542  11.259  3.6697  0.9413 -0.6991
 3559SOL    HW222137   1.661   3.423  11.186  2.0248 -0.8799 -0.8494
 3560SOL     OW22138   0.271   3.538   3.313 -0.4223 -0.3310 -0.0336
 3560SOL    HW122139   0.203   3.599   3.284  1.3882  0.5097 -2.5629
 3560SOL    HW222140   0.319   3.591   3.376  1.6664 -0.4847 -1.4891
 3561SOL     OW22141   0.532   2.754   9.438 -0.5452  0.3219  0.0441
 3561SOL    HW122142   0.614   2.802   9.446 -0.1845 -0.5122  1.2738
 3561SOL    HW222143   0.560   2.678   9.489 -0.2996 -1.0160 -2.0499
 3562SOL     OW22144   2.603   2.994   5.330 -0.1096 -0.4414  0.5719
 3562SOL    HW122145   2.536   2.967   5.268  0.3177  2.1670 -1.0364
 3562SOL    HW222146   2.618   3.088   5.315 -1.0901 -0.1179  1.6377
 3563SOL     OW22147   2.679   3.044   2.358 -0.1112  0.0208  0.2185
 3563SOL    HW122148   2.692   3.019   2.450 -2.0465  0.7723  0.7066
 3563SOL    HW222149   2.587   3.019   2.345 -0.7665  2.1361  0.7645
 3564SOL     OW22150   3.444   1.946   5.320 -0.2652  0.3801  0.1088
 3564SOL    HW122151   3.498   1.990   5.254 -1.1522 -1.7810 -2.0596
 3564SOL    HW222152   3.468   1.987   5.404  1.2345 -1.8112  0.7301
 3565SOL     OW22153   1.481   2.812  17.444 -0.4362  0.0227 -0.5314
 3565SOL    HW122154   1.544   2.770  17.386  0.2212 -0.2386  0.3713
 3565SOL    HW222155   1.502   2.767  17.526 -2.1708 -3.1302 -1.7762
 3566SOL     OW22156   3.669   2.604  17.104 -0.3237  0.1684  0.3493
 3566SOL    HW122157   3.681   2.639  17.193 -1.7538  1.4585  0.0247
 3566SOL    HW222158   3.738   2.638  17.047 -0.4860 -0.3870 -0.1656
 3567SOL     OW22159   2.265   3.631   2.578  0.2611 -0.3620 -0.2375
 3567SOL    HW122160   2.320   3.565   2.536  0.9523  0.4830 -0.6619
 3567SOL    HW222161   2.281   3.612   2.670  0.2658  0.6836 -0.0203
 3568SOL     OW22162   1.138   3.153  10.756  0.2669  0.3572 -0.0269
 3568SOL    HW122163   1.171   3.194  10.676  2.5425 -0.3139  0.5773
 3568SOL    HW222164   1.151   3.059  10.747  2.1221  0.3993  2.2918
 3569SOL     OW22165   4.688   0.335  15.022 -0.4006  0.4085 -0.6117
 3569SOL    HW122166   0.046   0.373  15.051 -0.2618 -1.6648  1.7253
 3569SOL    HW222167   4.640   0.354  15.102 -1.3683 -0.5599 -0.9677
 3570SOL     OW22168   4.617   2.567   0.926 -0.2440  0.2649 -0.2919
 3570SOL    HW122169   4.617   2.639   0.863  1.2096  0.4694 -0.0719
 3570SOL    HW222170   4.711   2.557   0.943 -0.5073 -0.4758  0.7122
 3571SOL     OW22171   2.063   0.182   6.699  0.2580 -0.2739  0.0047
 3571SOL    HW122172   2.064   0.140   6.785 -3.1251  1.2632  0.7991
 3571SOL    HW222173   1.981   0.149   6.662  0.2582  0.8847 -1.0420
 3572SOL     OW22174   2.257   4.059  12.118  0.5122 -0.1755  0.0255
 3572SOL    HW122175   2.293   4.018  12.197  0.1658  0.3205  0.4339
 3572SOL    HW222176   2.242   4.151  12.137 -1.8778 -0.1810 -1.8060
 3573SOL     OW22177   3.875   0.453   6.053  0.5917 -0.4108  0.2015
 3573SOL    HW122178   3.923   0.502   5.985  4.2820 -1.1700  2.3072
 3573SOL    HW222179   3.887   0.507   6.131 -0.1943  0.3740 -0.2137
 3574SOL     OW22180   3.600   4.064   7.444  0.5540  0.3637  0.0629
 3574SOL    HW122181   3.605   4.142   7.499 -0.3495  0.4805 -0.0170
 3574SOL    HW222182   3.539   4.011   7.497  1.9820  0.3797  1.7157
 3575SOL     OW22183   3.813   3.994   9.282 -0.8268  0.2267 -0.3102
 3575SOL    HW122184   3.823   4.064   9.346 -0.6562  0.8589 -1.0322
 3575SOL    HW222185   3.879   3.932   9.313 -0.9124  0.1520 -0.2764
 3576SOL     OW22186   1.642   0.813  11.713 -0.1408  0.2236  0.0181
 3576SOL    HW122187   1.621   0.745  11.649  0.6262  0.6417 -0.6716
 3576SOL    HW222188   1.737   0.809  11.702 -0.1679 -1.9317  0.7153
 3577SOL     OW22189   2.682   0.791  13.625 -0.3250  0.4842  0.0938
 3577SOL    HW122190   2.678   0.733  13.701  0.7907  0.7214  0.3237
 3577SOL    HW222191   2.596   0.830  13.612  0.2699  1.7150 -0.1445
 3578SOL     OW22192   0.808   4.520   1.607 -0.0947  0.3193 -0.0585
 3578SOL    HW122193   0.822   4.428   1.629 -0.1164  1.2022  3.6129
 3578SOL    HW222194   0.713   4.527   1.597 -0.1300  0.1232  0.1366
 3579SOL     OW22195   2.002   0.207   0.817  0.4905 -0.0753  0.4831
 3579SOL    HW122196   1.974   0.293   0.848 -0.1671 -0.2315  0.3078
 3579SOL    HW222197   1.984   0.152   0.893 -0.4174 -1.4028 -0.6865
 3580SOL     OW22198   0.664   3.887   1.112  0.2674  0.5362  0.0974
 3580SOL    HW122199   0.684   3.818   1.175 -1.2180 -0.8258 -0.9360
 3580SOL    HW222200   0.750   3.927   1.101  1.1679 -1.1274  1.0797
 3581SOL     OW22201   3.912   0.859   6.020 -0.0610 -0.1696  0.2390
 3581SOL    HW122202   3.925   0.790   5.955  1.4420 -0.4782  0.8782
 3581SOL    HW222203   4.006   0.871   6.034 -0.0764 -2.0171  1.8627
 3582SOL     OW22204   0.404   1.423  14.977 -0.1199  0.2664 -0.0255
 3582SOL    HW122205   0.357   1.446  14.897 -2.2052 -0.4078  1.0194
 3582SOL    HW222206   0.415   1.508  15.020 -1.1243  0.2178  0.3184
 3583SOL     OW22207   3.051   3.502  11.976 -0.2402  0.0896  0.0575
 3583SOL    HW122208   2.982   3.541  11.923  1.8178  0.6055 -2.2250
 3583SOL    HW222209   3.004   3.424  12.007  0.3144  0.4352  1.7351
 3584SOL     OW22210   0.359   0.139   1.299  0.3683  0.1039  0.0371
 3584SOL    HW122211   0.316   0.090   1.369 -1.8576  1.9478 -0.0281
 3584SOL    HW222212   0.370   0.075   1.228  0.2625  1.9311 -1.6158
 3585SOL     OW22213   1.747   0.572   3.578  0.0555 -0.2311 -0.8134
 3585SOL    HW122214   1.786   0.633   3.640 -2.4786  3.0376 -2.4427
 3585SOL    HW222215   1.821   0.541   3.526 -0.1734 -1.8327 -0.1599
 3586SOL     OW22216   0.628   1.946   1.248 -0.4459  0.2640 -0.0094
 3586SOL    HW122217   0.723   1.957   1.239 -0.3151 -1.6242 -1.0136
 3586SOL    HW222218   0.610   2.031   1.288 -0.3578  0.0773  0.4279
 3587SOL     OW22219   2.111   2.438   9.216 -0.2470  0.0485 -0.3215
 3587SOL    HW122220   2.039   2.497   9.238 -0.1547  0.3079 -0.7176
 3587SOL    HW222221   2.186   2.468   9.268 -1.7744  0.6099  1.5747
 3588SOL     OW22222   1.994   1.515  10.458  0.2044 -0.6990 -0.2847
 3588SOL    HW122223   1.951   1.461  10.525 -0.4286 -0.8886 -0.8467
 3588SOL    HW222224   1.997   1.598  10.506 -1.0251 -0.5262 -0.4995
 3589SOL     OW22225   2.496   1.471  14.383  0.1537  0.3027 -0.1073
 3589SOL    HW122226   2.431   1.414  14.423 -0.4260  0.6836 -0.5040
 3589SOL    HW222227   2.570   1.463  14.443 -1.6537 -2.1020  1.7462
 3590SOL     OW22228   0.777   2.506   7.557  0.3091  0.3377 -0.5122
 3590SOL    HW122229   0.747   2.430   7.607 -2.3744  1.2274 -0.7801
 3590SOL    HW222230   0.863   2.519   7.597  1.7736 -2.5701 -2.7087
 3591SOL     OW22231   2.911   2.583   8.251 -0.2922  0.1262 -0.2078
 3591SOL    HW122232   2.939   2.550   8.166  2.0807 -0.9456  0.9655
 3591SOL    HW222233   2.956   2.667   8.244 -0.2404 -0.0439 -1.7964
 3592SOL     OW22234   3.738   3.507   5.869 -0.4901 -0.4005  0.0781
 3592SOL    HW122235   3.782   3.532   5.950  2.1333 -2.2544 -0.8181
 3592SOL    HW222236   3.791   3.437   5.832 -0.6982 -1.2010  1.2990
 3593SOL     OW22237   4.248   1.316   2.973  0.0011 -0.1519 -0.0262
 3593SOL    HW122238   4.216   1.265   3.048 -1.0129  1.0848  0.3779
 3593SOL    HW222239   4.296   1.245   2.930 -1.1700 -0.7446 -0.3319
 3594SOL     OW22240   4.329   2.499  11.017  0.1423 -0.4965 -0.1392
 3594SOL    HW122241   4.348   2.522  10.926  0.8415 -0.3177  0.0535
 3594SOL    HW222242   4.409   2.450  11.034 -0.2722 -1.5320 -1.1939
 3595SOL     OW22243   4.078   1.471  15.473 -0.3306  0.2332 -0.0507
 3595SOL    HW122244   4.152   1.527  15.496 -0.7786 -0.4785  3.1821
 3595SOL    HW222245   4.076   1.418  15.553  1.0941 -1.6707 -1.2713
 3596SOL     OW22246   0.232   4.195   8.323 -0.4581 -0.2324 -0.2613
 3596SOL    HW122247   0.211   4.287   8.340  2.2254  0.1787  0.8541
 3596SOL    HW222248   0.280   4.171   8.402  1.7198 -0.7032 -1.7252
 3597SOL     OW22249   0.477   0.776  15.462 -0.2429 -0.6360 -0.4570
 3597SOL    HW122250   0.555   0.757  15.410  1.8053 -0.2981  2.5025
 3597SOL    HW222251   0.425   0.828  15.400 -1.2611  0.4388  1.2994
 3598SOL     OW22252   3.767   2.477   3.935  0.0114  0.8333  0.1275
 3598SOL    HW122253   3.684   2.483   3.888  0.0234 -0.1940 -0.0185
 3598SOL    HW222254   3.743   2.502   4.024  1.5546 -1.8915  1.3190
 3599SOL     OW22255   3.876   0.887   4.426 -0.0338 -0.0864 -0.6246
 3599SOL    HW122256   3.909   0.817   4.370 -1.3571 -2.1163  1.1260
 3599SOL    HW222257   3.943   0.955   4.418 -3.8239  3.9084  1.7481
 3600SOL     OW22258   3.656   1.217   7.362 -0.0135 -0.3172  0.1823
 3600SOL    HW122259   3.643   1.127   7.394  0.8485 -0.3975  0.3152
 3600SOL    HW222260   3.721   1.259   7.417 -1.0517 -0.0244  1.1841
 3601SOL     OW22261   2.309   0.085   1.960  0.6240 -0.9579 -0.3232
 3601SOL    HW122262   2.358   0.125   2.032 -2.0921  2.8992 -0.6109
 3601SOL    HW222263   2.234   0.056   2.012 -0.0562  0.6744 -0.3977
 3602SOL     OW22264   4.042   1.692   7.536  0.4275  0.1509 -0.3288
 3602SOL    HW122265   4.103   1.618   7.536  1.1792  0.7796 -0.8885
 3602SOL    HW222266   4.082   1.764   7.488 -1.5179  0.7001 -1.1360
 3603SOL     OW22267   0.604   0.955   4.803  0.1519  0.0892  0.1915
 3603SOL    HW122268   0.668   0.948   4.873  0.8832  0.9358 -0.4037
 3603SOL    HW222269   0.604   1.047   4.779  1.8015 -0.2398 -1.0441
 3604SOL     OW22270   1.147   4.503   4.849  0.1108 -0.0575 -0.5871
 3604SOL    HW122271   1.059   4.502   4.885 -0.7627  0.4562 -2.6845
 3604SOL    HW222272   1.154   4.576   4.787 -0.1277  0.4387 -0.0215
 3605SOL     OW22273   0.110   2.141  15.045  0.0923 -0.1414 -0.2615
 3605SOL    HW122274   0.170   2.158  15.117 -0.0368  3.3560 -0.9804
 3605SOL    HW222275   0.156   2.081  14.986  0.0738  0.9445 -1.3847
 3606SOL     OW22276   1.433   1.085   7.220 -0.0203 -0.3850 -0.5876
 3606SOL    HW122277   1.347   1.058   7.251  0.3344 -1.5615 -0.6246
 3606SOL    HW222278   1.471   1.121   7.301 -3.2697  1.5035  0.1135
 3607SOL     OW22279   3.400   0.407  13.454  0.0315  0.1907 -0.3516
 3607SOL    HW122280   3.477   0.418  13.511 -1.2081 -0.9793  1.5620
 3607SOL    HW222281   3.322   0.441  13.498  0.8752 -2.3737  3.1106
 3608SOL     OW22282   3.934   0.315   1.574  0.0703  0.0548  0.2168
 3608SOL    HW122283   3.890   0.248   1.624  1.2919 -0.9575 -0.0623
 3608SOL    HW222284   3.935   0.281   1.484 -1.2653  1.7407 -0.4498
 3609SOL     OW22285   3.418   2.454  10.535  0.5479 -0.2370 -0.8190
 3609SOL    HW122286   3.475   2.440  10.610 -0.6051 -0.7587 -0.0323
 3609SOL    HW222287   3.345   2.490  10.585  1.1991 -0.4007  0.2356
 3610SOL     OW22288   1.049   3.038   6.240  0.2780 -0.7044 -0.3529
 3610SOL    HW122289   1.051   3.010   6.148  0.3912 -1.8135 -0.0091
 3610SOL    HW222290   0.984   3.108   6.245 -0.6870 -1.7347  1.5441
 3611SOL     OW22291   0.765   2.383  16.400  0.0684  0.3741  0.1306
 3611SOL    HW122292   0.811   2.376  16.317 -1.0468 -0.6690 -0.3944
 3611SOL    HW222293   0.691   2.440  16.377 -1.8750 -1.8947  0.7626
 3612SOL     OW22294   4.540   4.056   1.629 -0.1571 -0.0944  0.0736
 3612SOL    HW122295   4.525   3.991   1.560 -0.4953  2.3427 -2.1825
 3612SOL    HW222296   4.450   4.062   1.663 -0.4835  0.0706 -0.8168
 3613SOL     OW22297   3.008   2.555   3.557 -0.3913 -0.0376 -0.4695
 3613SOL    HW122298   3.064   2.632   3.550 -0.7290 -0.0514 -3.3032
 3613SOL    HW222299   3.077   2.489   3.561 -0.4696 -0.1876 -1.6285
 3614SOL     OW22300   3.958   1.476   2.577  0.7514  0.1058 -0.5504
 3614SOL    HW122301   3.947   1.430   2.494  1.0518 -0.3776 -0.3215
 3614SOL    HW222302   4.042   1.442   2.608  1.0879  1.5175  0.0633
 3615SOL     OW22303   1.889   0.690   5.280  0.0506 -0.6313 -0.2382
 3615SOL    HW122304   1.967   0.709   5.333 -0.2480  1.4231 -0.5357
 3615SOL    HW222305   1.871   0.777   5.244 -0.5895 -0.9043 -0.5638
 3616SOL     OW22306   0.726   1.277  15.873  0.1468 -0.0234  0.5682
 3616SOL    HW122307   0.793   1.293  15.806 -0.1069  1.4111  0.6697
 3616SOL    HW222308   0.766   1.204  15.921 -0.1068  0.1048  0.9713
 3617SOL     OW22309   2.923   3.399   3.128 -0.1913 -0.8644 -0.1004
 3617SOL    HW122310   2.992   3.344   3.092  0.9653  0.9448 -0.6411
 3617SOL    HW222311   2.959   3.487   3.140 -1.5655 -0.0823 -1.6530
 3618SOL     OW22312   3.525   3.468   6.852  0.2107  0.5617 -0.0731
 3618SOL    HW122313   3.595   3.434   6.907 -2.3313  0.1148  2.8797
 3618SOL    HW222314   3.523   3.403   6.782  0.3542  1.2019 -0.6806
 3619SOL     OW22315   1.016   0.923  15.844  0.0125 -0.0055  0.0759
 3619SOL    HW122316   1.096   0.972  15.863  1.4509 -1.4547 -2.3642
 3619SOL    HW222317   0.989   0.969  15.765  0.4120 -2.0034 -1.2061
 3620SOL     OW22318   0.756   1.074   6.920  0.0612 -0.1641 -0.4064
 3620SOL    HW122319   0.677   1.034   6.956  0.6950  0.3070  1.5267
 3620SOL    HW222320   0.733   1.080   6.827 -1.1495 -2.5866 -0.2661
 3621SOL     OW22321   2.983   1.086   8.515  0.1548  0.5292  0.2281
 3621SOL    HW122322   2.909   1.139   8.545 -0.4004 -1.0802  1.7331
 3621SOL    HW222323   2.943   1.001   8.494 -2.0601  2.0923 -1.9330
 3622SOL     OW22324   4.033   2.824   6.868  0.5751 -0.4242  0.8328
 3622SOL    HW122325   3.993   2.830   6.782 -0.6255  0.9170  1.4893
 3622SOL    HW222326   4.028   2.730   6.890  3.9738 -1.0892 -1.3161
 3623SOL     OW22327   3.452   1.550  14.870 -0.4972  0.7088 -0.6579
 3623SOL    HW122328   3.541   1.574  14.847 -0.1923  2.4932  2.3198
 3623SOL    HW222329   3.400   1.551  14.789  1.8186 -1.0351 -2.1483
 3624SOL     OW22330   4.463   0.165   4.332 -0.7162 -0.3188 -0.3879
 3624SOL    HW122331   4.473   0.258   4.313 -3.7606  0.0212 -0.3576
 3624SOL    HW222332   4.538   0.152   4.390 -2.3258 -1.1202  1.5171
 3625SOL     OW22333   1.257   0.809   1.046  0.1505  0.6115 -0.4669
 3625SOL    HW122334   1.237   0.807   1.140  0.6321 -1.0500 -0.3927
 3625SOL    HW222335   1.352   0.801   1.055 -0.0577 -2.3861 -1.1463
 3626SOL     OW22336   2.320   2.058   2.882 -0.1381 -0.7043  0.2050
 3626SOL    HW122337   2.320   1.969   2.918  0.7183 -1.2425 -1.1665
 3626SOL    HW222338   2.332   2.105   2.965  1.7686 -1.7350  0.4940
 3627SOL     OW22339   0.695   2.238   2.302 -0.4581  0.1481  0.0486
 3627SOL    HW122340   0.723   2.305   2.240  0.1417 -0.6072 -0.5022
 3627SOL    HW222341   0.631   2.185   2.255 -0.5231  0.8696 -0.6804
 3628SOL     OW22342   3.449   1.295   3.341 -0.0355  1.3021  0.0157
 3628SOL    HW122343   3.385   1.367   3.333 -1.3949  0.0101 -0.8329
 3628SOL    HW222344   3.400   1.223   3.300 -1.7724  1.5293  1.6773
 3629SOL     OW22345   1.189   0.441   6.311  0.0056  0.4649  0.2541
 3629SOL    HW122346   1.206   0.534   6.327  1.1957  0.5735 -1.7808
 3629SOL    HW222347   1.189   0.418   6.404 -2.3942 -0.4022  0.0427
 3630SOL     OW22348   1.810   3.399   0.997  0.0364 -0.4555  0.1017
 3630SOL    HW122349   1.865   3.423   1.072 -1.7252  1.5982  0.7435
 3630SOL    HW222350   1.865   3.445   0.934  0.4352 -0.5047  0.4108
 3631SOL     OW22351   3.345   3.475   4.451 -0.4821 -0.4334 -0.0518
 3631SOL    HW122352   3.287   3.550   4.467 -0.8904 -1.1680  1.8921
 3631SOL    HW222353   3.341   3.426   4.533  0.4672  2.4919  1.7618
 3632SOL     OW22354   3.100   1.754   8.352  0.0653  0.4092 -0.4141
 3632SOL    HW122355   3.031   1.750   8.286 -0.3396  0.9633 -0.0285
 3632SOL    HW222356   3.065   1.820   8.412 -0.8617 -1.1946  0.7984
 3633SOL     OW22357   1.495   2.651   3.227 -0.0397  0.3935 -0.5746
 3633SOL    HW122358   1.441   2.655   3.147  0.2915 -0.4493 -0.8436
 3633SOL    HW222359   1.441   2.703   3.286 -0.2404  0.6751 -1.0012
 3634SOL     OW22360   0.357   3.625   5.642 -0.0662  0.2883 -0.1808
 3634SOL    HW122361   0.395   3.602   5.557 -0.3755 -0.3960 -0.1313
 3634SOL    HW222362   0.289   3.561   5.659 -1.2707  0.9428 -2.4668
 3635SOL     OW22363   3.557   2.480   2.903  0.0784 -0.2411 -0.1788
 3635SOL    HW122364   3.567   2.410   2.840  1.0959 -1.4823  1.3501
 3635SOL    HW222365   3.469   2.460   2.935 -0.6345 -0.0497 -2.0616
 3636SOL     OW22366   0.101   3.417   1.884  0.2951  0.3541 -0.2499
 3636SOL    HW122367   0.146   3.445   1.805 -1.9262  1.5853 -1.0678
 3636SOL    HW222368   0.080   3.326   1.863  1.4115  0.1627 -0.4935
 3637SOL     OW22369   3.323   2.191   4.821 -0.2806 -0.1608 -0.3558
 3637SOL    HW122370   3.267   2.175   4.746 -0.8798  0.1295  0.0292
 3637SOL    HW222371   3.272   2.178   4.901 -1.4160 -1.2735 -1.2794
 3638SOL     OW22372   4.586   1.603   2.783 -0.2026  0.4103 -0.1033
 3638SOL    HW122373   4.525   1.677   2.789 -0.2911  0.4320 -1.2728
 3638SOL    HW222374   4.630   1.624   2.700  1.2830 -2.9202 -0.1414
 3639SOL     OW22375   0.561   4.249  16.812  0.1616 -0.1366 -0.3048
 3639SOL    HW122376   0.570   4.187  16.740 -0.7935  0.3405 -0.8295
 3639SOL    HW222377   0.468   4.232  16.826  0.6817 -2.5208  0.2864
 3640SOL     OW22378   0.936   4.006   3.688 -0.0087  0.6389 -0.1552
 3640SOL    HW122379   0.982   3.924   3.706  0.0491  0.6405 -0.2968
 3640SOL    HW222380   0.846   3.990   3.661  0.2359 -0.6824 -0.1679
 3641SOL     OW22381   4.648   4.617  13.362  0.2213 -0.2377 -0.3235
 3641SOL    HW122382   4.693   4.537  13.338 -0.3812 -0.9068  0.7718
 3641SOL    HW222383   4.615   4.594  13.449  0.5203 -0.8270 -0.3725
 3642SOL     OW22384   1.364   0.620   1.484 -0.0997  0.1656  0.2036
 3642SOL    HW122385   1.390   0.650   1.571  0.2930 -0.5089  0.3127
 3642SOL    HW222386   1.297   0.556   1.510 -1.1785  1.5110  0.7675
 3643SOL     OW22387   2.713   3.168   7.943 -0.5186  0.1920  0.1097
 3643SOL    HW122388   2.635   3.116   7.963 -1.6721  1.9548  0.2055
 3643SOL    HW222389   2.764   3.128   8.014 -0.5102 -1.4013 -0.7819
 3644SOL     OW22390   0.674   0.205   5.986 -0.4211 -0.2027 -0.2875
 3644SOL    HW122391   0.601   0.169   5.935 -1.9061  1.3698  0.7472
 3644SOL    HW222392   0.646   0.296   5.993  0.3880  0.1044 -0.9789
 3645SOL     OW22393   1.767   2.445  15.556  0.2885 -0.0592  0.0686
 3645SOL    HW122394   1.847   2.493  15.533 -0.2842  0.5817 -0.5476
 3645SOL    HW222395   1.704   2.453  15.485  0.0630  0.3316  0.3166
 3646SOL     OW22396   3.270   0.678   9.095  0.3543  0.2000 -0.7820
 3646SOL    HW122397   3.252   0.772   9.102  0.6116  0.4024 -2.6495
 3646SOL    HW222398   3.246   0.651   9.183  0.6620 -2.5524 -1.5474
 3647SOL     OW22399   1.222   3.169   8.383  0.8901  0.3303  0.2923
 3647SOL    HW122400   1.229   3.074   8.371 -2.1731  0.1468  0.0158
 3647SOL    HW222401   1.216   3.193   8.291 -0.5316  1.1383  0.5862
 3648SOL     OW22402   0.549   3.402  10.404  0.1904  0.4376 -0.1442
 3648SOL    HW122403   0.474   3.463  10.406  1.1038  1.4955  1.4693
 3648SOL    HW222404   0.589   3.445  10.328  0.9374  1.9368  1.1033
 3649SOL     OW22405   2.175   4.451   9.526  0.4338  0.5734 -0.3147
 3649SOL    HW122406   2.250   4.410   9.570 -1.1284 -1.2740  0.6368
 3649SOL    HW222407   2.150   4.519   9.589 -2.0840 -0.2705 -0.3799
 3650SOL     OW22408   2.848   2.297   7.680  0.3727 -0.1469  0.6307
 3650SOL    HW122409   2.786   2.236   7.719  0.5115 -0.8831 -0.3030
 3650SOL    HW222410   2.932   2.252   7.692  0.5561 -0.1694 -0.7138
 3651SOL     OW22411   2.582   4.127   9.036  0.2347 -0.0828  0.2187
 3651SOL    HW122412   2.648   4.125   8.966  0.1402  0.5786  0.1084
 3651SOL    HW222413   2.641   4.133   9.111  1.3597  2.1871 -0.8543
 3652SOL     OW22414   0.321   2.105   2.767 -0.0406 -0.1421 -0.1914
 3652SOL    HW122415   0.398   2.051   2.750  0.0956 -0.5180  1.6592
 3652SOL    HW222416   0.347   2.155   2.844 -1.5823  1.3424 -0.6496
 3653SOL     OW22417   2.575   1.925  10.129 -0.6988  0.3306 -0.1251
 3653SOL    HW122418   2.609   1.841  10.099 -0.5842  0.5648 -0.6584
 3653SOL    HW222419   2.502   1.888  10.178 -1.5475  2.3843  0.1566
 3654SOL     OW22420   0.932   0.087   6.296  0.8745  0.2767 -0.1663
 3654SOL    HW122421   0.902   0.171   6.260 -1.5059 -0.1257  0.8641
 3654SOL    HW222422   0.916   0.034   6.218  1.8796  1.6800 -1.3436
 3655SOL     OW22423   2.054   0.430   4.367  0.0217 -0.4135  0.5697
 3655SOL    HW122424   2.055   0.344   4.326  0.8499  0.3946 -1.1573
 3655SOL    HW222425   1.980   0.420   4.426  0.2158 -0.6822  0.7687
 3656SOL     OW22426   3.083   1.001   4.534 -0.2045 -0.0928  0.4230
 3656SOL    HW122427   3.155   1.058   4.562  0.9430 -1.3535  0.0526
 3656SOL    HW222428   3.060   1.044   4.452  1.7144 -2.2481 -1.2540
 3657SOL     OW22429   4.295   1.773   6.508  0.9047 -0.2398 -0.6104
 3657SOL    HW122430   4.295   1.808   6.597 -1.6308  0.3912 -0.8345
 3657SOL    HW222431   4.275   1.679   6.513  0.6463 -0.1623 -0.2127
 3658SOL     OW22432   4.000   3.844  13.243  0.4420 -0.1780 -0.2022
 3658SOL    HW122433   4.054   3.918  13.271 -1.2037  1.0974 -0.4560
 3658SOL    HW222434   4.035   3.785  13.311  0.0649 -1.2667 -0.9505
 3659SOL     OW22435   0.198   4.551   3.830  0.0984 -0.1429  0.3930
 3659SOL    HW122436   0.138   4.618   3.863  1.2077  1.0149  0.1051
 3659SOL    HW222437   0.158   4.520   3.749  1.5563  0.6073 -0.6251
 3660SOL     OW22438   1.050   2.202  16.331  0.4108 -0.0835  0.4821
 3660SOL    HW122439   1.091   2.198  16.245 -1.2741 -0.7303 -0.2900
 3660SOL    HW222440   0.982   2.135  16.318  2.0930 -1.6258 -0.2505
 3661SOL     OW22441   4.450   2.940   9.873 -0.5547  0.3308 -0.1070
 3661SOL    HW122442   4.483   2.913   9.788 -1.8411 -1.6773  0.0354
 3661SOL    HW222443   4.510   2.890   9.928 -1.3176 -1.0461 -0.5319
 3662SOL     OW22444   4.286   1.454  15.132  0.9033 -0.0794  0.0063
 3662SOL    HW122445   4.212   1.395  15.146  0.9161  0.2409  1.4687
 3662SOL    HW222446   4.360   1.395  15.150  1.5950  1.3199  1.8169
 3663SOL     OW22447   2.530   3.467  15.703  0.0624 -0.6183 -0.1265
 3663SOL    HW122448   2.543   3.471  15.608 -1.4006 -1.6435 -0.3684
 3663SOL    HW222449   2.621   3.488  15.725  0.3859 -1.1071 -1.0326
 3664SOL     OW22450   0.929   4.511   4.529 -0.5837  0.3645  0.1397
 3664SOL    HW122451   1.019   4.543   4.531 -0.0879 -1.0243  0.4394
 3664SOL    HW222452   0.919   4.467   4.444 -2.0739 -0.8810  0.9612
 3665SOL     OW22453   4.464   3.982   9.665  0.5844 -0.0028  0.2036
 3665SOL    HW122454   4.470   3.887   9.677  0.9129 -0.3015 -2.1937
 3665SOL    HW222455   4.457   3.998   9.571 -1.2498  2.9742  0.8412
 3666SOL     OW22456   1.811   2.675   7.744 -0.3466  0.2474  0.0386
 3666SOL    HW122457   1.788   2.761   7.780  1.1495  0.6294  0.0655
 3666SOL    HW222458   1.848   2.690   7.657  2.2144 -1.0249  0.8978
 3667SOL     OW22459   1.654   4.111   0.067  0.2214 -0.2798 -0.3130
 3667SOL    HW122460   1.664   4.088  17.675  0.8432 -0.9675 -0.0683
 3667SOL    HW222461   1.560   4.132   0.070 -0.1557 -1.8423 -1.6830
 3668SOL     OW22462   0.161   4.603   5.683 -0.1641  0.3956 -0.1845
 3668SOL    HW122463   0.093   4.631   5.744  0.6656  0.5842  0.6591
 3668SOL    HW222464   0.183   4.517   5.720  1.3163  0.8219 -0.0893
 3669SOL     OW22465   4.274   2.819   2.011 -0.6424 -0.1635  0.1395
 3669SOL    HW122466   4.351   2.841   2.063 -0.4804 -1.5861  0.4953
 3669SOL    HW222467   4.206   2.772   2.060 -1.1028 -1.0149 -1.3040
 3670SOL     OW22468   4.469   0.370   4.826  0.5374  0.2457  0.4525
 3670SOL    HW122469   4.473   0.294   4.884 -1.1303 -0.1637  0.0350
 3670SOL    HW222470   4.553   0.409   4.851 -0.8184  1.4548  3.0635
 3671SOL     OW22471   2.234   4.630   3.368  0.0049 -0.1392 -0.4858
 3671SOL    HW122472   2.217   4.586   3.451  0.1206  1.7034  0.5100
 3671SOL    HW222473   2.202   4.717   3.389  0.2078  0.5469 -3.0495
 3672SOL     OW22474   3.176   1.021   9.378  0.2582  0.1228 -0.0986
 3672SOL    HW122475   3.226   1.018   9.460  3.1049  0.7231 -1.8210
 3672SOL    HW222476   3.088   1.012   9.414  0.3588 -0.5648 -0.0193
 3673SOL     OW22477   1.684   0.236   7.007 -0.5826 -0.0232  0.1561
 3673SOL    HW122478   1.711   0.321   7.042  1.0686  0.1871 -1.6139
 3673SOL    HW222479   1.596   0.233   7.045 -0.0913  2.1469  1.4559
 3674SOL     OW22480   3.346   0.451   2.193 -0.0551 -0.0796 -0.4200
 3674SOL    HW122481   3.380   0.472   2.280  0.7124 -0.4916 -0.6200
 3674SOL    HW222482   3.383   0.364   2.176  0.6844 -0.0491  1.1362
 3675SOL     OW22483   2.772   2.285   2.370  0.4976 -0.5093  0.1444
 3675SOL    HW122484   2.808   2.229   2.301 -0.3273 -1.6804  0.6575
 3675SOL    HW222485   2.681   2.295   2.341  0.7080  1.5181  0.2188
 3676SOL     OW22486   0.445   0.957   5.478  0.0027 -0.3450  0.2200
 3676SOL    HW122487   0.378   0.988   5.539  0.0199 -2.1469  1.1743
 3676SOL    HW222488   0.418   0.870   5.450  1.2982 -0.6011 -0.2043
 3677SOL     OW22489   4.220   3.559   2.876  0.2628 -0.4503 -0.1423
 3677SOL    HW122490   4.195   3.471   2.901  3.0358 -0.4648  2.5540
 3677SOL    HW222491   4.138   3.606   2.893  0.0807 -0.2288 -1.6712
 3678SOL     OW22492   1.863   3.413   3.713  0.8279 -0.6390 -0.2468
 3678SOL    HW122493   1.823   3.481   3.659  0.6351  0.7051  1.5906
 3678SOL    HW222494   1.804   3.339   3.698 -0.7212  0.5448  0.0570
 3679SOL     OW22495   0.877   1.925   8.006  0.1686 -0.3451 -0.3482
 3679SOL    HW122496   0.870   2.012   7.968 -0.4541 -1.2569 -2.3557
 3679SOL    HW222497   0.786   1.903   7.985 -0.6346  2.7725 -0.0909
 3680SOL     OW22498   0.071   3.364   6.672  0.4378  0.0174 -0.0912
 3680SOL    HW122499   0.065   3.459   6.680 -2.1312 -0.2428  0.9151
 3680SOL    HW222500   4.708   3.334   6.694 -0.4053  0.7066 -2.4888
 3681SOL     OW22501   1.985   2.413   0.656  0.1523  0.7917  0.4982
 3681SOL    HW122502   2.049   2.455   0.598  1.7247 -1.5703  0.5345
 3681SOL    HW222503   2.023   2.415   0.744  1.9670  0.9231 -0.2938
 3682SOL     OW22504   3.550   2.011   2.117  0.2090  0.0126  0.7173
 3682SOL    HW122505   3.528   1.949   2.047  0.1192  0.1401  0.6330
 3682SOL    HW222506   3.645   2.009   2.120  0.2732  0.2213 -1.2820
 3683SOL     OW22507   3.183   1.147   3.729  0.2095  0.0183 -0.9565
 3683SOL    HW122508   3.222   1.214   3.673  2.5175  1.1439  2.0375
 3683SOL    HW222509   3.090   1.155   3.707  0.4788  1.0894 -1.7434
 3684SOL     OW22510   4.696   4.653   2.019  0.4370  0.0889  0.0433
 3684SOL    HW122511   4.645   4.633   1.941 -0.4497  2.5682 -0.0025
 3684SOL    HW222512   0.010   0.013   1.996  2.6869 -0.3102  2.3742
 3685SOL     OW22513   0.144   0.467   3.540  0.3588  0.1296  0.5502
 3685SOL    HW122514   0.173   0.452   3.450 -0.4296  0.8178  0.1726
 3685SOL    HW222515   0.141   0.563   3.538 -0.2262  0.1317  1.4799
 3686SOL     OW22516   2.500   3.495   3.259 -0.4372 -0.4790  0.7493
 3686SOL    HW122517   2.569   3.433   3.233 -0.0673  0.4196 -0.4030
 3686SOL    HW222518   2.477   3.459   3.344 -1.9323  0.1645  0.6074
 3687SOL     OW22519   4.246   3.298   3.584  0.4792 -0.4702 -0.9642
 3687SOL    HW122520   4.197   3.380   3.582  0.7259 -0.2753  1.3697
 3687SOL    HW222521   4.188   3.244   3.637 -0.9237  1.8482 -0.1704
 3688SOL     OW22522   2.038   3.862   2.720  0.2386  0.8003  0.0924
 3688SOL    HW122523   2.007   3.848   2.631  0.5520  0.8922 -0.0345
 3688SOL    HW222524   2.126   3.893   2.699  0.8676 -0.5832  0.6839
 3689SOL     OW22525   1.266   1.675   8.133 -0.2738 -0.6713 -0.5495
 3689SOL    HW122526   1.323   1.748   8.110 -1.3861  0.1202 -0.7920
 3689SOL    HW222527   1.340   1.614   8.135 -0.1106 -0.4966 -1.1868
 3690SOL     OW22528   4.312   4.422   7.473  0.0783  0.3102  0.5797
 3690SOL    HW122529   4.263   4.384   7.545 -0.7789 -0.9374 -0.6644
 3690SOL    HW222530   4.268   4.380   7.399  1.8155  0.5563 -0.6088
 3691SOL     OW22531   3.116   2.461   5.224  0.0519 -0.4294 -0.4861
 3691SOL    HW122532   3.057   2.385   5.221 -0.7910  0.2145 -0.0613
 3691SOL    HW222533   3.116   2.491   5.315 -0.1226  1.1157 -1.0067
 3692SOL     OW22534   4.040   3.671  11.013  0.5459 -0.2094  0.6578
 3692SOL    HW122535   4.027   3.764  11.030 -5.1002 -0.5802 -1.6468
 3692SOL    HW222536   3.951   3.660  10.978  1.4341 -1.4206 -1.2606
 3693SOL     OW22537   1.432   3.841   9.328 -0.3093  0.1412  0.2366
 3693SOL    HW122538   1.344   3.821   9.359 -0.7204 -1.7425 -2.1616
 3693SOL    HW222539   1.466   3.756   9.299 -2.1005 -0.7731  0.8505
 3694SOL     OW22540   2.414   1.620   3.897 -0.0298  0.3511  0.2958
 3694SOL    HW122541   2.381   1.542   3.852  2.2832 -0.3333 -0.2469
 3694SOL    HW222542   2.412   1.594   3.989 -0.5712  1.3317  0.5498
 3695SOL     OW22543   2.004   2.358   6.655 -0.2592 -0.4311  0.5296
 3695SOL    HW122544   2.088   2.382   6.616 -0.1747  1.3819  1.8220
 3695SOL    HW222545   1.949   2.321   6.586  0.4165  0.1220 -0.3009
 3696SOL     OW22546   1.215   4.080   3.134 -0.0005 -0.3609 -0.5584
 3696SOL    HW122547   1.254   4.162   3.102  0.8035 -1.0005 -1.2247
 3696SOL    HW222548   1.160   4.059   3.059  1.6996 -1.2450 -1.5765
 3697SOL     OW22549   3.504   1.585   5.853  0.3221  0.7485  0.1358
 3697SOL    HW122550   3.449   1.634   5.914  1.4608  1.0759  0.9057
 3697SOL    HW222551   3.589   1.621   5.880  0.0204  2.3879 -1.1236
 3698SOL     OW22552   1.832   0.705   7.642 -0.3477 -0.6222  0.2095
 3698SOL    HW122553   1.839   0.661   7.557 -3.9526 -1.5659  0.3966
 3698SOL    HW222554   1.902   0.655   7.685 -1.5206 -0.9885  1.7038
 3699SOL     OW22555   3.261   0.453   4.341 -0.3839  0.1958 -0.0331
 3699SOL    HW122556   3.277   0.392   4.412  1.3889  0.5999 -0.0815
 3699SOL    HW222557   3.348   0.449   4.302  0.0346  1.9652  0.7126
 3700SOL     OW22558   0.206   3.206  16.866 -0.5850 -0.1110 -0.1938
 3700SOL    HW122559   0.293   3.207  16.826 -0.7791 -0.3933 -0.6242
 3700SOL    HW222560   0.213   3.125  16.917 -3.7737  0.0322  0.4470
 3701SOL     OW22561   0.835   4.525  12.189 -0.7182  0.1522 -0.1344
 3701SOL    HW122562   0.894   4.469  12.240  0.6117  0.9367 -0.8032
 3701SOL    HW222563   0.754   4.491  12.227 -1.4364  2.8271  0.7059
 3702SOL     OW22564   4.508   2.937   2.099 -0.3810 -0.4364  0.1318
 3702SOL    HW122565   4.458   2.977   2.170 -0.6555 -0.9135  0.2082
 3702SOL    HW222566   4.486   2.988   2.021  2.0438 -1.4012 -1.2061
 3703SOL     OW22567   2.984   1.479   8.142  0.0822  0.2725  0.7346
 3703SOL    HW122568   3.020   1.437   8.220 -0.2149 -1.3613 -0.0042
 3703SOL    HW222569   2.998   1.415   8.071 -3.7016 -0.3136  0.5299
 3704SOL     OW22570   1.320   0.799  11.375 -0.0156  0.1784 -0.3436
 3704SOL    HW122571   1.382   0.727  11.376 -2.1383 -1.6569  0.4955
 3704SOL    HW222572   1.255   0.777  11.443 -0.0509 -0.3044 -0.5377
 3705SOL     OW22573   3.366   4.416  15.115  0.5948  0.2206  0.4680
 3705SOL    HW122574   3.330   4.475  15.181 -1.3456  1.5738 -1.7899
 3705SOL    HW222575   3.440   4.471  15.091  1.9044 -2.6793 -2.1228
 3706SOL     OW22576   2.750   1.299   6.095 -0.9961  0.2987 -0.0028
 3706SOL    HW122577   2.705   1.285   6.011 -1.0120 -0.5173  0.1364
 3706SOL    HW222578   2.693   1.366   6.132  0.1700  1.3398 -0.1231
 3707SOL     OW22579   0.467   4.498   8.584 -0.0792  0.0547 -0.1773
 3707SOL    HW122580   0.489   4.420   8.533 -0.4913 -0.7214  0.8202
 3707SOL    HW222581   0.466   4.466   8.674  0.2017  0.8463  0.1014
 3708SOL     OW22582   2.128   0.425   8.932 -0.5026 -0.1205 -0.0697
 3708SOL    HW122583   2.182   0.422   8.852 -0.4937 -0.6916 -0.0419
 3708SOL    HW222584   2.189   0.391   8.997  0.3155  1.2356 -0.1215
 3709SOL     OW22585   3.701   1.344   4.810 -0.1624 -0.1110  0.3312
 3709SOL    HW122586   3.681   1.432   4.844 -0.0867 -0.3230  0.9104
 3709SOL    HW222587   3.644   1.351   4.734  1.7594 -0.1994 -1.1184
 3710SOL     OW22588   1.414   2.643  13.133 -0.1966  0.0334 -0.2951
 3710SOL    HW122589   1.391   2.550  13.141 -0.3086  0.0388 -0.5632
 3710SOL    HW222590   1.480   2.643  13.065 -0.7158 -0.8248 -0.7977
 3711SOL     OW22591   4.229   0.629  14.068 -0.2894 -0.5795  0.1987
 3711SOL    HW122592   4.281   0.686  14.012  2.3236 -1.4149  1.7659
 3711SOL    HW222593   4.145   0.620  14.023  0.7813  0.5357 -2.0019
 3712SOL     OW22594   1.779   2.824   4.157 -0.0677  0.4473 -0.0324
 3712SOL    HW122595   1.727   2.855   4.083 -0.2350  1.2656  0.4204
 3712SOL    HW222596   1.856   2.875   4.134 -0.5417 -0.4527 -3.5718
 3713SOL     OW22597   4.313   0.925   4.073  0.2402 -0.2545  0.0498
 3713SOL    HW122598   4.357   0.889   3.997  0.0678  0.5436 -0.4265
 3713SOL    HW222599   4.388   0.913   4.132 -0.0719 -0.6519  0.3687
 3714SOL     OW22600   2.723   4.177   8.810 -0.2950 -1.1591 -0.2309
 3714SOL    HW122601   2.743   4.265   8.778 -0.1467 -0.2038  2.4385
 3714SOL    HW222602   2.675   4.138   8.738 -0.2330 -0.7687 -0.4788
 3715SOL     OW22603   0.081   1.169   6.189 -0.4025 -0.3563  0.5891
 3715SOL    HW122604   0.162   1.177   6.139 -0.8546 -1.1051 -0.2636
 3715SOL    HW222605   0.017   1.161   6.118  0.0245 -0.2397  0.1970
 3716SOL     OW22606   4.063   2.532   5.768  0.2215  0.6367  0.1389
 3716SOL    HW122607   4.127   2.538   5.838  1.0335 -0.3297 -0.5173
 3716SOL    HW222608   4.113   2.551   5.688 -0.9842 -1.5634 -1.1331
 3717SOL     OW22609   3.059   4.154   6.588  0.4908 -0.6116 -0.1373
 3717SOL    HW122610   3.121   4.136   6.658  1.0145 -0.8557 -0.6734
 3717SOL    HW222611   3.113   4.197   6.523 -0.9733 -0.7635 -1.4563
 3718SOL     OW22612   2.340   0.332   5.650 -0.3890 -0.5086 -0.4254
 3718SOL    HW122613   2.356   0.242   5.621 -0.8358  0.2460 -2.9835
 3718SOL    HW222614   2.407   0.382   5.604 -0.7167  0.4935  0.1787
 3719SOL     OW22615   1.675   2.116   1.026  0.1770  0.0278 -0.2674
 3719SOL    HW122616   1.765   2.144   1.016  0.4856 -0.9574 -0.3205
 3719SOL    HW222617   1.642   2.164   0.950 -1.9648  0.0801  0.7021
 3720SOL     OW22618   1.120   2.879   7.088 -0.0749  0.4227 -0.0806
 3720SOL    HW122619   1.171   2.842   7.160 -0.1260  2.4208  0.9645
 3720SOL    HW222620   1.131   2.973   7.095 -0.1870  0.4215  0.1211
 3721SOL     OW22621   1.205   4.163   0.910  0.2168 -0.1607  0.2098
 3721SOL    HW122622   1.229   4.244   0.865 -1.4274 -0.4044 -1.0850
 3721SOL    HW222623   1.160   4.103   0.850  0.8253 -1.3935  0.9776
 3722SOL     OW22624   2.923   2.518   0.250 -0.0223  0.3444  0.1520
 3722SOL    HW122625   2.867   2.595   0.250 -0.3276  0.1216  0.8120
 3722SOL    HW222626   3.005   2.553   0.213 -1.4922  1.4139 -2.0875
 3723SOL     OW22627   2.934   4.239   2.974 -0.5050 -0.2183 -0.0251
 3723SOL    HW122628   2.851   4.215   2.933 -0.5780  0.9532 -0.5738
 3723SOL    HW222629   2.907   4.291   3.050 -0.0041 -0.0001  0.0025
 3724SOL     OW22630   3.973   1.328   5.081 -0.3169  0.0311 -0.3589
 3724SOL    HW122631   4.018   1.244   5.094 -0.0558 -0.1005 -2.1947
 3724SOL    HW222632   4.009   1.386   5.149  1.1701 -2.1738  0.7725
 3725SOL     OW22633   1.266   4.205   0.390  0.3094  0.0758  0.3350
 3725SOL    HW122634   1.210   4.278   0.366 -2.1973 -1.3447  1.7827
 3725SOL    HW222635   1.260   4.146   0.314  0.8132 -1.5308  1.5314
 3726SOL     OW22636   2.745   4.628  15.484  0.2474 -0.0775 -0.5360
 3726SOL    HW122637   2.669   4.676  15.516 -0.2284  0.1695 -2.0676
 3726SOL    HW222638   2.746   4.649  15.391 -1.8830 -1.0917 -0.7777
 3727SOL     OW22639   1.659   3.394   6.126 -0.3247 -0.0154  0.3593
 3727SOL    HW122640   1.596   3.385   6.055 -1.0607 -0.8720  1.1126
 3727SOL    HW222641   1.594   3.370   6.192 -1.1729 -0.4876 -0.6586
 3728SOL     OW22642   1.367   1.682   0.666 -0.4478 -0.0654  0.2323
 3728SOL    HW122643   1.283   1.686   0.621 -0.3918 -1.7769 -0.0349
 3728SOL    HW222644   1.434   1.719   0.609  0.5357 -1.0347  0.7527
 3729SOL     OW22645   0.624   3.526   5.951 -0.1236 -0.1985 -0.4151
 3729SOL    HW122646   0.618   3.578   5.871 -2.6080 -1.1826 -0.8917
 3729SOL    HW222647   0.670   3.587   6.009 -1.7550  1.7945 -1.2092
 3730SOL     OW22648   3.326   2.221   8.121  0.0251 -0.1228  0.8139
 3730SOL    HW122649   3.299   2.195   8.209 -0.6041 -0.8832  0.3995
 3730SOL    HW222650   3.421   2.221   8.124  0.0010  1.6257  1.5975
 3731SOL     OW22651   0.594   4.349  11.667  0.0194  0.1839 -0.4123
 3731SOL    HW122652   0.556   4.346  11.579 -1.2807 -1.8789  0.2056
 3731SOL    HW222653   0.513   4.326  11.714 -0.6771  1.3102 -1.0696
 3732SOL     OW22654   0.992   0.220  11.404  0.2298  0.1472  0.3053
 3732SOL    HW122655   0.907   0.263  11.416 -0.0452 -0.2812 -0.0963
 3732SOL    HW222656   0.957   0.160  11.338 -0.8199  1.6467 -0.5110
 3733SOL     OW22657   2.658   3.247   2.586  0.1639 -0.0900 -0.2779
 3733SOL    HW122658   2.684   3.155   2.588 -1.5299 -0.5343  1.1178
 3733SOL    HW222659   2.748   3.279   2.591 -0.1711  1.1715 -2.1905
 3734SOL     OW22660   1.480   4.276   8.200  0.4978 -0.3736  0.2085
 3734SOL    HW122661   1.513   4.273   8.290  0.9383  1.5809  0.1008
 3734SOL    HW222662   1.426   4.354   8.205 -1.2852 -1.6381  0.6729
 3735SOL     OW22663   3.434   2.381   3.630 -0.0548  0.4999 -0.1427
 3735SOL    HW122664   3.448   2.468   3.668  0.1913  0.3833  0.0374
 3735SOL    HW222665   3.486   2.323   3.686  1.3987 -1.1696 -3.1956
 3736SOL     OW22666   3.874   3.302   6.978  0.3427 -0.1787 -0.3342
 3736SOL    HW122667   3.811   3.340   7.040  0.5473 -0.6029  0.1287
 3736SOL    HW222668   3.940   3.370   6.970  0.0089  0.0823 -0.9527
 3737SOL     OW22669   4.419   3.926   5.650 -0.0231  0.0767 -0.1377
 3737SOL    HW122670   4.493   3.893   5.700  0.0698  0.1034 -0.2589
 3737SOL    HW222671   4.362   3.954   5.722  0.8768  0.0910  0.5556
 3738SOL     OW22672   4.268   3.956   3.814 -0.0656  0.0513  0.2507
 3738SOL    HW122673   4.219   4.033   3.843  0.4659  0.4851  0.0139
 3738SOL    HW222674   4.271   3.912   3.899  0.4892  0.4446  0.4384
 3739SOL     OW22675   1.217   0.639   5.996 -0.2646 -0.2378  0.6253
 3739SOL    HW122676   1.204   0.621   5.903  0.5157  0.8631  0.2970
 3739SOL    HW222677   1.129   0.627   6.031 -0.1733 -2.7784  0.0321
 3740SOL     OW22678   3.519   2.314   7.568 -0.1785  0.0676 -0.3908
 3740SOL    HW122679   3.557   2.353   7.490  0.9062 -0.2341 -0.0106
 3740SOL    HW222680   3.443   2.372   7.573 -0.0522  0.2583 -0.7025
 3741SOL     OW22681   2.097   2.435   5.495  0.3421  0.4486  0.6155
 3741SOL    HW122682   2.113   2.528   5.513 -1.4147  0.5126  1.8084
 3741SOL    HW222683   2.189   2.410   5.502 -0.1649 -1.1885  1.3891
 3742SOL     OW22684   0.923   3.779   2.432 -0.4318  0.3901  0.5291
 3742SOL    HW122685   0.843   3.811   2.390 -1.1109 -1.5846  0.3587
 3742SOL    HW222686   0.918   3.684   2.423  2.2254  0.3856 -0.9649
 3743SOL     OW22687   2.724   3.865   7.863 -0.1394  0.1765  0.1378
 3743SOL    HW122688   2.660   3.899   7.799 -0.2871 -0.4370 -0.0363
 3743SOL    HW222689   2.662   3.822   7.921 -1.3945  2.1215  0.2553
 3744SOL     OW22690   3.283   4.124   2.041 -0.4179  0.3669 -0.4454
 3744SOL    HW122691   3.227   4.118   2.118  1.5157 -2.5558  0.7697
 3744SOL    HW222692   3.294   4.031   2.017 -2.2950  0.0548 -0.0740
 3745SOL     OW22693   4.486   2.244   4.339  0.6406  0.0002 -0.3654
 3745SOL    HW122694   4.395   2.266   4.359  0.4321 -0.2936 -0.9777
 3745SOL    HW222695   4.497   2.155   4.372 -0.1619  0.2290  0.5231
 3746SOL     OW22696   3.342   2.473   6.522  0.7379  0.5555 -0.1200
 3746SOL    HW122697   3.388   2.437   6.446  0.0078  0.3917 -0.4863
 3746SOL    HW222698   3.378   2.560   6.532  1.1550  0.0605  2.6810
 3747SOL     OW22699   3.123   2.881   2.233  0.4088  0.8908 -0.6194
 3747SOL    HW122700   3.084   2.955   2.279 -1.8205 -1.0607  0.6771
 3747SOL    HW222701   3.211   2.913   2.212  0.3495  0.9695 -0.7484
 3748SOL     OW22702   0.671   2.420   3.006 -0.2673 -0.3954  0.1528
 3748SOL    HW122703   0.595   2.437   3.061 -0.3577  1.9917 -0.6891
 3748SOL    HW222704   0.737   2.487   3.025 -1.0120  0.4921 -0.3915
 3749SOL     OW22705   2.701   4.065   5.376  0.1559  0.6333 -0.4382
 3749SOL    HW122706   2.623   4.108   5.340 -0.6802  1.4749  2.4042
 3749SOL    HW222707   2.728   4.105   5.459 -2.2760  1.9898 -0.3072
 3750SOL     OW22708   2.617   0.126   3.948 -0.0983 -0.0874  0.2718
 3750SOL    HW122709   2.688   0.068   3.973  0.4656  1.1066  1.4140
 3750SOL    HW222710   2.631   0.189   4.019 -1.0106  1.3364 -0.8013
 3751SOL     OW22711   0.801   2.584   4.176  0.2236 -0.4959  0.4023
 3751SOL    HW122712   0.763   2.534   4.103 -1.4225 -0.2043  1.0583
 3751SOL    HW222713   0.810   2.671   4.136 -2.4777 -0.2982  0.2352
 3752SOL     OW22714   0.282   3.396   9.554  0.2503 -0.4694 -0.8397
 3752SOL    HW122715   0.259   3.394   9.647 -0.9170 -1.1153 -1.1557
 3752SOL    HW222716   0.304   3.489   9.546 -3.6226  0.4737 -0.3063
 3753SOL     OW22717   2.584   2.848   3.554  0.5399 -0.2386  0.1432
 3753SOL    HW122718   2.558   2.887   3.637  1.8690  2.9014 -0.9310
 3753SOL    HW222719   2.594   2.755   3.573  2.9994 -0.5074 -2.4235
 3754SOL     OW22720   3.299   1.652  15.447 -0.5497 -0.6831  0.3637
 3754SOL    HW122721   3.393   1.670  15.443 -0.4486 -1.7025 -1.7091
 3754SOL    HW222722   3.257   1.736  15.432  1.0059 -0.0103 -0.2004
 3755SOL     OW22723   4.045   3.079  16.453 -0.0912 -0.1540 -0.0017
 3755SOL    HW122724   4.131   3.117  16.472 -1.4901  2.4448  1.1525
 3755SOL    HW222725   4.014   3.155  16.403  0.3078  0.4050  0.6062
 3756SOL     OW22726   0.308   0.781  11.233  0.5692  0.3673 -0.2925
 3756SOL    HW122727   0.389   0.774  11.282  0.7974  0.9571 -0.5908
 3756SOL    HW222728   0.296   0.875  11.242  0.6240  0.0505  3.0957
 3757SOL     OW22729   0.673   4.203  15.283  0.1314  0.4390 -0.4355
 3757SOL    HW122730   0.582   4.172  15.276 -0.4404  1.6573  1.4915
 3757SOL    HW222731   0.721   4.131  15.243 -0.1832 -0.0406  0.0561
 3758SOL     OW22732   1.601   1.877   2.496  0.2481 -0.4123  0.6564
 3758SOL    HW122733   1.688   1.896   2.461 -0.4262  0.2058 -0.6892
 3758SOL    HW222734   1.598   1.782   2.499 -0.0761 -0.3915  1.1281
 3759SOL     OW22735   1.189   1.463   4.476  0.4618  0.7027 -0.0875
 3759SOL    HW122736   1.192   1.537   4.417 -0.5475  1.2763  0.5720
 3759SOL    HW222737   1.260   1.493   4.532 -0.7818 -0.1716  1.9899
 3760SOL     OW22738   0.901   4.627   9.110 -0.1272 -0.2245 -0.5291
 3760SOL    HW122739   0.819   4.580   9.124  0.0173 -0.2533  0.1933
 3760SOL    HW222740   0.875   4.713   9.076 -0.6211  0.9382  2.7531
 3761SOL     OW22741   3.925   2.345  17.217 -0.4171  0.8456 -0.3571
 3761SOL    HW122742   3.961   2.418  17.268  0.1140  0.1258  0.2928
 3761SOL    HW222743   3.886   2.293  17.287 -1.9578  0.9007 -1.1706
 3762SOL     OW22744   3.697   2.872  16.910  0.2181  0.4802 -0.2620
 3762SOL    HW122745   3.783   2.912  16.914 -0.1228  1.0093  1.9736
 3762SOL    HW222746   3.645   2.950  16.890 -0.9086 -0.0843  0.4593
 3763SOL     OW22747   1.182   0.614   7.356 -0.4309 -0.0394 -0.8952
 3763SOL    HW122748   1.264   0.576   7.325  0.2720  1.4063 -0.8129
 3763SOL    HW222749   1.215   0.698   7.389 -0.8395 -1.0003  1.9242
 3764SOL     OW22750   1.680   0.261   7.338 -0.4944 -0.7380  0.3370
 3764SOL    HW122751   1.667   0.307   7.255 -0.2825  2.3102  1.9699
 3764SOL    HW222752   1.609   0.197   7.335 -1.9165  0.8728 -0.4455
 3765SOL     OW22753   1.454   2.805   2.898 -0.0744  0.7440 -0.0099
 3765SOL    HW122754   1.498   2.783   2.817  0.0750  2.5195 -0.4162
 3765SOL    HW222755   1.435   2.898   2.883  3.7136  1.0115 -3.0559
 3766SOL     OW22756   2.875   2.962  11.112  0.0041  0.1524 -0.3101
 3766SOL    HW122757   2.845   3.053  11.103 -3.4831 -1.2597 -2.8282
 3766SOL    HW222758   2.833   2.921  11.037 -0.0845 -0.8248  0.2767
 3767SOL     OW22759   0.874   3.616   8.679 -0.6225  1.1218  0.3612
 3767SOL    HW122760   0.848   3.524   8.675  2.7969  0.1833  0.1955
 3767SOL    HW222761   0.865   3.642   8.587  1.5450  0.9810  0.1052
 3768SOL     OW22762   2.993   3.322   6.901  0.1867  0.4325 -0.9051
 3768SOL    HW122763   2.899   3.325   6.885 -0.2187  1.9961  1.7748
 3768SOL    HW222764   2.988   3.295   6.993  1.0746  1.2036 -0.6280
 3769SOL     OW22765   4.558   4.035   7.290 -0.1191 -0.3335 -0.4024
 3769SOL    HW122766   4.579   4.116   7.337  0.4855 -0.6467 -0.1289
 3769SOL    HW222767   4.516   3.995   7.367  0.5978 -1.6895 -0.7204
 3770SOL     OW22768   0.955   4.036   4.709  0.3753 -0.7493  0.0609
 3770SOL    HW122769   0.883   4.092   4.737  1.4415 -0.6223  2.5702
 3770SOL    HW222770   1.014   4.104   4.675  0.1616  0.5529  2.3255
 3771SOL     OW22771   2.404   2.653   6.089 -0.1863 -0.0473  0.0100
 3771SOL    HW122772   2.354   2.596   6.030 -0.7798  0.9138 -0.4206
 3771SOL    HW222773   2.378   2.625   6.177 -1.8469 -0.2581 -0.5355
 3772SOL     OW22774   1.823   0.798  11.358  0.1246  0.2853  0.3010
 3772SOL    HW122775   1.906   0.817  11.402  0.7714  2.7848 -2.0340
 3772SOL    HW222776   1.826   0.861  11.286  0.4243 -0.6506 -0.5219
 3773SOL     OW22777   1.183   3.768   4.229 -0.0984  0.4637 -0.0642
 3773SOL    HW122778   1.131   3.845   4.251  0.9454  1.1813 -0.1026
 3773SOL    HW222779   1.128   3.707   4.277  1.1027 -2.3887 -2.3355
 3774SOL     OW22780   1.170   4.702  17.076  0.0826 -0.4855  0.3805
 3774SOL    HW122781   1.137   4.710  17.165 -0.7045  0.0388  0.0395
 3774SOL    HW222782   1.130   0.055  17.036  3.9770  1.5875  0.4438
 3775SOL     OW22783   4.317   1.495   0.740  0.4991 -0.0288 -0.1110
 3775SOL    HW122784   4.385   1.464   0.681 -0.1892 -1.6453 -0.0470
 3775SOL    HW222785   4.335   1.452   0.823 -1.4838  1.8172  1.2739
 3776SOL     OW22786   0.798   1.660   6.868  0.5728  0.4185  0.2997
 3776SOL    HW122787   0.834   1.581   6.826 -0.7010 -1.1986  2.2731
 3776SOL    HW222788   0.867   1.674   6.933 -1.9807  2.7772  2.4569
 3777SOL     OW22789   0.132   1.433   4.373 -0.8162  0.1276 -0.0018
 3777SOL    HW122790   0.066   1.364   4.374  0.5778 -1.1937  0.2097
 3777SOL    HW222791   0.179   1.418   4.454 -0.2276  1.8147 -0.0432
 3778SOL     OW22792   1.507   0.214  15.023 -0.4457  0.6521 -0.5718
 3778SOL    HW122793   1.561   0.254  15.091  1.3741  1.5037 -2.5149
 3778SOL    HW222794   1.419   0.251  15.033 -0.4931  0.0558  1.0601
 3779SOL     OW22795   3.873   4.557  15.621 -0.4077  0.6639 -0.0060
 3779SOL    HW122796   3.879   4.468  15.655  1.7434 -0.1545 -2.5517
 3779SOL    HW222797   3.803   4.595  15.674 -0.3215 -0.1475  0.6926
 3780SOL     OW22798   0.004   3.041   3.826  0.2213 -0.6309 -0.2722
 3780SOL    HW122799   0.094   3.018   3.802  0.6018  0.0901  0.4465
 3780SOL    HW222800   4.687   2.986   3.760 -2.9699  1.3386  0.0937
 3781SOL     OW22801   2.984   1.788   3.562 -0.5426  0.3941 -0.0313
 3781SOL    HW122802   2.923   1.851   3.598  0.9803  0.6934  2.0226
 3781SOL    HW222803   2.932   1.708   3.550  0.4437 -0.1515 -0.6735
 3782SOL     OW22804   3.945   3.697   8.463 -0.0801 -0.5675  0.3865
 3782SOL    HW122805   3.968   3.764   8.527  0.1301  1.2610 -1.6041
 3782SOL    HW222806   3.959   3.615   8.510 -2.0770 -0.6017  0.9109
 3783SOL     OW22807   3.530   4.121   8.841 -0.9199 -0.2679 -0.0838
 3783SOL    HW122808   3.463   4.139   8.907 -0.8354 -2.6159  0.6561
 3783SOL    HW222809   3.602   4.179   8.864 -1.0168  0.7236 -2.2953
 3784SOL     OW22810   0.604   4.473   9.460 -1.0735  0.5860  0.1735
 3784SOL    HW122811   0.667   4.517   9.518 -0.8433 -1.2221  1.3210
 3784SOL    HW222812   0.580   4.394   9.509  2.1134  0.2362  1.2253
 3785SOL     OW22813   1.518   4.299   7.148 -0.0084  0.4155 -0.2443
 3785SOL    HW122814   1.600   4.256   7.171  0.1645  0.4846 -0.7270
 3785SOL    HW222815   1.510   4.375   7.206  2.5087  0.0175  0.6161
 3786SOL     OW22816   3.561   2.031   2.391  0.0919 -0.0456  0.0361
 3786SOL    HW122817   3.550   1.999   2.302 -0.0257 -1.2520  0.4766
 3786SOL    HW222818   3.626   1.965   2.416 -0.2397 -0.2241  0.4375
 3787SOL     OW22819   0.130   1.528   6.179  0.1165 -0.0709 -0.5541
 3787SOL    HW122820   0.080   1.493   6.106  1.2059  1.1832 -1.8987
 3787SOL    HW222821   0.103   1.620   6.185  2.0604  0.5846 -1.7471
 3788SOL     OW22822   2.774   3.763   5.443 -0.6399 -0.1484 -0.2010
 3788SOL    HW122823   2.745   3.846   5.406  3.9290  0.4485 -2.4024
 3788SOL    HW222824   2.769   3.701   5.371 -4.0716  0.3300 -0.4032
 3789SOL     OW22825   3.411   1.294   2.307  0.1160  0.2323  0.1516
 3789SOL    HW122826   3.485   1.240   2.280  0.1125  0.7017 -0.8200
 3789SOL    HW222827   3.341   1.261   2.250  1.0113  0.0931 -0.8802
 3790SOL     OW22828   1.455   0.296   8.495  0.2002  0.4140 -0.5345
 3790SOL    HW122829   1.459   0.362   8.426 -1.6501  1.2463  0.1479
 3790SOL    HW222830   1.388   0.342   8.545 -0.4687  2.2395 -3.1170
 3791SOL     OW22831   0.251   4.515   1.756  0.1633  0.1625  0.5226
 3791SOL    HW122832   0.313   4.588   1.755 -0.3690  0.6176  1.8539
 3791SOL    HW222833   0.270   4.480   1.668  2.6953 -0.4802  1.3191
 3792SOL     OW22834   4.074   0.173   4.208  0.8267  0.2397 -0.4155
 3792SOL    HW122835   4.002   0.231   4.232  0.6035 -0.5495  0.8384
 3792SOL    HW222836   4.104   0.144   4.294 -0.3090 -0.7342 -0.3444
 3793SOL     OW22837   1.254   3.527   6.001 -0.0372  0.0023 -0.1982
 3793SOL    HW122838   1.291   3.459   6.058 -0.3966  0.2050  0.2737
 3793SOL    HW222839   1.254   3.592   6.070 -2.3125 -2.1301  1.8253
 3794SOL     OW22840   3.694   3.239   8.764  0.0973 -0.6689  0.5556
 3794SOL    HW122841   3.700   3.315   8.822  2.6721 -0.7253  0.3717
 3794SOL    HW222842   3.778   3.239   8.718 -0.3385 -2.9750 -0.2366
 3795SOL     OW22843   3.518   4.006  14.170 -0.4894  0.2686 -0.1208
 3795SOL    HW122844   3.578   3.962  14.231 -0.0382  1.2972  0.1674
 3795SOL    HW222845   3.450   4.041  14.229 -2.1017  1.6563 -2.8027
 3796SOL     OW22846   3.277   3.729   7.659  0.3625  0.0307 -0.0252
 3796SOL    HW122847   3.198   3.682   7.635  0.2111  0.1515  0.2412
 3796SOL    HW222848   3.238   3.776   7.732  0.1628  0.4469 -0.3995
 3797SOL     OW22849   3.408   1.223   7.167  0.2536 -0.1185  0.0648
 3797SOL    HW122850   3.410   1.147   7.225  2.0380  0.1113  0.3107
 3797SOL    HW222851   3.368   1.291   7.221  0.8619  0.9966 -0.8884
 3798SOL     OW22852   0.573   1.105   5.302  0.3766  0.0535 -0.1063
 3798SOL    HW122853   0.516   1.041   5.345  0.4187 -0.1247 -0.3155
 3798SOL    HW222854   0.571   1.177   5.365 -0.5670  0.0339 -0.1065
 3799SOL     OW22855   2.139   4.463   7.434 -0.1182 -0.0939 -0.0949
 3799SOL    HW122856   2.092   4.395   7.483 -0.8841  1.1742  0.9227
 3799SOL    HW222857   2.067   4.503   7.386 -0.2223 -1.6455 -1.2411
 3800SOL     OW22858   0.108   1.773   5.761  0.1771  0.3712 -0.0118
 3800SOL    HW122859   0.038   1.714   5.790  0.8583 -0.1146  0.6300
 3800SOL    HW222860   0.169   1.700   5.750  0.3952  0.8486 -1.9089
 3801SOL     OW22861   1.411   2.451   4.661 -0.6277  0.0021  0.2301
 3801SOL    HW122862   1.410   2.543   4.636  0.0245  0.0024  0.1988
 3801SOL    HW222863   1.483   2.451   4.725 -0.1804  1.3534 -0.2766
 3802SOL     OW22864   0.483   2.357  12.736 -0.1480 -0.0131  0.0790
 3802SOL    HW122865   0.390   2.339  12.720  0.2211 -0.1176 -1.9344
 3802SOL    HW222866   0.481   2.437  12.790 -1.9189  0.0336 -0.0444
 3803SOL     OW22867   0.716   1.319   8.234 -0.2059  0.2514 -0.0281
 3803SOL    HW122868   0.792   1.363   8.272  0.0778  1.6914 -2.2685
 3803SOL    HW222869   0.691   1.266   8.310  1.9518 -2.1294 -0.9810
 3804SOL     OW22870   3.109   0.747   8.190  0.1766 -0.4908  0.2030
 3804SOL    HW122871   3.083   0.753   8.099 -0.8589  3.1336  0.7347
 3804SOL    HW222872   3.160   0.666   8.199  2.0809  0.9669  2.6746
 3805SOL     OW22873   0.860   0.501   4.661  0.0678 -0.0532  0.3561
 3805SOL    HW122874   0.866   0.413   4.625 -0.7115 -0.4421  1.1937
 3805SOL    HW222875   0.814   0.553   4.596  1.1411  1.5196  0.8362
 3806SOL     OW22876   2.086   3.384  11.942 -0.3160 -0.2006  0.8126
 3806SOL    HW122877   2.161   3.391  12.001  2.0275  2.5290 -2.5016
 3806SOL    HW222878   2.006   3.369  11.993  0.5253 -1.1809  1.8393
 3807SOL     OW22879   3.370   4.509   3.897 -0.4027  0.2924 -0.8456
 3807SOL    HW122880   3.362   4.536   3.805 -0.4763  0.9937 -0.6339
 3807SOL    HW222881   3.452   4.462   3.886 -0.5775 -0.1352 -0.3008
 3808SOL     OW22882   4.084   3.313   8.838  0.0721  0.3159  0.3883
 3808SOL    HW122883   4.179   3.309   8.850  0.2709  4.5220  0.0927
 3808SOL    HW222884   4.050   3.229   8.867 -0.7415  0.3795 -0.3735
 3809SOL     OW22885   3.796   1.957  14.865 -0.1920 -0.0960 -0.4531
 3809SOL    HW122886   3.840   1.974  14.782  0.9662 -0.1190  0.1561
 3809SOL    HW222887   3.729   2.023  14.879 -0.8043 -1.0666  1.1324
 3810SOL     OW22888   1.473   4.556   2.947 -0.1537 -0.0700 -0.2686
 3810SOL    HW122889   1.436   4.644   2.952 -2.9004 -1.3178  1.5578
 3810SOL    HW222890   1.411   4.515   3.008 -0.7653 -0.0514 -0.8865
 3811SOL     OW22891   2.313   3.965  16.858 -0.1488 -0.0096 -0.0406
 3811SOL    HW122892   2.228   3.923  16.846 -0.1514 -0.7217  2.5628
 3811SOL    HW222893   2.347   3.905  16.924 -2.6377 -1.0684  0.2971
 3812SOL     OW22894   0.095   2.891   7.968  0.3677  0.6202  0.9507
 3812SOL    HW122895   0.001   2.890   7.988  0.0701  1.2595 -0.4105
 3812SOL    HW222896   0.141   2.900   8.052  3.5046 -0.8384 -0.6333
 3813SOL     OW22897   1.328   3.227   8.616  0.2650  0.4061  0.4205
 3813SOL    HW122898   1.357   3.315   8.592  0.2113  0.8007  1.7950
 3813SOL    HW222899   1.286   3.192   8.538  2.5004  0.0767 -0.6624
 3814SOL     OW22900   2.254   1.327  13.557 -0.4528 -0.3539  0.2917
 3814SOL    HW122901   2.207   1.270  13.618  1.1060 -0.7105  1.1564
 3814SOL    HW222902   2.326   1.355  13.613 -0.5301  0.9769 -0.2805
 3815SOL     OW22903   1.729   3.426   8.484 -0.7182  0.3123  0.0557
 3815SOL    HW122904   1.718   3.345   8.535 -0.5439  0.4388  0.2941
 3815SOL    HW222905   1.786   3.474   8.544  1.9362 -2.4014 -0.2740
 3816SOL     OW22906   1.814   3.829   0.712  0.5528 -0.1575  0.0493
 3816SOL    HW122907   1.881   3.897   0.724  1.8324 -1.2645 -0.7208
 3816SOL    HW222908   1.813   3.829   0.616 -1.3761  0.5857  0.0768
 3817SOL     OW22909   1.660   2.478   4.784  0.2331  0.1921  0.2471
 3817SOL    HW122910   1.701   2.416   4.723 -0.2736 -0.4485  0.5587
 3817SOL    HW222911   1.714   2.452   4.858 -0.3383  2.2367  1.3705
 3818SOL     OW22912   0.054   2.572   4.098  0.0498  0.2540 -0.3813
 3818SOL    HW122913   0.057   2.511   4.171  1.2963 -0.9361 -1.4102
 3818SOL    HW222914   0.045   2.657   4.140  0.3444 -0.1681  0.5345
 3819SOL     OW22915   4.173   4.156   4.531 -0.5926 -0.5351 -0.2944
 3819SOL    HW122916   4.243   4.216   4.554 -0.7906 -0.3346 -0.2163
 3819SOL    HW222917   4.126   4.145   4.614 -3.5969 -0.0565 -1.9174
 3820SOL     OW22918   1.549   1.854   8.219 -0.1235  0.2838  0.2319
 3820SOL    HW122919   1.612   1.803   8.269 -0.1105 -0.4162 -0.5059
 3820SOL    HW222920   1.559   1.929   8.277 -0.8718 -1.0760  2.1064
 3821SOL     OW22921   1.324   4.168   4.871 -0.6347 -0.5870  1.1680
 3821SOL    HW122922   1.344   4.254   4.835  0.2021 -0.6731  1.4256
 3821SOL    HW222923   1.403   4.133   4.913  0.5374 -0.2565 -0.7873
 3822SOL     OW22924   0.670   1.877   9.165  0.0158 -0.3824 -0.2199
 3822SOL    HW122925   0.658   1.968   9.192  2.1023 -0.2433  0.1952
 3822SOL    HW222926   0.688   1.890   9.072 -0.2604 -0.9308 -0.3460
 3823SOL     OW22927   3.134   3.235   4.825  0.1880  0.3474  0.7124
 3823SOL    HW122928   3.042   3.257   4.842  0.7487  2.6158  0.8252
 3823SOL    HW222929   3.145   3.190   4.909 -1.5588 -0.1868  0.6626
 3824SOL     OW22930   1.130   0.502   1.243 -0.1496  0.0472  0.5265
 3824SOL    HW122931   1.197   0.467   1.184  0.3402 -0.7987  1.5841
 3824SOL    HW222932   1.147   0.449   1.322  0.6976 -0.1312  0.2280
 3825SOL     OW22933   4.420   0.096   3.358 -0.0743  0.2546  0.0654
 3825SOL    HW122934   4.510   0.067   3.349 -0.4697 -0.7985 -0.4855
 3825SOL    HW222935   4.416   0.133   3.446 -1.7426  1.4151 -0.4916
 3826SOL     OW22936   1.374   0.009   2.636  0.1845  0.3561 -0.2632
 3826SOL    HW122937   1.345   4.680   2.562  1.6862  0.5777 -1.0109
 3826SOL    HW222938   1.456   0.044   2.602  0.7930  0.0152  0.8747
 3827SOL     OW22939   2.241   4.517   3.610 -0.2713 -0.7514 -0.3974
 3827SOL    HW122940   2.297   4.442   3.589  0.0993 -0.6669  0.2786
 3827SOL    HW222941   2.211   4.487   3.696  0.5629  2.4239  0.9876
 3828SOL     OW22942   3.872   1.787   8.474  0.0340  0.0306  0.5419
 3828SOL    HW122943   3.944   1.795   8.536  2.2280  2.2339 -2.3156
 3828SOL    HW222944   3.824   1.870   8.479  0.4497  0.2526  0.7906
 3829SOL     OW22945   4.535   2.565  15.570  0.1148 -0.6049 -0.6904
 3829SOL    HW122946   4.511   2.472  15.562 -2.2888 -0.0981  0.7497
 3829SOL    HW222947   4.630   2.553  15.572  0.3083  1.1757  0.5957
 3830SOL     OW22948   4.543   3.455   9.772 -0.0581 -0.0247 -0.2829
 3830SOL    HW122949   4.524   3.444   9.865  0.8183 -1.6692 -0.2947
 3830SOL    HW222950   4.468   3.409   9.735 -2.5215  2.0902  2.0705
 3831SOL     OW22951   0.079   2.064  16.662 -0.7204 -0.5286  0.1384
 3831SOL    HW122952   0.119   1.981  16.637  0.5051  0.1270 -0.0640
 3831SOL    HW222953   0.133   2.129  16.617 -0.7238 -0.8631 -0.3404
 3832SOL     OW22954   3.767   0.653   7.169 -0.6407  0.1107  0.8194
 3832SOL    HW122955   3.696   0.593   7.147  0.4536 -0.6009 -0.7409
 3832SOL    HW222956   3.828   0.604   7.224  1.4556  0.7626 -0.8915
 3833SOL     OW22957   2.892   4.722   4.663  0.5670 -0.0919  0.2078
 3833SOL    HW122958   2.976   0.005   4.708  1.0566  0.0424 -0.7184
 3833SOL    HW222959   2.856   4.658   4.724 -1.0997 -0.6949 -1.4121
 3834SOL     OW22960   1.620   2.594   0.133 -0.2600  0.1686 -0.3525
 3834SOL    HW122961   1.571   2.584   0.051 -1.4197  0.8323  0.2634
 3834SOL    HW222962   1.565   2.649   0.189 -0.0922  1.0897 -1.0814
 3835SOL     OW22963   3.201   0.789   7.462 -0.4776  0.1226  0.0808
 3835SOL    HW122964   3.112   0.812   7.486 -0.2336  0.2885  0.8509
 3835SOL    HW222965   3.189   0.715   7.402 -0.3017  0.2917 -0.1582
 3836SOL     OW22966   2.566   3.908   6.435  0.6776 -0.2128  0.1940
 3836SOL    HW122967   2.542   3.937   6.348  1.3188  2.6770  0.9839
 3836SOL    HW222968   2.527   3.977   6.489 -1.4570 -0.9412 -0.4213
 3837SOL     OW22969   1.958   0.019  10.864 -0.1469 -0.2564 -0.0709
 3837SOL    HW122970   1.921   0.080  10.800  0.1834  0.3385  0.3059
 3837SOL    HW222971   1.975   4.661  10.819  0.0140 -0.5615  0.5499
 3838SOL     OW22972   2.145   4.242  10.277  0.3043 -0.2804  0.1095
 3838SOL    HW122973   2.087   4.195  10.337  0.8058 -1.4570 -0.3177
 3838SOL    HW222974   2.127   4.186  10.202 -1.0930  0.0781  0.1886
 3839SOL     OW22975   1.262   0.057   9.537  0.0381 -0.4928 -0.4554
 3839SOL    HW122976   1.172   0.039   9.563 -0.8463  1.5506 -2.1445
 3839SOL    HW222977   1.253   0.100   9.452 -1.0502  2.1383  0.9862
 3840SOL     OW22978   1.616   1.990  11.983 -0.1517 -0.0657 -0.2336
 3840SOL    HW122979   1.683   1.975  12.049 -1.3980  0.9251  1.2674
 3840SOL    HW222980   1.677   1.993  11.910 -1.0993 -1.2314 -1.0745
 3841SOL     OW22981   1.500   3.586   7.004  0.0938  0.0710  0.4633
 3841SOL    HW122982   1.417   3.603   7.048 -0.5674  0.6044 -1.0165
 3841SOL    HW222983   1.559   3.583   7.080 -0.7760 -1.7225  1.0569
 3842SOL     OW22984   2.344   0.472   5.049  0.4534 -0.0424 -0.4139
 3842SOL    HW122985   2.311   0.559   5.027  0.7152  0.0340 -0.5070
 3842SOL    HW222986   2.429   0.495   5.088 -0.2281  0.7130  0.6236
 3843SOL     OW22987   0.206   1.460   8.549 -0.0508  0.3826 -0.1317
 3843SOL    HW122988   0.250   1.386   8.590 -0.9288  0.5558  1.1134
 3843SOL    HW222989   0.245   1.452   8.462 -0.5965 -1.5260 -0.2045
 3844SOL     OW22990   1.278   1.543  15.718  0.0137  0.9946  0.6294
 3844SOL    HW122991   1.216   1.519  15.787  0.3128 -1.1506  0.1381
 3844SOL    HW222992   1.341   1.472  15.715 -2.4096 -1.0741 -1.3849
 3845SOL     OW22993   1.258   2.921  17.322  0.4009 -0.4845  0.9193
 3845SOL    HW122994   1.251   3.004  17.368  2.1579  0.7622 -1.0635
 3845SOL    HW222995   1.329   2.885  17.374  1.3728 -0.8948 -0.6880
 3846SOL     OW22996   2.908   2.644  15.388  0.1593  0.3730  0.2024
 3846SOL    HW122997   2.837   2.703  15.415 -0.6002 -0.3849 -0.1441
 3846SOL    HW222998   2.979   2.709  15.390  0.5160 -0.0177 -0.0030
 3847SOL     OW22999   0.897   2.034   6.734  0.0639 -0.7261 -0.2194
 3847SOL    HW123000   0.824   2.096   6.744 -0.8096 -1.3981 -2.2574
 3847SOL    HW223001   0.846   1.961   6.698 -0.7480  0.7538 -2.1043
 3848SOL     OW23002   4.646   2.202   4.074 -0.2765  0.4759  0.3511
 3848SOL    HW123003   4.620   2.245   4.155  0.4914  0.9285  0.3568
 3848SOL    HW223004   4.662   2.278   4.018  2.0576  0.3105  0.7961
 3849SOL     OW23005   2.164   1.588   6.263 -0.0733 -0.2522  0.8276
 3849SOL    HW123006   2.220   1.665   6.254 -0.6654 -0.0339 -0.9750
 3849SOL    HW223007   2.177   1.556   6.352  1.8598 -1.7308  0.0215
 3850SOL     OW23008   3.374   2.450   7.170 -0.0232  0.5820 -0.0090
 3850SOL    HW123009   3.447   2.469   7.228  1.3412 -1.7655 -0.9734
 3850SOL    HW223010   3.396   2.362   7.142 -1.8289 -0.0273  0.4707
 3851SOL     OW23011   2.073   3.424  15.249  0.1282  0.8628 -0.1116
 3851SOL    HW123012   2.153   3.459  15.286  1.1800 -0.4357 -1.1252
 3851SOL    HW223013   2.105   3.362  15.183 -0.3920 -0.4047  0.8404
 3852SOL     OW23014   0.255   4.572  14.543 -0.1503  0.6337 -0.6442
 3852SOL    HW123015   0.169   4.598  14.509 -0.4246  2.6082  1.5723
 3852SOL    HW223016   0.263   4.593  14.636  0.8751  1.0082 -0.8230
 3853SOL     OW23017   3.760   1.687   4.148 -0.5042 -0.6149  0.2615
 3853SOL    HW123018   3.746   1.687   4.243 -0.6629 -1.3898  0.2328
 3853SOL    HW223019   3.788   1.597   4.132 -1.2239 -1.0946  1.7057
 3854SOL     OW23020   1.399   1.610   1.351 -0.2579 -0.2099  0.0381
 3854SOL    HW123021   1.340   1.546   1.391 -0.4293 -0.4185 -0.5585
 3854SOL    HW223022   1.415   1.570   1.266 -0.7726  0.0387 -0.1821
 3855SOL     OW23023   0.651   1.542   6.533  0.5433  0.0699 -0.2436
 3855SOL    HW123024   0.664   1.615   6.473 -2.4242 -0.0202 -0.9985
 3855SOL    HW223025   0.711   1.479   6.493  0.7429 -0.8213  1.4247
 3856SOL     OW23026   2.522   0.118   7.306 -0.2359  0.1397  0.0182
 3856SOL    HW123027   2.497   0.182   7.373 -0.3131 -0.2462  0.3609
 3856SOL    HW223028   2.439   0.075   7.283  1.3923 -2.7635 -0.4068
 3857SOL     OW23029   1.065   0.788   9.644 -0.5932 -0.3699 -0.2713
 3857SOL    HW123030   1.073   0.700   9.678  0.1368 -0.1257  0.1853
 3857SOL    HW223031   0.979   0.797   9.603  0.6321  0.0690 -2.7994
 3858SOL     OW23032   4.065   0.085  17.391  0.1299 -0.5364 -0.4255
 3858SOL    HW123033   3.978   0.078  17.430  2.6440  0.3093  5.4034
 3858SOL    HW223034   4.113   0.035  17.457 -1.1589 -1.6299 -0.3177
 3859SOL     OW23035   2.431   0.709  10.756  0.2609  0.1462  0.0001
 3859SOL    HW123036   2.442   0.653  10.834  2.6312 -1.0598 -1.1850
 3859SOL    HW223037   2.454   0.793  10.795 -0.1314  0.4581 -0.4443
 3860SOL     OW23038   2.778   4.720   7.437 -0.1615  0.4979 -0.2967
 3860SOL    HW123039   2.772   0.021   7.529  1.5092  1.0579 -0.3413
 3860SOL    HW223040   2.709   0.056   7.408 -0.7689  0.1614  0.4469
 3861SOL     OW23041   0.139   3.856   2.387 -0.5199  0.5713 -0.4576
 3861SOL    HW123042   0.182   3.837   2.304  0.8459 -0.1053  0.4026
 3861SOL    HW223043   0.081   3.928   2.363 -0.0413  0.9972 -0.3564
 3862SOL     OW23044   4.102   0.856   6.310  0.0283 -0.2310  0.2381
 3862SOL    HW123045   4.112   0.941   6.269 -1.8885  0.8790  2.0832
 3862SOL    HW223046   4.155   0.865   6.389  0.2789  0.5475 -0.0233
 3863SOL     OW23047   1.074   4.571   6.048  0.7212 -0.5348  0.0604
 3863SOL    HW123048   1.089   4.546   5.957  0.8112  0.0140 -0.0751
 3863SOL    HW223049   0.981   4.595   6.045  0.8493  0.0424  0.6602
 3864SOL     OW23050   3.500   0.027   8.063 -0.1286 -0.1811  0.0777
 3864SOL    HW123051   3.558   0.000   7.991 -1.1827  0.5407 -1.0363
 3864SOL    HW223052   3.528   0.117   8.077 -0.8110  0.2361 -1.2128
 3865SOL     OW23053   1.077   4.560   2.740 -0.0025  0.6539 -1.2825
 3865SOL    HW123054   1.094   4.497   2.810  1.1683  0.6420 -1.5865
 3865SOL    HW223055   1.135   4.628   2.771  0.3090 -1.7644  3.3913
 3866SOL     OW23056   0.191   1.240   3.460 -0.1275 -0.0044  0.5369
 3866SOL    HW123057   0.212   1.219   3.369 -0.7151  0.5595  0.2763
 3866SOL    HW223058   0.276   1.230   3.503  0.0278  2.3199  0.7701
 3867SOL     OW23059   0.934   2.846   0.934  0.2677 -0.4590 -0.7393
 3867SOL    HW123060   0.889   2.813   0.856  0.9155 -0.3785 -1.1446
 3867SOL    HW223061   0.908   2.777   0.995  0.7126  0.3991  0.4320
 3868SOL     OW23062   4.244   3.104   7.696  0.4257 -0.5410  0.2003
 3868SOL    HW123063   4.194   3.023   7.693 -0.9887  0.3462 -0.0986
 3868SOL    HW223064   4.331   3.068   7.714 -0.2551 -2.3666 -0.1673
 3869SOL     OW23065   1.207   3.929   5.703  0.0895  0.1333 -0.5221
 3869SOL    HW123066   1.283   3.966   5.748 -0.1905 -0.4351  0.4261
 3869SOL    HW223067   1.170   3.894   5.784 -1.7519 -0.3448 -1.5483
 3870SOL     OW23068   3.664   2.206   4.342  0.6764  0.0616 -0.1147
 3870SOL    HW123069   3.575   2.197   4.376  1.6822 -0.6681  2.2999
 3870SOL    HW223070   3.650   2.264   4.268  3.4600  0.0815 -0.6331
 3871SOL     OW23071   4.030   3.744   4.741  0.0843  0.2864  0.2813
 3871SOL    HW123072   3.958   3.681   4.728 -0.2653  0.4036  1.6182
 3871SOL    HW223073   4.061   3.716   4.828  0.1346  0.7909  0.4270
 3872SOL     OW23074   3.749   1.017   6.227 -0.2593  0.4587 -0.1263
 3872SOL    HW123075   3.828   1.036   6.277  0.1600 -0.3061 -0.5039
 3872SOL    HW223076   3.683   0.992   6.292  0.1465  1.7118  0.7829
 3873SOL     OW23077   2.102   0.749   8.592 -0.7433  0.2167 -0.0598
 3873SOL    HW123078   2.137   0.673   8.639 -0.8855  0.3097  0.1947
 3873SOL    HW223079   2.174   0.782   8.537 -2.1711 -1.2147 -2.7904
 3874SOL     OW23080   2.329   1.815  10.177 -0.4359  0.0895 -0.5494
 3874SOL    HW123081   2.264   1.768  10.228  0.5383 -1.8846 -1.1010
 3874SOL    HW223082   2.298   1.793  10.089 -0.7030 -0.2890 -0.3592
 3875SOL     OW23083   2.233   1.458  14.242 -0.0624 -0.2969  0.2332
 3875SOL    HW123084   2.314   1.508  14.253  0.4289 -1.2145  0.8134
 3875SOL    HW223085   2.241   1.391  14.309  0.5020 -0.0089  0.4504
 3876SOL     OW23086   4.590   2.543  11.848 -0.5024 -0.0273  0.0309
 3876SOL    HW123087   4.518   2.595  11.885  0.8586 -0.0305  2.6788
 3876SOL    HW223088   4.598   2.480  11.920 -0.4559  1.1292  1.0384
 3877SOL     OW23089   1.980   4.450  14.212  0.0519  0.4919 -0.1944
 3877SOL    HW123090   1.889   4.478  14.225  0.7745  1.8569  1.9465
 3877SOL    HW223091   1.964   4.388  14.142  0.6332 -0.1737  0.2617
 3878SOL     OW23092   0.490   3.529  14.967 -0.1762  0.4489  0.3060
 3878SOL    HW123093   0.414   3.472  14.980 -0.6277  1.1768  0.8603
 3878SOL    HW223094   0.437   3.604  14.940  2.6625  2.5371  0.5534
 3879SOL     OW23095   2.791   0.317   8.327  0.2106  0.2182  0.6112
 3879SOL    HW123096   2.796   0.318   8.231 -0.3987 -0.6238  0.5717
 3879SOL    HW223097   2.815   0.408   8.343  0.3897  0.6540 -2.0739
 3880SOL     OW23098   1.801   1.922   7.865 -0.3854  0.1734 -0.5540
 3880SOL    HW123099   1.785   1.989   7.932  2.1069 -0.9110  1.1124
 3880SOL    HW223100   1.793   1.842   7.917 -0.0672  0.6593  0.2424
 3881SOL     OW23101   3.783   2.436  10.937  0.1627  0.2198 -0.5825
 3881SOL    HW123102   3.817   2.445  11.026 -0.4171 -1.9049 -0.1333
 3881SOL    HW223103   3.837   2.370  10.892 -2.8136 -2.3157 -0.4091
 3882SOL     OW23104   0.646   4.209   0.078 -0.5453  0.3124 -0.5138
 3882SOL    HW123105   0.596   4.128   0.067  1.2442 -0.7613 -0.7717
 3882SOL    HW223106   0.578   4.275   0.091 -1.5867 -0.3943 -2.3732
 3883SOL     OW23107   2.038   1.897   7.266 -0.5064  0.3415 -1.1111
 3883SOL    HW123108   2.078   1.978   7.299 -1.6677  1.0580 -1.4721
 3883SOL    HW223109   1.952   1.917   7.228 -0.7123  0.4053 -0.6193
 3884SOL     OW23110   3.960   2.561   6.828  0.2355  0.5069 -0.2681
 3884SOL    HW123111   3.993   2.478   6.862  0.0907  1.0349  1.1598
 3884SOL    HW223112   3.873   2.556   6.867 -0.0004 -1.2646 -1.0651
 3885SOL     OW23113   1.671   4.189   6.543 -0.1241 -0.3412 -0.3632
 3885SOL    HW123114   1.661   4.282   6.563 -1.6205 -0.8874  1.3625
 3885SOL    HW223115   1.757   4.186   6.585 -0.9312 -0.5983  1.2978
 3886SOL     OW23116   4.697   1.226   8.294 -0.1059 -0.1033  0.3824
 3886SOL    HW123117   4.675   1.170   8.220  2.8735  1.3464 -1.5982
 3886SOL    HW223118   0.058   1.187   8.311  0.6233  1.2308 -0.1607
 3887SOL     OW23119   3.700   3.130   4.233 -0.3663 -0.1962 -0.1625
 3887SOL    HW123120   3.750   3.179   4.298  0.3659  1.3502 -1.8945
 3887SOL    HW223121   3.611   3.159   4.255  0.8132  0.8061  3.2896
 3888SOL     OW23122   2.045   3.411   4.608  0.2604 -0.2103 -0.6135
 3888SOL    HW123123   1.950   3.413   4.601  0.1656 -0.6055  0.4712
 3888SOL    HW223124   2.042   3.499   4.645  0.6978  1.3138 -4.2954
 3889SOL     OW23125   1.459   1.678   6.835  0.4530  0.0491  0.1087
 3889SOL    HW123126   1.411   1.675   6.918 -0.6350 -0.1145 -0.5277
 3889SOL    HW223127   1.416   1.748   6.787  1.2144  0.1537 -0.4224
 3890SOL     OW23128   3.007   0.032  17.596 -0.3421 -0.3168  0.2527
 3890SOL    HW123129   3.078   0.092  17.574  0.5575 -0.9032  1.5729
 3890SOL    HW223130   3.048   4.671  17.607 -1.4980 -1.1542 -2.1035
 3891SOL     OW23131   0.571   0.494   9.380 -0.0527  0.1130 -0.1871
 3891SOL    HW123132   0.531   0.433   9.319 -0.7704 -1.2752  1.6537
 3891SOL    HW223133   0.649   0.521   9.332 -1.0540 -0.6459 -2.2257
 3892SOL     OW23134   0.726   2.161   9.489 -0.4259  0.1399 -0.2125
 3892SOL    HW123135   0.779   2.112   9.551 -0.1190  0.8169  0.0675
 3892SOL    HW223136   0.642   2.165   9.535 -0.1348 -0.6248  0.3803
 3893SOL     OW23137   0.887   3.710  13.619  0.8386  0.9628  0.7962
 3893SOL    HW123138   0.878   3.626  13.575 -0.8022  1.1340  0.8178
 3893SOL    HW223139   0.960   3.695  13.679  0.9071 -1.8686 -0.0181
 3894SOL     OW23140   2.796   0.800   2.114 -1.0757  0.1584  0.7753
 3894SOL    HW123141   2.743   0.821   2.036  0.6072  1.0249 -0.1307
 3894SOL    HW223142   2.805   0.706   2.099  0.0332  0.6087 -1.4008
 3895SOL     OW23143   3.979   0.211   8.401  0.4103 -0.2416 -0.4717
 3895SOL    HW123144   3.893   0.228   8.439 -0.0550  0.7273 -1.9532
 3895SOL    HW223145   4.041   0.230   8.471  1.4666 -1.7745 -0.9860
 3896SOL     OW23146   2.107   3.491   1.069  0.2079  0.2978 -0.7718
 3896SOL    HW123147   2.054   3.537   1.003 -0.2966  1.1219  0.2159
 3896SOL    HW223148   2.137   3.413   1.022  0.2918  0.6876 -1.3620
 3897SOL     OW23149   3.101   1.662  14.391  0.1856 -0.0744  0.2609
 3897SOL    HW123150   3.126   1.679  14.300 -0.6554  3.0795  0.6016
 3897SOL    HW223151   3.020   1.614  14.375  0.6021 -0.0700 -1.9092
 3898SOL     OW23152   0.962   4.258   5.723 -0.0620  0.3461  0.4619
 3898SOL    HW123153   0.883   4.221   5.685 -0.2637  2.3269 -1.0893
 3898SOL    HW223154   1.024   4.252   5.651  0.6261 -1.6646  1.2419
 3899SOL     OW23155   0.466   4.694   1.811  0.1034 -0.1493 -0.0670
 3899SOL    HW123156   0.555   4.705   1.843  0.2131 -1.2463  0.0099
 3899SOL    HW223157   0.411   4.708   1.888  1.1529 -0.1374  0.6686
 3900SOL     OW23158   3.409   0.137   6.534 -0.1576 -0.3040  0.4083
 3900SOL    HW123159   3.438   0.054   6.496 -0.6795 -0.2931 -0.0056
 3900SOL    HW223160   3.398   0.109   6.625  1.4278 -0.2158  0.6334
 3901SOL     OW23161   0.509   0.893   6.530 -0.3167  0.2300  0.0176
 3901SOL    HW123162   0.578   0.955   6.554 -0.9783 -0.4130  3.5220
 3901SOL    HW223163   0.470   0.865   6.613 -1.8921  2.8877  0.1577
 3902SOL     OW23164   4.136   3.481  13.423 -0.6470  0.4219 -0.0735
 3902SOL    HW123165   4.081   3.488  13.345  0.8784  2.8753 -0.9292
 3902SOL    HW223166   4.189   3.401  13.411 -0.9254  0.3818 -0.9831
 3903SOL     OW23167   1.386   2.965   0.003  0.5723 -0.7902  0.0631
 3903SOL    HW123168   1.310   2.907   0.003 -0.0529  0.0601 -2.0385
 3903SOL    HW223169   1.355   3.015  17.628  0.1841 -0.2382  0.5930
 3904SOL     OW23170   4.078   4.195  14.476 -0.6298  0.2785  0.0700
 3904SOL    HW123171   4.020   4.270  14.462  0.6367  1.6835  2.3892
 3904SOL    HW223172   4.103   4.167  14.388  0.3484 -0.5322  0.6157
 3905SOL     OW23173   3.978   3.434  14.860  0.3379  0.1611  0.7037
 3905SOL    HW123174   4.055   3.381  14.842 -0.5974 -1.5187  1.6607
 3905SOL    HW223175   4.006   3.525  14.846  0.6216  0.4644  3.2092
 3906SOL     OW23176   2.955   0.882   1.667  0.1327 -0.3257 -0.5272
 3906SOL    HW123177   2.866   0.905   1.691  0.5102  0.5374  0.0274
 3906SOL    HW223178   3.005   0.945   1.720 -0.0363 -1.3609  0.8879
 3907SOL     OW23179   2.085   0.987   8.030  0.2581  0.5686  0.5025
 3907SOL    HW123180   2.033   1.041   7.971  0.4507 -0.1424 -0.3018
 3907SOL    HW223181   2.118   1.055   8.090  1.0836 -0.1525  0.8694
 3908SOL     OW23182   2.363   1.688   0.959  0.2018  0.2227 -0.2538
 3908SOL    HW123183   2.379   1.631   1.034 -2.2912 -2.6183 -1.8618
 3908SOL    HW223184   2.392   1.643   0.880 -1.3130 -3.5631  1.3344
 3909SOL     OW23185   4.679   2.927  13.569 -0.7071 -0.3437 -0.1877
 3909SOL    HW123186   4.594   2.968  13.554 -0.5204  0.4898  1.0185
 3909SOL    HW223187   4.711   2.960  13.653 -1.3261 -1.2765  0.4161
 3910SOL     OW23188   2.254   3.976  12.924 -0.3834  0.5571  0.0109
 3910SOL    HW123189   2.345   3.961  12.949  0.0007 -1.2937 -2.5030
 3910SOL    HW223190   2.234   3.905  12.863 -0.5293  1.6712 -1.2358
 3911SOL     OW23191   3.905   2.328   7.263 -0.3414 -0.0313  0.3332
 3911SOL    HW123192   3.991   2.311   7.225 -0.7973  0.0880 -0.7548
 3911SOL    HW223193   3.877   2.246   7.303 -0.0690 -0.5577 -0.5458
 3912SOL     OW23194   2.564   2.357  16.912  0.3112 -0.5614 -0.2824
 3912SOL    HW123195   2.578   2.436  16.860  0.2910  1.0373  2.1311
 3912SOL    HW223196   2.637   2.362  16.974  0.5913 -1.0997 -0.5689
 3913SOL     OW23197   4.504   1.497   1.411  0.2473 -0.1234 -0.6202
 3913SOL    HW123198   4.584   1.449   1.431 -0.6813 -1.0250  0.9331
 3913SOL    HW223199   4.435   1.431   1.418 -1.4865  1.5962 -1.4595
 3914SOL     OW23200   0.138   1.213   4.890  0.2324 -0.0756 -0.6673
 3914SOL    HW123201   0.053   1.256   4.883  0.1355  0.1685  1.9610
 3914SOL    HW223202   0.115   1.122   4.913 -0.0978  0.7304  2.2260
 3915SOL     OW23203   0.484   2.866   0.711 -0.2303 -0.0409 -0.1428
 3915SOL    HW123204   0.516   2.818   0.634 -4.2238 -0.6673 -1.3979
 3915SOL    HW223205   0.524   2.953   0.705 -1.0169  0.4212  1.3655
 3916SOL     OW23206   1.444   1.096   8.520 -0.3613 -0.3713  0.3182
 3916SOL    HW123207   1.421   1.143   8.601  0.6268  0.7221 -0.0250
 3916SOL    HW223208   1.539   1.089   8.529 -0.2206  0.4687 -0.5484
 3917SOL     OW23209   1.518   4.465   1.764  0.0945 -0.4497 -0.1617
 3917SOL    HW123210   1.437   4.497   1.723 -1.0338 -0.7867  1.7950
 3917SOL    HW223211   1.494   4.378   1.794  0.0872 -0.4856 -0.2693
 3918SOL     OW23212   2.239   0.786   2.813  0.0521 -0.2595 -0.0729
 3918SOL    HW123213   2.149   0.755   2.802 -0.1885  0.6338 -0.6412
 3918SOL    HW223214   2.276   0.736   2.885 -0.8197  0.9226  1.1974
 3919SOL     OW23215   1.383   1.522   2.906 -0.0696  0.2762  0.1979
 3919SOL    HW123216   1.447   1.450   2.907 -0.4193 -0.0663 -1.3980
 3919SOL    HW223217   1.415   1.582   2.973 -0.9258  2.0841 -1.0162
 3920SOL     OW23218   1.320   1.205   0.828 -0.1724 -0.0418 -0.1333
 3920SOL    HW123219   1.346   1.140   0.763  2.8206  2.4414 -1.4189
 3920SOL    HW223220   1.330   1.289   0.782  0.4399 -0.9651 -1.6975
 3921SOL     OW23221   0.649   1.275   6.112  0.0842  0.6803 -0.1550
 3921SOL    HW123222   0.672   1.358   6.155 -0.9562  1.8467 -1.8682
 3921SOL    HW223223   0.690   1.272   6.026 -0.3548 -1.3837 -0.3018
 3922SOL     OW23224   0.190   2.923   8.222  0.0650  0.0003  0.5624
 3922SOL    HW123225   0.147   2.870   8.288 -2.3556 -1.5611 -2.2576
 3922SOL    HW223226   0.214   3.000   8.274  0.3759 -0.4546  1.0808
 3923SOL     OW23227   0.179   0.383   2.320  0.1561  0.2412  0.7701
 3923SOL    HW123228   0.178   0.378   2.415  0.8476 -0.2010  0.7496
 3923SOL    HW223229   0.253   0.442   2.309  1.3080 -1.1445  1.1735
 3924SOL     OW23230   1.296   3.902   6.755 -0.3028  0.4903  0.2678
 3924SOL    HW123231   1.327   3.981   6.711 -2.1215  2.0951  1.8676
 3924SOL    HW223232   1.315   3.917   6.847  3.5576 -0.5385 -0.3412
 3925SOL     OW23233   4.285   1.383   4.933  0.2462  0.5648 -0.8513
 3925SOL    HW123234   4.315   1.454   4.990 -1.9920 -0.1159  1.1480
 3925SOL    HW223235   4.207   1.423   4.894 -0.3892 -0.3889 -0.5457
 3926SOL     OW23236   1.349   2.882   3.361 -0.3542 -0.1349  0.4542
 3926SOL    HW123237   1.391   2.920   3.439  0.1460 -0.4536  0.3401
 3926SOL    HW223238   1.355   2.959   3.304 -0.8124 -0.6910 -0.3435
 3927SOL     OW23239   3.229   3.891   8.969  0.6644 -0.2972 -0.0239
 3927SOL    HW123240   3.245   3.798   8.990 -1.8157 -0.5007  0.9177
 3927SOL    HW223241   3.314   3.925   8.999  1.0038 -1.2651  0.1272
 3928SOL     OW23242   3.452   2.553   5.373 -0.4116 -0.2189 -0.0838
 3928SOL    HW123243   3.373   2.501   5.389 -0.2817 -0.5522 -0.5391
 3928SOL    HW223244   3.426   2.615   5.305 -0.6014 -0.1855  0.0179
 3929SOL     OW23245   0.377   3.065   2.885  0.0418 -0.0952  0.5882
 3929SOL    HW123246   0.461   3.021   2.897  1.5272  2.8511  0.9187
 3929SOL    HW223247   0.389   3.155   2.913  1.8975  0.2235 -1.2405
 3930SOL     OW23248   3.424   3.602   9.293  0.0743  0.3664  0.0806
 3930SOL    HW123249   3.481   3.670   9.329  1.7289 -1.4856  0.8864
 3930SOL    HW223250   3.395   3.541   9.360 -1.3143  0.3290 -0.5351
 3931SOL     OW23251   2.321   4.460   9.244  0.0914 -0.3387 -0.1328
 3931SOL    HW123252   2.351   4.394   9.307  1.3137 -1.5289 -1.9369
 3931SOL    HW223253   2.329   4.411   9.162 -2.9043 -0.8828 -0.0644
 3932SOL     OW23254   4.057   3.555   4.135 -0.1624  0.0285 -0.0144
 3932SOL    HW123255   3.971   3.532   4.097  0.2231 -1.5852  0.0716
 3932SOL    HW223256   4.111   3.528   4.061  0.2939 -0.8140  0.6281
 3933SOL     OW23257   3.621   1.249   6.163 -0.2642  0.3196 -0.0946
 3933SOL    HW123258   3.686   1.186   6.194 -1.4360  0.5606  2.7946
 3933SOL    HW223259   3.674   1.324   6.135  0.5875 -0.1105  0.3524
 3934SOL     OW23260   2.916   1.948   2.869 -0.0961 -0.1436  0.6811
 3934SOL    HW123261   2.880   1.891   2.801 -2.5819 -1.3312  2.9969
 3934SOL    HW223262   2.844   1.967   2.929 -1.3366  0.6832 -1.0527
 3935SOL     OW23263   2.002   1.320  10.263 -0.2362 -0.0842 -0.2331
 3935SOL    HW123264   1.971   1.273  10.341  0.6830  2.1231  1.4563
 3935SOL    HW223265   2.001   1.408  10.299 -1.2565 -0.0559 -0.3295
 3936SOL     OW23266   2.623   1.187   3.170  0.4704 -0.1421  0.1800
 3936SOL    HW123267   2.650   1.274   3.199  1.0828  0.4011 -2.0012
 3936SOL    HW223268   2.684   1.173   3.097  0.2601  1.5500 -0.3329
 3937SOL     OW23269   2.897   0.489   4.904 -0.3986 -0.2987  0.4739
 3937SOL    HW123270   2.864   0.571   4.942  0.4146  1.1090 -1.9109
 3937SOL    HW223271   2.813   0.444   4.911 -0.0461 -1.1424 -0.8991
 3938SOL     OW23272   0.851   4.078   1.079 -0.7959 -0.0415  0.4283
 3938SOL    HW123273   0.901   4.047   1.004  0.4440 -0.5016  1.4395
 3938SOL    HW223274   0.849   4.173   1.070 -1.3988 -0.2750 -1.9032
 3939SOL     OW23275   3.852   0.892   1.961  0.0365  0.2453 -0.0920
 3939SOL    HW123276   3.899   0.911   2.043  0.4979  0.1933 -0.3407
 3939SOL    HW223277   3.871   0.975   1.917  1.7011  0.3384  0.7861
 3940SOL     OW23278   1.270   1.679  10.948  0.0425  0.0549 -0.1073
 3940SOL    HW123279   1.289   1.588  10.971  0.1806  0.2488  0.5592
 3940SOL    HW223280   1.187   1.675  10.995  0.0471  0.8219 -0.0260
 3941SOL     OW23281   3.481   3.068  13.428 -0.1086 -0.9194 -0.0721
 3941SOL    HW123282   3.562   3.028  13.458  0.2892 -0.2017 -0.1932
 3941SOL    HW223283   3.493   3.106  13.341  0.4279  0.0009  0.4053
 3942SOL     OW23284   1.415   4.245   5.395 -0.0930 -0.4457  0.4452
 3942SOL    HW123285   1.482   4.213   5.334 -0.4104 -2.0655  0.9605
 3942SOL    HW223286   1.465   4.321   5.427 -0.5243  0.9180 -2.1546
 3943SOL     OW23287   1.040   1.387  12.677 -0.3183  0.5859 -0.1748
 3943SOL    HW123288   1.131   1.414  12.667  0.4952 -1.2319  2.3469
 3943SOL    HW223289   1.037   1.314  12.616  1.3943  1.4918 -1.3492
 3944SOL     OW23290   1.928   2.985   4.679 -0.4126  0.3433  0.1374
 3944SOL    HW123291   2.021   2.970   4.699 -0.7107  0.3932  1.6074
 3944SOL    HW223292   1.920   2.962   4.587 -1.9572 -1.3205  0.6960
 3945SOL     OW23293   0.357   0.378   5.005  0.2501 -0.0616 -0.1209
 3945SOL    HW123294   0.305   0.354   5.082  1.4531  1.1924  1.0594
 3945SOL    HW223295   0.289   0.370   4.937  0.7694  0.9964 -0.7527
 3946SOL     OW23296   3.852   0.295  17.615 -0.3929 -0.2595 -0.3051
 3946SOL    HW123297   3.850   0.329  17.525 -1.4406 -0.1338 -0.2406
 3946SOL    HW223298   3.759   0.305  17.634 -0.0108  0.3479  1.2374
 3947SOL     OW23299   2.015   0.301   7.764 -0.2170  0.1419  0.0003
 3947SOL    HW123300   2.008   0.392   7.793 -1.6060 -1.0836  3.4246
 3947SOL    HW223301   1.927   0.283   7.731 -0.7284  2.0022  0.3028
 3948SOL     OW23302   0.329   3.517  13.233  0.2207  0.4170  0.2984
 3948SOL    HW123303   0.352   3.425  13.227  2.6852  1.0394  0.4672
 3948SOL    HW223304   0.237   3.510  13.207  1.0211 -1.2651 -2.0745
 3949SOL     OW23305   2.419   2.874   1.054  0.1097 -0.0165  0.0195
 3949SOL    HW123306   2.416   2.902   1.145 -0.1914 -1.4227  0.4489
 3949SOL    HW223307   2.512   2.882   1.031  0.0143 -0.8236 -0.6850
 3950SOL     OW23308   3.260   2.524   8.242  0.1939  0.2908  0.7009
 3950SOL    HW123309   3.212   2.482   8.313 -0.5326  0.4288  0.2934
 3950SOL    HW223310   3.276   2.606   8.287  1.2790 -1.2093  3.0488
 3951SOL     OW23311   0.127   1.837   4.364 -0.1829 -0.0802  0.3655
 3951SOL    HW123312   0.139   1.924   4.326 -0.1500  0.7342  2.2370
 3951SOL    HW223313   0.113   1.778   4.290 -0.7228 -0.6115  0.8846
 3952SOL     OW23314   1.996   1.897  10.884  0.1155  0.0895 -0.1957
 3952SOL    HW123315   1.961   1.867  10.968  1.3066  1.5267  0.8200
 3952SOL    HW223316   2.076   1.941  10.914  1.5474 -2.0427 -0.8621
 3953SOL     OW23317   3.897   0.659   6.537 -0.7316  0.8989 -0.8976
 3953SOL    HW123318   3.820   0.699   6.579  1.3998  2.3445  1.6427
 3953SOL    HW223319   3.956   0.649   6.611 -1.5975 -0.5398 -0.3981
 3954SOL     OW23320   0.621   0.869  14.159  0.2700 -0.7740  0.5623
 3954SOL    HW123321   0.607   0.875  14.254  2.0576 -1.6404  0.8860
 3954SOL    HW223322   0.606   0.960  14.134 -0.9523 -1.2316 -0.3395
 3955SOL     OW23323   4.196   0.162   5.781 -0.4958 -0.6264  0.1857
 3955SOL    HW123324   4.128   0.176   5.847  0.9335  2.9521  0.9220
 3955SOL    HW223325   4.157   0.203   5.704  0.3165  2.4826  1.4227
 3956SOL     OW23326   0.402   1.281   4.512 -0.3813  0.3474  0.0601
 3956SOL    HW123327   0.490   1.251   4.535 -0.8150 -1.1876 -0.3245
 3956SOL    HW223328   0.400   1.271   4.417  0.3627  1.9735 -0.1409
 3957SOL     OW23329   1.145   1.876   6.686  0.1993  0.2076  0.5111
 3957SOL    HW123330   1.066   1.930   6.695 -0.6044 -0.8138 -0.3620
 3957SOL    HW223331   1.101   1.791   6.686  1.9595 -0.7012 -1.4728
 3958SOL     OW23332   1.726   2.870   9.347 -0.4461  0.2513 -0.5576
 3958SOL    HW123333   1.809   2.904   9.380  0.0831  0.4066 -2.0346
 3958SOL    HW223334   1.665   2.930   9.390 -0.0294  0.3088 -0.0413
 3959SOL     OW23335   0.494   0.869   2.357  0.4650  0.1057  0.0369
 3959SOL    HW123336   0.408   0.908   2.372  0.5271  0.6625 -1.0691
 3959SOL    HW223337   0.523   0.909   2.275  1.4267 -0.8821 -0.0991
 3960SOL     OW23338   0.288   2.877   2.150 -0.6774 -0.2372  0.3411
 3960SOL    HW123339   0.224   2.869   2.221 -0.3558 -1.3518  0.5035
 3960SOL    HW223340   0.242   2.836   2.076  0.4290  0.2410 -0.6076
 3961SOL     OW23341   2.571   4.292   2.497  0.5649  0.0211 -0.2428
 3961SOL    HW123342   2.476   4.296   2.491  0.4350 -2.7016 -0.1569
 3961SOL    HW223343   2.577   4.361   2.563  0.8921  1.4686 -1.7901
 3962SOL     OW23344   2.438   2.602  13.462  0.6896 -0.8007 -0.3336
 3962SOL    HW123345   2.349   2.570  13.444 -0.2840  1.2763  0.8121
 3962SOL    HW223346   2.483   2.569  13.385 -1.2246  2.3378 -2.8072
 3963SOL     OW23347   1.843   2.728  15.780 -0.3026  0.2073 -0.1107
 3963SOL    HW123348   1.911   2.772  15.728 -0.4351 -0.0257 -0.4817
 3963SOL    HW223349   1.775   2.721  15.712  1.4556 -0.6169 -1.7811
 3964SOL     OW23350   3.639   4.449   4.227 -0.0545  0.1370 -0.3682
 3964SOL    HW123351   3.708   4.464   4.162 -1.0959 -0.3887 -1.5937
 3964SOL    HW223352   3.670   4.455   4.317  2.1501  0.2833 -1.1435
 3965SOL     OW23353   2.400   0.565   9.197  0.1825  0.3132 -0.3105
 3965SOL    HW123354   2.312   0.542   9.225  0.4145 -0.7911 -0.4612
 3965SOL    HW223355   2.426   0.634   9.258 -2.9064  1.0534  0.1300
 3966SOL     OW23356   1.063   2.350   8.343 -0.4966  0.1987  0.1696
 3966SOL    HW123357   1.146   2.310   8.318 -0.6359  2.1039 -3.3799
 3966SOL    HW223358   1.006   2.275   8.330 -0.6610  0.5113 -0.9393
 3967SOL     OW23359   4.041   1.487   6.107 -0.4402  0.2840  0.2550
 3967SOL    HW123360   4.063   1.490   6.200 -1.8009 -0.1772  0.6016
 3967SOL    HW223361   4.128   1.464   6.075 -0.8995 -0.5136 -0.4337
 3968SOL     OW23362   3.093   4.578   9.449  0.2933  0.3804  0.7002
 3968SOL    HW123363   3.163   4.643   9.459 -0.4818  1.3643 -0.2367
 3968SOL    HW223364   3.069   4.574   9.542  0.5528 -0.7122  0.7173
 3969SOL     OW23365   0.891   2.139   8.391  0.3141 -0.0087  0.7653
 3969SOL    HW123366   0.906   2.075   8.461  2.0845 -1.1741 -0.7063
 3969SOL    HW223367   0.805   2.177   8.410  0.1090 -0.5082  0.8353
 3970SOL     OW23368   0.901   2.246   2.810 -0.3724  0.5135 -0.3655
 3970SOL    HW123369   0.856   2.263   2.727 -3.1427  1.3709  1.2947
 3970SOL    HW223370   0.881   2.323   2.863  0.9010  0.8525 -0.3849
 3971SOL     OW23371   3.109   0.942   5.971  0.2171 -0.4448  0.2254
 3971SOL    HW123372   3.144   0.887   5.901  0.9287  0.7572 -0.3678
 3971SOL    HW223373   3.054   0.881   6.019 -1.3416  0.1261 -0.8174
 3972SOL     OW23374   4.388   3.511   3.333  0.2154  0.0803 -0.4330
 3972SOL    HW123375   4.324   3.580   3.351  1.2822  1.2522 -1.1625
 3972SOL    HW223376   4.342   3.436   3.295 -2.7762  2.2296 -1.0625
 3973SOL     OW23377   3.152   4.628   7.797 -0.2012 -0.0190 -0.2618
 3973SOL    HW123378   3.108   4.560   7.746 -1.1575  0.4712 -0.1001
 3973SOL    HW223379   3.109   4.707   7.763  1.5528  1.7338  1.5774
 3974SOL     OW23380   2.028   3.650   8.881 -0.1375  0.4671 -0.1768
 3974SOL    HW123381   1.939   3.682   8.895 -0.8973 -0.9944 -1.6958
 3974SOL    HW223382   2.066   3.709   8.816  0.2125  1.5835  1.0270
 3975SOL     OW23383   4.621   1.704   0.589  0.5803 -0.0683  0.1068
 3975SOL    HW123384   4.692   1.708   0.525  0.8644 -1.1532  0.3533
 3975SOL    HW223385   4.664   1.744   0.665  0.3867  0.8234 -0.2558
 3976SOL     OW23386   3.391   3.182  12.041  0.0335 -0.3322 -0.2100
 3976SOL    HW123387   3.362   3.273  12.045 -0.7132 -0.5727 -0.1829
 3976SOL    HW223388   3.418   3.170  12.132  1.9407 -0.7441 -0.8137
 3977SOL     OW23389   0.798   0.414  11.442 -0.1341  0.4819  0.4493
 3977SOL    HW123390   0.786   0.452  11.529 -0.4218 -0.6171  0.9005
 3977SOL    HW223391   0.704   0.395  11.433 -0.4086  1.2932  1.5083
 3978SOL     OW23392   0.242   2.941   4.367  0.4277 -0.5795 -0.0669
 3978SOL    HW123393   0.220   2.852   4.396  0.2033 -0.0387  1.4297
 3978SOL    HW223394   0.242   2.932   4.272 -0.5450 -1.3157  0.0030
 3979SOL     OW23395   1.993   3.776   3.421 -0.0622 -0.5344  0.2277
 3979SOL    HW123396   2.003   3.722   3.342 -1.3718  0.3918 -0.5854
 3979SOL    HW223397   1.986   3.704   3.484  2.0701 -1.9145 -1.1193
 3980SOL     OW23398   3.597   2.487  14.566  0.4610 -0.4186 -0.1411
 3980SOL    HW123399   3.535   2.418  14.587  0.6744 -0.7590 -0.6360
 3980SOL    HW223400   3.583   2.503  14.473  0.0129 -1.4855 -0.2488
 3981SOL     OW23401   0.942   3.187   5.670  0.3641  0.1019 -0.5141
 3981SOL    HW123402   0.959   3.254   5.735 -0.4830  0.7081 -0.9203
 3981SOL    HW223403   0.868   3.151   5.718  0.1999  0.2006 -0.6943
 3982SOL     OW23404   1.901   4.281   8.558  0.1964  0.3612 -0.5872
 3982SOL    HW123405   1.877   4.362   8.604 -0.5935  0.8299 -1.7951
 3982SOL    HW223406   1.932   4.225   8.629  2.0053  0.9705 -0.8948
 3983SOL     OW23407   4.010   1.465  10.230  0.5022 -0.1480 -0.0372
 3983SOL    HW123408   3.920   1.477  10.202 -0.5241 -0.4830  3.0888
 3983SOL    HW223409   4.043   1.553  10.250 -0.2073  0.1138 -0.0262
 3984SOL     OW23410   0.006   4.101   2.974  0.4218 -0.1624 -0.5599
 3984SOL    HW123411   0.097   4.126   2.959  0.4570 -0.1994 -0.4055
 3984SOL    HW223412   4.687   4.136   2.896 -0.0229 -0.2150 -0.3363
 3985SOL     OW23413   0.968   3.878   4.382  0.6973  0.5509  0.0499
 3985SOL    HW123414   0.894   3.836   4.338  1.0351 -2.0905  2.0053
 3985SOL    HW223415   0.960   3.832   4.465 -0.1940  0.6924  0.0409
 3986SOL     OW23416   2.816   0.482   6.788 -0.0844 -0.3423 -0.0790
 3986SOL    HW123417   2.750   0.436   6.737  0.1457 -1.7311  0.8916
 3986SOL    HW223418   2.838   0.410   6.847 -1.9487 -1.7802 -1.1457
 3987SOL     OW23419   0.436   0.067   8.607  0.2843  0.3881  0.3828
 3987SOL    HW123420   0.489   0.094   8.682  1.6861  0.9843 -0.8038
 3987SOL    HW223421   0.474   4.706   8.591  0.8381  0.4438  1.3963
 3988SOL     OW23422   1.339   2.354   8.260 -0.0243 -0.0400 -0.0696
 3988SOL    HW123423   1.346   2.428   8.320 -1.2071  0.5869 -0.7184
 3988SOL    HW223424   1.401   2.386   8.194 -0.8149 -1.4690 -1.4944
 3989SOL     OW23425   3.178   0.486  16.111 -0.3993 -0.1580 -0.1394
 3989SOL    HW123426   3.236   0.452  16.179  0.6088 -0.3881 -1.1240
 3989SOL    HW223427   3.190   0.418  16.045 -0.1524  0.2053 -0.4680
 3990SOL     OW23428   1.041   3.906   8.371  0.1640 -0.3162  0.0525
 3990SOL    HW123429   1.045   3.871   8.283  0.8113 -0.1666  0.0266
 3990SOL    HW223430   1.112   3.971   8.369 -0.3554  0.2037 -1.4723
 3991SOL     OW23431   3.921   2.611   0.781 -0.2963 -0.5269 -0.5917
 3991SOL    HW123432   3.929   2.625   0.876  2.5222 -1.2756 -0.7189
 3991SOL    HW223433   3.975   2.687   0.757 -1.1251  0.4782  0.6749
 3992SOL     OW23434   1.380   1.744  10.091  0.6475 -0.4645 -0.1723
 3992SOL    HW123435   1.394   1.731  10.184  1.3759  1.5358  0.0002
 3992SOL    HW223436   1.459   1.796  10.074  1.6186 -1.3180  1.7684
 3993SOL     OW23437   2.395   4.107   1.391  0.5042 -0.0618 -0.5194
 3993SOL    HW123438   2.307   4.096   1.355  1.4938 -1.1537 -2.5902
 3993SOL    HW223439   2.417   4.020   1.425 -0.3318 -0.7817 -1.8397
 3994SOL     OW23440   0.956   3.763   2.715  0.1898  0.1519  0.1210
 3994SOL    HW123441   0.900   3.690   2.739  3.5745 -1.6121  2.6554
 3994SOL    HW223442   0.914   3.780   2.630  1.2935  1.3327 -0.1922
 3995SOL     OW23443   3.283   3.109   5.324  0.3853 -0.6649 -0.0161
 3995SOL    HW123444   3.245   3.129   5.410  0.7536  0.2583 -0.0621
 3995SOL    HW223445   3.220   3.156   5.269 -1.7727 -1.1517  2.0129
 3996SOL     OW23446   0.072   2.547  17.461  0.2127  0.2333  0.4786
 3996SOL    HW123447   0.145   2.499  17.498  1.4920  0.8211 -1.2760
 3996SOL    HW223448   0.120   2.617  17.418 -0.9960  1.3601  0.9330
 3997SOL     OW23449   3.007   4.016   8.208 -0.0191  0.1128  0.2384
 3997SOL    HW123450   3.086   4.019   8.261  0.8327  0.8204 -1.0837
 3997SOL    HW223451   2.956   3.943   8.244  0.5818  0.8826  2.6441
 3998SOL     OW23452   1.437   4.591   2.155  0.2365  0.2698 -0.0844
 3998SOL    HW123453   1.486   4.622   2.078  0.3586  2.0540  0.7089
 3998SOL    HW223454   1.418   4.502   2.126 -1.3193  0.8575 -0.8604
 3999SOL     OW23455   2.363   3.295   6.264 -0.0333  0.3976  0.1968
 3999SOL    HW123456   2.376   3.201   6.280 -0.0313  0.6093  1.4324
 3999SOL    HW223457   2.278   3.311   6.305 -0.6351  1.2966 -1.3652
 4000SOL     OW23458   3.452   1.222   3.823 -0.1500  0.0448  0.0525
 4000SOL    HW123459   3.435   1.138   3.782  1.5638  0.1512 -0.8673
 4000SOL    HW223460   3.373   1.218   3.877  0.5910 -0.0826  1.1282
 4001SOL     OW23461   0.598   0.152   8.323  0.1823 -0.1274  0.0965
 4001SOL    HW123462   0.663   0.081   8.322 -1.0208 -1.2398 -0.0887
 4001SOL    HW223463   0.563   0.133   8.236  0.4430 -1.3010  0.2424
 4002SOL     OW23464   4.025   4.324   2.518  0.1375 -0.2452  0.4412
 4002SOL    HW123465   4.089   4.270   2.563 -0.2922 -0.4817  0.7732
 4002SOL    HW223466   4.070   4.408   2.510  1.4422 -1.0388 -0.4042
 4003SOL     OW23467   2.388   2.371   5.508 -0.0996  0.0505 -0.1008
 4003SOL    HW123468   2.392   2.421   5.426 -1.3194 -0.2750 -0.3589
 4003SOL    HW223469   2.466   2.318   5.490 -0.4431 -0.9306  1.3027
 4004SOL     OW23470   4.164   3.006   5.424  0.2381 -0.1939 -0.2110
 4004SOL    HW123471   4.219   2.930   5.405  0.4421 -0.3516  1.0152
 4004SOL    HW223472   4.111   3.018   5.344 -1.5449 -0.1241  0.9735
 4005SOL     OW23473   4.640   3.658   1.618 -0.2120 -0.6237 -0.3486
 4005SOL    HW123474   0.008   3.683   1.616 -0.6351  1.1960  1.7823
 4005SOL    HW223475   4.637   3.586   1.556  0.7320  0.6258 -1.8463
 4006SOL     OW23476   1.541   3.569   9.262  0.9964 -0.0356  0.0040
 4006SOL    HW123477   1.474   3.516   9.305  1.2528 -0.4683 -0.1321
 4006SOL    HW223478   1.623   3.522   9.277  0.7705 -0.9766 -1.7833
 4007SOL     OW23479   4.456   1.252  16.662 -0.0490  0.1565 -0.0533
 4007SOL    HW123480   4.402   1.188  16.616 -0.6152  1.1342 -0.7418
 4007SOL    HW223481   4.435   1.320  16.598 -3.1924 -0.7697 -0.0255
 4008SOL     OW23482   2.339   3.909  14.898 -0.0357  0.4659  0.3562
 4008SOL    HW123483   2.306   3.980  14.952  1.1766  2.1848 -1.1615
 4008SOL    HW223484   2.265   3.892  14.840  1.2490 -2.3769 -0.4511
 4009SOL     OW23485   0.283   3.807   3.038 -0.5560  0.2022  0.1117
 4009SOL    HW123486   0.202   3.785   3.083 -0.2330 -1.2819 -0.0408
 4009SOL    HW223487   0.318   3.876   3.095  1.0447 -0.5443  0.0241
 4010SOL     OW23488   2.393   2.400  12.634 -1.0845  0.0150  0.5405
 4010SOL    HW123489   2.440   2.483  12.640  1.2900 -1.1771 -1.4640
 4010SOL    HW223490   2.472   2.348  12.649 -2.1525 -1.5348  0.7072
 4011SOL     OW23491   1.104   2.567   1.600 -0.1079  0.2422  0.6291
 4011SOL    HW123492   1.153   2.486   1.584 -0.7286 -0.2624  1.3286
 4011SOL    HW223493   1.174   2.633   1.590 -0.0447  0.5199  3.0168
 4012SOL     OW23494   2.690   4.494   2.917  0.1226 -0.3457  0.0926
 4012SOL    HW123495   2.768   4.519   2.867 -0.0802 -1.9486 -1.0169
 4012SOL    HW223496   2.706   4.533   3.003 -0.8516 -1.9949  1.0358
 4013SOL     OW23497   4.281   0.098   4.655 -0.4636  1.4834  0.2709
 4013SOL    HW123498   4.232   0.070   4.732 -0.9868 -1.1828 -1.0426
 4013SOL    HW223499   4.264   0.191   4.644 -0.4783  1.4989  0.4293
 4014SOL     OW23500   2.910   0.042   0.233 -0.5425 -0.1088  0.9411
 4014SOL    HW123501   2.881   0.125   0.271 -0.6193  0.4037 -0.2273
 4014SOL    HW223502   2.889   4.708   0.306  0.5603 -0.7335  0.7572
 4015SOL     OW23503   3.095   0.218   9.711  0.2349 -0.0773  0.5601
 4015SOL    HW123504   3.103   0.279   9.785  1.9576 -0.2456  0.5145
 4015SOL    HW223505   3.079   0.135   9.755  1.8104 -0.9676 -0.5499
 4016SOL     OW23506   3.264   3.821   2.878  0.1457  0.1172  0.1601
 4016SOL    HW123507   3.187   3.876   2.864 -0.5447 -1.4088 -2.0404
 4016SOL    HW223508   3.223   3.735   2.881  1.2148 -0.4238 -0.5954
 4017SOL     OW23509   0.231   4.703   5.067 -0.1871  0.3046  0.0404
 4017SOL    HW123510   0.275   4.638   5.121  0.7574  0.8116 -0.1194
 4017SOL    HW223511   0.201   0.030   5.142 -1.0314 -1.6251  1.0302
 4018SOL     OW23512   1.510   3.036   1.958 -0.5054  0.1974 -0.1975
 4018SOL    HW123513   1.571   3.016   2.029  0.7908  1.5715 -0.9233
 4018SOL    HW223514   1.511   2.960   1.899 -1.9303  0.4329 -0.5278
 4019SOL     OW23515   0.289   2.210  14.414 -0.3301 -0.1441 -0.3052
 4019SOL    HW123516   0.333   2.146  14.469 -0.1540  0.6664  0.4954
 4019SOL    HW223517   0.308   2.283  14.474  0.1545 -1.0710  0.6591
 4020SOL     OW23518   3.111   1.187   9.051 -0.0615  0.2818 -0.1181
 4020SOL    HW123519   3.045   1.243   9.009 -1.2391 -1.1191 -0.1192
 4020SOL    HW223520   3.185   1.248   9.052  1.4793 -1.5877 -0.9432
 4021SOL     OW23521   0.877   2.231   7.628  0.4490  0.2066 -0.4005
 4021SOL    HW123522   0.810   2.214   7.562 -0.2960  1.1617  0.1149
 4021SOL    HW223523   0.958   2.251   7.581 -0.1733  0.4453 -1.3482
 4022SOL     OW23524   1.907   3.360   2.075  0.1440  0.3276  0.5636
 4022SOL    HW123525   1.886   3.331   2.164 -2.0541  0.3787  0.0579
 4022SOL    HW223526   1.924   3.279   2.028 -0.9875  0.0851  0.5828
 4023SOL     OW23527   0.390   4.292  13.767  0.0777 -0.5351 -0.3711
 4023SOL    HW123528   0.406   4.289  13.862  3.7598  0.6049 -0.9775
 4023SOL    HW223529   0.459   4.352  13.739  1.6274 -1.1433  2.1183
 4024SOL     OW23530   0.869   2.083   0.025 -0.2712 -0.0655 -0.0465
 4024SOL    HW123531   0.956   2.122   0.034  0.2765 -1.1374 -0.6558
 4024SOL    HW223532   0.867   2.026   0.102  1.4777 -1.6666 -1.1901
 4025SOL     OW23533   1.801   3.158   3.320 -0.0021 -0.3092  0.2772
 4025SOL    HW123534   1.848   3.215   3.381 -0.7494 -0.7044  1.2226
 4025SOL    HW223535   1.778   3.087   3.379  1.3943 -0.3647  0.7417
 4026SOL     OW23536   4.207   0.591   6.939  0.1428 -0.4392 -0.1603
 4026SOL    HW123537   4.191   0.648   7.014 -1.5408  1.2564 -1.8394
 4026SOL    HW223538   4.270   0.532   6.981  0.5653 -0.5811 -0.9836
 4027SOL     OW23539   1.406   4.192   1.455  0.0719  0.7381  0.0928
 4027SOL    HW123540   1.416   4.132   1.529 -2.4206 -0.7089 -0.7385
 4027SOL    HW223541   1.415   4.138   1.376 -0.2490 -1.0381  1.2570
 4028SOL     OW23542   2.578   4.508  12.156 -0.8190  0.1894  0.5174
 4028SOL    HW123543   2.521   4.508  12.079  0.6019  0.7189 -0.5190
 4028SOL    HW223544   2.529   4.481  12.233  2.0167  0.5525  2.4421
 4029SOL     OW23545   3.556   4.643   2.248  0.1971 -0.0525  0.5330
 4029SOL    HW123546   3.583   4.554   2.273  0.8232 -0.1471 -0.4950
 4029SOL    HW223547   3.608   4.668   2.172 -1.1217 -1.8881 -0.9890
 4030SOL     OW23548   1.216   3.713   6.221 -0.5309  0.0438  0.6426
 4030SOL    HW123549   1.267   3.748   6.294  1.0683 -0.9666 -0.0011
 4030SOL    HW223550   1.166   3.639   6.257 -0.6325 -0.3359 -0.2721
 4031SOL     OW23551   0.936   4.208   3.097  0.4824  0.0818  0.2955
 4031SOL    HW123552   0.902   4.252   3.175  0.8306 -0.7419  0.9079
 4031SOL    HW223553   0.931   4.122   3.137  1.0850  0.3579  0.9716
 4032SOL     OW23554   0.830   1.889   1.667 -0.7687  0.5292  0.4799
 4032SOL    HW123555   0.923   1.874   1.685 -0.8838 -0.4659  0.2731
 4032SOL    HW223556   0.815   1.980   1.692 -2.7027 -0.8192  4.2428
 4033SOL     OW23557   0.343   1.412   5.903 -0.9722 -0.6037 -0.2335
 4033SOL    HW123558   0.372   1.496   5.941  1.0234 -0.7017 -1.5342
 4033SOL    HW223559   0.327   1.361   5.982 -0.6466 -0.6209 -0.1762
 4034SOL     OW23560   3.120   1.017   1.877  0.4444 -0.2069 -0.3471
 4034SOL    HW123561   3.098   0.939   1.927  1.9987 -1.0287 -0.9336
 4034SOL    HW223562   3.216   1.018   1.873  0.4876 -1.4473  0.6804
 4035SOL     OW23563   1.288   0.403   2.530  0.1734 -0.4105  0.2741
 4035SOL    HW123564   1.262   0.382   2.620 -0.1625 -0.5933  0.1355
 4035SOL    HW223565   1.204   0.408   2.484  0.8759 -0.2130 -1.0037
 4036SOL     OW23566   2.503   4.257   4.942  0.1061 -0.0536  0.6443
 4036SOL    HW123567   2.496   4.167   4.973  0.3088  0.0092  0.8767
 4036SOL    HW223568   2.572   4.288   5.001 -1.2106  1.0611  1.6192
 4037SOL     OW23569   4.535   2.421  17.351  0.4503  0.1920  0.0958
 4037SOL    HW123570   4.621   2.402  17.387  0.6229  3.6560  1.4939
 4037SOL    HW223571   4.495   2.334  17.352 -1.3758  1.0383  0.9424
 4038SOL     OW23572   1.689   0.008   3.486  0.0413 -0.3622 -0.5707
 4038SOL    HW123573   1.678   0.055   3.403 -2.7367  0.4042  0.2523
 4038SOL    HW223574   1.670   0.077   3.549 -1.4282 -1.7827  0.5300
 4039SOL     OW23575   4.588   3.869   6.603 -0.1515 -0.6110  0.1559
 4039SOL    HW123576   4.607   3.780   6.574  2.0563 -0.7097  1.8888
 4039SOL    HW223577   4.493   3.856   6.597 -0.0648 -2.2490  2.1206
 4040SOL     OW23578   3.531   4.031  16.104  0.3570  0.0543 -0.1230
 4040SOL    HW123579   3.485   4.000  16.026  0.5176 -2.8562  0.9266
 4040SOL    HW223580   3.607   3.974  16.097 -0.0376 -0.4711 -0.1305
 4041SOL     OW23581   3.889   2.126   2.819  0.2041  0.3441  0.5220
 4041SOL    HW123582   3.796   2.113   2.837  0.7796 -1.6089  2.0209
 4041SOL    HW223583   3.920   2.146   2.907 -1.4265 -0.7886  1.3556
 4042SOL     OW23584   3.855   1.584   6.817 -0.1881 -0.2351  0.0425
 4042SOL    HW123585   3.929   1.562   6.874 -2.0065 -0.6128  2.2538
 4042SOL    HW223586   3.810   1.655   6.861 -2.0806 -1.7893  0.6218
 4043SOL     OW23587   2.717   3.318  16.046 -0.0498  0.8003  0.4958
 4043SOL    HW123588   2.734   3.233  16.086  0.4065 -0.0509 -1.4964
 4043SOL    HW223589   2.622   3.325  16.047 -0.2268 -2.0495  1.7560
 4044SOL     OW23590   2.283   1.034   9.343 -0.1788 -0.2342  0.2645
 4044SOL    HW123591   2.256   1.125   9.353  0.8831  0.3000 -1.8738
 4044SOL    HW223592   2.333   1.018   9.423 -0.0983 -1.8965 -0.1096
 4045SOL     OW23593   0.070   0.646   4.594 -0.4697  0.3440  0.0129
 4045SOL    HW123594   0.085   0.701   4.518  0.3588  1.3175  0.8838
 4045SOL    HW223595   0.160   0.616   4.602  0.0385  1.4895 -1.5100
 4046SOL     OW23596   2.823   2.512   1.614 -0.0579 -0.6976  0.0185
 4046SOL    HW123597   2.761   2.531   1.543 -0.7776  0.8960  1.0638
 4046SOL    HW223598   2.852   2.424   1.591 -0.6640 -1.6977  3.0335
 4047SOL     OW23599   1.163   1.117   3.587  0.3882  0.0059 -0.2756
 4047SOL    HW123600   1.074   1.122   3.620  0.0466  1.9805 -1.5012
 4047SOL    HW223601   1.189   1.026   3.600  2.7009  0.9174  1.3870
 4048SOL     OW23602   4.196   2.924   4.311  0.0469  0.1361 -0.0448
 4048SOL    HW123603   4.218   3.009   4.274 -1.6442 -0.2254 -1.9164
 4048SOL    HW223604   4.271   2.912   4.369 -0.8784 -1.2214  0.8532
 4049SOL     OW23605   2.538   1.044  17.249  0.3613 -0.2013  0.3120
 4049SOL    HW123606   2.447   1.017  17.260  0.6567 -2.0986 -1.8511
 4049SOL    HW223607   2.557   1.118  17.306 -0.4060  0.0113  0.2903
 4050SOL     OW23608   3.168   4.147  13.775  0.3893 -0.6191  0.1289
 4050SOL    HW123609   3.221   4.085  13.726  1.4107  1.8378 -1.8436
 4050SOL    HW223610   3.101   4.155  13.707  1.5930  1.5559 -0.7815
 4051SOL     OW23611   4.663   1.219   3.913  0.6282  0.8246  0.1164
 4051SOL    HW123612   4.658   1.159   3.839  0.8500  0.0698  0.7116
 4051SOL    HW223613   4.580   1.204   3.958 -0.0217  0.6089 -1.1668
 4052SOL     OW23614   2.264   3.023   6.938  0.4821 -0.6808  0.8262
 4052SOL    HW123615   2.281   2.930   6.955 -1.6518 -1.2224  0.0591
 4052SOL    HW223616   2.346   3.060   6.909  0.3062 -0.2314  0.9104
 4053SOL     OW23617   2.308   3.138   8.628 -0.0364 -0.1475  0.3736
 4053SOL    HW123618   2.228   3.180   8.660  0.3066  0.2085  0.7542
 4053SOL    HW223619   2.281   3.067   8.568 -0.2980 -1.5343  2.1209
 4054SOL     OW23620   1.450   0.115   3.656 -0.4330 -0.0085  0.9520
 4054SOL    HW123621   1.433   0.024   3.632 -1.2584  0.9850 -2.2790
 4054SOL    HW223622   1.508   0.104   3.731 -0.1311  0.4730  0.7924
 4055SOL     OW23623   4.025   3.011  13.976 -0.4076  0.0902 -0.1426
 4055SOL    HW123624   4.025   3.038  14.068  0.3237  2.6731 -0.8851
 4055SOL    HW223625   4.068   2.926  13.984  1.0206  0.6912 -1.4075
 4056SOL     OW23626   3.182   3.882   7.854  0.1147 -0.1531  0.1109
 4056SOL    HW123627   3.125   3.943   7.806 -0.1009 -0.2932  0.1857
 4056SOL    HW223628   3.122   3.855   7.924  0.5632 -1.0333  0.1474
 4057SOL     OW23629   3.055   1.150  14.599 -0.1104  0.0493 -0.1671
 4057SOL    HW123630   3.002   1.170  14.676 -0.5452 -3.1778  0.3338
 4057SOL    HW223631   3.110   1.228  14.594 -0.0766  0.1273  1.4928
 4058SOL     OW23632   1.142   4.527   8.514  0.0685  0.5236  0.4420
 4058SOL    HW123633   1.198   4.601   8.537  0.2924  1.7308 -4.0883
 4058SOL    HW223634   1.110   4.499   8.600 -0.5870  0.8231  0.2983
 4059SOL     OW23635   0.720   2.667   5.590 -0.2489 -0.2367  0.6933
 4059SOL    HW123636   0.730   2.636   5.680  0.9801  0.2761  0.7370
 4059SOL    HW223637   0.730   2.587   5.538 -2.2266  0.9583 -1.5213
 4060SOL     OW23638   3.328   1.241   2.870  0.2226 -0.2184 -1.0483
 4060SOL    HW123639   3.298   1.257   2.780 -0.3402 -0.8459 -0.9758
 4060SOL    HW223640   3.239   1.243   2.905  1.0058  1.2080  0.8049
 4061SOL     OW23641   4.679   0.516   4.071  0.2893 -0.0698 -0.0115
 4061SOL    HW123642   0.002   0.509   3.988  0.5309  0.2888  0.1014
 4061SOL    HW223643   4.606   0.457   4.050  0.3215 -0.3027  0.5403
 4062SOL     OW23644   1.115   2.715   1.839  0.1888 -0.3022 -0.0909
 4062SOL    HW123645   1.071   2.678   1.763  0.6160 -0.1995 -0.3873
 4062SOL    HW223646   1.202   2.679   1.822 -0.2562 -0.2211 -2.5615
 4063SOL     OW23647   1.341   0.058   3.332  0.0619  0.3516 -0.7087
 4063SOL    HW123648   1.377   4.724   3.398  0.0149 -1.4002 -2.2401
 4063SOL    HW223649   1.416   0.111   3.307  1.7663 -1.7675 -0.0837
 4064SOL     OW23650   3.979   3.009   3.593 -0.3889  0.4637  0.1934
 4064SOL    HW123651   3.894   2.993   3.553  1.5551 -4.2544 -2.1334
 4064SOL    HW223652   3.943   3.019   3.681 -0.7701 -0.7182  0.1730
 4065SOL     OW23653   2.927   0.928  17.077 -0.0811  0.5475 -0.1177
 4065SOL    HW123654   2.839   0.904  17.050 -0.2199  1.8900 -0.8420
 4065SOL    HW223655   2.909   1.021  17.089 -3.7937 -0.5538  2.6834
 4066SOL     OW23656   3.835   4.578   6.541 -0.6011 -0.2739 -0.0509
 4066SOL    HW123657   3.781   4.579   6.620 -0.6274  3.1396 -0.1394
 4066SOL    HW223658   3.860   4.668   6.524  0.3566 -0.3754  0.8515
 4067SOL     OW23659   0.914   0.903   3.042 -0.1702 -0.2770 -0.0665
 4067SOL    HW123660   0.909   0.927   2.950 -0.4006 -0.3923 -0.0863
 4067SOL    HW223661   0.837   0.957   3.061  0.2682 -0.1295  1.2670
 4068SOL     OW23662   3.742   4.453   2.351  0.1025  0.1014 -0.5100
 4068SOL    HW123663   3.763   4.533   2.398 -0.5170  0.4269 -0.7892
 4068SOL    HW223664   3.825   4.406   2.360  0.2123  0.0179 -2.0618
 4069SOL     OW23665   2.082   0.659   6.641 -0.4696  0.4194  0.5096
 4069SOL    HW123666   2.067   0.569   6.612 -1.4395  0.2713  1.4856
 4069SOL    HW223667   2.158   0.686   6.590  0.0942 -1.2892  0.4606
 4070SOL     OW23668   0.445   1.494   4.737 -0.0487  0.4514 -0.5856
 4070SOL    HW123669   0.428   1.416   4.684  0.3313 -0.0117 -0.0390
 4070SOL    HW223670   0.360   1.529   4.766 -0.2818  1.2484 -2.2633
 4071SOL     OW23671   1.232   2.985   7.884 -0.1308  0.0678  0.0291
 4071SOL    HW123672   1.293   3.034   7.828 -1.1504  0.5644 -0.6433
 4071SOL    HW223673   1.151   2.989   7.833 -1.0698 -2.8052  1.3183
 4072SOL     OW23674   4.709   2.165   1.441 -0.1489 -0.3251 -0.3110
 4072SOL    HW123675   0.055   2.158   1.504  0.0976  3.1926 -0.2469
 4072SOL    HW223676   4.632   2.176   1.497 -1.1489 -0.7787 -1.5875
 4073SOL     OW23677   4.263   1.448   6.712  0.1721  0.1418 -0.0812
 4073SOL    HW123678   4.277   1.431   6.805 -1.0973 -0.5441 -0.0177
 4073SOL    HW223679   4.167   1.452   6.713  0.2500  0.5204  2.7820
 4074SOL     OW23680   0.835   0.814   1.422  0.4717 -0.1522 -0.4141
 4074SOL    HW123681   0.843   0.767   1.339 -2.6556  1.8694 -1.8509
 4074SOL    HW223682   0.922   0.800   1.460 -0.3860 -1.6129  1.0192
 4075SOL     OW23683   2.019   3.230   7.697 -0.2323 -0.1143 -0.1355
 4075SOL    HW123684   2.063   3.152   7.663  0.8319  0.6389 -0.4826
 4075SOL    HW223685   1.961   3.194   7.764  0.4704 -0.1078  0.4790
 4076SOL     OW23686   4.400   4.261   8.182 -0.0965 -0.0868 -0.0453
 4076SOL    HW123687   4.452   4.291   8.108 -0.5285 -0.5890 -0.5566
 4076SOL    HW223688   4.318   4.296   8.148 -0.7888  0.6797  2.4222
 4077SOL     OW23689   0.008   0.579   1.741  0.2927  0.3965  0.0859
 4077SOL    HW123690   0.038   0.583   1.651 -2.1098 -0.5344 -0.7371
 4077SOL    HW223691   4.686   0.496   1.735  0.8185  0.0503  0.7898
 4078SOL     OW23692   2.035   2.367   7.744 -0.3478  0.0187 -0.0312
 4078SOL    HW123693   2.093   2.296   7.717 -1.2850 -1.1791  1.0887
 4078SOL    HW223694   1.958   2.313   7.763  0.6112 -1.1092  0.6105
 4079SOL     OW23695   3.372   1.892  15.171 -0.3796 -0.0058  0.1794
 4079SOL    HW123696   3.350   1.822  15.109  0.9369 -0.1933 -0.0656
 4079SOL    HW223697   3.303   1.949  15.138  1.1088  0.2845 -2.3312
 4080SOL     OW23698   0.693   4.486   4.678 -0.2007 -0.5250 -0.0010
 4080SOL    HW123699   0.783   4.453   4.679 -0.2243 -0.6256 -0.9476
 4080SOL    HW223700   0.654   4.450   4.599  3.1653  2.1476 -2.9288
 4081SOL     OW23701   4.361   1.934   3.066 -0.0010 -0.2516  0.3422
 4081SOL    HW123702   4.402   1.908   2.983 -1.2625  0.4163 -0.4939
 4081SOL    HW223703   4.281   1.882   3.061  0.6727 -1.5081  2.7402
 4082SOL     OW23704   0.898   3.891   5.421  0.4938 -0.2248 -0.5643
 4082SOL    HW123705   0.893   3.929   5.333  0.7793 -0.7725 -0.8177
 4082SOL    HW223706   0.976   3.939   5.446  0.3996 -0.7524  0.7123
 4083SOL     OW23707   1.427   3.372   0.580 -0.2788 -0.6878 -0.3077
 4083SOL    HW123708   1.501   3.431   0.597 -0.0282 -1.6835  2.1568
 4083SOL    HW223709   1.405   3.397   0.491 -2.2303  1.6876  0.8738
 4084SOL     OW23710   0.840   4.554   7.117  0.0272 -0.8916  0.3315
 4084SOL    HW123711   0.849   4.521   7.206 -0.0047 -0.7184  0.3982
 4084SOL    HW223712   0.822   4.471   7.072 -1.1226 -1.1490  1.2656
 4085SOL     OW23713   1.429   2.074  17.589  0.0825  0.1602 -0.3144
 4085SOL    HW123714   1.501   2.044  17.534  0.1679 -2.6696  1.3389
 4085SOL    HW223715   1.388   1.995  17.624  0.8156  1.1480  2.8192
 4086SOL     OW23716   1.629   3.811   1.576 -0.0040 -0.3376  0.6047
 4086SOL    HW123717   1.580   3.732   1.600 -0.4000 -0.5127 -0.8078
 4086SOL    HW223718   1.651   3.792   1.485 -1.3649 -2.0313  0.6246
 4087SOL     OW23719   4.475   3.998  10.270 -0.2945 -0.2345  0.2949
 4087SOL    HW123720   4.437   3.911  10.265 -0.4560 -0.1755  0.4810
 4087SOL    HW223721   4.411   4.052  10.224 -1.2126 -1.6971 -0.1327
 4088SOL     OW23722   1.867   0.391  11.370  0.2293 -0.6219 -0.0415
 4088SOL    HW123723   1.923   0.315  11.378  1.5708  0.4139  0.3583
 4088SOL    HW223724   1.902   0.431  11.291  2.6228 -0.7844  0.9293
 4089SOL     OW23725   1.845   0.527  15.586 -0.0995 -0.3689 -0.0551
 4089SOL    HW123726   1.836   0.501  15.678 -0.5228  1.6824  0.4711
 4089SOL    HW223727   1.920   0.477  15.553 -0.9619 -1.6699 -0.0635
 4090SOL     OW23728   2.449   2.101   8.546 -0.4121 -0.2817 -0.1946
 4090SOL    HW123729   2.378   2.076   8.606 -0.4675  0.9088  0.2543
 4090SOL    HW223730   2.506   2.143   8.611 -0.1598  0.2748 -0.7788
 4091SOL     OW23731   0.313   0.945   0.951 -0.2437 -0.2780  0.4317
 4091SOL    HW123732   0.251   0.963   0.881  0.6536 -0.9165 -0.5261
 4091SOL    HW223733   0.298   1.018   1.011 -1.0686  0.5889 -0.8391
 4092SOL     OW23734   2.153   3.952   3.609 -0.1579 -0.4863  0.0365
 4092SOL    HW123735   2.112   3.902   3.538 -0.1875  0.4979 -0.6393
 4092SOL    HW223736   2.237   3.906   3.609 -0.6653 -1.4125 -0.6211
 4093SOL     OW23737   3.625   2.788   3.412  0.3295  0.0006  0.4426
 4093SOL    HW123738   3.661   2.738   3.339  0.5578 -1.2741  1.4233
 4093SOL    HW223739   3.534   2.763   3.395  0.6323 -1.0565  0.4078
 4094SOL     OW23740   3.530   3.010   6.637  0.1921  0.1619  0.1000
 4094SOL    HW123741   3.492   3.096   6.653 -1.2547 -0.4935  0.1393
 4094SOL    HW223742   3.618   3.025   6.603 -0.5460  0.8814 -1.4983
 4095SOL     OW23743   3.598   3.811   9.395 -0.1655  0.3161 -0.1052
 4095SOL    HW123744   3.663   3.852   9.338  0.3438  1.4866  1.3183
 4095SOL    HW223745   3.587   3.865   9.474 -0.9682  2.0279 -1.3993
 4096SOL     OW23746   3.859   4.029   6.811 -0.0463  0.1730  0.4715
 4096SOL    HW123747   3.814   4.085   6.874  0.3172 -1.0429  1.8190
 4096SOL    HW223748   3.891   3.962   6.872  1.2264  0.9409  0.6448
 4097SOL     OW23749   1.735   2.527   8.999  0.3350  0.0628  0.0131
 4097SOL    HW123750   1.830   2.522   8.990  0.2248  1.0606 -1.7072
 4097SOL    HW223751   1.716   2.620   9.014 -2.3534 -0.9056  2.6800
 4098SOL     OW23752   4.177   3.660  10.039  0.4285 -0.8687 -0.0475
 4098SOL    HW123753   4.143   3.572  10.052  0.0372 -0.2757  2.9138
 4098SOL    HW223754   4.135   3.682   9.955 -1.2835 -0.9699  0.7934
 4099SOL     OW23755   4.504   3.370   4.163  0.7116 -0.1976 -0.1313
 4099SOL    HW123756   4.530   3.314   4.235  2.3716 -0.6004 -1.0352
 4099SOL    HW223757   4.569   3.335   4.102 -0.3208 -0.6204 -0.9750
 4100SOL     OW23758   0.087   4.008   7.092  0.1106  0.9570 -0.0800
 4100SOL    HW123759   0.008   3.975   7.049  0.6845 -0.3180 -0.1354
 4100SOL    HW223760   0.040   4.038   7.170 -2.0008 -0.2314 -0.8901
 4101SOL     OW23761   2.202   4.646   4.925  0.0245 -0.9316 -0.0626
 4101SOL    HW123762   2.208   0.015   4.944  0.7316 -1.1834  0.9589
 4101SOL    HW223763   2.165   4.627   5.012  1.4466 -4.4134 -0.2120
 4102SOL     OW23764   4.713   1.225  10.272 -0.0433 -0.0214 -0.0072
 4102SOL    HW123765   0.024   1.185  10.352 -0.3552  0.2735  0.2809
 4102SOL    HW223766   4.644   1.162  10.251  0.4846 -0.6634  0.1806
 4103SOL     OW23767   2.532   4.049  10.047  0.2258 -0.7825 -0.0191
 4103SOL    HW123768   2.551   3.956  10.062 -3.1501 -1.1810  1.8702
 4103SOL    HW223769   2.436   4.052  10.050  0.3099  1.5928 -0.1049
 4104SOL     OW23770   2.471   2.829   2.873  0.1042  0.0342 -0.1182
 4104SOL    HW123771   2.535   2.796   2.809 -0.4024 -1.4751  0.1805
 4104SOL    HW223772   2.409   2.757   2.868  1.1544 -0.9245  0.6702
 4105SOL     OW23773   2.704   2.376  16.366  0.2684  0.0127  0.0941
 4105SOL    HW123774   2.618   2.372  16.409 -0.1273 -0.8457 -0.7826
 4105SOL    HW223775   2.683   2.339  16.280  0.5696  0.8611 -0.3472
 4106SOL     OW23776   3.982   0.002   8.622 -0.2595 -0.5071  0.4111
 4106SOL    HW123777   3.958   4.662   8.557  1.4156  1.0859 -1.7913
 4106SOL    HW223778   4.056   0.046   8.579 -0.8641 -0.0483 -0.1475
 4107SOL     OW23779   0.984   2.855  17.268 -0.6626  0.1953 -0.2351
 4107SOL    HW123780   1.076   2.850  17.292 -0.4854 -1.3028 -1.2384
 4107SOL    HW223781   0.957   2.941  17.300  0.7257  1.0098 -1.2694
 4108SOL     OW23782   2.187   3.891   5.793 -0.0167  0.6245 -0.6039
 4108SOL    HW123783   2.212   3.983   5.781  1.3599  0.5125  1.3845
 4108SOL    HW223784   2.201   3.850   5.707  1.3518 -0.9670  0.3742
 4109SOL     OW23785   2.404   4.176   4.503  0.2181 -0.5996  0.0482
 4109SOL    HW123786   2.399   4.259   4.548  3.6874 -0.8373  0.8931
 4109SOL    HW223787   2.440   4.118   4.571  1.4180 -0.3703 -0.3813
 4110SOL     OW23788   1.137   3.122   8.115  0.0086 -0.1408  0.1514
 4110SOL    HW123789   1.188   3.076   8.048  1.2955  3.1227 -1.1133
 4110SOL    HW223790   1.066   3.064   8.143 -0.7194  0.8470  0.3482
 4111SOL     OW23791   3.847   1.387   7.022 -0.1385  0.2145 -0.0125
 4111SOL    HW123792   3.762   1.351   6.996 -0.0497  1.2882 -1.8084
 4111SOL    HW223793   3.903   1.310   7.010 -1.1436 -0.8703  2.3498
 4112SOL     OW23794   3.919   4.361   3.059  0.6065 -0.3002 -0.0762
 4112SOL    HW123795   3.947   4.281   3.014  0.6819  0.8674 -2.1227
 4112SOL    HW223796   3.940   4.342   3.150 -1.5775  0.1285  0.5106
 4113SOL     OW23797   0.089   3.915  16.219  0.1802  0.0329 -0.0556
 4113SOL    HW123798   0.130   3.878  16.297  0.3149 -1.7283 -0.9590
 4113SOL    HW223799   4.721   3.919  16.242 -0.1236  0.5322 -1.3204
 4114SOL     OW23800   2.641   2.305   4.935 -0.6745  0.1993  0.4858
 4114SOL    HW123801   2.734   2.329   4.940 -0.5295 -0.3625  0.4859
 4114SOL    HW223802   2.628   2.282   5.027  1.5493  0.9744  0.9894
 4115SOL     OW23803   1.089   0.724   1.657 -0.2603  0.3913  0.1632
 4115SOL    HW123804   1.180   0.718   1.686  0.3895 -0.4586 -2.0661
 4115SOL    HW223805   1.048   0.645   1.693 -0.6707 -0.0386 -1.2428
 4116SOL     OW23806   1.138   4.418   8.261  0.2128 -0.2064 -0.5513
 4116SOL    HW123807   1.157   4.459   8.345 -1.9498  0.7157 -0.5139
 4116SOL    HW223808   1.043   4.412   8.272  0.2631  1.6020  0.9508
 4117SOL     OW23809   0.730   3.787   5.125  0.6057 -0.0733 -0.5400
 4117SOL    HW123810   0.767   3.874   5.116 -1.1767  0.6654 -0.8176
 4117SOL    HW223811   0.769   3.760   5.208  1.0142  0.0993 -0.6773
 4118SOL     OW23812   3.738   1.408   6.458  0.0284 -0.2693  0.1005
 4118SOL    HW123813   3.675   1.439   6.393 -1.0566 -0.6040  0.9943
 4118SOL    HW223814   3.715   1.475   6.522  0.6231  0.4185 -0.4031
 4119SOL     OW23815   2.063   0.979  12.667 -0.1820 -0.0859  0.5266
 4119SOL    HW123816   1.968   0.985  12.657 -0.0773  0.1652 -0.3419
 4119SOL    HW223817   2.086   1.012  12.754  0.7232 -2.0231  1.0352
 4120SOL     OW23818   1.222   0.384  11.840 -0.4389  0.0237 -0.3560
 4120SOL    HW123819   1.136   0.405  11.875  0.2596 -0.0730  1.4542
 4120SOL    HW223820   1.198   0.331  11.764  0.1378 -0.8274  0.0449
 4121SOL     OW23821   0.174   4.306   3.423 -0.6083  0.0160  0.0213
 4121SOL    HW123822   0.129   4.319   3.339 -2.0348 -0.7203  0.6676
 4121SOL    HW223823   0.119   4.236   3.458  3.4840 -2.6524  1.0424
 4122SOL     OW23824   1.149   0.283  12.710 -0.1686 -0.3265  0.2427
 4122SOL    HW123825   1.135   0.236  12.628  0.7345 -1.3917  0.6961
 4122SOL    HW223826   1.077   0.243  12.760  0.2623  0.4001  1.4417
 4123SOL     OW23827   4.430   3.619   4.635 -0.5171 -0.2540  0.4051
 4123SOL    HW123828   4.476   3.676   4.574 -1.9749  1.1169  0.5777
 4123SOL    HW223829   4.365   3.576   4.579  3.2623 -2.6616 -2.0825
 4124SOL     OW23830   2.879   4.364  17.668 -0.7006 -0.2729 -0.4345
 4124SOL    HW123831   2.900   4.353   0.061  0.2448 -2.0977 -0.8703
 4124SOL    HW223832   2.795   4.318  17.663  0.4644 -2.5994  1.3862
 4125SOL     OW23833   0.701   0.887  10.747  0.4716  0.2575  0.7838
 4125SOL    HW123834   0.759   0.925  10.682 -2.1211  0.3245 -1.4552
 4125SOL    HW223835   0.618   0.886  10.700 -0.7394 -2.1777  2.9466
 4126SOL     OW23836   2.294   1.014   1.043 -0.2005 -0.1508  0.1708
 4126SOL    HW123837   2.319   1.071   0.970 -4.4119  0.0721 -1.1126
 4126SOL    HW223838   2.202   0.997   1.025 -0.0766 -1.1682  0.5007
 4127SOL     OW23839   1.734   0.703   4.962 -0.3686  0.4221 -0.0125
 4127SOL    HW123840   1.698   0.791   4.971 -1.1688 -0.3290  4.1157
 4127SOL    HW223841   1.693   0.663   5.039  2.2491  2.2416  2.3183
 4128SOL     OW23842   1.642   3.270  11.488 -0.0720  0.1911  0.1947
 4128SOL    HW123843   1.651   3.365  11.497  1.2047  0.0904 -0.0786
 4128SOL    HW223844   1.605   3.272  11.400 -0.1793 -1.7881  0.1993
 4129SOL     OW23845   3.293   3.539   4.010  0.3667  0.2654 -0.2579
 4129SOL    HW123846   3.257   3.479   4.076  3.3824 -0.7376  0.4720
 4129SOL    HW223847   3.220   3.551   3.948  0.2745 -0.1845 -0.2392
 4130SOL     OW23848   1.324   0.335   7.483  0.1346 -0.7024 -0.4424
 4130SOL    HW123849   1.353   0.244   7.473  0.0159 -0.7736 -0.1380
 4130SOL    HW223850   1.334   0.366   7.393 -3.0194 -2.7426 -1.4895
 4131SOL     OW23851   0.149   2.974   9.992  0.2061  0.1152 -0.1001
 4131SOL    HW123852   0.095   2.906  10.033 -0.1748 -0.5216 -1.6702
 4131SOL    HW223853   0.128   3.040  10.059 -1.6276  0.0157 -0.5875
 4132SOL     OW23854   1.656   0.192   8.627  0.1501 -0.6349 -0.4862
 4132SOL    HW123855   1.577   0.238   8.598 -0.9732 -1.5676  1.1175
 4132SOL    HW223856   1.714   0.268   8.627  0.0733 -0.5815  1.2056
 4133SOL     OW23857   0.467   4.084   6.659 -0.5504  0.1292  0.1655
 4133SOL    HW123858   0.530   4.014   6.643 -0.3246  0.5670 -0.9117
 4133SOL    HW223859   0.450   4.116   6.570  0.4687 -0.2893 -0.1723
 4134SOL     OW23860   2.699   2.041  16.172 -0.1863  0.5481  0.6179
 4134SOL    HW123861   2.638   2.112  16.193  0.5035  1.1791  0.5285
 4134SOL    HW223862   2.644   1.971  16.138  1.7512 -0.3167 -0.7243
 4135SOL     OW23863   0.910   1.905   4.369 -0.1512  0.2655 -0.3911
 4135SOL    HW123864   0.936   1.859   4.449 -1.2518  0.0613 -0.1488
 4135SOL    HW223865   0.815   1.893   4.370 -0.0996  0.0349  2.3277
 4136SOL     OW23866   4.345   1.981   3.513  0.1719  0.5193 -0.1914
 4136SOL    HW123867   4.331   2.047   3.445 -0.7840  1.8812  1.3115
 4136SOL    HW223868   4.399   2.027   3.577  1.0457 -0.8386  0.0341
 4137SOL     OW23869   2.310   1.146   7.909 -0.2362  0.5088  0.3716
 4137SOL    HW123870   2.219   1.169   7.925 -0.5791 -0.4458 -0.1766
 4137SOL    HW223871   2.312   1.052   7.928 -0.0296  0.3838 -0.2424
 4138SOL     OW23872   0.308   1.787  12.097 -0.5746 -0.0464 -0.3802
 4138SOL    HW123873   0.256   1.848  12.150  0.6353 -1.2231  2.2040
 4138SOL    HW223874   0.327   1.848  12.026  2.3724 -0.0451  0.3927
 4139SOL     OW23875   3.241   0.059   8.005 -0.1530  0.5591  0.2677
 4139SOL    HW123876   3.222   0.001   7.931 -2.0327 -0.0012  1.1922
 4139SOL    HW223877   3.334   0.038   8.018  0.1382  1.6561 -0.0181
 4140SOL     OW23878   3.667   4.617   6.736 -0.3384  0.7876  0.4884
 4140SOL    HW123879   3.596   4.673   6.705 -0.4834  0.8442  0.9249
 4140SOL    HW223880   3.623   4.550   6.787  0.0285 -0.0432 -0.2960
 4141SOL     OW23881   0.677   3.080   7.892  0.9630 -0.3698  0.0120
 4141SOL    HW123882   0.739   3.021   7.934  0.8035 -0.5103  0.0476
 4141SOL    HW223883   0.633   3.106   7.973  0.4075  2.1954 -1.0902
 4142SOL     OW23884   1.479   2.058  10.272 -0.9493  0.3296  0.0078
 4142SOL    HW123885   1.517   2.040  10.358  0.5461 -0.1342 -0.7538
 4142SOL    HW223886   1.526   1.994  10.218 -0.4226  2.3757 -1.9430
 4143SOL     OW23887   2.391   2.512   5.769 -0.3746  0.1295 -0.6420
 4143SOL    HW123888   2.326   2.583   5.771  0.0221  0.4786 -0.1644
 4143SOL    HW223889   2.356   2.461   5.696 -0.0725 -0.0365 -0.6691
 4144SOL     OW23890   4.280   1.983  15.387  0.7453 -0.1029  0.1459
 4144SOL    HW123891   4.305   1.964  15.478  0.3752  0.6375  0.4063
 4144SOL    HW223892   4.232   2.065  15.403 -0.5833 -1.0758  1.1601
 4145SOL     OW23893   4.172   4.665  17.610 -0.3432 -0.2007 -0.0172
 4145SOL    HW123894   4.155   4.597  17.676  1.1766 -0.2292  0.3661
 4145SOL    HW223895   4.215   4.605  17.549  0.0125 -0.2484  0.2744
 4146SOL     OW23896   3.506   2.600   3.764  0.5000  0.0160 -0.1105
 4146SOL    HW123897   3.582   2.657   3.750 -1.2545  2.4989  0.4520
 4146SOL    HW223898   3.474   2.642   3.844  0.1699 -1.7203  0.6575
 4147SOL     OW23899   1.326   4.375   4.619 -0.2385 -0.3460  0.0983
 4147SOL    HW123900   1.390   4.379   4.689  0.4842 -1.2766 -0.4999
 4147SOL    HW223901   1.379   4.389   4.540 -1.0283  0.5596 -0.2754
 4148SOL     OW23902   2.878   0.637   5.825 -0.3720 -0.3782 -0.9113
 4148SOL    HW123903   2.792   0.674   5.844  0.4293  0.8619  0.2998
 4148SOL    HW223904   2.922   0.669   5.904 -0.4262  0.2802 -1.1505
 4149SOL     OW23905   3.841   3.355  15.066 -0.0042  0.0450 -0.1179
 4149SOL    HW123906   3.756   3.392  15.042 -0.9798  0.5340  4.0624
 4149SOL    HW223907   3.893   3.390  14.993 -0.1956  0.5559 -0.0074
 4150SOL     OW23908   4.489   2.132   6.719  0.0433 -0.4526 -0.6106
 4150SOL    HW123909   4.491   2.036   6.721 -2.7536 -0.5031  0.5108
 4150SOL    HW223910   4.426   2.133   6.647 -1.1597 -1.2480  0.4163
 4151SOL     OW23911   3.007   1.220   3.141 -0.2052 -0.7027  0.2155
 4151SOL    HW123912   2.993   1.313   3.124 -0.2591 -0.6877  0.3483
 4151SOL    HW223913   2.969   1.192   3.057  1.7524 -1.2585 -0.4931
 4152SOL     OW23914   1.938   2.961  13.963 -0.0524 -0.4322 -0.6384
 4152SOL    HW123915   1.919   2.986  13.872 -1.5397 -0.4600 -0.3384
 4152SOL    HW223916   1.966   3.049  13.989  0.7090 -0.1736 -2.3501
 4153SOL     OW23917   1.518   3.344   3.394  0.0067  0.5387 -0.4616
 4153SOL    HW123918   1.516   3.333   3.299 -2.1007 -1.2499 -0.2028
 4153SOL    HW223919   1.577   3.419   3.399 -1.5934  1.8196 -0.7965
 4154SOL     OW23920   2.367   4.287   2.231 -0.0073  0.8373 -0.2597
 4154SOL    HW123921   2.418   4.348   2.179 -1.2909 -0.1891 -2.7013
 4154SOL    HW223922   2.419   4.208   2.218  1.5363  1.7246  0.5428
 4155SOL     OW23923   2.453   2.911   2.427 -0.0113 -0.3517 -0.1164
 4155SOL    HW123924   2.395   2.969   2.477 -0.0159 -1.0321  0.6752
 4155SOL    HW223925   2.399   2.832   2.418 -1.8620  0.9035 -0.1018
 4156SOL     OW23926   2.637   2.857   8.199 -0.1081  0.2252 -0.8867
 4156SOL    HW123927   2.604   2.896   8.118  0.2986  2.0434 -0.1743
 4156SOL    HW223928   2.617   2.764   8.191 -2.2942  0.4976  1.3833
 4157SOL     OW23929   2.602   4.558   7.311  0.4545  0.0354 -0.1878
 4157SOL    HW123930   2.576   4.612   7.236  1.7196  1.5915  0.4936
 4157SOL    HW223931   2.686   4.598   7.330 -0.3272  0.8592  1.5088
 4158SOL     OW23932   1.242   3.444   6.507 -0.3946 -0.1427 -0.3882
 4158SOL    HW123933   1.236   3.532   6.544  0.9219  0.0763 -0.6643
 4158SOL    HW223934   1.265   3.391   6.583 -1.2924  0.0185 -0.0122
 4159SOL     OW23935   1.448   2.423   3.536  0.1783  0.2354  0.5583
 4159SOL    HW123936   1.409   2.445   3.452  2.7927  1.2976 -0.3750
 4159SOL    HW223937   1.528   2.383   3.501 -2.1315 -4.8779  1.1222
 4160SOL     OW23938   2.729   0.159   7.677  0.5768 -0.4711 -0.3840
 4160SOL    HW123939   2.728   0.241   7.727 -1.4722 -0.7047 -0.0300
 4160SOL    HW223940   2.667   0.113   7.734  1.6657 -0.6928  0.6299
 4161SOL     OW23941   1.735   3.351   8.027  0.2670 -0.1642  0.0034
 4161SOL    HW123942   1.762   3.259   8.024 -1.6380 -0.7541  0.6447
 4161SOL    HW223943   1.665   3.338   8.091  1.9596  1.2536  2.1446
 4162SOL     OW23944   1.224   0.482   3.814  0.4291  0.2736  0.0356
 4162SOL    HW123945   1.270   0.542   3.755 -0.9784  0.5856 -0.7439
 4162SOL    HW223946   1.216   0.404   3.759 -1.1021  1.3798 -1.3289
 4163SOL     OW23947   2.253   0.485  16.639 -0.1552  0.2892 -0.4273
 4163SOL    HW123948   2.185   0.433  16.681  0.8779 -0.2391  0.5984
 4163SOL    HW223949   2.210   0.495  16.554  0.8418  3.2953 -0.5896
 4164SOL     OW23950   3.897   0.482   7.323 -0.3656  0.0357  0.1289
 4164SOL    HW123951   3.899   0.428   7.402  1.3894  0.9580  0.7063
 4164SOL    HW223952   3.987   0.472   7.291  0.3191  2.6868  1.2017
 4165SOL     OW23953   3.306   1.797   2.240  0.0337  0.1738 -0.5787
 4165SOL    HW123954   3.302   1.788   2.336  1.5631  0.2096 -0.5086
 4165SOL    HW223955   3.214   1.794   2.213 -0.3133  0.4032  0.5790
 4166SOL     OW23956   3.326   4.192   6.153 -0.4198 -0.6121 -0.1442
 4166SOL    HW123957   3.418   4.167   6.165 -0.2200  0.9901  1.6498
 4166SOL    HW223958   3.348   4.254   6.083 -0.0594  1.0419  1.4387
 4167SOL     OW23959   1.909   4.315  15.751  0.3061 -0.3304  0.0678
 4167SOL    HW123960   1.816   4.333  15.738  0.5434  1.5970  1.0693
 4167SOL    HW223961   1.953   4.378  15.694 -0.4804  0.2593  0.1310
 4168SOL     OW23962   3.486   0.097   0.911  0.1818 -0.0596 -0.4688
 4168SOL    HW123963   3.504   0.017   0.961 -1.8833 -0.2847 -0.1099
 4168SOL    HW223964   3.426   0.152   0.961  1.3854  3.1119 -2.5399
 4169SOL     OW23965   2.450   1.358   3.043  0.0586 -0.4501 -0.6975
 4169SOL    HW123966   2.451   1.318   2.956 -0.4189 -1.5032 -0.2200
 4169SOL    HW223967   2.496   1.290   3.092  1.3438  1.0748  0.2147
 4170SOL     OW23968   1.044   4.052  10.280  0.0149 -0.0245  0.3052
 4170SOL    HW123969   1.072   4.143  10.292 -1.7775  0.6788 -0.9194
 4170SOL    HW223970   1.129   4.010  10.263  1.8284  4.1384 -0.9159
 4171SOL     OW23971   4.264   3.332   7.411  0.1164  0.1235 -0.5260
 4171SOL    HW123972   4.196   3.265   7.417 -0.8884  1.1685 -0.3675
 4171SOL    HW223973   4.213   3.412   7.402 -0.7554 -0.6616 -2.5090
 4172SOL     OW23974   1.957   4.505   4.416  0.4696  0.3624  0.4987
 4172SOL    HW123975   1.959   4.526   4.509 -0.8055  0.9840  0.3968
 4172SOL    HW223976   2.026   4.557   4.374 -0.1075  0.9986  0.3288
 4173SOL     OW23977   0.233   1.743   0.807  0.4492 -0.6063 -0.2470
 4173SOL    HW123978   0.324   1.763   0.786 -0.8298  2.8951 -2.4103
 4173SOL    HW223979   0.249   1.694   0.888 -0.6947  0.1496  0.4387
 4174SOL     OW23980   1.380   2.257   7.709  0.1834 -0.0099  0.2944
 4174SOL    HW123981   1.440   2.186   7.684  1.6681  1.0801  0.7430
 4174SOL    HW223982   1.422   2.320   7.650 -0.5406 -0.8515 -1.1300
 4175SOL     OW23983   1.248   3.544  14.521  0.7448  0.3660 -0.9474
 4175SOL    HW123984   1.166   3.589  14.503 -2.0675 -3.9572  0.9608
 4175SOL    HW223985   1.222   3.463  14.565  2.0259  0.4040 -0.1323
 4176SOL     OW23986   4.642   2.350   0.021  0.4709 -0.1386 -0.2117
 4176SOL    HW123987   4.721   2.368  17.670  1.3249  0.1461  1.2183
 4176SOL    HW223988   4.623   2.267  17.679 -2.4405 -0.1718  1.2174
 4177SOL     OW23989   1.714   0.337  12.510 -0.0100 -0.5313 -0.3202
 4177SOL    HW123990   1.667   0.405  12.558 -0.3365 -0.8100 -0.2442
 4177SOL    HW223991   1.766   0.289  12.575  1.6614  0.8609 -0.6400
 4178SOL     OW23992   2.202   1.998   6.249  0.5219  0.7477 -0.0309
 4178SOL    HW123993   2.186   1.905   6.234 -0.0424  0.9508 -0.6857
 4178SOL    HW223994   2.198   2.006   6.344  1.4295  0.0274  0.0619
 4179SOL     OW23995   1.877   4.049   2.988 -0.0300 -0.1444  0.8865
 4179SOL    HW123996   1.800   4.049   2.932 -0.8553 -0.7735  2.0140
 4179SOL    HW223997   1.880   4.133   3.033 -0.3118  0.0106  0.6128
 4180SOL     OW23998   1.889   3.865   4.330 -0.1591 -0.6308  0.2808
 4180SOL    HW123999   1.817   3.919   4.362 -0.4048 -1.8195  1.7607
 4180SOL    HW224000   1.837   3.837   4.255  3.4045 -2.7132 -1.4148
 4181SOL     OW24001   0.669   2.557   9.596 -0.4628  0.0777 -0.0960
 4181SOL    HW124002   0.741   2.525   9.542 -0.8877 -1.7898  0.4364
 4181SOL    HW224003   0.687   2.513   9.679 -1.8029  1.3103  0.8258
 4182SOL     OW24004   4.268   3.908   6.213 -0.0814  0.2262  0.2740
 4182SOL    HW124005   4.192   3.912   6.271 -0.0185 -2.3311  0.5082
 4182SOL    HW224006   4.324   3.844   6.257 -0.1257 -1.2023 -1.7554
 4183SOL     OW24007   1.720   0.498   2.664  0.3510  0.6200  0.4845
 4183SOL    HW124008   1.806   0.465   2.690 -0.2105 -2.0234 -1.0403
 4183SOL    HW224009   1.729   0.593   2.667  2.8037  0.3520  1.6697
 4184SOL     OW24010   2.308   2.808   5.701  0.2926  0.0830  0.1974
 4184SOL    HW124011   2.400   2.808   5.675 -0.1633  0.8811 -1.3888
 4184SOL    HW224012   2.309   2.900   5.726  0.2153  0.5887 -1.6678
 4185SOL     OW24013   4.057   4.368   9.223 -0.4069  0.0770  0.8672
 4185SOL    HW124014   4.118   4.442   9.232  0.9360 -0.7591 -1.4559
 4185SOL    HW224015   3.977   4.403   9.262 -0.7211 -2.1156  2.1798
 4186SOL     OW24016   3.521   1.418   4.606  0.4206 -0.2956  0.1477
 4186SOL    HW124017   3.524   1.514   4.599 -4.0565 -0.2408 -1.1141
 4186SOL    HW224018   3.464   1.388   4.536 -2.5489 -0.7647  2.7470
 4187SOL     OW24019   2.092   3.295   5.389  0.1097  0.0559 -0.2816
 4187SOL    HW124020   2.038   3.327   5.317 -0.9933 -1.6439 -0.2183
 4187SOL    HW224021   2.066   3.348   5.464  0.6017  1.4248 -1.0738
 4188SOL     OW24022   2.432   0.872   9.170 -0.4347 -0.1203  0.0381
 4188SOL    HW124023   2.390   0.930   9.233 -1.5823 -0.1742 -0.6701
 4188SOL    HW224024   2.388   0.880   9.085  0.3924  0.3184 -0.3590
 4189SOL     OW24025   3.637   3.909   3.835  0.5242 -0.0514 -0.2526
 4189SOL    HW124026   3.591   3.992   3.823  3.2522  1.0124 -3.2476
 4189SOL    HW224027   3.569   3.851   3.801  0.4786  1.3028 -2.4166
 4190SOL     OW24028   3.429   4.553   1.303 -0.3559  0.0220  0.1274
 4190SOL    HW124029   3.480   4.565   1.383  1.4663  0.7738 -1.1630
 4190SOL    HW224030   3.404   4.461   1.307 -1.1399  0.3604  3.8098
 4191SOL     OW24031   1.069   2.244   0.428  0.2127  0.1895  0.1628
 4191SOL    HW124032   0.978   2.232   0.399  0.8593  1.3066 -2.3543
 4191SOL    HW224033   1.109   2.169   0.384 -0.6094  0.4414 -1.0341
 4192SOL     OW24034   0.830   3.013   4.196  0.4887 -0.3197  0.3252
 4192SOL    HW124035   0.813   3.019   4.290  0.6369  0.0438  0.3287
 4192SOL    HW224036   0.906   2.955   4.198  0.2249 -0.6570  0.6493
 4193SOL     OW24037   4.365   0.461   7.107  0.4004 -0.2812 -0.4146
 4193SOL    HW124038   4.459   0.480   7.105  0.3041  0.3625  2.3822
 4193SOL    HW224039   4.374   0.367   7.087 -0.1609 -0.0573 -1.7202
 4194SOL     OW24040   0.871   4.363   0.425 -0.0157 -0.9998 -0.3374
 4194SOL    HW124041   0.781   4.364   0.393 -0.1099  1.0866 -0.0085
 4194SOL    HW224042   0.913   4.405   0.349 -1.1504  1.5841  0.4628
 4195SOL     OW24043   4.605   4.557   1.750  0.1183 -0.6060  0.8071
 4195SOL    HW124044   4.699   4.575   1.750 -0.8698  4.6186 -3.9788
 4195SOL    HW224045   4.594   4.482   1.808 -2.5107  0.5542  1.8369
 4196SOL     OW24046   1.649   1.886  13.281  0.2086  0.0419 -0.1641
 4196SOL    HW124047   1.614   1.949  13.218  0.5848  0.5158  0.1047
 4196SOL    HW224048   1.720   1.841  13.235 -0.1885  0.2723 -1.0039
 4197SOL     OW24049   4.692   0.886   4.737 -0.0870 -0.1512 -0.0216
 4197SOL    HW124050   4.710   0.792   4.736  0.4230 -0.0565  1.0071
 4197SOL    HW224051   0.023   0.915   4.809 -2.1742  2.4641  0.5636
 4198SOL     OW24052   3.566   1.302   1.157  0.7980  0.4067 -0.6393
 4198SOL    HW124053   3.583   1.380   1.210 -3.2775  0.1668  1.0437
 4198SOL    HW224054   3.618   1.328   1.081  0.1032  2.4547 -0.4012
 4199SOL     OW24055   2.629   1.091   3.976  0.2107 -0.2810  0.4766
 4199SOL    HW124056   2.607   0.999   3.987 -0.6922 -0.2897 -1.2767
 4199SOL    HW224057   2.569   1.108   3.902  2.0902  0.0200 -0.9859
 4200SOL     OW24058   3.714   3.577  15.254 -0.2615  0.3670  0.6506
 4200SOL    HW124059   3.734   3.662  15.215  1.3806  0.3614  1.5046
 4200SOL    HW224060   3.802   3.541  15.251  0.2640  1.7708 -0.9422
 4201SOL     OW24061   4.110   3.690   4.447 -0.0172 -0.1605 -0.0421
 4201SOL    HW124062   4.201   3.717   4.461 -0.5527  0.5227  2.1708
 4201SOL    HW224063   4.080   3.697   4.538  2.7887 -1.5097  0.9908
 4202SOL     OW24064   1.457   2.722   5.179  0.6692  0.6481 -0.4409
 4202SOL    HW124065   1.489   2.811   5.161 -1.6073  2.1639  2.9186
 4202SOL    HW224066   1.471   2.687   5.091 -0.9363 -1.0801  0.0073
 4203SOL     OW24067   0.070   4.039   4.182  0.1473 -0.3814 -0.2381
 4203SOL    HW124068   0.109   4.090   4.253 -0.6927  1.7227 -1.2869
 4203SOL    HW224069   0.111   3.954   4.200 -0.4571 -1.2376 -2.8570
 4204SOL     OW24070   1.446   1.725   3.072  0.0680 -0.0064 -0.1812
 4204SOL    HW124071   1.434   1.820   3.071 -0.2499 -0.0818 -2.7561
 4204SOL    HW224072   1.514   1.719   3.140  1.0174 -0.5860 -1.1683
 4205SOL     OW24073   1.664   3.851   7.146 -0.4766 -0.0148 -0.2042
 4205SOL    HW124074   1.701   3.937   7.168 -0.8680  0.5706 -1.8089
 4205SOL    HW224075   1.644   3.830   7.237  0.1011  0.1902 -0.0278
 4206SOL     OW24076   0.477   2.704   0.926  0.3207  0.3007  0.0945
 4206SOL    HW124077   0.499   2.731   0.837  2.0227  0.4160  0.5559
 4206SOL    HW224078   0.409   2.770   0.938  2.0190  1.8465  1.1752
 4207SOL     OW24079   0.682   1.363   4.188  0.3924 -0.0438  0.0083
 4207SOL    HW124080   0.634   1.318   4.259 -0.3998 -0.6203 -0.8919
 4207SOL    HW224081   0.607   1.401   4.143 -0.3867  1.1200  2.2951
 4208SOL     OW24082   4.431   4.639   8.629  0.1293 -0.1016  0.8048
 4208SOL    HW124083   4.365   4.655   8.697  0.1745  1.2717  0.5343
 4208SOL    HW224084   4.462   4.555   8.663 -0.0655 -0.7301 -0.6145
 4209SOL     OW24085   2.672   4.340   7.824 -0.2906  0.5326 -0.3025
 4209SOL    HW124086   2.660   4.252   7.860 -1.2779  1.0408  0.6274
 4209SOL    HW224087   2.721   4.316   7.746 -0.5964 -0.4220 -0.2020
 4210SOL     OW24088   0.711   1.175  13.542  0.4284  0.2945 -0.0213
 4210SOL    HW124089   0.794   1.217  13.567  0.4351  0.1862  0.1348
 4210SOL    HW224090   0.676   1.156  13.629 -1.7116  0.1355 -0.9133
 4211SOL     OW24091   4.492   2.832  16.245 -0.1333 -0.5164 -0.3636
 4211SOL    HW124092   4.523   2.837  16.154  2.3466 -1.1811  0.4622
 4211SOL    HW224093   4.441   2.913  16.253  3.3959  1.7605 -1.0531
 4212SOL     OW24094   1.652   3.323   3.151  0.2595  0.8118  0.1222
 4212SOL    HW124095   1.698   3.312   3.068 -0.3102 -0.6444  0.0067
 4212SOL    HW224096   1.722   3.278   3.199  1.9202  1.2063 -1.9632
 4213SOL     OW24097   1.054   0.010   3.469  0.3069 -0.2258  0.1536
 4213SOL    HW124098   1.149   0.012   3.482 -0.0255 -0.3415  2.5238
 4213SOL    HW224099   1.009   4.677   3.532  0.1755 -0.5375 -0.2227
 4214SOL     OW24100   3.226   3.657   5.083 -0.2627  0.1202 -0.2478
 4214SOL    HW124101   3.307   3.653   5.133  0.7834  0.1902 -1.9369
 4214SOL    HW224102   3.175   3.712   5.142  0.0130 -0.6783  0.7258
 4215SOL     OW24103   2.875   1.709   7.786  0.0230  0.2678 -0.1332
 4215SOL    HW124104   2.880   1.770   7.860 -0.3877  0.9832 -0.6930
 4215SOL    HW224105   2.963   1.679   7.766  0.6904  2.7445 -0.9462
 4216SOL     OW24106   4.648   1.397  10.089 -0.1427 -0.1823  0.0585
 4216SOL    HW124107   0.001   1.394  10.033  0.0262 -1.8071  0.3673
 4216SOL    HW224108   4.664   1.336  10.161  1.6003  1.0710  0.7334
 4217SOL     OW24109   0.315   1.826  13.857 -0.4552 -0.3025 -0.2350
 4217SOL    HW124110   0.263   1.879  13.918 -0.3434  0.4031 -0.7509
 4217SOL    HW224111   0.327   1.887  13.785  3.2594 -2.1497 -1.1854
 4218SOL     OW24112   1.157   1.765   3.830  0.3634  0.1878  0.5330
 4218SOL    HW124113   1.165   1.675   3.860  1.0833  0.2419  0.4927
 4218SOL    HW224114   1.153   1.812   3.914 -0.3205  0.7942  0.1644
 4219SOL     OW24115   3.610   0.184   2.002  0.5907 -0.0507  0.1936
 4219SOL    HW124116   3.518   0.166   1.985  0.7684 -0.7301 -0.0487
 4219SOL    HW224117   3.648   0.098   1.988  1.4392  0.9356 -3.4753
 4220SOL     OW24118   1.774   3.957   9.803 -0.1367  0.1944  0.1445
 4220SOL    HW124119   1.706   3.935   9.867  2.0620 -1.6706  1.8280
 4220SOL    HW224120   1.852   3.985   9.851  0.6953 -1.4719 -0.2278
 4221SOL     OW24121   1.337   1.449   1.138 -0.2997  0.1317  0.1744
 4221SOL    HW124122   1.342   1.466   1.044 -0.6644  1.1171  0.3350
 4221SOL    HW224123   1.329   1.354   1.137  0.7744  0.0412  0.3093
 4222SOL     OW24124   1.991   0.348   2.491 -0.1152  0.3365 -0.4473
 4222SOL    HW124125   2.010   0.438   2.516 -1.9752  0.6781 -0.2169
 4222SOL    HW224126   2.078   0.314   2.471  1.2879  1.9076  3.1278
 4223SOL     OW24127   0.232   1.330   7.236  0.3320  0.4934  0.0100
 4223SOL    HW124128   0.238   1.255   7.176 -3.0312 -0.3635  0.7476
 4223SOL    HW224129   0.273   1.402   7.188  1.2078 -0.1719 -0.2538
 4224SOL     OW24130   2.391   1.860   4.218  0.3503 -0.7812  0.1372
 4224SOL    HW124131   2.362   1.771   4.196  1.3967 -0.8687 -0.9231
 4224SOL    HW224132   2.373   1.848   4.311 -3.2137 -4.2018 -1.0069
 4225SOL     OW24133   3.919   2.516   2.022 -0.1234 -0.5179 -0.6199
 4225SOL    HW124134   3.891   2.492   2.110  1.3205 -3.3327 -0.9332
 4225SOL    HW224135   3.989   2.577   2.047 -2.1726  0.9294  1.5125
 4226SOL     OW24136   1.961   2.625   8.598 -0.6548 -0.0483 -0.5967
 4226SOL    HW124137   2.025   2.554   8.606 -0.1209  0.2937 -1.9157
 4226SOL    HW224138   1.924   2.624   8.510 -1.3207 -1.2417 -0.2986
 4227SOL     OW24139   2.680   3.862   8.889  0.0249 -0.6346  0.9192
 4227SOL    HW124140   2.591   3.831   8.871 -0.4268  0.2157  1.7054
 4227SOL    HW224141   2.667   3.957   8.898 -1.2821 -0.7997  0.7947
 4228SOL     OW24142   1.452   1.071  16.433  0.1545 -0.2454  0.2615
 4228SOL    HW124143   1.418   1.159  16.414  2.2764  0.1221 -1.8416
 4228SOL    HW224144   1.426   1.026  16.352 -1.5578  0.0788  0.6313
 4229SOL     OW24145   0.358   1.304   9.410  0.1906 -0.1436  0.2602
 4229SOL    HW124146   0.396   1.371   9.466  1.9525 -3.1461  2.6647
 4229SOL    HW224147   0.430   1.306   9.347  0.1071 -0.0368  0.1674
 4230SOL     OW24148   3.670   0.264  10.423  0.7487  0.3131  0.1906
 4230SOL    HW124149   3.715   0.327  10.479  1.5588 -0.1962  0.0965
 4230SOL    HW224150   3.724   0.280  10.346 -0.8189  1.5471 -0.6543
 4231SOL     OW24151   3.754   0.981   3.666  0.1785 -0.4604  0.1204
 4231SOL    HW124152   3.683   0.917   3.675  0.3874 -0.4915  1.5105
 4231SOL    HW224153   3.789   0.946   3.585  2.0069  1.0371  0.2719
 4232SOL     OW24154   2.937   2.387   4.021 -1.0079  0.3684 -0.3894
 4232SOL    HW124155   2.848   2.365   3.995 -0.7171 -0.8670 -0.3318
 4232SOL    HW224156   2.927   2.476   4.055  0.2509  0.2268  0.3611
 4233SOL     OW24157   2.513   3.491   6.372 -0.1374  0.9554 -0.5629
 4233SOL    HW124158   2.442   3.446   6.326 -1.2155  0.6867  1.3658
 4233SOL    HW224159   2.463   3.549   6.430  0.2953  0.1945  0.5719
 4234SOL     OW24160   3.124   1.870   5.946 -0.3311  0.2503  0.0835
 4234SOL    HW124161   3.105   1.804   6.013  2.0530 -0.5274  0.0093
 4234SOL    HW224162   3.216   1.854   5.924 -0.7236 -1.4253 -0.3842
 4235SOL     OW24163   1.153   2.552   7.454  0.3852 -0.0845 -0.4169
 4235SOL    HW124164   1.193   2.468   7.478  1.7254  1.1508  1.7420
 4235SOL    HW224165   1.123   2.590   7.536  0.5986 -2.2795  0.6949
 4236SOL     OW24166   1.251   3.031  11.657 -0.3675 -0.4145 -0.3421
 4236SOL    HW124167   1.164   3.062  11.632 -0.8007 -0.7307  0.7591
 4236SOL    HW224168   1.215   3.000  11.740  2.7976 -0.5421  0.9783
 4237SOL     OW24169   1.986   4.529   0.680  0.4284  0.2257 -0.4434
 4237SOL    HW124170   2.002   4.472   0.755 -0.1485  2.1036  1.0871
 4237SOL    HW224171   1.893   4.513   0.662 -0.1284  0.2409  2.4010
 4238SOL     OW24172   4.709   0.759  10.851  0.0738 -0.0050 -0.1446
 4238SOL    HW124173   0.013   0.764  10.942  1.1992  0.9281 -0.5585
 4238SOL    HW224174   4.682   0.668  10.849  2.0778 -0.5253 -2.5439
 4239SOL     OW24175   1.268   1.272  12.173 -0.3962 -0.1724  0.2736
 4239SOL    HW124176   1.339   1.312  12.124  1.6837 -1.4384  2.2455
 4239SOL    HW224177   1.298   1.298  12.260 -0.2288  2.8133 -0.6807
 4240SOL     OW24178   2.951   3.120   1.162 -0.4477 -0.0868  0.5424
 4240SOL    HW124179   2.909   3.138   1.079  3.6924  0.0629 -1.5153
 4240SOL    HW224180   2.887   3.060   1.202  1.0003 -1.9362  0.0737
 4241SOL     OW24181   4.599   1.588   5.721 -0.1203  0.0601 -0.2949
 4241SOL    HW124182   4.522   1.646   5.726  1.0522  1.6114 -0.1474
 4241SOL    HW224183   4.578   1.530   5.649  0.0187 -0.0818 -0.2202
 4242SOL     OW24184   2.293   1.234   4.914  0.0559 -0.2756  0.3611
 4242SOL    HW124185   2.201   1.257   4.913 -0.2149 -1.3315  1.3544
 4242SOL    HW224186   2.305   1.194   4.828 -2.1272  2.1272 -1.0202
 4243SOL     OW24187   0.161   1.134   3.212 -0.0204 -0.3291  0.0405
 4243SOL    HW124188   0.096   1.090   3.267 -1.1998  0.2005 -0.9291
 4243SOL    HW224189   0.121   1.118   3.126 -2.0437 -1.5314  1.1971
 4244SOL     OW24190   0.462   0.193   7.223 -0.1882  0.0841 -0.1352
 4244SOL    HW124191   0.395   0.124   7.224 -1.0280  0.9139  0.9865
 4244SOL    HW224192   0.489   0.173   7.312  1.9816  3.3260 -0.0691
 4245SOL     OW24193   0.618   4.064   3.013  0.4985  0.0816 -0.1133
 4245SOL    HW124194   0.658   3.980   2.992 -0.3693 -0.4571  0.4055
 4245SOL    HW224195   0.667   4.079   3.093  2.6581  0.4978 -1.5093
 4246SOL     OW24196   2.927   0.305   6.991  0.1933 -0.6931 -0.3491
 4246SOL    HW124197   2.989   0.376   7.005 -1.2342  0.2874  1.0057
 4246SOL    HW224198   2.913   0.278   7.082  1.1245 -0.3273 -0.0949
 4247SOL     OW24199   1.014   4.311  17.679  0.0125 -0.1401  0.6925
 4247SOL    HW124200   0.989   4.258  17.603  1.1877 -0.0935  0.2796
 4247SOL    HW224201   0.987   4.255   0.052 -1.5937  1.5217  1.3765
 4248SOL     OW24202   4.516   3.805   8.312 -0.8955  0.4043 -0.4015
 4248SOL    HW124203   4.479   3.845   8.391 -2.8450 -0.2798 -0.9724
 4248SOL    HW224204   4.565   3.876   8.270 -2.5247  1.3017 -0.7963
 4249SOL     OW24205   0.282   2.340   7.401 -0.0133  0.3420  0.1314
 4249SOL    HW124206   0.356   2.296   7.443 -0.5208 -2.1431 -1.6477
 4249SOL    HW224207   0.207   2.317   7.456 -0.6330  0.8013 -0.5234
 4250SOL     OW24208   4.362   1.745   5.320  0.2525 -0.0457  0.4860
 4250SOL    HW124209   4.386   1.653   5.323 -1.2989 -0.4248  1.6849
 4250SOL    HW224210   4.445   1.786   5.295 -1.1471  1.8366 -1.0323
 4251SOL     OW24211   2.637   2.986   2.630 -0.1012  0.1265 -0.4424
 4251SOL    HW124212   2.625   2.931   2.707 -1.9262  1.4170  0.1917
 4251SOL    HW224213   2.581   2.943   2.565 -0.4032 -2.7815  1.7685
 4252SOL     OW24214   3.710   1.230  16.787 -0.1827 -0.5623 -0.3473
 4252SOL    HW124215   3.677   1.319  16.800 -0.8703 -1.3473  3.3728
 4252SOL    HW224216   3.787   1.227  16.843 -0.7039  1.6472  0.4913
 4253SOL     OW24217   2.812   4.433   8.741  0.3556 -0.3145  0.6983
 4253SOL    HW124218   2.906   4.430   8.763  0.2909 -0.3743  0.9659
 4253SOL    HW224219   2.788   4.523   8.763  0.4920 -0.7051  2.4196
 4254SOL     OW24220   4.150   2.330   4.194 -0.1691 -0.4012 -0.3124
 4254SOL    HW124221   4.141   2.245   4.151 -0.2511 -0.2869 -0.5250
 4254SOL    HW224222   4.089   2.316   4.267  0.1136  2.7499  0.5587
 4255SOL     OW24223   1.323   2.219  15.049  0.7559  0.3700 -0.2238
 4255SOL    HW124224   1.372   2.278  14.993  1.8127 -0.5776 -0.2922
 4255SOL    HW224225   1.352   2.234  15.139  0.2487 -1.6061  0.2779
 4256SOL     OW24226   2.304   2.183  11.686  0.3341  0.0341 -0.1141
 4256SOL    HW124227   2.282   2.177  11.779 -1.6765  1.7550 -0.4662
 4256SOL    HW224228   2.331   2.275  11.688 -0.6795  0.3440 -0.9004
 4257SOL     OW24229   2.656   0.933   1.920 -0.0554 -0.2646  0.1283
 4257SOL    HW124230   2.563   0.936   1.942  0.4064 -2.1269  2.2590
 4257SOL    HW224231   2.645   0.938   1.825 -1.5109  1.8744  0.4110
 4258SOL     OW24232   3.367   4.331  14.384 -0.8262  0.3621 -0.4188
 4258SOL    HW124233   3.322   4.247  14.372 -2.7902  1.2203  0.8205
 4258SOL    HW224234   3.377   4.338  14.289 -0.9590 -0.6598 -0.5064
 4259SOL     OW24235   2.565   1.028   8.161  0.0281 -0.4300  0.2946
 4259SOL    HW124236   2.591   1.092   8.095 -1.7246 -1.0498 -1.0118
 4259SOL    HW224237   2.590   1.067   8.245 -0.7530 -0.4188  0.5270
 4260SOL     OW24238   2.220   0.288   5.375 -0.5312 -0.1766 -0.4424
 4260SOL    HW124239   2.181   0.340   5.445 -0.3921 -1.0015  0.2508
 4260SOL    HW224240   2.181   0.317   5.292 -2.0395  0.9830  0.6872
 4261SOL     OW24241   0.450   2.970   1.835 -0.0448  0.4688  0.7122
 4261SOL    HW124242   0.494   2.987   1.918  0.5241  0.7294  0.3633
 4261SOL    HW224243   0.431   3.060   1.806 -2.0354 -0.4596 -0.8574
 4262SOL     OW24244   0.841   2.771   3.461  0.0357 -0.2561  0.0104
 4262SOL    HW124245   0.924   2.814   3.479 -0.0189  0.0486 -0.4733
 4262SOL    HW224246   0.867   2.700   3.403  2.2251  1.3799 -0.9948
 4263SOL     OW24247   4.397   0.410  11.986  0.2471 -0.3961  0.2619
 4263SOL    HW124248   4.422   0.478  12.049 -2.6221 -0.6808  1.6992
 4263SOL    HW224249   4.328   0.451  11.934  0.8816  0.6800  0.2598
 4264SOL     OW24250   0.832   0.585   4.406  0.1204  0.0430 -0.0897
 4264SOL    HW124251   0.808   0.530   4.332  0.3258 -1.9481  1.3319
 4264SOL    HW224252   0.842   0.673   4.369 -1.6158 -0.0123 -0.6770
 4265SOL     OW24253   1.443   2.777   1.858  0.1890 -0.3941 -0.2759
 4265SOL    HW124254   1.421   2.688   1.831  1.9508 -0.5045 -1.3904
 4265SOL    HW224255   1.374   2.830   1.817  1.1560  0.3224 -0.9763
 4266SOL     OW24256   0.732   0.411   5.698  0.0680  0.2999  0.0087
 4266SOL    HW124257   0.666   0.345   5.679  0.3838 -0.6928  2.3639
 4266SOL    HW224258   0.769   0.431   5.612  0.1488 -0.1484 -0.0615
 4267SOL     OW24259   4.335   2.528   2.122 -0.3176 -0.7985  0.2653
 4267SOL    HW124260   4.309   2.567   2.038 -1.9517 -1.2338  0.5566
 4267SOL    HW224261   4.294   2.442   2.128 -1.3962 -0.2834  0.3145
 4268SOL     OW24262   3.782   0.602   2.179  0.3790  0.5512 -0.5409
 4268SOL    HW124263   3.764   0.528   2.237  0.9948  0.0668 -0.9667
 4268SOL    HW224264   3.822   0.661   2.243  0.1078 -0.3801  0.4877
 4269SOL     OW24265   3.139   2.301  10.721 -0.0436  0.2394  0.3831
 4269SOL    HW124266   3.120   2.395  10.731  1.0581  0.8509 -3.2192
 4269SOL    HW224267   3.209   2.283  10.783  1.9529  1.4826 -1.4911
 4270SOL     OW24268   3.246   2.721   3.596  0.4575  0.3011  0.6184
 4270SOL    HW124269   3.240   2.766   3.511 -1.4266 -0.5596  0.2917
 4270SOL    HW224270   3.340   2.724   3.612  0.3933  1.1343  0.8225
 4271SOL     OW24271   2.971   2.856   4.535  0.2092 -0.2370 -0.1180
 4271SOL    HW124272   2.943   2.764   4.530 -0.3972 -0.2157  2.9201
 4271SOL    HW224273   2.999   2.852   4.626 -0.1523  0.3550  0.0194
 4272SOL     OW24274   3.794   4.618  11.252  0.2142  0.4075 -0.4897
 4272SOL    HW124275   3.785   4.713  11.250  1.5460  0.5859  1.9885
 4272SOL    HW224276   3.796   4.595  11.159  0.8798  0.8236 -0.5815
 4273SOL     OW24277   1.522   3.960  11.309  0.6876  0.0902 -1.0255
 4273SOL    HW124278   1.478   3.878  11.285  0.9671 -0.8384  1.6946
 4273SOL    HW224279   1.448   4.017  11.285  1.1662  1.4374  0.7338
 4274SOL     OW24280   2.884   1.767   2.612 -0.7407  0.6045  0.5311
 4274SOL    HW124281   2.927   1.699   2.664 -0.4694  0.1752 -0.2644
 4274SOL    HW224282   2.871   1.730   2.525  0.0672  1.6120 -0.0151
 4275SOL     OW24283   3.981   4.533   5.662  0.3287 -0.3886  0.0605
 4275SOL    HW124284   3.911   4.472   5.683 -0.5069 -0.6487 -3.4028
 4275SOL    HW224285   4.016   4.480   5.590 -1.1051 -1.6415  0.2883
 4276SOL     OW24286   1.675   0.766   2.667  0.1259 -0.1154  0.3208
 4276SOL    HW124287   1.610   0.732   2.606  0.7872  2.0997 -1.6042
 4276SOL    HW224288   1.618   0.768   2.744  1.0629  1.3187  0.9887
 4277SOL     OW24289   1.315   0.460  12.615 -0.0481  0.1610 -0.5158
 4277SOL    HW124290   1.269   0.454  12.532 -1.5039  0.7778  0.2389
 4277SOL    HW224291   1.257   0.402  12.664 -0.2629  0.2899 -0.6200
 4278SOL     OW24292   3.971   3.165   4.817  0.9156  0.3628 -0.5870
 4278SOL    HW124293   3.891   3.183   4.867  2.1269  1.1381  1.0542
 4278SOL    HW224294   3.967   3.070   4.801 -1.3437  0.1165  1.4511
 4279SOL     OW24295   3.601   0.114  17.033  0.3463  0.3408  0.2792
 4279SOL    HW124296   3.549   0.040  17.003  0.5433  0.4045 -0.2380
 4279SOL    HW224297   3.678   0.097  16.978  0.4006  0.9140  0.1770
 4280SOL     OW24298   2.405   3.733  15.801 -0.2320  0.3489  0.2028
 4280SOL    HW124299   2.499   3.741  15.787  0.1696 -3.0375  0.9367
 4280SOL    HW224300   2.399   3.644  15.768  0.7210  0.3797 -0.0504
 4281SOL     OW24301   3.604   2.244   8.106 -0.1586 -0.5840 -0.1274
 4281SOL    HW124302   3.620   2.217   8.016  0.7665  1.7701 -0.6749
 4281SOL    HW224303   3.586   2.337   8.090  0.6688 -0.5628 -0.9055
 4282SOL     OW24304   0.639   0.698   4.621 -0.2567 -0.5598 -0.4431
 4282SOL    HW124305   0.695   0.772   4.597 -2.1462  1.0936  0.2738
 4282SOL    HW224306   0.630   0.721   4.713  0.1572 -0.2054 -0.4899
 4283SOL     OW24307   4.144   1.427   7.535  0.5962  0.1189  0.1470
 4283SOL    HW124308   4.231   1.406   7.503  0.1093 -0.4510 -0.8243
 4283SOL    HW224309   4.161   1.417   7.628  3.2587 -1.2249 -0.4883
 4284SOL     OW24310   0.317   3.332  15.008  0.0501  0.8149  0.3655
 4284SOL    HW124311   0.279   3.287  14.934  1.4831 -0.5409  0.4568
 4284SOL    HW224312   0.360   3.259  15.053  0.0088 -0.0326 -0.9759
 4285SOL     OW24313   3.144   4.623   4.789  0.2134  0.3804  0.3634
 4285SOL    HW124314   3.183   4.709   4.803 -0.0865  0.2754  1.8911
 4285SOL    HW224315   3.227   4.579   4.805  0.5894  0.4135 -1.5633
 4286SOL     OW24316   0.538   3.038   7.640 -0.8582 -0.3501 -0.1343
 4286SOL    HW124317   0.585   3.056   7.721  0.5224  0.3391 -1.0969
 4286SOL    HW224318   0.446   3.024   7.665 -0.5674  0.1508  1.1975
 4287SOL     OW24319   0.418   0.275  11.235  0.1111  0.5363  0.3211
 4287SOL    HW124320   0.468   0.325  11.171 -0.8860  2.5577  1.1353
 4287SOL    HW224321   0.461   0.190  11.226 -0.3279  0.3149  0.3146
 4288SOL     OW24322   0.615   0.345  12.891 -0.1735 -0.1997  0.5038
 4288SOL    HW124323   0.600   0.420  12.948 -1.7697 -0.4652  0.4313
 4288SOL    HW224324   0.650   0.278  12.951 -1.4206 -2.5363 -1.3666
 4289SOL     OW24325   0.733   4.616   0.478 -0.3560  0.3188  0.1733
 4289SOL    HW124326   0.768   4.592   0.564  0.6281  0.4591 -0.1886
 4289SOL    HW224327   0.677   4.690   0.502  2.8822  2.5331  1.0895
 4290SOL     OW24328   3.090   0.560   0.215 -0.3467  0.1750  0.0098
 4290SOL    HW124329   3.132   0.598   0.138 -0.1601  1.0467  0.5440
 4290SOL    HW224330   3.128   0.472   0.215 -0.3228  0.1741 -1.2746
 4291SOL     OW24331   1.541   1.078  14.176 -0.6798 -0.1100 -0.2264
 4291SOL    HW124332   1.534   1.173  14.164 -1.9668  0.0378  1.7864
 4291SOL    HW224333   1.449   1.053  14.181 -0.8642  0.4708 -0.6324
 4292SOL     OW24334   4.486   1.844   9.262  0.0625 -0.9151  0.1232
 4292SOL    HW124335   4.399   1.884   9.257  0.3202 -0.6535 -2.0868
 4292SOL    HW224336   4.532   1.858   9.180  1.9102  1.2585  1.5346
 4293SOL     OW24337   2.752   3.783  11.136  0.7943 -0.3429 -0.2221
 4293SOL    HW124338   2.678   3.802  11.078  1.0986 -0.0416 -0.5034
 4293SOL    HW224339   2.745   3.854  11.200 -1.3710 -1.6472  1.0238
 4294SOL     OW24340   0.190   1.774   2.084  0.5800 -0.3227  0.0091
 4294SOL    HW124341   0.249   1.790   2.158 -0.1793  0.3087  0.4732
 4294SOL    HW224342   0.224   1.691   2.052 -1.3557 -2.2966  3.1177
 4295SOL     OW24343   2.498   3.979   4.325 -0.6028 -0.1626  0.4711
 4295SOL    HW124344   2.409   3.956   4.297 -0.4773 -0.0759  0.0005
 4295SOL    HW224345   2.484   4.030   4.404 -2.2674  1.1632 -0.6848
 4296SOL     OW24346   3.641   2.718   5.926  0.5820  0.0775  0.3301
 4296SOL    HW124347   3.600   2.716   5.840  0.7461 -0.7145  0.2647
 4296SOL    HW224348   3.579   2.672   5.983  1.8624  0.8942  2.3754
 4297SOL     OW24349   1.753   4.445   9.662  0.1373  0.0387 -0.2324
 4297SOL    HW124350   1.752   4.475   9.753 -0.3943  1.1171 -0.5937
 4297SOL    HW224351   1.778   4.525   9.616  4.0292 -0.2098  1.4748
 4298SOL     OW24352   2.214   2.560   4.123 -0.5575 -0.2536  0.5523
 4298SOL    HW124353   2.248   2.471   4.136 -0.0420 -0.3755 -1.6962
 4298SOL    HW224354   2.155   2.550   4.049 -0.9383  1.9444  0.5691
 4299SOL     OW24355   2.456   3.429   0.076 -0.5138 -0.5014  0.4256
 4299SOL    HW124356   2.516   3.356   0.093  0.9839  0.5278 -0.4574
 4299SOL    HW224357   2.475   3.447  17.684 -2.8011  0.4935  0.1537
 4300SOL     OW24358   3.536   0.533  17.356  0.1072 -0.4106  0.3908
 4300SOL    HW124359   3.562   0.510  17.267  1.9794  1.7194  0.4035
 4300SOL    HW224360   3.602   0.596  17.383 -0.0076 -0.6799  1.3235
 4301SOL     OW24361   3.977   1.349   6.672 -0.1016  0.1239  0.5895
 4301SOL    HW124362   3.903   1.409   6.686 -1.5219 -0.9293 -2.4430
 4301SOL    HW224363   3.964   1.311   6.585  1.3585  2.1390 -0.4916
 4302SOL     OW24364   0.003   0.697   5.653 -0.4538  0.1640 -0.0984
 4302SOL    HW124365   4.709   0.614   5.610 -1.8140  0.6782 -0.4902
 4302SOL    HW224366   4.647   0.719   5.699  1.2439  1.1867  2.3817
 4303SOL     OW24367   2.495   4.048   2.202 -0.3526  0.1299  0.1083
 4303SOL    HW124368   2.418   4.026   2.256 -2.6288  0.2960 -3.0538
 4303SOL    HW224369   2.468   4.020   2.114  0.5313  2.0674 -0.7799
 4304SOL     OW24370   3.998   3.902   0.517  0.0843  0.6255  0.0272
 4304SOL    HW124371   3.922   3.952   0.548  0.7800  0.4514  1.9608
 4304SOL    HW224372   4.024   3.839   0.584 -0.8948  0.6206  0.4065
 4305SOL     OW24373   0.424   2.365   3.974  0.0405 -0.9463  0.0708
 4305SOL    HW124374   0.385   2.282   3.945  0.1234 -1.2955  0.9858
 4305SOL    HW224375   0.370   2.428   3.925  1.8646 -0.1769 -0.9533
 4306SOL     OW24376   4.236   4.145   7.392 -0.8063 -0.1763 -0.0546
 4306SOL    HW124377   4.245   4.160   7.298  0.8620 -2.2996 -0.2393
 4306SOL    HW224378   4.275   4.058   7.400  2.1868  1.3042  1.7433
 4307SOL     OW24379   2.816   0.450  10.182  0.3974 -0.3222  0.0723
 4307SOL    HW124380   2.833   0.379  10.245 -0.7628  0.0265  0.7763
 4307SOL    HW224381   2.724   0.430  10.166  0.7025 -0.5888 -1.3015
 4308SOL     OW24382   1.459   0.335  14.746 -0.1457 -0.2658  0.7694
 4308SOL    HW124383   1.471   0.301  14.835 -0.2410 -2.9444 -0.2431
 4308SOL    HW224384   1.369   0.367  14.751 -0.1029  0.0522 -0.5460
 4309SOL     OW24385   3.960   4.129  16.858 -0.0533 -0.3258 -0.5102
 4309SOL    HW124386   3.870   4.100  16.847 -0.6891  0.2508  3.2381
 4309SOL    HW224387   4.009   4.057  16.817  1.6434  1.0640 -0.9217
 4310SOL     OW24388   4.378   1.182   2.025  0.3295 -0.2767  0.4411
 4310SOL    HW124389   4.403   1.198   2.116  1.4018 -1.0799  0.2948
 4310SOL    HW224390   4.441   1.112   2.009  0.2119 -0.1856 -0.4128
 4311SOL     OW24391   2.660   0.912  17.025  0.2425  0.4310 -0.2250
 4311SOL    HW124392   2.627   0.961  17.100 -1.3341 -0.0030 -0.6290
 4311SOL    HW224393   2.580   0.886  16.980  0.0730 -1.3000  1.0680
 4312SOL     OW24394   0.054   0.097  14.908  0.4018 -0.2802  0.2146
 4312SOL    HW124395   0.039   0.168  14.971  2.7558 -0.2623  0.7375
 4312SOL    HW224396   0.009   0.120  14.826 -0.0583  2.2272  1.1688
 4313SOL     OW24397   1.546   3.930   6.523 -0.6097 -0.4661  0.0756
 4313SOL    HW124398   1.618   3.875   6.490 -1.3755 -0.4913 -1.5006
 4313SOL    HW224399   1.574   4.020   6.508 -2.4615  0.2647  1.0306
 4314SOL     OW24400   2.771   2.480   3.219  0.4769 -0.0392 -0.3190
 4314SOL    HW124401   2.805   2.440   3.299 -0.7628  0.7586  0.6067
 4314SOL    HW224402   2.679   2.491   3.243  0.3672 -0.4714 -0.5310
 4315SOL     OW24403   2.245   3.208   1.757 -0.1968 -0.3496 -0.3739
 4315SOL    HW124404   2.268   3.215   1.665  1.4398  2.8465  0.2838
 4315SOL    HW224405   2.259   3.114   1.771 -0.1735 -0.2369  0.3911
 4316SOL     OW24406   1.664   2.379   0.290 -0.5293 -0.5506  0.0475
 4316SOL    HW124407   1.626   2.314   0.231 -3.5591  0.5474  0.7663
 4316SOL    HW224408   1.661   2.455   0.233  2.8286  0.1371  0.7866
 4317SOL     OW24409   2.453   0.414   1.648 -0.1472 -0.6073  0.2917
 4317SOL    HW124410   2.482   0.479   1.584  1.1030 -2.9299 -1.4632
 4317SOL    HW224411   2.379   0.467   1.678 -0.1386 -0.7307  0.5239
 4318SOL     OW24412   1.684   0.759  11.997 -0.4030 -0.1028  0.4545
 4318SOL    HW124413   1.652   0.782  11.910  2.7004 -1.0440 -0.9629
 4318SOL    HW224414   1.675   0.845  12.039 -0.0847 -0.9678  2.2814
 4319SOL     OW24415   1.200   3.358   7.810 -0.0978 -0.3552  0.0799
 4319SOL    HW124416   1.263   3.349   7.882  0.8967  2.2049 -0.4734
 4319SOL    HW224417   1.116   3.339   7.852  0.9654  0.4192  2.5380
 4320SOL     OW24418   1.554   0.608   7.739 -0.2733  0.4700  0.3630
 4320SOL    HW124419   1.615   0.636   7.670 -2.9139  2.8219 -0.9941
 4320SOL    HW224420   1.582   0.520   7.765 -1.1298 -0.2375 -1.0567
 4321SOL     OW24421   1.372   1.494   8.345  0.0475  0.4007 -1.2723
 4321SOL    HW124422   1.333   1.407   8.336  1.3937 -0.1781 -1.6077
 4321SOL    HW224423   1.460   1.485   8.306  1.0082  1.8668  0.5563
 4322SOL     OW24424   3.581   0.670   4.819 -0.2926 -0.5795  0.0645
 4322SOL    HW124425   3.531   0.719   4.884  1.8512 -0.0526  1.3161
 4322SOL    HW224426   3.616   0.749   4.778 -1.8527  0.0924  0.0235
 4323SOL     OW24427   1.110   2.929   4.230  0.3671 -0.4394  0.0270
 4323SOL    HW124428   1.141   2.856   4.177  1.2344  0.5306 -0.7892
 4323SOL    HW224429   1.152   3.002   4.184  1.9636 -1.3591  0.0173
 4324SOL     OW24430   0.206   4.092   0.499 -0.0377  0.7909 -0.2796
 4324SOL    HW124431   0.153   4.170   0.513  0.6691  1.1257  0.5218
 4324SOL    HW224432   0.195   4.044   0.581 -1.8132  1.1818 -0.2925
 4325SOL     OW24433   0.153   3.902   5.537 -0.4266 -0.1804 -0.2812
 4325SOL    HW124434   0.248   3.903   5.546 -0.5292  0.3480  0.7979
 4325SOL    HW224435   0.139   3.996   5.548 -1.7559 -0.5301  1.0697
 4326SOL     OW24436   4.302   3.159   9.958  0.1070 -0.6084 -0.0880
 4326SOL    HW124437   4.357   3.087   9.924 -1.9050 -1.2069 -2.0736
 4326SOL    HW224438   4.339   3.181  10.043  1.9281  1.5284 -1.4320
 4327SOL     OW24439   2.432   3.226  15.719  0.4996  0.0109 -0.0602
 4327SOL    HW124440   2.453   3.318  15.707 -2.2202  1.0896  3.2337
 4327SOL    HW224441   2.355   3.231  15.663  1.3825 -0.4234 -1.3184
 4328SOL     OW24442   0.184   4.665   1.404 -0.1415  0.2958  0.1933
 4328SOL    HW124443   0.187   4.574   1.435  1.3969  1.0071  2.1160
 4328SOL    HW224444   0.143   4.651   1.319  0.8278 -0.2468 -0.1798
 4329SOL     OW24445   4.044   1.996  12.556 -0.9105  0.0202 -0.0002
 4329SOL    HW124446   4.074   2.001  12.647  1.7289  0.7905 -0.9112
 4329SOL    HW224447   4.126   1.998  12.505  0.1435 -0.5841  1.6683
 4330SOL     OW24448   3.632   3.654   8.855  0.1910  0.0954  0.1996
 4330SOL    HW124449   3.689   3.585   8.822 -0.1377  0.3659 -0.9271
 4330SOL    HW224450   3.669   3.673   8.942  1.4122  0.7784 -0.4723
 4331SOL     OW24451   0.502   4.513  11.916  0.2954  0.1709  0.3630
 4331SOL    HW124452   0.578   4.562  11.883 -0.2787  1.3952  0.8746
 4331SOL    HW224453   0.492   4.553  12.002  1.7500  1.9527 -0.2843
 4332SOL     OW24454   4.198   3.791   0.961  0.6234  0.3125  0.1902
 4332SOL    HW124455   4.174   3.731   1.031  0.3429 -1.7991 -1.6945
 4332SOL    HW224456   4.291   3.811   0.971  0.4712  0.8022  0.5854
 4333SOL     OW24457   3.544   0.938  16.828  0.2736 -0.2896 -0.2358
 4333SOL    HW124458   3.485   0.902  16.761 -0.5037  0.5930 -0.0259
 4333SOL    HW224459   3.570   1.025  16.799 -0.8908 -0.7934 -2.7857
 4334SOL     OW24460   4.175   1.117   3.162  0.2907  0.0976  0.1679
 4334SOL    HW124461   4.094   1.166   3.178  1.4840  1.9469  0.5183
 4334SOL    HW224462   4.171   1.056   3.235  0.7399 -0.3047 -0.1437
 4335SOL     OW24463   2.076   0.321   9.317 -0.4647 -0.3572 -0.0392
 4335SOL    HW124464   2.010   0.269   9.271  1.8322 -2.1202 -1.3408
 4335SOL    HW224465   2.020   0.344   9.392 -1.4739 -1.6271 -0.4061
 4336SOL     OW24466   4.521   4.183   8.553 -0.1096  0.2037 -0.0341
 4336SOL    HW124467   4.604   4.227   8.573  0.1845 -0.3173 -0.1047
 4336SOL    HW224468   4.488   4.146   8.635  1.6382  1.6088  1.3089
 4337SOL     OW24469   2.266   2.787   1.286  0.0799  0.3456 -0.2211
 4337SOL    HW124470   2.300   2.803   1.374  2.7324  3.2472 -1.7666
 4337SOL    HW224471   2.173   2.803   1.305  0.1854 -2.2197  2.3711
 4338SOL     OW24472   2.757   0.974   2.721 -0.6127  0.4952  0.0546
 4338SOL    HW124473   2.795   0.891   2.692 -2.2006 -0.0371 -0.5457
 4338SOL    HW224474   2.667   0.941   2.731 -0.4343 -0.0321 -0.0463
 4339SOL     OW24475   1.107   1.754   1.954  0.0769  0.0146 -0.2156
 4339SOL    HW124476   1.160   1.727   2.029  1.1618 -1.4353 -1.5207
 4339SOL    HW224477   1.051   1.677   1.947 -0.2286  0.3558 -1.5170
 4340SOL     OW24478   1.226   0.119   0.134  0.5178 -0.2493  0.1943
 4340SOL    HW124479   1.286   0.144   0.204 -0.8787  0.6650  1.0759
 4340SOL    HW224480   1.158   0.186   0.144 -1.6241 -2.2595 -0.8872
 4341SOL     OW24481   3.676   2.574   5.072 -0.0074 -0.1333  0.0964
 4341SOL    HW124482   3.755   2.524   5.096 -0.6973 -1.7016 -0.9035
 4341SOL    HW224483   3.625   2.511   5.021  1.1893 -0.6479 -0.4780
 4342SOL     OW24484   0.502   3.886   8.016 -0.1916 -0.3648 -0.5950
 4342SOL    HW124485   0.556   3.957   7.980  1.0325 -0.8955  0.1953
 4342SOL    HW224486   0.450   3.935   8.080 -0.4905 -1.1287 -0.2602
 4343SOL     OW24487   3.750   1.996   6.762  0.5753 -0.2201 -0.4309
 4343SOL    HW124488   3.777   1.916   6.717  2.1029 -0.3707  0.7575
 4343SOL    HW224489   3.690   2.031   6.696  0.3215  1.7566  0.8573
 4344SOL     OW24490   0.574   2.574   0.673 -0.1194  0.1283  1.0841
 4344SOL    HW124491   0.537   2.557   0.760 -0.7552  1.2197  1.0260
 4344SOL    HW224492   0.558   2.491   0.628 -1.3552  1.4752 -0.9911
 4345SOL     OW24493   4.509   3.750   6.288  0.1118  0.1603  0.5444
 4345SOL    HW124494   4.426   3.732   6.334  0.3734  1.3542  1.4818
 4345SOL    HW224495   4.577   3.730   6.352  1.2553 -2.9598 -1.6689
 4346SOL     OW24496   1.518   1.044   4.795 -0.1140 -0.2718 -0.2480
 4346SOL    HW124497   1.431   1.078   4.774  0.0605 -0.2776 -0.9646
 4346SOL    HW224498   1.546   1.037   4.704  1.2795 -0.8157  0.2136
 4347SOL     OW24499   3.940   1.967  17.322  0.6438  0.4895  0.6888
 4347SOL    HW124500   4.020   1.940  17.277  1.1418  2.2139  0.5353
 4347SOL    HW224501   3.963   1.943  17.412  1.9051  1.7107  0.6962
 4348SOL     OW24502   1.359   0.271   7.944 -0.0209  0.0476 -0.0650
 4348SOL    HW124503   1.365   0.337   7.875 -1.1517  1.9863  1.6948
 4348SOL    HW224504   1.444   0.227   7.940 -0.7151 -1.4898  1.5646
 4349SOL     OW24505   1.783   3.065   7.321  0.5316 -0.2275 -0.0247
 4349SOL    HW124506   1.738   3.121   7.384  0.7907  1.4521 -1.3178
 4349SOL    HW224507   1.838   3.134   7.282 -1.8509  1.1382 -0.9527
 4350SOL     OW24508   1.821   4.167   3.915  0.0124 -0.4545 -0.0560
 4350SOL    HW124509   1.866   4.190   3.996  0.4574 -0.2644 -0.3616
 4350SOL    HW224510   1.863   4.083   3.893 -0.0891  0.4175 -3.5432
 4351SOL     OW24511   4.642   3.751  13.215 -0.0335 -0.1938 -0.1883
 4351SOL    HW124512   4.576   3.688  13.188 -0.3360 -0.2125  0.6094
 4351SOL    HW224513   4.615   3.765  13.306  0.7835  1.1397 -0.1487
 4352SOL     OW24514   3.110   2.114   3.003 -0.1109  0.1776 -0.5995
 4352SOL    HW124515   3.048   2.069   2.946  1.9172  0.5323 -3.0913
 4352SOL    HW224516   3.185   2.126   2.945 -0.3105  0.1480 -0.8653
 4353SOL     OW24517   0.012   1.553   8.947  0.1452 -0.1156  0.3460
 4353SOL    HW124518   4.660   1.555   9.004  0.6349 -0.2843  1.0163
 4353SOL    HW224519   4.697   1.539   8.861  0.7351 -0.4881  0.1264
 4354SOL     OW24520   0.982   2.961   7.744  0.1382 -0.3975 -0.0266
 4354SOL    HW124521   1.004   2.870   7.726  0.3426 -0.1899 -0.8588
 4354SOL    HW224522   0.903   2.977   7.691  0.7767 -0.3097 -0.9633
 4355SOL     OW24523   4.080   0.277  11.751 -0.2711  0.1951  0.1839
 4355SOL    HW124524   4.048   0.275  11.841  0.4915 -0.5409  0.4340
 4355SOL    HW224525   4.127   0.360  11.751 -1.0517  0.6368  1.3012
 4356SOL     OW24526   2.607   1.672   2.816  0.1153  0.4664 -0.1492
 4356SOL    HW124527   2.638   1.747   2.766  0.1074 -0.8083 -2.0378
 4356SOL    HW224528   2.513   1.679   2.798  0.4714  2.0552 -1.3704
 4357SOL     OW24529   2.620   2.912   5.646 -0.3604  0.1323  0.3188
 4357SOL    HW124530   2.660   2.826   5.652  2.3558  1.3401 -0.4955
 4357SOL    HW224531   2.611   2.920   5.551  0.8825  1.2352  0.2931
 4358SOL     OW24532   1.845   0.123   4.708  0.1045  0.4493  0.5506
 4358SOL    HW124533   1.934   0.114   4.672 -1.2508  0.1361 -2.7495
 4358SOL    HW224534   1.801   0.171   4.638  0.1416 -1.0888 -0.5164
 4359SOL     OW24535   0.941   0.906  16.660 -0.1751  0.2511  0.3963
 4359SOL    HW124536   0.922   0.877  16.571 -0.1408 -0.3091  0.5751
 4359SOL    HW224537   0.885   0.984  16.663  0.9669  1.0568  0.7342
 4360SOL     OW24538   2.292   4.402   8.380  0.0858  0.2747 -0.1930
 4360SOL    HW124539   2.248   4.469   8.327  1.6315  0.5425 -1.1334
 4360SOL    HW224540   2.254   4.420   8.466  0.4821  0.0462  0.0265
 4361SOL     OW24541   3.963   2.396  16.005 -0.0940  0.6249 -0.3384
 4361SOL    HW124542   4.001   2.358  16.084 -1.3574  0.0768 -0.0024
 4361SOL    HW224543   3.917   2.473  16.039 -0.3181 -0.2554  1.3476
 4362SOL     OW24544   3.473   1.539  15.987  0.6055  0.1745 -0.1060
 4362SOL    HW124545   3.463   1.459  16.039 -0.1302  0.1888 -0.2180
 4362SOL    HW224546   3.566   1.528  15.970  0.3076  0.0447 -1.6656
 4363SOL     OW24547   1.529   1.566   4.465  0.9302 -0.1382  0.2351
 4363SOL    HW124548   1.481   1.555   4.383  2.9274 -0.5684 -0.8824
 4363SOL    HW224549   1.581   1.644   4.445  0.7445  0.0161  0.3650
 4364SOL     OW24550   3.473   3.111   4.828  0.3552  0.1540  0.2297
 4364SOL    HW124551   3.398   3.058   4.857 -0.6474  1.2782 -0.3201
 4364SOL    HW224552   3.526   3.053   4.774 -1.7848 -0.3745 -1.2804
 4365SOL     OW24553   2.698   0.172   5.568 -0.0235 -0.3537  0.0961
 4365SOL    HW124554   2.775   0.175   5.625  1.1019  1.1447 -1.4941
 4365SOL    HW224555   2.747   0.162   5.487  0.5956  0.6915  0.3432
 4366SOL     OW24556   1.029   1.794   4.618  0.0147 -0.1383  0.1886
 4366SOL    HW124557   1.060   1.705   4.605  2.1571  0.7368 -0.5588
 4366SOL    HW224558   1.112   1.841   4.620 -0.2524  0.3347  0.2872
 4367SOL     OW24559   2.737   4.702  16.796 -0.2182 -0.1086  0.0127
 4367SOL    HW124560   2.693   0.060  16.779 -0.3782 -0.1678  0.1338
 4367SOL    HW224561   2.712   4.699  16.888  2.0844  1.0582  0.6676
 4368SOL     OW24562   1.553   0.708   7.397  0.8586  0.3773  0.4129
 4368SOL    HW124563   1.593   0.631   7.437  0.8364  1.0769  1.7886
 4368SOL    HW224564   1.620   0.775   7.413  0.7568  0.8825 -1.1870
 4369SOL     OW24565   3.308   4.351  10.346  0.2294  0.1328 -0.0172
 4369SOL    HW124566   3.266   4.338  10.431 -0.4389  2.8450  0.0594
 4369SOL    HW224567   3.384   4.405  10.368 -0.6438  1.0360  0.7867
 4370SOL     OW24568   3.810   3.696   3.119  0.3466  0.9614  0.1499
 4370SOL    HW124569   3.742   3.634   3.147 -1.5289  3.0705  0.3083
 4370SOL    HW224570   3.883   3.635   3.121  0.5846  1.2209 -0.9571
 4371SOL     OW24571   1.811   3.630   6.108 -0.2980 -0.3967  0.5449
 4371SOL    HW124572   1.877   3.584   6.160 -0.0081  0.0294  0.5487
 4371SOL    HW224573   1.758   3.552   6.091  0.5664 -1.2660  1.8032
 4372SOL     OW24574   1.703   2.972   3.474  0.0635 -0.3758  0.3052
 4372SOL    HW124575   1.619   2.971   3.519  0.4210 -2.0666  0.9373
 4372SOL    HW224576   1.742   2.906   3.531 -1.2783 -0.4835  1.0914
 4373SOL     OW24577   1.456   4.558   8.346  0.7302  0.3791  0.0947
 4373SOL    HW124578   1.466   4.534   8.438 -1.4908  0.9310  0.4709
 4373SOL    HW224579   1.404   4.638   8.353  2.9749  1.4738  4.0677
 4374SOL     OW24580   3.133   0.416   0.504  0.1437  0.1159  0.5092
 4374SOL    HW124581   3.040   0.434   0.492 -0.0041 -0.5490  0.6628
 4374SOL    HW224582   3.128   0.362   0.583  2.1885  1.4026  1.5497
 4375SOL     OW24583   0.569   2.420  14.054  0.0736 -0.6791 -0.1136
 4375SOL    HW124584   0.575   2.347  14.116  0.2956 -1.1280 -0.6595
 4375SOL    HW224585   0.648   2.393  14.007 -0.0961 -2.8622  0.8092
 4376SOL     OW24586   1.470   0.844   4.469  0.5094 -0.3982 -0.2093
 4376SOL    HW124587   1.456   0.924   4.417  2.3188  0.0451 -0.0315
 4376SOL    HW224588   1.423   0.789   4.406  1.1287  0.6740 -1.6329
 4377SOL     OW24589   1.678   3.134   4.065 -0.3117  0.5964  0.5173
 4377SOL    HW124590   1.687   3.066   3.999 -1.0337 -1.4939  2.5532
 4377SOL    HW224591   1.765   3.141   4.104  0.1443  0.8727 -0.5571
 4378SOL     OW24592   4.442   0.971   4.848  0.1938 -0.0695  0.2785
 4378SOL    HW124593   4.440   0.939   4.938 -2.0905 -1.7925 -0.3717
 4378SOL    HW224594   4.526   0.948   4.810  0.3796 -0.8230  1.1450
 4379SOL     OW24595   1.912   4.267   7.063 -0.1951  0.1612 -0.1800
 4379SOL    HW124596   1.981   4.331   7.045  1.0955 -1.4724 -1.1580
 4379SOL    HW224597   1.919   4.207   6.988 -0.0727 -1.5108  1.1747
 4380SOL     OW24598   3.079   4.374   5.527  0.1460 -0.0459 -0.2399
 4380SOL    HW124599   3.028   4.455   5.516  0.6626  0.2089 -0.7703
 4380SOL    HW224600   3.135   4.380   5.450 -0.3224 -2.2221 -0.7550
 4381SOL     OW24601   1.044   1.695   2.547  0.3310 -0.0539 -0.3997
 4381SOL    HW124602   1.139   1.682   2.545  0.1043 -2.1887  2.6563
 4381SOL    HW224603   1.042   1.712   2.641  1.0852 -0.4466 -0.3115
 4382SOL     OW24604   0.617   0.474   6.032  0.3273  0.3702  0.3945
 4382SOL    HW124605   0.610   0.564   6.063 -1.9082  0.3465 -0.0514
 4382SOL    HW224606   0.581   0.485   5.944  2.3681 -0.1726 -0.5294
 4383SOL     OW24607   4.592   0.879   7.373 -0.4342  0.4340 -1.0714
 4383SOL    HW124608   4.514   0.836   7.338 -0.9143  0.8066 -0.4703
 4383SOL    HW224609   4.644   0.806   7.406 -1.1229  1.4440  2.3079
 4384SOL     OW24610   3.154   2.340   8.555  0.3326  0.1201  0.3513
 4384SOL    HW124611   3.063   2.327   8.582 -0.0729  0.5434 -0.8278
 4384SOL    HW224612   3.162   2.434   8.542 -1.1205  0.5102  2.2909
 4385SOL     OW24613   0.945   1.230   7.015  0.0565  0.4426  0.5401
 4385SOL    HW124614   0.886   1.170   6.970  0.0264  1.7303 -1.1803
 4385SOL    HW224615   0.898   1.242   7.097  0.0170 -0.9597  0.7118
 4386SOL     OW24616   1.135   1.916   3.217  0.1500  0.2324 -0.1127
 4386SOL    HW124617   1.164   1.826   3.201 -0.6489  0.2241 -1.4464
 4386SOL    HW224618   1.137   1.915   3.313 -1.3677  0.3625 -0.0873
 4387SOL     OW24619   3.445   1.075   5.306  0.4275 -0.0334 -0.1731
 4387SOL    HW124620   3.437   1.145   5.241  0.6686 -1.9215 -2.2454
 4387SOL    HW224621   3.369   1.018   5.295  0.9565 -1.1843  2.1137
 4388SOL     OW24622   2.191   2.415   6.132 -0.7459  0.3291 -0.0194
 4388SOL    HW124623   2.139   2.430   6.210 -1.4557 -0.4838 -0.3447
 4388SOL    HW224624   2.183   2.504   6.096 -0.7308 -0.1371 -1.1739
 4389SOL     OW24625   0.330   2.865  12.230 -0.2393 -0.0663 -0.4313
 4389SOL    HW124626   0.421   2.835  12.224  0.3113  1.3131  0.7396
 4389SOL    HW224627   0.291   2.786  12.266  0.3274 -0.3143 -0.3641
 4390SOL     OW24628   0.770   0.543   5.457  0.4689 -0.1131  0.0025
 4390SOL    HW124629   0.697   0.600   5.429  0.1079 -0.4842  0.1926
 4390SOL    HW224630   0.786   0.512   5.368 -0.2377  2.3264 -0.9963
 4391SOL     OW24631   3.327   0.586  11.300 -0.3760 -1.0128  0.4431
 4391SOL    HW124632   3.265   0.525  11.339 -0.1795 -1.7719 -0.4515
 4391SOL    HW224633   3.384   0.612  11.373  1.6368 -2.4590 -0.6027
 4392SOL     OW24634   1.845   1.888   4.045 -0.1264  0.4575  0.4752
 4392SOL    HW124635   1.793   1.809   4.059 -0.5614  1.2471  3.4122
 4392SOL    HW224636   1.788   1.931   3.981 -1.8340 -0.1386  1.6025
 4393SOL     OW24637   2.893   4.164   5.578 -0.1189 -0.0729 -0.3471
 4393SOL    HW124638   2.848   4.195   5.656 -1.8205  3.0828 -2.6046
 4393SOL    HW224639   2.934   4.245   5.547  0.7578 -0.3142  0.1819
 4394SOL     OW24640   0.120   3.658   9.346 -0.6337 -0.0077 -0.3118
 4394SOL    HW124641   0.207   3.619   9.336 -1.7034 -2.1094 -1.3327
 4394SOL    HW224642   0.089   3.603   9.418  3.0687 -1.0308  0.4874
 4395SOL     OW24643   2.572   1.601   3.084 -0.4170  0.0557 -0.1361
 4395SOL    HW124644   2.578   1.633   2.994 -0.7205 -1.7447 -0.8110
 4395SOL    HW224645   2.503   1.535   3.074  1.4155 -1.9582  0.5169
 4396SOL     OW24646   1.691   0.149   4.942  0.0002 -0.1466 -0.3619
 4396SOL    HW124647   1.768   0.144   4.999  0.7188 -2.4289 -1.5335
 4396SOL    HW224648   1.734   0.158   4.857  0.4053 -2.0711 -0.3569
 4397SOL     OW24649   3.319   1.664   5.022  0.2453  0.1199  0.0731
 4397SOL    HW124650   3.299   1.675   5.114 -0.3956  0.0342 -0.0574
 4397SOL    HW224651   3.408   1.700   5.013 -0.3745  2.0418  1.6954
 4398SOL     OW24652   1.951   2.362   4.098 -0.9165 -0.0049  0.1124
 4398SOL    HW124653   2.039   2.386   4.071 -0.7382 -0.7778  0.0161
 4398SOL    HW224654   1.903   2.425   4.045 -1.1889  1.0156  1.5628
 4399SOL     OW24655   1.327   1.178  11.123 -0.2972  0.4223 -0.2189
 4399SOL    HW124656   1.331   1.087  11.091 -1.6721  0.0277  0.7601
 4399SOL    HW224657   1.309   1.159  11.215 -3.4146  0.2567 -0.8684
 4400SOL     OW24658   1.739   0.889   0.290 -0.6618 -0.4503 -0.0012
 4400SOL    HW124659   1.793   0.818   0.325 -1.7802 -1.7561 -0.9506
 4400SOL    HW224660   1.808   0.955   0.279  0.2747 -1.4647 -0.1962
 4401SOL     OW24661   0.633   2.531  17.445  0.2269  0.2827 -0.0230
 4401SOL    HW124662   0.660   2.442  17.467  0.7839  0.6753  0.8883
 4401SOL    HW224663   0.717   2.573  17.465 -0.0567  0.6173  0.4587
 4402SOL     OW24664   0.347   4.227   4.250 -0.6141 -0.3506  0.1979
 4402SOL    HW124665   0.284   4.256   4.184  0.0857 -1.5484 -1.0056
 4402SOL    HW224666   0.303   4.253   4.331 -0.0996 -0.0875  0.3843
 4403SOL     OW24667   4.431   2.157  15.917 -0.3621 -0.1834  0.1089
 4403SOL    HW124668   4.377   2.163  15.995  0.3772 -2.0817  0.7621
 4403SOL    HW224669   4.422   2.062  15.907  2.7150 -0.4931  0.4208
 4404SOL     OW24670   1.464   0.556  12.939 -0.5093  0.2250 -0.4157
 4404SOL    HW124671   1.373   0.566  12.914 -1.0964 -1.2407  1.1131
 4404SOL    HW224672   1.441   0.514  13.022 -2.2951  0.6702 -0.6920
 4405SOL     OW24673   3.894   4.421   1.306  0.3120  0.5623  0.1258
 4405SOL    HW124674   3.805   4.453   1.323  0.7504  2.1013 -0.4355
 4405SOL    HW224675   3.939   4.486   1.251 -0.1978  1.2884  0.5695
 4406SOL     OW24676   1.520   1.869   4.979  0.1710 -0.5030  0.1103
 4406SOL    HW124677   1.577   1.854   5.054 -0.8109 -0.9221  0.7729
 4406SOL    HW224678   1.460   1.795   4.987 -1.8206  1.2813  1.6180
 4407SOL     OW24679   3.463   3.035   1.659  0.7245  0.0383  0.0419
 4407SOL    HW124680   3.410   2.983   1.719  1.3063 -0.0856  0.4495
 4407SOL    HW224681   3.547   2.990   1.652 -0.0124 -1.2284 -0.6593
 4408SOL     OW24682   0.713   4.007   6.213  0.3642 -0.1002  0.7249
 4408SOL    HW124683   0.630   3.976   6.249 -0.9983  2.2483 -0.4302
 4408SOL    HW224684   0.699   3.984   6.121  2.0359  0.1512  0.4090
 4409SOL     OW24685   3.236   0.783   5.777  0.3097  0.4033 -0.0719
 4409SOL    HW124686   3.315   0.813   5.731 -0.0561 -0.9870 -1.6306
 4409SOL    HW224687   3.248   0.688   5.772  1.6209  0.4771  1.5570
 4410SOL     OW24688   2.514   3.985  16.053  0.3567  0.0656  0.7931
 4410SOL    HW124689   2.568   4.023  15.984  0.1482  1.4844  1.4227
 4410SOL    HW224690   2.537   4.050  16.119  0.5793  2.4106 -1.6156
 4411SOL     OW24691   3.020   2.075  15.509  0.5949 -0.0362 -0.5430
 4411SOL    HW124692   3.053   2.158  15.543 -1.6221  0.8664 -0.5375
 4411SOL    HW224693   2.982   2.116  15.432  1.2243  1.9282  0.1852
 4412SOL     OW24694   3.152   1.003   4.218 -0.3470  0.1411 -0.2007
 4412SOL    HW124695   3.170   0.948   4.141 -0.7409  0.3260 -0.4247
 4412SOL    HW224696   3.132   0.931   4.279  0.8049  1.9843  2.3422
 4413SOL     OW24697   0.779   3.318   7.826  0.4917  0.1218 -0.4305
 4413SOL    HW124698   0.747   3.232   7.852  0.0223 -0.0229 -1.5035
 4413SOL    HW224699   0.853   3.337   7.884  1.5895  1.7384 -2.3765
 4414SOL     OW24700   4.279   0.193   6.325  0.0109  0.6635  0.1572
 4414SOL    HW124701   4.221   0.174   6.251  0.7883  0.2011 -0.3275
 4414SOL    HW224702   4.240   0.263   6.378  0.2074  1.1592 -0.3570
 4415SOL     OW24703   3.011   1.243   7.014 -0.0078  0.1664  0.9467
 4415SOL    HW124704   2.982   1.161   7.054  1.3982 -0.7599  0.0646
 4415SOL    HW224705   3.063   1.202   6.945 -1.7007 -0.3038 -0.0686
 4416SOL     OW24706   0.714   4.627   8.353  0.1907  0.5192 -0.2640
 4416SOL    HW124707   0.704   4.574   8.432  1.4783 -1.1847 -1.2367
 4416SOL    HW224708   0.756   4.568   8.290 -0.5923  0.3660 -0.6372
 4417SOL     OW24709   0.673   1.833   5.956  0.9920  0.3784  0.2382
 4417SOL    HW124710   0.653   1.910   6.010 -2.1935 -0.7968  0.7501
 4417SOL    HW224711   0.744   1.798   6.010  1.8228  0.1380 -1.0072
 4418SOL     OW24712   1.685   2.719   2.316 -0.8630 -0.1387 -0.1250
 4418SOL    HW124713   1.738   2.755   2.386  0.4609 -1.2581 -0.5592
 4418SOL    HW224714   1.666   2.801   2.271  1.5692  0.2545 -0.3984
 4419SOL     OW24715   2.066   1.229  12.499  0.1773  0.1828 -0.1276
 4419SOL    HW124716   2.125   1.285  12.550  1.5061 -0.3363 -1.1000
 4419SOL    HW224717   2.085   1.143  12.536 -1.5122 -0.3939 -0.5644
 4420SOL     OW24718   4.125   1.646   0.657 -0.3106  0.4671 -0.2889
 4420SOL    HW124719   4.189   1.712   0.684 -0.2724 -0.3384  1.6231
 4420SOL    HW224720   4.177   1.570   0.685 -2.1817 -0.9097 -0.5516
 4421SOL     OW24721   2.820   4.342  12.168 -0.3987 -0.3489 -0.2811
 4421SOL    HW124722   2.891   4.397  12.201  0.1235 -0.7582 -0.7134
 4421SOL    HW224723   2.747   4.404  12.163  1.5745  2.0346  0.4369
 4422SOL     OW24724   0.293   4.699  14.788 -0.3516  0.6293 -0.2604
 4422SOL    HW124725   0.224   4.717  14.851 -0.7900  1.6277 -1.0193
 4422SOL    HW224726   0.349   0.051  14.799 -1.8721  1.6518  0.3715
 4423SOL     OW24727   3.057   1.553   1.613  0.8513 -0.1338  0.2009
 4423SOL    HW124728   3.090   1.619   1.552 -2.4938  0.3015 -1.1193
 4423SOL    HW224729   3.076   1.475   1.561  0.0090 -0.6975  0.7424
 4424SOL     OW24730   3.183   2.594   8.544 -0.4957 -0.1958  0.0299
 4424SOL    HW124731   3.228   2.593   8.628  1.1633  2.2916 -0.8482
 4424SOL    HW224732   3.201   2.680   8.508 -1.9439 -1.4568 -3.7606
 4425SOL     OW24733   2.614   2.979   1.632 -0.1143  0.4648 -0.3865
 4425SOL    HW124734   2.696   3.025   1.616  0.3208  0.2269  1.1140
 4425SOL    HW224735   2.589   3.022   1.714  1.6622  2.8008 -1.1025
 4426SOL     OW24736   0.262   3.657   5.979 -0.8040  0.3209  0.2821
 4426SOL    HW124737   0.303   3.667   5.893  1.4726 -0.4270  1.2589
 4426SOL    HW224738   0.318   3.591   6.020  0.1123 -0.5572 -2.3598
 4427SOL     OW24739   3.625   0.130   2.966 -0.4185 -0.1298  0.0705
 4427SOL    HW124740   3.542   0.145   2.920  0.7024  0.4258 -1.7414
 4427SOL    HW224741   3.589   0.056   3.016 -1.9777  0.6299  0.0783
 4428SOL     OW24742   2.908   2.359  15.073 -0.6231  0.3244 -0.0279
 4428SOL    HW124743   2.853   2.326  15.002 -2.0863  3.2217 -0.2395
 4428SOL    HW224744   2.966   2.411  15.018 -1.6402  1.1973 -0.2834
 4429SOL     OW24745   0.017   0.104   5.251  0.6051 -0.3140 -0.0076
 4429SOL    HW124746   4.661   0.156   5.253  0.6532 -0.2638  0.5209
 4429SOL    HW224747   4.705   0.018   5.272  0.7257 -0.1485  0.8738
 4430SOL     OW24748   4.320   4.456   3.844 -0.2079  0.0783 -0.7154
 4430SOL    HW124749   4.393   4.412   3.887  1.1005  0.5530 -2.4431
 4430SOL    HW224750   4.353   4.451   3.755 -0.7988  1.7706 -1.0407
 4431SOL     OW24751   0.456   2.184   7.558  0.3660 -0.2027 -0.5682
 4431SOL    HW124752   0.495   2.236   7.628  0.9285  0.0106 -1.0402
 4431SOL    HW224753   0.529   2.126   7.536 -0.8290 -2.5430  1.5720
 4432SOL     OW24754   1.487   1.360   2.390 -0.1440  0.1395 -0.1109
 4432SOL    HW124755   1.454   1.450   2.385  1.1374  0.5912 -0.3860
 4432SOL    HW224756   1.578   1.387   2.401  0.5983 -1.8213 -1.4541
 4433SOL     OW24757   0.330   4.614   3.380  0.0662 -0.3264 -0.0315
 4433SOL    HW124758   0.416   4.654   3.362 -0.3631  0.1439 -0.9982
 4433SOL    HW224759   0.283   4.634   3.299  2.0381  1.5438 -0.7402
 4434SOL     OW24760   2.739   0.793   9.559 -0.1625 -0.1824 -0.1224
 4434SOL    HW124761   2.703   0.878   9.584  0.5014  0.1130 -0.1638
 4434SOL    HW224762   2.828   0.829   9.556 -0.4398  0.5196  0.0950
 4435SOL     OW24763   3.610   0.932   5.077 -0.2033  0.0829 -0.6408
 4435SOL    HW124764   3.627   0.972   5.163 -0.3385 -0.7782 -0.2203
 4435SOL    HW224765   3.696   0.939   5.035  1.1457 -1.3425  1.8677
 4436SOL     OW24766   0.808   1.707   3.576 -0.2443 -0.2597  0.0767
 4436SOL    HW124767   0.888   1.673   3.616  1.2496  1.3302 -1.5927
 4436SOL    HW224768   0.758   1.628   3.558 -0.5870  0.1917 -0.9577
 4437SOL     OW24769   2.133   4.345   2.348  0.4713 -0.0665 -0.6300
 4437SOL    HW124770   2.062   4.285   2.323  0.2588 -0.7682  1.6650
 4437SOL    HW224771   2.203   4.322   2.287  1.4057  0.6889  0.1623
 4438SOL     OW24772   3.078   2.338  16.961  0.4582 -0.2733  0.2137
 4438SOL    HW124773   3.046   2.400  17.026 -1.2314  0.3302 -1.1946
 4438SOL    HW224774   3.164   2.323  17.000  0.3444 -1.3184  0.0658
 4439SOL     OW24775   3.294   0.321   6.891  0.0427 -0.3313  0.2647
 4439SOL    HW124776   3.387   0.332   6.873  0.3640 -0.2740  1.9978
 4439SOL    HW224777   3.269   0.396   6.945  2.4826  1.7015 -1.4453
 4440SOL     OW24778   1.472   3.815   3.527  0.0999  0.2527 -0.2792
 4440SOL    HW124779   1.460   3.780   3.438  2.3684  1.3345 -1.0272
 4440SOL    HW224780   1.396   3.779   3.571 -1.0198  2.9363 -0.0283
 4441SOL     OW24781   3.505   4.678   7.649 -0.0088 -0.1524 -0.2222
 4441SOL    HW124782   3.458   4.602   7.684 -2.3114  1.4783  0.1867
 4441SOL    HW224783   3.431   0.006   7.618 -0.2079  0.0671  0.6202
 4442SOL     OW24784   0.983   1.153   7.495 -0.1682 -0.2886  0.2565
 4442SOL    HW124785   0.937   1.222   7.542 -0.2955  0.1045 -0.4508
 4442SOL    HW224786   0.913   1.088   7.499  1.1517 -1.6943  0.5887
 4443SOL     OW24787   1.524   2.053   7.642  0.5178 -0.0394 -0.3529
 4443SOL    HW124788   1.563   2.038   7.556  0.8053 -1.1390 -0.0397
 4443SOL    HW224789   1.490   1.965   7.656  0.1331  0.4585  1.8216
 4444SOL     OW24790   2.857   4.163   9.980  0.3204  0.0418 -0.3255
 4444SOL    HW124791   2.928   4.135  10.038  0.8904 -0.6223 -1.3377
 4444SOL    HW224792   2.859   4.095   9.913 -2.6199 -0.6374  0.2671
 4445SOL     OW24793   1.480   0.971   6.978 -0.0348  0.3997 -0.6266
 4445SOL    HW124794   1.457   1.014   7.060  3.2987 -1.2296  1.1585
 4445SOL    HW224795   1.575   0.984   6.980 -0.0483  0.4143  0.0589
 4446SOL     OW24796   0.250   2.903   8.510 -0.4155  0.1357  0.0168
 4446SOL    HW124797   0.279   2.987   8.474 -1.0944  1.4358  2.5007
 4446SOL    HW224798   0.242   2.925   8.603 -2.5778  2.7354 -0.7583
 4447SOL     OW24799   0.133   1.641   2.463  0.7181  0.5995  0.0409
 4447SOL    HW124800   0.199   1.673   2.402 -1.7276  1.2791 -2.2712
 4447SOL    HW224801   0.161   1.671   2.550 -0.1131 -1.4990  1.0306
 4448SOL     OW24802   2.317   3.164  12.909 -0.4623 -0.0171  0.3792
 4448SOL    HW124803   2.388   3.141  12.970 -1.8398 -1.6556  1.3807
 4448SOL    HW224804   2.259   3.097  12.945 -0.5786 -0.0350  0.1533
 4449SOL     OW24805   2.611   1.597  13.724 -0.0782  0.1637 -0.0921
 4449SOL    HW124806   2.699   1.595  13.686  0.6256 -0.2330  1.5297
 4449SOL    HW224807   2.620   1.633  13.812  0.8252  0.2648 -0.2280
 4450SOL     OW24808   1.307   2.704   6.558  0.5292 -0.5356  0.2719
 4450SOL    HW124809   1.224   2.739   6.525  0.9959 -0.3121 -0.6626
 4450SOL    HW224810   1.376   2.770   6.556  0.1803 -0.0703  3.6413
 4451SOL     OW24811   0.810   4.133   8.786 -0.5684 -0.2116  0.0854
 4451SOL    HW124812   0.794   4.209   8.730  2.4984  0.1669 -0.2740
 4451SOL    HW224813   0.725   4.093   8.803 -0.3821 -1.8678 -2.9456
 4452SOL     OW24814   3.965   1.050   8.299  0.3079 -0.1081  0.0254
 4452SOL    HW124815   4.060   1.047   8.291  0.3266  0.6618 -0.0180
 4452SOL    HW224816   3.938   0.960   8.280  0.2407  0.0524 -0.6631
 4453SOL     OW24817   1.019   3.725   9.546  0.6590  0.3369  0.4169
 4453SOL    HW124818   1.088   3.742   9.611  0.2431  0.7541  0.7517
 4453SOL    HW224819   1.064   3.684   9.472  1.1765 -1.1849  1.5840
 4454SOL     OW24820   2.799   2.207   8.633  0.5395 -0.8117 -0.0065
 4454SOL    HW124821   2.719   2.213   8.685 -0.3867 -0.0476 -1.5114
 4454SOL    HW224822   2.828   2.295   8.609 -1.0190 -0.2014  0.3530
 4455SOL     OW24823   2.568   4.421   8.610 -0.2266  0.6723 -0.2266
 4455SOL    HW124824   2.662   4.437   8.615  0.1999 -1.4510 -1.8498
 4455SOL    HW224825   2.529   4.464   8.686  2.2375  1.5950  0.4968
 4456SOL     OW24826   4.635   2.651   6.995  0.1924  0.1641 -0.1306
 4456SOL    HW124827   4.657   2.562   6.969 -0.7812  0.2291 -1.1742
 4456SOL    HW224828   4.704   2.660   7.060  0.7052 -0.4966 -0.5746
 4457SOL     OW24829   2.763   1.531  16.318 -0.3363  0.5285 -0.6265
 4457SOL    HW124830   2.755   1.445  16.277 -0.1010  0.2667 -0.1338
 4457SOL    HW224831   2.673   1.559  16.304 -1.3995 -1.8116  1.6519
 4458SOL     OW24832   4.648   4.626   5.814  0.8350 -0.3418  0.5054
 4458SOL    HW124833   4.566   4.580   5.798  0.6801  0.2862 -0.4926
 4458SOL    HW224834   4.618   4.703   5.863  1.2455  0.1850 -0.0754
 4459SOL     OW24835   4.509   3.610  14.746  0.1824  0.3948 -0.5009
 4459SOL    HW124836   4.588   3.638  14.701  0.0587  1.4015 -0.0949
 4459SOL    HW224837   4.456   3.594  14.667  0.4638  0.0503 -0.6182
 4460SOL     OW24838   3.722   4.385   8.533  0.2113 -0.2815 -0.2037
 4460SOL    HW124839   3.771   4.455   8.489 -0.2402 -1.0281 -1.9020
 4460SOL    HW224840   3.788   4.348   8.591 -0.7361 -0.8404  0.4982
 4461SOL     OW24841   4.291   3.843   9.476 -0.2514  0.5552 -0.0835
 4461SOL    HW124842   4.254   3.779   9.536  0.5844  0.5339  0.4077
 4461SOL    HW224843   4.240   3.924   9.481 -1.9014 -0.5770  1.6257
 4462SOL     OW24844   1.720   1.035   4.975 -0.0144  0.4793  0.5589
 4462SOL    HW124845   1.740   1.126   4.955  0.3192  0.1513 -0.5973
 4462SOL    HW224846   1.635   1.028   4.930  1.9678 -2.0624 -2.8143
 4463SOL     OW24847   0.232   0.395  15.153  0.2326 -0.3166 -0.1981
 4463SOL    HW124848   0.201   0.419  15.241 -1.0794 -2.2616 -0.1447
 4463SOL    HW224849   0.288   0.469  15.128  0.3579  0.2934  1.8656
 4464SOL     OW24850   4.575   3.150   2.389 -0.1490  0.2722  0.5210
 4464SOL    HW124851   4.605   3.228   2.436  2.4287  0.3874 -1.3302
 4464SOL    HW224852   4.490   3.180   2.357 -0.0435 -0.9203 -0.8943
 4465SOL     OW24853   2.516   1.322   7.040 -0.6976 -0.1715  0.2587
 4465SOL    HW124854   2.578   1.392   7.060 -0.0142 -0.8303  0.4422
 4465SOL    HW224855   2.460   1.360   6.973 -0.4622 -0.3164 -0.0207
 4466SOL     OW24856   0.932   3.277   9.713  0.3176 -0.2015  0.1326
 4466SOL    HW124857   1.025   3.298   9.721  0.3292 -0.2659  0.1675
 4466SOL    HW224858   0.888   3.346   9.764  1.0171 -0.2787  0.8490
 4467SOL     OW24859   4.224   1.560   3.127  0.1125 -0.3905  0.4712
 4467SOL    HW124860   4.204   1.482   3.074  2.0327  0.2485 -1.2041
 4467SOL    HW224861   4.316   1.574   3.106 -0.5319  0.6981 -1.6425
 4468SOL     OW24862   2.581   4.139   0.754 -0.2435 -0.0463 -0.1494
 4468SOL    HW124863   2.651   4.196   0.785 -0.8211  0.7833 -0.3606
 4468SOL    HW224864   2.579   4.063   0.813  0.0596  0.6915  0.8026
 4469SOL     OW24865   4.334   3.321   8.214 -0.0741 -0.0906  0.6273
 4469SOL    HW124866   4.297   3.356   8.295 -0.1025 -0.5225  0.8014
 4469SOL    HW224867   4.395   3.393   8.201 -0.7260  0.5630  1.2197
 4470SOL     OW24868   1.270   2.338   4.223  0.0325 -0.0775  0.3021
 4470SOL    HW124869   1.288   2.269   4.159  0.2473 -0.5143  0.8328
 4470SOL    HW224870   1.187   2.375   4.195 -0.1008 -1.6655 -1.4253
 4471SOL     OW24871   2.802   1.217   6.432 -0.6080 -0.1498 -0.6121
 4471SOL    HW124872   2.764   1.296   6.471 -2.2823 -0.8622 -0.8116
 4471SOL    HW224873   2.728   1.157   6.428  0.0293 -1.1083  1.4851
 4472SOL     OW24874   4.602   4.112   2.381  0.2590 -0.4922  0.2154
 4472SOL    HW124875   4.536   4.177   2.359 -1.5003 -2.5219 -0.5904
 4472SOL    HW224876   4.662   4.127   2.307  1.0828  3.0823  1.6206
 4473SOL     OW24877   0.018   4.669   0.422  0.4295  0.6489 -0.4854
 4473SOL    HW124878   0.091   0.002   0.400  1.0730 -0.0273 -0.0946
 4473SOL    HW224879   4.683   4.692   0.350 -1.5453 -1.1239  0.5820
 4474SOL     OW24880   2.933   0.032  14.805 -0.3049 -0.3124 -0.7300
 4474SOL    HW124881   2.899   4.668  14.797 -0.6213 -0.1085 -1.6070
 4474SOL    HW224882   3.028   0.021  14.810 -0.1243  0.9390 -1.2679
 4475SOL     OW24883   2.922   2.302   3.413  0.2908  0.4046  0.4787
 4475SOL    HW124884   3.003   2.319   3.460 -0.4672 -1.2947  2.4052
 4475SOL    HW224885   2.957   2.244   3.346 -2.1491 -0.6544  0.0887
 4476SOL     OW24886   3.505   3.609  13.965  0.2320 -0.8636  0.6124
 4476SOL    HW124887   3.573   3.637  13.903  1.1092 -2.1652  0.9690
 4476SOL    HW224888   3.435   3.577  13.909  0.9410  0.7504 -1.1958
 4477SOL     OW24889   1.923   3.805   1.559  0.3068  0.0122  0.0294
 4477SOL    HW124890   1.952   3.754   1.635 -0.3825 -0.1324  0.1868
 4477SOL    HW224891   1.835   3.822   1.592  1.0755  2.2142  0.9306
 4478SOL     OW24892   3.782   3.593   2.786  0.0911  0.1976 -0.6707
 4478SOL    HW124893   3.694   3.629   2.796  1.2993  2.5105  1.8100
 4478SOL    HW224894   3.816   3.651   2.718  0.1609  2.5033  1.3231
 4479SOL     OW24895   2.119   0.789   9.086  0.4789  0.4116  0.4310
 4479SOL    HW124896   2.202   0.817   9.048  1.0023 -0.3756  0.9791
 4479SOL    HW224897   2.079   0.744   9.012  0.0834  1.9832 -0.3006
 4480SOL     OW24898   0.589   4.214  16.017  0.2942  0.6683 -0.2923
 4480SOL    HW124899   0.643   4.244  16.090 -0.7176 -0.8974  1.1083
 4480SOL    HW224900   0.657   4.160  15.976  0.2167 -0.6326  1.2876
 4481SOL     OW24901   2.067   3.840   1.048 -0.5365 -0.3776 -0.1069
 4481SOL    HW124902   2.022   3.853   0.965  0.0947 -0.1036 -0.4018
 4481SOL    HW224903   1.995   3.828   1.111 -0.8570 -0.2208 -0.4458
 4482SOL     OW24904   4.340   3.057  16.243  0.2870  0.1375 -0.3835
 4482SOL    HW124905   4.299   3.132  16.200  0.3830 -0.6123 -1.7655
 4482SOL    HW224906   4.345   3.093  16.332 -1.7596  1.6591 -0.8848
 4483SOL     OW24907   0.090   0.422   7.924  0.3427  0.1366  0.5902
 4483SOL    HW124908   0.140   0.345   7.952 -1.3205 -0.5859  1.5800
 4483SOL    HW224909   0.043   0.383   7.851  2.1127 -0.0984 -0.4380
 4484SOL     OW24910   1.135   0.230   5.754  0.2897 -0.5215  0.1243
 4484SOL    HW124911   1.139   0.140   5.787  2.4347  0.3844  2.3023
 4484SOL    HW224912   1.226   0.253   5.740  0.8644 -2.3537  0.8034
 4485SOL     OW24913   2.878   3.637   3.295  0.3256  0.1559 -0.3320
 4485SOL    HW124914   2.892   3.552   3.337  2.6892  0.4464 -0.5183
 4485SOL    HW224915   2.840   3.682   3.370 -2.6815 -1.5058 -0.8521
 4486SOL     OW24916   4.562   2.612  17.145 -0.4082 -0.0301  0.4864
 4486SOL    HW124917   4.568   2.548  17.215  1.4695 -1.6551 -1.1751
 4486SOL    HW224918   4.511   2.566  17.078  1.3724 -2.3068  0.7004
 4487SOL     OW24919   3.406   3.478   5.542  0.3745 -0.0900 -0.2187
 4487SOL    HW124920   3.491   3.504   5.577  0.0121  1.1757 -0.2892
 4487SOL    HW224921   3.419   3.402   5.485 -0.6558 -0.4296 -0.0086
 4488SOL     OW24922   4.014   1.921   2.664 -0.7246 -0.1411  0.6657
 4488SOL    HW124923   4.086   1.911   2.727 -0.1592  1.9333  0.3575
 4488SOL    HW224924   3.979   2.009   2.681  0.9889  0.1961  2.4743
 4489SOL     OW24925   4.195   3.575   5.997  0.2654 -0.6503 -0.3104
 4489SOL    HW124926   4.173   3.532   5.914 -1.1625 -2.4990  1.0275
 4489SOL    HW224927   4.290   3.566   5.996  0.2331 -1.1277  0.7406
 4490SOL     OW24928   3.698   4.629   7.878  0.1105 -0.1914  0.4648
 4490SOL    HW124929   3.774   4.589   7.836 -0.2012 -4.0003  3.4490
 4490SOL    HW224930   3.634   4.627   7.808  1.4421  0.2867 -0.7598
 4491SOL     OW24931   2.012   2.540  17.436  0.0514  0.5892  0.0868
 4491SOL    HW124932   1.924   2.578  17.427 -0.8280 -1.8453 -1.6582
 4491SOL    HW224933   2.068   2.613  17.463  1.0573  0.6163 -2.0322
 4492SOL     OW24934   2.031   4.576   9.713 -0.0470  0.1653 -0.1584
 4492SOL    HW124935   1.955   4.619   9.675 -2.7331 -3.6209  0.9290
 4492SOL    HW224936   1.986   4.498   9.746 -0.8721  0.6647 -0.1201
 4493SOL     OW24937   1.855   1.369   4.345  0.0159  0.0450 -0.0360
 4493SOL    HW124938   1.803   1.363   4.426  0.3459 -2.2292  0.0202
 4493SOL    HW224939   1.901   1.285   4.356  0.5217  0.5814  2.0204
 4494SOL     OW24940   4.204   2.937   4.016 -0.2884 -0.2082 -0.5282
 4494SOL    HW124941   4.256   2.868   3.976 -2.7962 -3.0341  1.1026
 4494SOL    HW224942   4.226   2.912   4.105  3.4881  0.0547 -1.3828
 4495SOL     OW24943   0.603   4.463  12.305  0.3344 -0.0272  0.5642
 4495SOL    HW124944   0.548   4.534  12.273 -1.4217 -1.5645  0.1175
 4495SOL    HW224945   0.559   4.394  12.254  0.8796 -0.1819  0.2982
 4496SOL     OW24946   0.560   2.030   4.610  0.1795 -0.0041  0.3264
 4496SOL    HW124947   0.629   2.056   4.671  0.3301 -0.0881  0.1915
 4496SOL    HW224948   0.573   1.936   4.596 -2.5736 -0.0940 -1.7174
 4497SOL     OW24949   2.596   2.584   8.087  0.1090 -0.3155  0.1645
 4497SOL    HW124950   2.606   2.611   7.996 -1.5014 -1.2405 -0.2714
 4497SOL    HW224951   2.504   2.558   8.088 -0.3692  1.3336 -0.1276
 4498SOL     OW24952   3.959   1.551   7.281 -0.0785  0.6663 -0.6632
 4498SOL    HW124953   3.934   1.610   7.352  1.0241  0.0481  0.2448
 4498SOL    HW224954   3.935   1.472   7.329 -2.8493  1.3569 -0.9573
 4499SOL     OW24955   4.301   0.857   2.750  0.1550 -0.5435  0.1093
 4499SOL    HW124956   4.282   0.854   2.657 -1.9486  1.9921  0.4450
 4499SOL    HW224957   4.385   0.900   2.761 -1.3560  2.4457 -0.1287
 4500SOL     OW24958   4.532   3.954  17.146 -0.7604  0.2484 -0.0414
 4500SOL    HW124959   4.461   3.957  17.210 -2.2827 -0.6949 -1.6681
 4500SOL    HW224960   4.603   3.912  17.194 -0.2318  0.8902 -0.2529
 4501SOL     OW24961   2.562   1.227  14.746  0.7154 -0.0990  0.2734
 4501SOL    HW124962   2.474   1.201  14.773  0.4551 -0.7830 -1.2382
 4501SOL    HW224963   2.554   1.319  14.723 -0.6653 -0.4371 -0.5983
 4502SOL     OW24964   1.531   0.028   6.685 -0.4295 -0.2956 -0.1151
 4502SOL    HW124965   1.473   0.024   6.761  1.5642  0.6191  1.4324
 4502SOL    HW224966   1.469   0.033   6.612 -1.5556  2.0797  0.9818
 4503SOL     OW24967   3.938   1.839   7.165 -0.0715  0.6023 -0.3790
 4503SOL    HW124968   3.883   1.774   7.122  2.6176 -0.9842 -1.4203
 4503SOL    HW224969   4.023   1.795   7.164 -0.4563 -0.1523  0.1420
 4504SOL     OW24970   0.417   1.591   7.992  0.6391  0.1676 -0.0835
 4504SOL    HW124971   0.328   1.627   7.988 -0.3396 -2.0708  1.1972
 4504SOL    HW224972   0.435   1.573   7.899  1.7885 -0.9920  0.3644
 4505SOL     OW24973   3.634   4.356   3.192 -0.0454  0.2881 -0.0435
 4505SOL    HW124974   3.729   4.353   3.208 -0.0699 -0.7934 -0.0719
 4505SOL    HW224975   3.630   4.263   3.167 -1.8805  0.3914 -0.1036
 4506SOL     OW24976   2.275   1.123   8.284 -0.4760  1.2276 -0.3446
 4506SOL    HW124977   2.334   1.070   8.230 -0.8840  0.7408 -0.3160
 4506SOL    HW224978   2.254   1.062   8.355  0.2307  3.3203  1.6526
 4507SOL     OW24979   1.180   3.289   0.807 -0.3938  0.1129 -0.5872
 4507SOL    HW124980   1.182   3.196   0.829  1.7032  0.3140  0.0635
 4507SOL    HW224981   1.257   3.296   0.750  0.1736  1.5020  0.3479
 4508SOL     OW24982   0.402   1.340   4.996 -0.0348 -0.4040 -0.5321
 4508SOL    HW124983   0.336   1.381   4.941  0.3290 -0.5305 -1.0602
 4508SOL    HW224984   0.439   1.420   5.034  1.7184 -1.6071  0.2949
 4509SOL     OW24985   1.787   0.693   4.675 -0.2175 -0.2581  0.0511
 4509SOL    HW124986   1.879   0.720   4.685  0.1782 -1.3717 -0.4929
 4509SOL    HW224987   1.763   0.676   4.766  0.4597 -1.2933  0.0471
 4510SOL     OW24988   3.414   1.278  10.925  0.5931  0.0882 -0.1196
 4510SOL    HW124989   3.324   1.246  10.915  0.4879  0.0220  1.0280
 4510SOL    HW224990   3.413   1.316  11.013 -1.8576 -0.9192  0.2886
 4511SOL     OW24991   0.720   4.437  17.524  0.2149  0.3262  0.0933
 4511SOL    HW124992   0.724   4.342  17.509 -1.3090  0.2573  0.1935
 4511SOL    HW224993   0.626   4.454  17.523  0.3160  0.7582 -1.8632
 4512SOL     OW24994   1.055   2.248  11.961  0.2327  0.5819  0.4685
 4512SOL    HW124995   1.118   2.187  11.922  0.5949  0.5404  1.1022
 4512SOL    HW224996   1.085   2.242  12.052 -2.6386  0.0586  1.3580
 4513SOL     OW24997   2.448   3.806   8.491 -0.2729 -0.2631 -0.5452
 4513SOL    HW124998   2.543   3.806   8.477 -0.4458 -0.7316 -1.7527
 4513SOL    HW224999   2.425   3.714   8.476  0.5417 -0.3059 -1.5743
 4514SOL     OW25000   4.496   2.454  16.938  0.4346 -0.3300 -0.1157
 4514SOL    HW125001   4.456   2.458  16.852 -1.0756 -0.1401  0.6072
 4514SOL    HW225002   4.556   2.380  16.930  0.2710 -0.4141 -0.5162
 4515SOL     OW25003   0.113   0.871   8.195  0.2619  0.2525 -0.3977
 4515SOL    HW125004   0.161   0.828   8.123  0.4160  2.9466 -1.8961
 4515SOL    HW225005   0.116   0.795   8.253  0.7685  0.4588 -0.1498
 4516SOL     OW25006   2.287   1.716  11.068 -0.9185  0.3185  0.3349
 4516SOL    HW125007   2.246   1.771  11.135 -1.1324 -0.1782  0.6089
 4516SOL    HW225008   2.353   1.776  11.033 -1.5608  0.5109 -0.5489
 4517SOL     OW25009   0.824   2.464   3.696  0.6215  0.3723 -0.2467
 4517SOL    HW125010   0.842   2.558   3.686  0.3243  0.8015  3.0828
 4517SOL    HW225011   0.729   2.460   3.691  0.4818  3.2901  0.1696
 4518SOL     OW25012   3.800   2.643  17.561  0.0649 -0.1000 -0.4702
 4518SOL    HW125013   3.730   2.648  17.627  0.4087 -0.3838 -0.0838
 4518SOL    HW225014   3.872   2.603  17.609 -1.1766  1.7330  2.9311
 4519SOL     OW25015   0.375   3.471   8.952  0.4721 -0.0342  0.4239
 4519SOL    HW125016   0.431   3.489   8.876 -1.0310  1.0371 -0.4335
 4519SOL    HW225017   0.416   3.391   8.984 -2.4564 -1.8072 -0.2561
 4520SOL     OW25018   1.812   2.357   7.508  0.3419 -0.1915  0.0864
 4520SOL    HW125019   1.834   2.450   7.518 -0.8622 -0.1000  1.8132
 4520SOL    HW225020   1.835   2.324   7.595  0.4359  0.4080  0.2900
 4521SOL     OW25021   0.576   1.119   1.013 -0.0347 -0.6319 -0.7780
 4521SOL    HW125022   0.548   1.059   1.083 -1.6582 -0.3801 -1.2199
 4521SOL    HW225023   0.669   1.101   0.995  0.2063 -0.1869  0.0129
 4522SOL     OW25024   4.292   2.658  14.763  0.8196  0.7901 -0.0650
 4522SOL    HW125025   4.348   2.694  14.832 -0.0244 -0.2599  1.1886
 4522SOL    HW225026   4.346   2.671  14.685 -0.0290 -0.8804 -0.9359
 4523SOL     OW25027   3.666   0.342   7.142 -0.5968  0.1729  0.2270
 4523SOL    HW125028   3.728   0.385   7.083  1.6844 -0.8430  1.8618
 4523SOL    HW225029   3.732   0.285   7.182 -0.7694 -0.3318 -0.2221
 4524SOL     OW25030   0.552   3.601  13.086  0.4445 -0.2187 -0.0516
 4524SOL    HW125031   0.476   3.553  13.116 -0.6107  1.7959  0.4813
 4524SOL    HW225032   0.597   3.521  13.059  1.6663  0.4495 -0.0293
 4525SOL     OW25033   2.728   2.411  17.139  0.9793 -0.3445  0.7519
 4525SOL    HW125034   2.810   2.434  17.183  1.0191 -0.8463  0.9436
 4525SOL    HW225035   2.663   2.452  17.196  1.0425  2.6660 -1.3267
 4526SOL     OW25036   0.641   3.895   6.586  0.2199 -0.2407  0.3192
 4526SOL    HW125037   0.628   3.839   6.663  0.7730 -2.2088 -1.0308
 4526SOL    HW225038   0.736   3.890   6.579  0.1657 -0.2820 -0.4197
 4527SOL     OW25039   0.555   1.719   2.574 -0.0573  0.5105  0.1042
 4527SOL    HW125040   0.566   1.796   2.518 -0.0518  1.0572  0.8558
 4527SOL    HW225041   0.633   1.673   2.545 -0.9604  0.1425 -1.7436
 4528SOL     OW25042   3.363   0.042   0.357 -0.2782 -0.1075  0.0602
 4528SOL    HW125043   3.283   0.063   0.308  0.3400  0.1754 -0.8273
 4528SOL    HW225044   3.342   4.681   0.393 -1.2851  0.1344  0.0691
 4529SOL     OW25045   0.584   3.501   3.424  0.1319  0.6856 -0.0328
 4529SOL    HW125046   0.502   3.457   3.400  1.2724 -2.1713  1.4369
 4529SOL    HW225047   0.565   3.527   3.514 -1.1221 -0.5172  0.0534
 4530SOL     OW25048   4.370   2.302   1.369 -0.4100  0.3599 -0.2259
 4530SOL    HW125049   4.371   2.395   1.390  0.7033  0.7747 -2.0634
 4530SOL    HW225050   4.421   2.273   1.445 -0.0962 -0.1055 -0.6137
 4531SOL     OW25051   0.553   0.367  16.464 -0.0511  0.5557 -0.4601
 4531SOL    HW125052   0.533   0.297  16.526  3.0530 -0.3272 -0.4428
 4531SOL    HW225053   0.554   0.318  16.382  0.7098 -0.6654  0.2817
 4532SOL     OW25054   0.143   2.524  16.419  0.8891 -0.2656  0.3025
 4532SOL    HW125055   0.062   2.549  16.375  0.8888 -1.0685 -0.1456
 4532SOL    HW225056   0.114   2.479  16.498 -0.2372 -0.1504 -0.0395
 4533SOL     OW25057   2.442   0.497  15.056  0.8342  0.4654  0.3036
 4533SOL    HW125058   2.423   0.407  15.082  3.1107 -0.0102  0.2914
 4533SOL    HW225059   2.364   0.538  15.093  0.5003  0.5898 -0.5305
 4534SOL     OW25060   1.376   3.985  16.926 -0.4136 -0.1479  0.2981
 4534SOL    HW125061   1.330   4.000  16.843  2.2816  0.3135 -1.1182
 4534SOL    HW225062   1.334   3.902  16.950 -0.3614 -0.7479 -1.6140
 4535SOL     OW25063   0.597   2.668  10.626  0.6321  0.0414  0.4998
 4535SOL    HW125064   0.589   2.651  10.719 -1.1039 -2.0916 -0.0483
 4535SOL    HW225065   0.600   2.764  10.623 -1.2787  0.1407  1.5288
 4536SOL     OW25066   0.028   3.135   7.807  0.4224  0.1256 -0.1612
 4536SOL    HW125067   4.658   3.122   7.803  0.5414 -0.8201  0.0874
 4536SOL    HW225068   0.062   3.056   7.849 -0.7955 -0.0056  0.5786
 4537SOL     OW25069   3.947   1.813   1.316  0.4678  0.4030 -0.1241
 4537SOL    HW125070   3.899   1.740   1.276 -1.0657  0.8313  0.9318
 4537SOL    HW225071   3.902   1.877   1.260  0.3331  0.6124  0.2222
 4538SOL     OW25072   4.621   2.322   0.788 -0.7940 -0.1054  0.2057
 4538SOL    HW125073   4.616   2.408   0.830 -0.0711 -1.2889  2.7687
 4538SOL    HW225074   4.632   2.344   0.696  2.0225 -0.8724  0.3644
 4539SOL     OW25075   2.159   2.224   2.041 -0.3348  0.1342 -0.0488
 4539SOL    HW125076   2.214   2.212   1.963 -1.1985 -1.9526 -0.3285
 4539SOL    HW225077   2.156   2.319   2.037  0.2912  0.1850  0.6137
 4540SOL     OW25078   0.600   0.082  14.575  0.1663  0.1524  0.5256
 4540SOL    HW125079   0.558   0.112  14.655  0.4054 -0.0241  0.7174
 4540SOL    HW225080   0.665   0.023  14.614 -0.7548 -1.2505 -0.0766
 4541SOL     OW25081   2.057   0.494   5.854  0.3370 -0.0004 -0.2450
 4541SOL    HW125082   1.978   0.532   5.895 -1.5978 -3.5488 -0.7028
 4541SOL    HW225083   2.126   0.552   5.885 -1.6529  1.9533  0.5862
 4542SOL     OW25084   2.626   0.110   9.997 -0.4934  0.2274 -0.9350
 4542SOL    HW125085   2.680   0.055  10.053  0.7712  2.9892  0.5613
 4542SOL    HW225086   2.612   0.045   9.927  3.1010  2.0612 -3.3566
 4543SOL     OW25087   1.732   4.200   5.022 -0.5137  0.7700 -0.5772
 4543SOL    HW125088   1.817   4.243   5.009 -0.7875  1.4847 -0.0493
 4543SOL    HW225089   1.674   4.271   5.052 -1.6214 -0.4244  0.1047
 4544SOL     OW25090   2.896   0.452   2.770 -0.4468  0.2778  0.9028
 4544SOL    HW125091   2.898   0.411   2.856 -0.6563  0.5413  1.0340
 4544SOL    HW225092   2.801   0.460   2.760 -0.9331 -2.1183  3.7749
 4545SOL     OW25093   0.878   1.835   7.185 -0.1526  0.0323 -0.0991
 4545SOL    HW125094   0.970   1.860   7.186  0.6285 -2.7640 -1.6579
 4545SOL    HW225095   0.853   1.866   7.272  0.3246  1.0334 -0.3189
 4546SOL     OW25096   1.718   3.537   1.898  0.8858  0.0189 -0.2810
 4546SOL    HW125097   1.715   3.486   1.817  2.0372 -0.8457  0.2193
 4546SOL    HW225098   1.760   3.471   1.953 -0.4142 -0.5629  0.0071
 4547SOL     OW25099   3.487   4.425  12.287  0.2046 -0.3609 -0.2257
 4547SOL    HW125100   3.511   4.504  12.238 -0.9403  1.5135  2.2155
 4547SOL    HW225101   3.530   4.358  12.234 -0.3110 -0.4436 -0.5325
 4548SOL     OW25102   2.243   1.260  10.151  0.2429  0.1981 -0.1947
 4548SOL    HW125103   2.153   1.277  10.178  0.2568 -1.1560  0.7082
 4548SOL    HW225104   2.279   1.230  10.234  0.3253 -0.3678 -0.4337
 4549SOL     OW25105   3.156   3.913   7.032 -0.6926 -0.2455 -0.2821
 4549SOL    HW125106   3.242   3.942   7.059 -0.3423  1.1708 -2.8756
 4549SOL    HW225107   3.146   3.822   7.060  2.3727 -0.3434  0.4408
 4550SOL     OW25108   3.599   1.077   4.608  0.2808 -0.5279 -0.4905
 4550SOL    HW125109   3.674   1.124   4.572 -0.2523  1.2387  0.7514
 4550SOL    HW225110   3.643   1.008   4.658  0.5111  0.7376  1.0417
 4551SOL     OW25111   2.842   2.797   6.418  0.4434 -0.1801 -0.4786
 4551SOL    HW125112   2.766   2.827   6.467  0.6391  2.0586 -1.5422
 4551SOL    HW225113   2.851   2.873   6.361  2.1810 -0.4432 -0.5817
 4552SOL     OW25114   0.703   3.428  14.607  0.6214 -0.2030  0.3088
 4552SOL    HW125115   0.770   3.439  14.539 -0.8347  1.3465 -0.8765
 4552SOL    HW225116   0.708   3.334  14.621  1.7721 -0.0308  1.0495
 4553SOL     OW25117   4.469   1.755   6.106  0.3996  0.0921 -0.0985
 4553SOL    HW125118   4.536   1.813   6.070  0.0348  0.8954  0.5171
 4553SOL    HW225119   4.476   1.784   6.197 -0.4880 -0.1643  0.0510
 4554SOL     OW25120   2.167   3.393   2.233 -0.2924  0.5691 -0.1678
 4554SOL    HW125121   2.077   3.414   2.208 -1.5953 -1.3448  2.9975
 4554SOL    HW225122   2.178   3.313   2.182  2.6028  1.4984 -1.0291
 4555SOL     OW25123   1.153   0.971  15.421  0.4702  0.0017  0.0891
 4555SOL    HW125124   1.207   0.895  15.442  0.1003 -0.1325  0.5512
 4555SOL    HW225125   1.214   1.032  15.380 -0.5059  0.0034 -1.3779
 4556SOL     OW25126   3.167   0.436   7.262 -0.1149  0.2365 -0.2793
 4556SOL    HW125127   3.246   0.478   7.296 -1.1875 -1.4200  4.2792
 4556SOL    HW225128   3.174   0.440   7.167  0.1085 -0.7189 -0.3018
 4557SOL     OW25129   3.226   4.011   8.403 -0.0770  0.7741 -0.0562
 4557SOL    HW125130   3.293   3.943   8.397 -1.5763 -0.7884  0.6804
 4557SOL    HW225131   3.248   4.044   8.490  0.1306  0.4694  0.0102
 4558SOL     OW25132   2.221   3.668   2.200 -0.1573  0.9322 -0.7081
 4558SOL    HW125133   2.302   3.677   2.251  0.8430  1.9597 -2.4627
 4558SOL    HW225134   2.199   3.579   2.226  2.4132  1.0470  1.8760
 4559SOL     OW25135   3.664   2.215  17.584  0.7284 -0.3490  0.6270
 4559SOL    HW125136   3.682   2.201  17.491 -2.3241  1.0307 -0.1532
 4559SOL    HW225137   3.722   2.152  17.627  2.2733  1.1929  0.8263
 4560SOL     OW25138   0.012   0.078   2.468 -0.3558 -0.0039 -0.5300
 4560SOL    HW125139   4.714   0.021   2.541  0.9359  0.5446  0.2978
 4560SOL    HW225140   4.664   0.139   2.473 -0.5595 -0.0892 -2.2118
 4561SOL     OW25141   1.858   3.529   4.317  0.0688 -0.6970 -0.3422
 4561SOL    HW125142   1.800   3.593   4.358 -0.0585  0.3593 -2.1671
 4561SOL    HW225143   1.803   3.488   4.251  1.0783  1.2572 -2.4073
 4562SOL     OW25144   0.073   3.155   8.747  0.0734 -0.3045  0.2994
 4562SOL    HW125145   0.130   3.082   8.772  0.3876 -0.5148 -1.0294
 4562SOL    HW225146   4.717   3.134   8.795 -1.3693  3.6031 -0.4942
 4563SOL     OW25147   0.932   0.186   6.577 -0.3793 -0.0133 -0.3876
 4563SOL    HW125148   0.846   0.227   6.574 -1.0164 -1.4161 -0.8691
 4563SOL    HW225149   0.932   0.152   6.488 -1.2891  0.3529 -0.5204
 4564SOL     OW25150   3.682   0.601   5.144  0.1596  0.3352 -0.2894
 4564SOL    HW125151   3.722   0.577   5.227 -0.2286  2.0561  0.3904
 4564SOL    HW225152   3.650   0.689   5.162  1.0780  0.9018 -1.3986
 4565SOL     OW25153   3.375   2.969  12.475 -0.6042 -0.2132  0.1286
 4565SOL    HW125154   3.320   2.899  12.441 -0.8169 -0.2049  0.4478
 4565SOL    HW225155   3.414   3.007  12.397 -1.0459  0.6362  0.3204
 4566SOL     OW25156   1.384   2.822   9.237 -0.0605  0.1517 -0.7301
 4566SOL    HW125157   1.476   2.850   9.233  0.4149 -0.7981  4.3124
 4566SOL    HW225158   1.331   2.900   9.217 -0.3524 -0.3275 -1.8416
 4567SOL     OW25159   2.569   1.282  17.395  0.0236  1.1812 -0.0853
 4567SOL    HW125160   2.561   1.363  17.345 -1.9944 -0.1063 -1.8275
 4567SOL    HW225161   2.550   1.316  17.483 -1.7098  1.6434 -0.6355
 4568SOL     OW25162   0.683   3.126   5.769  0.0870 -0.1598  0.3175
 4568SOL    HW125163   0.604   3.160   5.810  0.6842  0.7128  0.7498
 4568SOL    HW225164   0.671   3.032   5.786  0.1217 -0.2725 -0.2771
 4569SOL     OW25165   2.136   1.622   1.428  0.3078  0.5166 -0.0464
 4569SOL    HW125166   2.212   1.677   1.408  0.2538 -0.2935 -2.4313
 4569SOL    HW225167   2.184   1.541   1.444  0.0919  0.2936 -0.5293
 4570SOL     OW25168   2.689   3.552   5.961 -0.2213  0.7037 -0.7700
 4570SOL    HW125169   2.678   3.610   5.885 -0.9009  1.1195 -0.3465
 4570SOL    HW225170   2.597   3.546   5.987 -0.2961 -2.9535 -1.8852
 4571SOL     OW25171   0.217   0.409   9.128  0.7935  0.0024  0.0621
 4571SOL    HW125172   0.138   0.361   9.103  0.0104  1.5865 -0.5141
 4571SOL    HW225173   0.183   0.456   9.204 -0.8314 -0.2850 -0.4834
 4572SOL     OW25174   1.690   4.672   8.745  0.0422  0.1618 -0.0450
 4572SOL    HW125175   1.677   0.035   8.708 -3.8821  0.0799  1.1662
 4572SOL    HW225176   1.723   4.704   8.829 -1.1846 -1.3564  1.0083
 4573SOL     OW25177   4.244   3.064   8.203  0.2433  0.1465  0.3265
 4573SOL    HW125178   4.279   3.153   8.209  0.8544 -0.1652  1.2770
 4573SOL    HW225179   4.168   3.081   8.259 -1.2877  0.7930 -1.9024
 4574SOL     OW25180   2.011   3.068  11.676  0.4528 -0.2894 -0.0324
 4574SOL    HW125181   1.923   3.080  11.641  0.4385  0.3266  0.2101
 4574SOL    HW225182   1.985   3.078  11.767 -0.6218 -0.8560 -0.2848
 4575SOL     OW25183   1.478   2.625   7.794  0.0548 -0.1648 -0.0692
 4575SOL    HW125184   1.483   2.630   7.698  1.1827  0.1717  0.0045
 4575SOL    HW225185   1.546   2.562   7.817  1.0515  2.4593  4.1638
 4576SOL     OW25186   1.592   0.050  16.719 -0.0366 -0.2847 -0.7374
 4576SOL    HW125187   1.621   0.124  16.772  1.2650 -1.8309  0.7245
 4576SOL    HW225188   1.543   0.003  16.786 -0.2259  1.4770  0.3569
 4577SOL     OW25189   0.056   3.691   5.659  0.1556  0.4695  0.0510
 4577SOL    HW125190   0.009   3.742   5.724 -0.2423  1.1363 -0.7615
 4577SOL    HW225191   0.107   3.754   5.608 -0.8383 -0.7270 -2.4219
 4578SOL     OW25192   0.702   2.767  10.184 -0.1819  0.4325 -0.0141
 4578SOL    HW125193   0.724   2.726  10.100 -1.5187 -0.7466  0.2105
 4578SOL    HW225194   0.634   2.712  10.222  0.0493 -0.7044 -1.2432
 4579SOL     OW25195   0.936   1.484   3.223 -0.1218 -0.3105  0.2678
 4579SOL    HW125196   0.872   1.421   3.258 -1.4707  1.1726  0.4480
 4579SOL    HW225197   0.989   1.435   3.159 -0.6843 -1.3025  0.5596
 4580SOL     OW25198   4.687   3.736  15.160  0.3460 -0.1494 -0.0398
 4580SOL    HW125199   0.029   3.789  15.115 -0.4756  1.3199  0.4459
 4580SOL    HW225200   4.688   3.766  15.251 -1.6158  0.8427 -0.3539
 4581SOL     OW25201   2.836   1.492   3.121  0.5641 -0.0072 -0.4393
 4581SOL    HW125202   2.810   1.527   3.205 -0.3298 -0.0024 -0.7109
 4581SOL    HW225203   2.750   1.476   3.083  0.5822 -2.2106  0.4483
 4582SOL     OW25204   0.245   1.030   9.022  0.0187 -0.0878 -0.4333
 4582SOL    HW125205   0.216   1.103   9.076 -1.1932 -0.6370 -0.3565
 4582SOL    HW225206   0.338   1.016   9.043 -0.9260 -1.2572  2.9440
 4583SOL     OW25207   0.270   2.277  16.606  0.4124  0.4164 -0.3546
 4583SOL    HW125208   0.330   2.351  16.618  2.7089 -1.5950  0.6386
 4583SOL    HW225209   0.195   2.316  16.561  0.1474 -0.8978 -1.0529
 4584SOL     OW25210   2.809   2.159   6.067  0.7393  0.0510 -0.3194
 4584SOL    HW125211   2.741   2.109   6.023  1.1066  0.4388 -1.3246
 4584SOL    HW225212   2.803   2.122   6.155  0.6752  0.6205 -0.0796
 4585SOL     OW25213   1.571   4.591  15.923 -0.5154  0.1523 -0.2052
 4585SOL    HW125214   1.603   4.681  15.928  1.8408 -0.5717 -2.2394
 4585SOL    HW225215   1.513   4.589  15.999 -0.4403 -0.2402 -0.1578
 4586SOL     OW25216   0.827   4.368   4.322  0.1076  0.2295 -0.6450
 4586SOL    HW125217   0.752   4.351   4.379 -0.0598  0.3257 -0.8410
 4586SOL    HW225218   0.881   4.293   4.346  0.3434  0.3932 -0.6638
 4587SOL     OW25219   0.883   1.798   9.349 -0.0740  0.4145  0.2903
 4587SOL    HW125220   0.829   1.813   9.272 -0.0608 -0.3787  0.1223
 4587SOL    HW225221   0.934   1.878   9.356  2.4831 -0.9844 -2.6082
 4588SOL     OW25222   0.591   0.649   0.618 -0.2081 -0.8650 -0.6623
 4588SOL    HW125223   0.511   0.613   0.579 -2.2629 -0.6131  3.3903
 4588SOL    HW225224   0.553   0.707   0.684  0.0117 -1.0082 -0.4120
 4589SOL     OW25225   0.369   0.857   3.352 -0.3600  0.4905 -0.1547
 4589SOL    HW125226   0.310   0.928   3.329 -0.4566  0.1575 -0.9250
 4589SOL    HW225227   0.451   0.891   3.316  0.3981  1.7815  2.7604
 4590SOL     OW25228   2.385   1.696   9.631 -0.8715  0.0239  0.2772
 4590SOL    HW125229   2.301   1.652   9.644 -0.9124 -0.1197 -0.4615
 4590SOL    HW225230   2.451   1.634   9.663 -1.9872 -2.1238 -1.5454
 4591SOL     OW25231   2.933   2.150   4.463  0.7659 -0.4829  0.1729
 4591SOL    HW125232   2.998   2.185   4.402 -0.6730 -0.4703 -1.3522
 4591SOL    HW225233   2.871   2.106   4.406  2.0238  0.8564 -2.2099
 4592SOL     OW25234   3.129   2.304   4.314  0.0177  0.2173  0.1253
 4592SOL    HW125235   3.096   2.343   4.233 -0.7093 -1.2415 -0.2781
 4592SOL    HW225236   3.132   2.382   4.369 -2.3773  0.9776 -0.8335
 4593SOL     OW25237   4.320   1.275   8.085  0.0299  0.3082  0.1001
 4593SOL    HW125238   4.257   1.294   8.154  1.9546  0.1178  1.9075
 4593SOL    HW225239   4.305   1.185   8.056 -0.7260  0.9459 -1.4949
 4594SOL     OW25240   1.100   4.306  10.321 -0.0814  0.7132  0.2543
 4594SOL    HW125241   1.167   4.372  10.338  0.1029  0.7724 -0.6960
 4594SOL    HW225242   1.081   4.281  10.411 -1.6664  0.0446 -0.2539
 4595SOL     OW25243   3.183   3.413  10.307 -0.3510 -0.5774 -0.3780
 4595SOL    HW125244   3.173   3.348  10.377  2.3218 -0.9472 -0.3286
 4595SOL    HW225245   3.276   3.420  10.286  0.0687  0.5846  1.9501
 4596SOL     OW25246   2.257   1.769  12.355  0.7357 -0.3980  0.1209
 4596SOL    HW125247   2.203   1.690  12.360 -0.2400  0.3065  0.7522
 4596SOL    HW225248   2.346   1.740  12.374  1.6640  3.1554  1.1708
 4597SOL     OW25249   4.713   4.352   5.513  0.4809  0.2325  0.2904
 4597SOL    HW125250   0.034   4.337   5.596  1.3193  0.5500 -0.1019
 4597SOL    HW225251   4.663   4.433   5.525  1.3454  0.5370  1.8940
 4598SOL     OW25252   1.497   1.106   7.946  0.1000  0.1741  0.2270
 4598SOL    HW125253   1.532   1.022   7.917  2.4775  0.7233  1.5274
 4598SOL    HW225254   1.411   1.076   7.976  0.8643 -0.3025  1.9065
 4599SOL     OW25255   2.456   2.733  17.430  0.1095 -0.4701 -0.3357
 4599SOL    HW125256   2.399   2.763  17.360  0.0146 -0.3751 -0.2180
 4599SOL    HW225257   2.392   2.754  17.498  2.2048  4.5195  0.1275
 4600SOL     OW25258   2.524   4.572   5.736 -0.1590 -0.5302 -0.5047
 4600SOL    HW125259   2.573   4.605   5.811  0.6961  0.8269 -1.6654
 4600SOL    HW225260   2.569   4.491   5.712 -0.2773 -1.3092  1.9590
 4601SOL     OW25261   0.975   4.522   8.742 -0.2073 -0.2401  0.3870
 4601SOL    HW125262   0.996   4.515   8.835  2.1838 -1.4611 -0.2506
 4601SOL    HW225263   0.958   4.616   8.737  1.2485  0.0743  1.3049
 4602SOL     OW25264   3.108   1.967   5.221  0.1872  0.1729 -0.0610
 4602SOL    HW125265   3.115   1.983   5.316 -0.4176  0.9065 -0.1417
 4602SOL    HW225266   3.023   1.928   5.201 -0.0308 -0.2812  1.6979
 4603SOL     OW25267   3.322   1.127   4.559 -0.1097 -0.1418 -0.2916
 4603SOL    HW125268   3.415   1.102   4.563  0.2354  0.6993 -2.8270
 4603SOL    HW225269   3.330   1.209   4.510  2.1874  0.3101  0.8356
 4604SOL     OW25270   2.645   4.177   1.676  0.1663  0.1098 -0.1419
 4604SOL    HW125271   2.696   4.245   1.632  0.1466 -0.9767 -1.8216
 4604SOL    HW225272   2.553   4.201   1.667  0.6203  1.5802 -1.0218
 4605SOL     OW25273   3.866   4.335   6.686  0.2177  0.8812  0.0610
 4605SOL    HW125274   3.902   4.415   6.648  0.2454 -0.6101 -3.0714
 4605SOL    HW225275   3.918   4.337   6.766  1.3545 -0.7365 -0.6270
 4606SOL     OW25276   2.287   1.586   6.552 -0.2276  0.3970  0.1889
 4606SOL    HW125277   2.220   1.651   6.571 -1.0825 -0.6190  0.6770
 4606SOL    HW225278   2.255   1.512   6.605 -4.0402  0.5597 -1.9274
 4607SOL     OW25279   0.806   1.968  12.295  0.1642 -0.1900  0.2542
 4607SOL    HW125280   0.802   2.063  12.304  1.3221 -0.0108 -1.2539
 4607SOL    HW225281   0.859   1.953  12.217  1.2388 -0.5533  1.0524
 4608SOL     OW25282   3.623   1.084   2.691 -0.8066  0.4731 -0.5216
 4608SOL    HW125283   3.566   1.047   2.624 -1.2634  2.1500 -1.0456
 4608SOL    HW225284   3.652   1.164   2.648 -1.3137  0.7766 -0.3058
 4609SOL     OW25285   4.684   4.085  15.908 -0.5218 -0.2115  0.6043
 4609SOL    HW125286   4.634   4.121  15.982 -1.0217  1.6180 -0.6449
 4609SOL    HW225287   0.009   4.161  15.879 -2.3721  0.4456 -0.8588
 4610SOL     OW25288   2.398   0.389   6.198 -0.4731 -0.1075 -0.3625
 4610SOL    HW125289   2.368   0.399   6.288 -3.6296  0.8548 -1.5507
 4610SOL    HW225290   2.404   0.481   6.170  1.4541  0.1079  0.7097
 4611SOL     OW25291   1.609   1.135  11.636  0.0070  0.3211  0.1234
 4611SOL    HW125292   1.635   1.101  11.550 -0.0589 -1.3489  0.7686
 4611SOL    HW225293   1.629   1.066  11.698  1.5883  1.9550  1.4085
 4612SOL     OW25294   1.168   3.551   1.658 -0.0988 -0.5025  0.5078
 4612SOL    HW125295   1.125   3.467   1.641 -0.2198 -0.3810  0.2101
 4612SOL    HW225296   1.118   3.587   1.731  1.6467  0.3503  1.2746
 4613SOL     OW25297   3.265   2.097  11.814  0.4498 -0.3959 -0.2198
 4613SOL    HW125298   3.268   2.186  11.778 -0.7033 -0.9037 -1.6218
 4613SOL    HW225299   3.231   2.112  11.902 -0.5985  1.1445 -0.8775
 4614SOL     OW25300   1.059   3.092   3.233 -0.0125 -0.0547 -0.5914
 4614SOL    HW125301   1.137   3.146   3.221  0.7321 -0.8590  0.6082
 4614SOL    HW225302   0.984   3.150   3.223 -1.1867 -1.5692 -0.5014
 4615SOL     OW25303   0.854   0.624   7.137  0.3848 -0.1598 -0.0964
 4615SOL    HW125304   0.798   0.686   7.184  2.4896  0.7931  1.2038
 4615SOL    HW225305   0.885   0.684   7.069 -0.2980 -0.7408 -0.9178
 4616SOL     OW25306   3.753   1.492  12.002 -0.0299  0.1557 -0.0892
 4616SOL    HW125307   3.737   1.439  11.924  0.0543  1.5785 -1.0761
 4616SOL    HW225308   3.847   1.490  12.019 -0.0710 -1.6309 -0.0290
 4617SOL     OW25309   1.770   0.554   4.224 -0.3780 -0.1961 -0.9317
 4617SOL    HW125310   1.821   0.632   4.245  0.6738 -0.9585 -0.6393
 4617SOL    HW225311   1.711   0.558   4.299  3.3419  1.6796  1.8995
 4618SOL     OW25312   3.446   1.291   5.133  0.1656 -1.1039 -0.2559
 4618SOL    HW125313   3.432   1.303   5.039  0.7131  0.0734 -0.1809
 4618SOL    HW225314   3.539   1.304   5.147  0.0963 -0.1640 -0.6737
 4619SOL     OW25315   2.094   1.586   3.578 -0.6317 -0.2830 -0.0023
 4619SOL    HW125316   2.159   1.656   3.578  0.2112 -1.0763 -0.1450
 4619SOL    HW225317   2.054   1.596   3.491 -2.3666 -3.2618  0.4324
 4620SOL     OW25318   2.763   4.698  10.184 -0.2072  0.3469  0.2306
 4620SOL    HW125319   2.767   4.695  10.279 -1.1917 -0.7358  0.2410
 4620SOL    HW225320   2.856   4.690  10.165  0.2827  0.2280  2.7679
 4621SOL     OW25321   2.922   0.235  15.438 -0.1618  0.1603 -0.0648
 4621SOL    HW125322   2.859   0.242  15.367  0.0164 -2.9468 -0.5171
 4621SOL    HW225323   2.985   0.174  15.400 -0.3728 -0.4349  0.5514
 4622SOL     OW25324   3.126   3.044   6.518  0.6479  0.0171  0.8039
 4622SOL    HW125325   3.130   3.026   6.612  0.9790 -3.2517  0.1443
 4622SOL    HW225326   3.034   3.066   6.505  0.6653 -0.4098 -0.0630
 4623SOL     OW25327   0.164   0.398   5.647 -0.0983 -0.0381  0.2106
 4623SOL    HW125328   0.082   0.408   5.695  0.1301  1.3142  0.3191
 4623SOL    HW225329   0.158   0.305   5.625 -0.6397  0.1025 -0.2378
 4624SOL     OW25330   3.859   0.705  11.235  0.1074  0.1654 -0.1610
 4624SOL    HW125331   3.914   0.638  11.274  0.5797  0.8815  0.3777
 4624SOL    HW225332   3.812   0.648  11.173 -2.9965  0.9274  1.5222
 4625SOL     OW25333   3.554   2.753   2.070 -0.0748  0.3289 -0.1559
 4625SOL    HW125334   3.567   2.815   2.142 -0.1160 -0.8350  0.8380
 4625SOL    HW225335   3.477   2.709   2.107  0.1631  0.5864  0.6381
 4626SOL     OW25336   3.543   2.990  17.438 -0.0196 -0.2369 -0.0387
 4626SOL    HW125337   3.553   3.065  17.379 -0.2455  0.9482  1.4164
 4626SOL    HW225338   3.604   3.013  17.508  3.1354 -2.0985 -2.2082
 4627SOL     OW25339   0.347   0.667  15.158 -0.6168  0.1493 -0.2266
 4627SOL    HW125340   0.432   0.669  15.115 -0.9761  0.4485 -0.9210
 4627SOL    HW225341   0.344   0.754  15.199  0.2341 -0.5201  1.2499
 4628SOL     OW25342   0.623   3.025  10.102  0.1349  0.0483 -0.5244
 4628SOL    HW125343   0.661   3.064  10.180  0.3151  3.1310 -2.1309
 4628SOL    HW225344   0.637   2.933  10.123  0.0123  0.3695  0.9394
 4629SOL     OW25345   4.072   3.460   9.761  0.2391 -0.4688  0.6140
 4629SOL    HW125346   4.037   3.498   9.841  1.4203 -0.6262  1.1952
 4629SOL    HW225347   4.010   3.392   9.737  0.4417 -1.5687  3.3414
 4630SOL     OW25348   0.825   0.982   8.225 -0.2754  0.2125  0.1336
 4630SOL    HW125349   0.854   1.004   8.314  1.3042 -1.4072  0.0193
 4630SOL    HW225350   0.761   1.051   8.206 -1.2625 -0.3292  1.5574
 4631SOL     OW25351   0.956   2.406  17.190 -0.4837  0.0159 -0.1317
 4631SOL    HW125352   0.861   2.395  17.184 -0.4918  0.1226 -0.1954
 4631SOL    HW225353   0.980   2.326  17.143 -0.2537  0.7279 -1.2407
 4632SOL     OW25354   1.098   3.234   1.643  0.2630  0.4527 -0.5376
 4632SOL    HW125355   1.085   3.226   1.737 -0.5433 -1.5464 -0.8202
 4632SOL    HW225356   1.096   3.143   1.614 -0.8012  0.5211 -0.6844
 4633SOL     OW25357   0.766   3.453   4.136 -0.4144 -0.2757  0.3567
 4633SOL    HW125358   0.853   3.480   4.109 -0.8716 -1.0272 -1.8785
 4633SOL    HW225359   0.783   3.388   4.205  0.4475 -1.7078 -1.2154
 4634SOL     OW25360   1.630   0.478   2.368 -0.3010 -0.8444  0.3051
 4634SOL    HW125361   1.680   0.442   2.442 -1.1185  1.2888  1.8737
 4634SOL    HW225362   1.595   0.393   2.340 -0.5852 -0.2149 -1.2651
 4635SOL     OW25363   2.200   3.618   2.866 -0.1163  0.8852 -0.1484
 4635SOL    HW125364   2.267   3.587   2.928  0.5534  1.4500 -0.5855
 4635SOL    HW225365   2.154   3.535   2.854  1.4073 -0.2137  1.4145
 4636SOL     OW25366   2.445   3.793   8.785 -0.6789  0.1615  1.2373
 4636SOL    HW125367   2.371   3.733   8.796 -0.4670 -0.6137 -1.6301
 4636SOL    HW225368   2.426   3.829   8.698 -1.9202 -1.4364  0.8476
 4637SOL     OW25369   3.653   3.333  10.603  0.1723  0.3217 -0.1081
 4637SOL    HW125370   3.581   3.323  10.666  0.0209  0.3848 -0.2691
 4637SOL    HW225371   3.720   3.363  10.664  1.6859 -2.2755 -0.4609
 4638SOL     OW25372   0.964   2.619   2.570 -0.2023 -0.4444 -0.5778
 4638SOL    HW125373   0.947   2.583   2.657  2.2368 -2.2708 -0.8671
 4638SOL    HW225374   1.024   2.548   2.545  1.3365  0.7075 -0.1652
 4639SOL     OW25375   1.771   0.119   8.262  0.0498 -0.2895  0.0209
 4639SOL    HW125376   1.794   0.027   8.274 -0.3992 -0.3792  0.1886
 4639SOL    HW225377   1.718   0.133   8.341 -0.5362 -0.6106 -0.3215
 4640SOL     OW25378   3.549   2.226   7.814  0.8403 -0.4526  0.2567
 4640SOL    HW125379   3.644   2.234   7.816  0.8055  1.3203 -4.3721
 4640SOL    HW225380   3.523   2.279   7.739 -1.3822 -0.5642  0.9314
 4641SOL     OW25381   1.189   2.709   4.052  0.0762 -0.5207  0.1048
 4641SOL    HW125382   1.170   2.620   4.080 -3.0503  0.1034  0.0164
 4641SOL    HW225383   1.141   2.711   3.969 -0.0747 -0.0413  0.2073
 4642SOL     OW25384   0.735   1.887   0.616 -0.5884  0.0478 -0.5264
 4642SOL    HW125385   0.723   1.876   0.522 -1.7957 -0.5525 -0.2941
 4642SOL    HW225386   0.820   1.931   0.615  0.3265 -1.6808  0.2197
 4643SOL     OW25387   0.286   4.551  13.494 -0.4310 -0.2270  0.2580
 4643SOL    HW125388   0.295   4.501  13.575  0.3959 -0.9673 -0.2960
 4643SOL    HW225389   0.279   4.640  13.531  2.7419  0.4465 -0.7945
 4644SOL     OW25390   1.025   4.133   8.952 -0.1419  0.1920 -0.6269
 4644SOL    HW125391   1.000   4.181   9.031  1.4110 -1.4290  0.8607
 4644SOL    HW225392   0.944   4.128   8.902 -1.1835  1.3301  0.9442
 4645SOL     OW25393   4.585   4.667   6.723  0.5712 -0.0655 -0.0419
 4645SOL    HW125394   4.660   0.001   6.735  0.3033 -0.0745  1.6676
 4645SOL    HW225395   4.549   4.696   6.639 -0.2960 -1.1309 -0.0291
 4646SOL     OW25396   0.048   0.313   7.540  0.0915 -0.0184  0.3448
 4646SOL    HW125397   0.135   0.300   7.578 -0.2576 -2.0535  0.4658
 4646SOL    HW225398   4.721   0.282   7.615  0.0287  1.1397  0.7811
 4647SOL     OW25399   0.694   4.343   2.987 -0.3874 -0.2844 -0.3289
 4647SOL    HW125400   0.688   4.250   3.007 -0.3824 -0.1580  0.2581
 4647SOL    HW225401   0.737   4.338   2.902 -0.8754 -1.0568 -0.5309
 4648SOL     OW25402   2.268   3.097   2.871  0.1535  0.1285 -0.2905
 4648SOL    HW125403   2.336   3.077   2.936 -0.7329  1.2314  0.9774
 4648SOL    HW225404   2.319   3.159   2.820  0.6027 -1.5370 -1.8886
 4649SOL     OW25405   1.226   2.774  17.094  0.1218 -0.3115  0.0024
 4649SOL    HW125406   1.227   2.685  17.129 -3.1077 -0.3871 -0.0478
 4649SOL    HW225407   1.240   2.827  17.172  1.5241 -0.9942  0.2060
 4650SOL     OW25408   3.888   2.403   9.891 -0.6148 -0.0705 -0.0760
 4650SOL    HW125409   3.979   2.433   9.896 -0.9933  0.5179  2.9577
 4650SOL    HW225410   3.874   2.354   9.810 -0.7272  0.2826 -0.2727
 4651SOL     OW25411   2.375   2.276   6.836  0.2028  0.3739  0.1358
 4651SOL    HW125412   2.442   2.208   6.844  1.1875  1.2307 -0.8308
 4651SOL    HW225413   2.317   2.245   6.905 -0.8708  3.3300  0.5576
 4652SOL     OW25414   3.167   0.034   4.148 -0.1760 -0.4907 -0.2985
 4652SOL    HW125415   3.145   0.016   4.057  1.3727 -0.2183 -0.7187
 4652SOL    HW225416   3.184   4.675   4.193  1.9790 -0.8404 -1.7779
 4653SOL     OW25417   4.243   2.634   5.587  0.1696  0.4272  0.3674
 4653SOL    HW125418   4.291   2.681   5.519 -0.3454  0.9755  0.3849
 4653SOL    HW225419   4.260   2.703   5.651 -0.1075  1.5340 -0.7482
 4654SOL     OW25420   0.684   1.725  13.434 -0.2852  0.6310  0.3566
 4654SOL    HW125421   0.714   1.635  13.417 -1.8209 -0.4301  3.1711
 4654SOL    HW225422   0.631   1.734  13.355  1.3182  1.1869 -0.6384
 4655SOL     OW25423   4.687   1.343   6.346 -0.1847 -0.5914  0.0947
 4655SOL    HW125424   0.007   1.285   6.283  1.1544  1.2516 -0.6729
 4655SOL    HW225425   4.723   1.431   6.338  0.9661 -1.2983 -2.9746
 4656SOL     OW25426   2.177   3.899   8.473 -0.0668  0.4064 -0.1548
 4656SOL    HW125427   2.139   3.821   8.432 -0.8722  1.6245 -1.7334
 4656SOL    HW225428   2.271   3.890   8.455  0.1454  1.9655  0.1724
 4657SOL     OW25429   0.520   4.324  15.624 -0.3088 -0.1196  0.1378
 4657SOL    HW125430   0.521   4.387  15.696  1.3595  1.4219 -1.2174
 4657SOL    HW225431   0.597   4.268  15.636 -0.4612 -0.6450 -1.4110
 4658SOL     OW25432   2.402   4.220   5.544 -0.3081  0.6879  0.4824
 4658SOL    HW125433   2.430   4.266   5.465 -1.8164  2.1940  0.8192
 4658SOL    HW225434   2.492   4.208   5.573 -0.1065  0.8221 -0.0934
 4659SOL     OW25435   3.758   3.225   7.661  0.8201 -0.0288 -0.0226
 4659SOL    HW125436   3.819   3.216   7.734  2.6332 -2.6016 -1.8817
 4659SOL    HW225437   3.824   3.202   7.596  2.5327 -0.6113  1.9366
 4660SOL     OW25438   1.942   4.070   6.857  0.3540  0.4186  0.1104
 4660SOL    HW125439   1.862   4.019   6.843  0.2064  0.2956  1.3955
 4660SOL    HW225440   1.950   4.097   6.765  2.1824 -3.2543 -0.7986
 4661SOL     OW25441   4.663   0.500   2.265 -0.0205  0.7635  0.2998
 4661SOL    HW125442   0.032   0.496   2.284 -0.1360  2.1626  1.1955
 4661SOL    HW225443   4.668   0.467   2.176 -0.7554 -1.8668  1.2134
 4662SOL     OW25444   4.671   3.644   3.515  0.2297 -0.3813  0.6586
 4662SOL    HW125445   4.675   3.553   3.545  1.3734 -0.2200  0.9967
 4662SOL    HW225446   4.584   3.659   3.554 -0.3644 -0.6856 -0.5537
 4663SOL     OW25447   2.074   4.009   5.054  0.1775  0.0103  0.3851
 4663SOL    HW125448   2.051   3.953   4.980 -1.6333  0.8777  0.2810
 4663SOL    HW225449   2.049   3.950   5.124 -0.3545  1.3277  1.3141
 4664SOL     OW25450   4.261   4.424   5.096  0.3036  0.2074 -0.1370
 4664SOL    HW125451   4.295   4.335   5.097  0.6025  0.3114 -1.1371
 4664SOL    HW225452   4.178   4.420   5.143 -0.4028 -0.2762 -1.4236
 4665SOL     OW25453   2.107   3.264  14.043  0.0641  1.1694 -0.1706
 4665SOL    HW125454   2.054   3.259  13.964  0.8155  1.6099 -0.7021
 4665SOL    HW225455   2.196   3.285  14.016 -1.0114  2.4133 -2.7517
 4666SOL     OW25456   1.661   2.254   5.364 -0.0962  0.0531 -0.0524
 4666SOL    HW125457   1.686   2.313   5.435  0.5522 -0.6214  0.2799
 4666SOL    HW225458   1.579   2.296   5.337 -0.0305  1.3616  1.8091
 4667SOL     OW25459   0.687   1.818   1.916 -0.0174  0.2739  0.0739
 4667SOL    HW125460   0.640   1.745   1.876  1.9920 -1.6826  1.2307
 4667SOL    HW225461   0.733   1.852   1.839 -1.5539 -2.3494 -2.0128
 4668SOL     OW25462   4.147   2.135  15.989  0.1820  0.4333 -0.0168
 4668SOL    HW125463   4.125   2.073  16.058  1.2162 -0.9926 -0.9831
 4668SOL    HW225464   4.170   2.213  16.041 -1.0226 -0.3905  1.7747
 4669SOL     OW25465   4.357   3.575  14.514  0.2622 -0.1277 -0.3351
 4669SOL    HW125466   4.364   3.610  14.425 -0.2927  1.4919  0.2577
 4669SOL    HW225467   4.301   3.499  14.503 -1.5158  1.0199  0.7931
 4670SOL     OW25468   0.142   3.660   8.951  0.1058 -0.9216  0.1190
 4670SOL    HW125469   0.214   3.610   8.989 -2.2142 -3.0157  1.7117
 4670SOL    HW225470   0.086   3.669   9.028  0.8871 -1.5570  0.7525
 4671SOL     OW25471   2.445   3.467   2.435  0.3215  0.1993 -0.2081
 4671SOL    HW125472   2.499   3.530   2.387 -0.5711  1.2437  0.1696
 4671SOL    HW225473   2.472   3.378   2.411 -1.6736 -1.0166  2.0820
 4672SOL     OW25474   0.128   0.784   9.142 -0.2200 -0.1672  0.0259
 4672SOL    HW125475   0.161   0.873   9.155 -2.4509  0.6466  0.2113
 4672SOL    HW225476   0.151   0.765   9.051  1.1303 -0.8866  0.5247
 4673SOL     OW25477   2.078   1.728   8.721  0.0020  0.0601 -0.0331
 4673SOL    HW125478   2.149   1.684   8.769  1.9529  1.7605 -1.3497
 4673SOL    HW225479   2.001   1.702   8.771 -0.8657 -1.4128 -2.1763
 4674SOL     OW25480   0.978   0.036   7.000  0.1053  0.0907  0.4495
 4674SOL    HW125481   0.936   4.684   7.038  0.6436 -0.8520 -0.8520
 4674SOL    HW225482   0.932   0.043   6.916  2.2464 -0.9618 -0.8114
 4675SOL     OW25483   2.746   4.667  13.503  1.2518  0.6186 -0.2630
 4675SOL    HW125484   2.670   4.636  13.453  1.2146 -2.4405  1.6601
 4675SOL    HW225485   2.781   4.580  13.522  0.0607  0.6605  2.0202
 4676SOL     OW25486   1.744   0.031   1.542  0.0650  0.1762  0.0932
 4676SOL    HW125487   1.785   0.072   1.618  1.4190  1.9834 -1.6039
 4676SOL    HW225488   1.817   0.005   1.487 -0.5908 -1.2553 -0.1050
 4677SOL     OW25489   4.048   0.182  12.123  0.3297  0.2826 -0.3116
 4677SOL    HW125490   4.104   0.254  12.151 -1.9671  1.5898  0.8965
 4677SOL    HW225491   3.987   0.229  12.067  0.0270  0.3456  0.0704
 4678SOL     OW25492   1.859   1.711  13.578 -0.3541  0.1330 -0.4108
 4678SOL    HW125493   1.774   1.733  13.540 -0.4973 -0.9755 -0.7271
 4678SOL    HW225494   1.910   1.724  13.498 -1.1703  2.9986 -0.4735
 4679SOL     OW25495   3.194   2.990   7.131 -0.0047  0.0287  0.1124
 4679SOL    HW125496   3.242   2.909   7.117 -2.3517 -0.8676 -2.8725
 4679SOL    HW225497   3.163   2.997   7.040 -3.1453 -2.7991  0.9768
 4680SOL     OW25498   3.946   3.015   5.613 -0.1459  0.2871 -0.5580
 4680SOL    HW125499   4.007   3.011   5.539  1.3212  1.3098  0.6139
 4680SOL    HW225500   3.933   2.924   5.642 -1.9200  1.2146  1.5248
 4681SOL     OW25501   2.863   1.448   1.037 -0.1375 -0.2943 -0.3851
 4681SOL    HW125502   2.882   1.355   1.030  3.2254  0.2307  1.4757
 4681SOL    HW225503   2.770   1.462   1.021 -0.5156 -0.3920  1.7266
 4682SOL     OW25504   3.584   4.498   8.170 -0.5397  0.3136 -0.3247
 4682SOL    HW125505   3.538   4.568   8.124  0.6377  1.9173  0.8815
 4682SOL    HW225506   3.513   4.480   8.231 -1.7813  0.1805 -1.8304
 4683SOL     OW25507   4.022   0.477   4.453 -0.3027  0.8683  0.4997
 4683SOL    HW125508   4.084   0.440   4.515  1.0790  0.2768 -1.2551
 4683SOL    HW225509   4.070   0.532   4.391 -0.0620 -0.9807 -0.9561
 4684SOL     OW25510   0.170   3.172   9.071  0.0379  0.3205  0.3904
 4684SOL    HW125511   0.111   3.105   9.105  0.0336  0.2403  0.2224
 4684SOL    HW225512   0.105   3.238   9.048 -0.8495 -0.7881 -0.2837
 4685SOL     OW25513   0.768   3.929   6.989  0.0720 -0.3230  0.1410
 4685SOL    HW125514   0.704   3.938   6.919 -1.4774 -1.0713  1.4772
 4685SOL    HW225515   0.783   4.018   7.020 -0.4828  0.0338 -0.6220
 4686SOL     OW25516   1.161   2.211  13.198 -0.3403 -0.4786  0.0426
 4686SOL    HW125517   1.071   2.221  13.169  0.3411 -1.5536 -2.4637
 4686SOL    HW225518   1.146   2.164  13.280 -0.7891 -0.5851 -0.0982
 4687SOL     OW25519   2.858   2.795  10.649 -0.3508  0.0653  0.1911
 4687SOL    HW125520   2.792   2.816  10.583  0.2612 -0.6212 -0.6524
 4687SOL    HW225521   2.915   2.729  10.608  1.3690  0.1116  2.4819
 4688SOL     OW25522   3.740   1.092   8.123  0.4687  0.1265 -0.1418
 4688SOL    HW125523   3.750   1.187   8.120 -1.1179  0.3634  1.5359
 4688SOL    HW225524   3.785   1.083   8.207 -0.6884 -0.6033  0.3973
 4689SOL     OW25525   4.406   2.197   3.721  0.3084 -0.2698  0.3271
 4689SOL    HW125526   4.446   2.191   3.808  1.9479 -0.1949 -0.4059
 4689SOL    HW225527   4.327   2.247   3.738 -0.3038 -1.0347 -0.2790
 4690SOL     OW25528   1.047   2.911  12.306  0.3225  0.1525  0.2073
 4690SOL    HW125529   1.069   2.996  12.344  0.7523  0.6248 -1.1195
 4690SOL    HW225530   1.090   2.858  12.372  0.3488  0.4168  0.4049
 4691SOL     OW25531   2.248   0.632  10.366  0.8782  0.8256  0.6072
 4691SOL    HW125532   2.338   0.604  10.382  0.4863 -1.3324 -0.9115
 4691SOL    HW225533   2.263   0.726  10.355  1.8190  0.6985  0.8179
 4692SOL     OW25534   1.156   3.888   2.356 -0.4746 -0.3112  0.0346
 4692SOL    HW125535   1.076   3.842   2.380 -0.2888  0.2208  1.6976
 4692SOL    HW225536   1.133   3.930   2.273  0.4831 -1.2624 -0.7016
 4693SOL     OW25537   3.234   0.652   6.610 -0.1270  0.6191 -0.2523
 4693SOL    HW125538   3.281   0.686   6.534  0.4220 -2.0571 -1.1161
 4693SOL    HW225539   3.250   0.559   6.593 -2.0824  0.4280 -1.0941
 4694SOL     OW25540   2.271   4.474   1.669  0.5777  0.3341  0.3280
 4694SOL    HW125541   2.195   4.516   1.708  1.0566  1.3726  0.1438
 4694SOL    HW225542   2.283   4.543   1.605  2.1567  0.3879  0.6816
 4695SOL     OW25543   2.565   4.021   7.681  0.3089  0.3636 -0.1210
 4695SOL    HW125544   2.474   4.035   7.658 -0.0025 -1.4175  0.0212
 4695SOL    HW225545   2.611   4.019   7.597 -1.1640  1.4725 -0.9489
 4696SOL     OW25546   2.331   4.579   3.068  0.8964 -0.1495 -0.4341
 4696SOL    HW125547   2.404   4.642   3.061  1.4020 -0.5877  0.8823
 4696SOL    HW225548   2.292   4.582   2.981  0.0663  1.0691 -0.0218
 4697SOL     OW25549   2.987   3.918   7.276 -0.1986  0.3429 -0.0325
 4697SOL    HW125550   3.014   3.835   7.237  1.3494  1.4979 -1.4585
 4697SOL    HW225551   2.940   3.947   7.198  0.3843 -1.4611 -1.0587
 4698SOL     OW25552   3.151   4.423   9.058 -0.0078  0.0520  0.0555
 4698SOL    HW125553   3.100   4.454   9.133 -1.3280 -2.4539  0.1972
 4698SOL    HW225554   3.129   4.498   9.003 -0.9752 -1.2587 -1.3468
 4699SOL     OW25555   2.313   2.058  11.456 -0.3145 -0.2628 -0.0115
 4699SOL    HW125556   2.295   2.107  11.536 -1.5000 -0.6968 -0.0036
 4699SOL    HW225557   2.352   2.131  11.408  1.0736 -1.1574 -0.2418
 4700SOL     OW25558   1.912   3.935   5.556 -0.3292 -0.5505 -0.3130
 4700SOL    HW125559   1.816   3.928   5.557 -0.2722 -1.3479 -0.8752
 4700SOL    HW225560   1.943   3.869   5.619  0.1234 -0.3590 -0.3382
 4701SOL     OW25561   0.453   0.742   0.823  0.0895 -0.2815 -0.0998
 4701SOL    HW125562   0.395   0.816   0.841 -1.6158 -1.6368 -0.0538
 4701SOL    HW225563   0.511   0.731   0.898  0.1426 -3.0980 -0.5634
 4702SOL     OW25564   3.646   4.138   9.109  0.4335 -0.4607  0.4534
 4702SOL    HW125565   3.671   4.229   9.129 -1.1410 -0.3802  2.0138
 4702SOL    HW225566   3.698   4.084   9.168 -0.8665 -1.5556  0.5992
 4703SOL     OW25567   0.444   4.720   6.904  0.2752 -0.4326  0.1846
 4703SOL    HW125568   0.362   4.680   6.932  0.3235 -0.9887 -0.4793
 4703SOL    HW225569   0.400   0.081   6.898 -2.1923 -1.5733  2.0854
 4704SOL     OW25570   0.302   4.168   3.687 -0.1024 -0.3142  0.2797
 4704SOL    HW125571   0.216   4.166   3.644  0.5189  0.1777 -0.9656
 4704SOL    HW225572   0.315   4.262   3.677  0.7493 -0.1064  3.2260
 4705SOL     OW25573   0.427   0.868  13.388 -0.0499  0.4828 -0.6038
 4705SOL    HW125574   0.440   0.960  13.364  4.0553  0.1096  0.2726
 4705SOL    HW225575   0.336   0.866  13.356  0.4892  1.7342 -2.2168
 4706SOL     OW25576   1.120   1.376   3.845 -0.0285 -0.1844 -0.3687
 4706SOL    HW125577   1.051   1.361   3.909  0.4481 -1.3118 -0.1095
 4706SOL    HW225578   1.193   1.365   3.905  0.6411 -0.0135 -1.1588
 4707SOL     OW25579   1.453   2.995   4.706 -0.0052  0.0732 -0.1834
 4707SOL    HW125580   1.536   2.978   4.661 -0.4221 -1.7232 -0.2643
 4707SOL    HW225581   1.446   3.089   4.691 -0.5686 -0.1003 -0.9982
 4708SOL     OW25582   2.245   4.196   5.157 -0.0515 -0.2770  0.0388
 4708SOL    HW125583   2.181   4.128   5.135 -2.0899  1.9786 -1.0396
 4708SOL    HW225584   2.308   4.183   5.086 -0.7911 -1.0309 -0.4867
 4709SOL     OW25585   4.304   2.350   8.778  0.4225 -0.1107 -0.3305
 4709SOL    HW125586   4.399   2.347   8.765  0.6944 -1.0879  1.8754
 4709SOL    HW225587   4.279   2.435   8.741 -2.1762 -0.4297  0.7167
 4710SOL     OW25588   0.816   0.621   6.335  0.5342  0.2439 -0.2325
 4710SOL    HW125589   0.854   0.547   6.383  0.4984 -0.2562 -0.9825
 4710SOL    HW225590   0.721   0.608   6.330  0.4910  0.0653  0.8636
 4711SOL     OW25591   0.910   4.699  10.599 -0.5151  0.4255 -0.7441
 4711SOL    HW125592   0.927   4.694  10.505  0.8249 -0.8811 -0.4336
 4711SOL    HW225593   0.996   4.715  10.637 -0.7383 -0.9662  0.3526
 4712SOL     OW25594   4.008   1.129   7.260  0.1722 -0.4109  0.1198
 4712SOL    HW125595   3.939   1.064   7.274 -0.4995  0.3845  0.5506
 4712SOL    HW225596   3.965   1.212   7.282  3.3448  1.0529  0.7981
 4713SOL     OW25597   4.712   2.405  16.599 -0.5009 -0.4908 -0.0821
 4713SOL    HW125598   4.653   2.467  16.557  0.0201 -0.0839 -0.2115
 4713SOL    HW225599   4.649   2.354  16.650 -0.1475 -1.3820 -0.5370
 4714SOL     OW25600   3.654   2.335  12.412 -0.2921  0.7962  0.3088
 4714SOL    HW125601   3.654   2.312  12.505  1.2328 -0.0373  0.1071
 4714SOL    HW225602   3.562   2.361  12.402  0.0394  1.6674 -0.4829
 4715SOL     OW25603   3.324   2.779   5.170  0.3220  0.5444  0.3066
 4715SOL    HW125604   3.282   2.803   5.252  0.4721 -2.1402  1.1396
 4715SOL    HW225605   3.410   2.819   5.185 -0.6478  2.9492 -0.4149
 4716SOL     OW25606   4.603   1.196  12.202 -0.8229  0.2286 -0.5590
 4716SOL    HW125607   4.566   1.234  12.122  0.7149 -0.5280 -1.6139
 4716SOL    HW225608   4.613   1.278  12.252 -1.4951  0.5072 -0.8827
 4717SOL     OW25609   2.673   4.114   7.989 -0.0881 -0.2089  0.4864
 4717SOL    HW125610   2.665   4.020   7.970  1.9095 -0.3562  0.4487
 4717SOL    HW225611   2.648   4.123   8.081 -0.0464  1.2125  0.3613
 4718SOL     OW25612   1.071   2.069   5.501 -0.2616  0.4787  0.0175
 4718SOL    HW125613   1.091   2.047   5.592  0.4194 -0.0936 -0.2709
 4718SOL    HW225614   1.156   2.104   5.474 -0.6280  0.1502 -1.6004
 4719SOL     OW25615   4.412   2.776   3.243 -0.4181 -0.5859  0.0464
 4719SOL    HW125616   4.334   2.826   3.271  1.4049  0.7264  2.8403
 4719SOL    HW225617   4.403   2.759   3.150 -1.1212  0.2737 -0.0527
 4720SOL     OW25618   2.127   0.469   3.529  0.1271  0.4870  0.0545
 4720SOL    HW125619   2.068   0.519   3.473 -1.6148 -1.4306  0.1663
 4720SOL    HW225620   2.097   0.378   3.527 -0.7686  0.7715  0.6187
 4721SOL     OW25621   2.907   4.694   2.213  0.3987  0.2035  0.5637
 4721SOL    HW125622   2.867   4.607   2.220 -1.0131  0.7702 -0.3160
 4721SOL    HW225623   2.872   4.717   2.126 -1.7602  0.6628  1.5515
 4722SOL     OW25624   2.296   1.604   7.539  0.0806  0.6808 -0.0134
 4722SOL    HW125625   2.331   1.687   7.506  0.2410  0.7472  0.3235
 4722SOL    HW225626   2.309   1.610   7.634  0.0994 -0.2312  0.0445
 4723SOL     OW25627   0.791   2.624   1.367  0.3016 -0.2866 -0.2041
 4723SOL    HW125628   0.734   2.687   1.410  0.2823 -0.1420 -0.4382
 4723SOL    HW225629   0.810   2.559   1.434  1.0504 -0.7457 -0.8541
 4724SOL     OW25630   4.450   2.019   2.237  0.1776  0.5376 -0.1518
 4724SOL    HW125631   4.539   2.027   2.202 -0.2864 -2.3987 -1.9870
 4724SOL    HW225632   4.429   1.942   2.185  0.2434 -0.5466  1.3989
 4725SOL     OW25633   2.331   0.691   8.273  0.2165  0.0356 -0.4668
 4725SOL    HW125634   2.342   0.751   8.346 -1.1695 -0.1893 -0.0775
 4725SOL    HW225635   2.379   0.610   8.292  2.2828  1.7025  1.4595
 4726SOL     OW25636   1.969   3.955   8.016  0.1117  0.4825  0.0884
 4726SOL    HW125637   1.955   3.966   8.110  2.6000 -0.9728  0.6315
 4726SOL    HW225638   1.893   3.901   7.996 -0.3847  0.6796  1.3944
 4727SOL     OW25639   0.863   3.667   8.427 -0.2080 -0.2646  0.5749
 4727SOL    HW125640   0.854   3.584   8.379  0.9044  1.0087 -1.8205
 4727SOL    HW225641   0.942   3.696   8.382 -1.6373 -2.6509 -3.4991
 4728SOL     OW25642   3.586   0.505   1.770 -0.0579 -0.1911 -0.4945
 4728SOL    HW125643   3.525   0.561   1.817 -2.7208 -0.8683 -3.1205
 4728SOL    HW225644   3.538   0.424   1.753 -0.6547  0.2683 -1.0233
 4729SOL     OW25645   4.215   0.524  11.836  0.6081 -0.3912 -0.2196
 4729SOL    HW125646   4.138   0.580  11.844  1.0021  0.0420  0.5220
 4729SOL    HW225647   4.289   0.584  11.832 -0.7154  1.3744  1.4989
 4730SOL     OW25648   0.541   0.095  13.967  0.5931 -0.0509  0.3007
 4730SOL    HW125649   0.466   0.118  14.021  0.1937  0.1045 -0.3191
 4730SOL    HW225650   0.614   0.098  14.028  0.6833  1.1324  0.1252
 4731SOL     OW25651   1.698   2.269   3.441  0.1614  0.1145  0.0237
 4731SOL    HW125652   1.670   2.242   3.354 -0.6427 -0.7805  0.5566
 4731SOL    HW225653   1.786   2.304   3.427 -1.2734  2.6460 -2.5067
 4732SOL     OW25654   3.377   4.602   8.516 -0.3715 -0.5603  0.4059
 4732SOL    HW125655   3.352   4.584   8.425  1.1652 -0.7692  0.0203
 4732SOL    HW225656   3.311   4.667   8.538  0.2703  0.3392 -0.2702
 4733SOL     OW25657   4.184   4.129   9.747  0.5592 -0.3714 -0.0792
 4733SOL    HW125658   4.169   4.218   9.780  1.2995 -0.4302  0.4122
 4733SOL    HW225659   4.260   4.094   9.794 -0.8467 -2.2182  0.7708
 4734SOL     OW25660   0.337   3.166   8.384 -0.0273  0.1287  0.1970
 4734SOL    HW125661   0.384   3.220   8.448  2.9911 -2.2496 -0.0557
 4734SOL    HW225662   0.325   3.232   8.316  0.7878  1.0089  0.9071
 4735SOL     OW25663   2.272   0.372   7.778 -0.1895  0.2024  0.2339
 4735SOL    HW125664   2.183   0.337   7.765  0.1160 -0.5511  0.1680
 4735SOL    HW225665   2.313   0.286   7.775  0.9763  0.7112  1.6877
 4736SOL     OW25666   0.192   4.436  10.235 -0.0134 -0.5111 -0.5004
 4736SOL    HW125667   0.151   4.360  10.194 -1.1174 -0.4247  0.4601
 4736SOL    HW225668   0.286   4.431  10.219 -0.4667 -1.0995 -2.9577
 4737SOL     OW25669   2.021   1.898   8.514  0.0657 -0.1240  0.0738
 4737SOL    HW125670   2.061   1.829   8.568 -1.1171 -0.4030  0.5996
 4737SOL    HW225671   1.929   1.880   8.534 -0.1926  1.8407  0.6332
 4738SOL     OW25672   2.774   3.271   9.614  0.3516 -0.0420  0.4031
 4738SOL    HW125673   2.810   3.243   9.530 -0.9066  2.6865 -1.0779
 4738SOL    HW225674   2.769   3.367   9.605  1.4614 -0.0489 -0.2481
 4739SOL     OW25675   4.039   1.376   4.261  0.4511  0.0133 -0.1963
 4739SOL    HW125676   4.085   1.294   4.241  1.2643  0.1986  0.8904
 4739SOL    HW225677   3.947   1.359   4.239  0.9659 -0.5227 -1.8963
 4740SOL     OW25678   1.519   4.465   6.595 -0.5614 -0.0688  0.5518
 4740SOL    HW125679   1.604   4.497   6.565 -0.5406 -0.7159 -0.0828
 4740SOL    HW225680   1.467   4.525   6.542  0.8246  0.2472 -0.4543
 4741SOL     OW25681   0.020   0.689   8.670 -0.1521  0.5053  0.5030
 4741SOL    HW125682   0.029   0.717   8.579  0.3326 -1.5355 -0.0857
 4741SOL    HW225683   4.653   0.664   8.681 -0.8557  1.5700 -3.1115
 4742SOL     OW25684   4.712   2.372  16.085  0.8601 -0.1119 -0.3225
 4742SOL    HW125685   4.627   2.379  16.129 -0.4441 -1.3884 -2.6299
 4742SOL    HW225686   0.027   2.458  16.098  0.7470 -0.5461  2.9530
 4743SOL     OW25687   3.507   2.004   4.708  0.0580 -0.4389  0.6619
 4743SOL    HW125688   3.464   2.075   4.755 -1.6877 -1.2862  0.3369
 4743SOL    HW225689   3.497   2.034   4.617  1.0333  2.0046  1.3662
 4744SOL     OW25690   4.613   0.475  10.927  0.3478 -0.9211 -0.3454
 4744SOL    HW125691   4.574   0.464  11.014 -1.7338  0.6663 -1.1004
 4744SOL    HW225692   4.539   0.496  10.871 -0.2118 -1.3675  0.2330
 4745SOL     OW25693   0.497   3.562   4.829 -0.3485 -1.1655  0.8345
 4745SOL    HW125694   0.493   3.482   4.777 -2.0525 -0.7298  0.2764
 4745SOL    HW225695   0.507   3.625   4.757  0.8048 -1.9588  0.3038
 4746SOL     OW25696   1.438   1.268   2.656  0.4932  0.0257  0.1039
 4746SOL    HW125697   1.448   1.287   2.563  0.6518  0.7012  0.2618
 4746SOL    HW225698   1.511   1.320   2.691  0.5793  0.0853 -0.1636
 4747SOL     OW25699   0.881   2.402  13.039 -0.0529  0.1603  0.0156
 4747SOL    HW125700   0.785   2.402  13.030 -0.0964  2.4284  0.4822
 4747SOL    HW225701   0.884   2.312  13.070 -0.9299  0.5020  1.0923
 4748SOL     OW25702   3.835   2.944  10.947 -0.0721 -0.1822  0.3602
 4748SOL    HW125703   3.834   3.009  10.877 -0.7381 -1.4196 -0.7680
 4748SOL    HW225704   3.828   2.857  10.907 -0.6342  0.0212  0.0145
 4749SOL     OW25705   2.287   0.317   8.324 -0.3269 -0.1181  0.0798
 4749SOL    HW125706   2.324   0.230   8.340  1.2105  0.7035  0.9265
 4749SOL    HW225707   2.290   0.329   8.229 -0.5746  0.9567  0.2074
 4750SOL     OW25708   4.215   3.018   6.544 -0.4461  0.2591 -0.4064
 4750SOL    HW125709   4.220   3.106   6.505  1.0601 -0.3827 -1.6555
 4750SOL    HW225710   4.138   3.031   6.599 -1.0256  1.9417 -1.5983
 4751SOL     OW25711   2.682   3.183  17.029 -0.8020  0.4922 -0.4049
 4751SOL    HW125712   2.756   3.126  17.010 -0.2126  0.2600  2.5511
 4751SOL    HW225713   2.660   3.140  17.112  2.0077  0.5831  0.3757
 4752SOL     OW25714   4.110   0.335  17.500  0.1084  0.0753 -0.4170
 4752SOL    HW125715   4.106   0.244  17.471 -1.6320 -0.6536  2.0525
 4752SOL    HW225716   4.171   0.372  17.435 -0.3322  1.3091 -0.1390
 4753SOL     OW25717   1.269   0.562   5.724 -0.1665  0.1354 -0.3701
 4753SOL    HW125718   1.193   0.543   5.671 -1.3162  0.3673  1.1983
 4753SOL    HW225719   1.311   0.477   5.740 -0.4823  0.0924  0.2330
 4754SOL     OW25720   1.149   2.545   6.910  0.7270 -0.0795  0.1407
 4754SOL    HW125721   1.097   2.473   6.875 -1.5636  0.4339  2.4910
 4754SOL    HW225722   1.147   2.535   7.005 -0.2610  0.2231  0.1532
 4755SOL     OW25723   0.156   1.348   4.645 -0.2571  0.6613  0.6765
 4755SOL    HW125724   0.118   1.293   4.714  1.4723 -0.0327  1.0882
 4755SOL    HW225725   0.237   1.304   4.619  0.4941  1.7832  1.0950
 4756SOL     OW25726   2.873   2.454   8.488 -0.1452  0.1495  0.6689
 4756SOL    HW125727   2.791   2.413   8.458  0.7217 -2.1467  1.4261
 4756SOL    HW225728   2.903   2.498   8.408  2.1642 -0.3524  1.2677
 4757SOL     OW25729   0.454   0.493  10.114  0.5392 -0.0413  0.2874
 4757SOL    HW125730   0.363   0.470  10.131 -0.1745  1.7632 -1.1078
 4757SOL    HW225731   0.445   0.581  10.077  2.7518  0.1776  0.2727
 4758SOL     OW25732   2.050   1.075   7.526  0.5402  0.0910  0.6313
 4758SOL    HW125733   2.126   1.027   7.561  1.3038  1.2975  0.6271
 4758SOL    HW225734   2.072   1.167   7.542  0.8912 -0.0739  1.1058
 4759SOL     OW25735   4.361   1.377   8.499  0.4353 -0.0472 -0.2388
 4759SOL    HW125736   4.447   1.368   8.458  0.1025  1.5181 -1.2581
 4759SOL    HW225737   4.347   1.291   8.539  0.3951 -0.7644 -1.7839
 4760SOL     OW25738   2.960   0.752   6.068 -0.1329 -0.2614 -0.3510
 4760SOL    HW125739   2.916   0.673   6.100 -1.0760  0.0415 -0.8926
 4760SOL    HW225740   2.881   0.807   6.071  0.1526  0.0474  1.8926
 4761SOL     OW25741   0.451   0.330   1.833  0.4616 -0.7041  0.0239
 4761SOL    HW125742   0.364   0.332   1.795  0.1982  1.1562  0.7368
 4761SOL    HW225743   0.476   0.422   1.830 -2.4294  0.0090 -1.3272
 4762SOL     OW25744   0.366   3.549   6.336 -0.3129  0.3804  0.4720
 4762SOL    HW125745   0.311   3.568   6.260  1.4979  1.3837 -0.6044
 4762SOL    HW225746   0.317   3.483   6.384 -1.5450  0.2468 -0.9672
 4763SOL     OW25747   2.845   4.711  10.437 -0.1403  0.8880  0.5140
 4763SOL    HW125748   2.906   4.642  10.463 -0.8859  0.7299  1.8293
 4763SOL    HW225749   2.777   4.700  10.503  1.5556  0.0351  2.1000
 4764SOL     OW25750   1.050   3.523   6.342  0.4106 -0.6129 -0.1082
 4764SOL    HW125751   0.985   3.541   6.410  0.1274 -0.2098 -0.4872
 4764SOL    HW225752   1.098   3.449   6.378 -0.0884 -1.0734 -0.3969
 4765SOL     OW25753   0.808   1.154   4.586  0.5380  0.2045  0.2693
 4765SOL    HW125754   0.730   1.182   4.633 -0.2851 -0.3884 -0.7257
 4765SOL    HW225755   0.871   1.224   4.602  0.6901  0.2761 -0.6277
 4766SOL     OW25756   2.458   4.584   6.551  0.7793 -0.1249 -0.0123
 4766SOL    HW125757   2.381   4.548   6.507 -1.1084  0.1314  3.0916
 4766SOL    HW225758   2.419   4.668   6.575  1.5531  0.6007 -1.2852
 4767SOL     OW25759   2.340   3.558   8.452 -0.2518 -0.4241 -0.6474
 4767SOL    HW125760   2.245   3.557   8.438 -0.1537  0.7779 -1.3937
 4767SOL    HW225761   2.347   3.522   8.541 -0.9778 -1.1798 -0.9015
 4768SOL     OW25762   4.436   4.657   9.126  0.3391 -0.0890 -0.3882
 4768SOL    HW125763   4.501   4.599   9.087  0.9092 -1.5404  2.7623
 4768SOL    HW225764   4.461   4.652   9.218  2.9588  1.7718 -1.0000
 4769SOL     OW25765   0.191   1.275  17.088 -0.2353  0.0459  0.3528
 4769SOL    HW125766   0.100   1.282  17.116 -0.0763  1.2115  0.5911
 4769SOL    HW225767   0.192   1.328  17.009 -0.4375 -2.4426 -1.3334
 4770SOL     OW25768   0.511   4.256   0.757  0.3956 -0.6743 -0.8757
 4770SOL    HW125769   0.465   4.300   0.686 -2.5182 -0.9471  0.8629
 4770SOL    HW225770   0.598   4.292   0.741 -0.3296  0.9471 -1.1225
 4771SOL     OW25771   2.618   4.646   1.990 -0.3827  0.0646 -0.4730
 4771SOL    HW125772   2.598   0.012   1.970  1.2615  0.7457  0.9559
 4771SOL    HW225773   2.688   4.639   1.925  0.3370 -1.4410  0.4724
 4772SOL     OW25774   3.526   2.773   4.461 -0.5252  0.6520 -0.5975
 4772SOL    HW125775   3.582   2.699   4.484 -1.7390 -0.0778  0.0334
 4772SOL    HW225776   3.551   2.786   4.370  2.8032  1.2561  0.4001
 4773SOL     OW25777   1.476   1.564   1.886 -0.1381  0.2700  0.1373
 4773SOL    HW125778   1.432   1.481   1.907 -0.4568  0.1202 -1.1137
 4773SOL    HW225779   1.454   1.614   1.965  0.3664  0.4138  0.1814
 4774SOL     OW25780   1.087   3.306  14.609 -0.1866 -0.0041 -0.2173
 4774SOL    HW125781   1.059   3.339  14.694  3.7685  0.4274  0.9090
 4774SOL    HW225782   1.014   3.330  14.551  1.0060  0.4511 -1.5419
 4775SOL     OW25783   1.109   2.871   6.009 -0.7247  0.1134  0.0372
 4775SOL    HW125784   1.046   2.800   5.995 -2.4462  1.9916 -1.6648
 4775SOL    HW225785   1.112   2.905   5.920 -4.0083 -3.0694 -1.3053
 4776SOL     OW25786   1.078   0.025   7.270 -0.2403  0.0586 -0.1183
 4776SOL    HW125787   1.030   0.096   7.313 -0.1821  0.0234  0.0042
 4776SOL    HW225788   1.036   0.016   7.185 -0.2167 -1.4115  0.0265
 4777SOL     OW25789   4.585   0.119  11.265 -0.2694  0.1806 -0.4533
 4777SOL    HW125790   4.581   0.081  11.177  1.3120 -1.0237 -0.0162
 4777SOL    HW225791   4.669   0.166  11.263  0.6120 -1.2509  2.9817
 4778SOL     OW25792   1.730   3.667   4.904  0.1685 -0.1199 -0.1202
 4778SOL    HW125793   1.714   3.742   4.962  2.2135  0.9630 -0.9596
 4778SOL    HW225794   1.643   3.646   4.871  1.0908 -0.9856 -1.9761
 4779SOL     OW25795   0.454   3.537   2.310  0.3995  0.0610  0.1598
 4779SOL    HW125796   0.481   3.620   2.270 -0.1578  0.4680  0.6341
 4779SOL    HW225797   0.360   3.545   2.296  0.5677  0.8768 -0.5579
 4780SOL     OW25798   3.406   1.902  12.695  0.1614  0.0682  0.9516
 4780SOL    HW125799   3.456   1.837  12.645 -1.9734 -0.8305 -0.0400
 4780SOL    HW225800   3.435   1.990  12.675  0.2119 -0.6938 -2.2483
 4781SOL     OW25801   2.262   3.082   4.548  0.1962  0.4157 -0.3926
 4781SOL    HW125802   2.275   3.168   4.508 -0.1673 -0.3297 -2.0958
 4781SOL    HW225803   2.259   3.016   4.479 -1.6369 -0.3198  0.3968
 4782SOL     OW25804   4.431   4.460   3.601  0.3421  0.4984  0.1096
 4782SOL    HW125805   4.473   4.396   3.544  0.5276  0.1791  0.6018
 4782SOL    HW225806   4.366   4.503   3.546  0.4696  0.4197 -0.1011
 4783SOL     OW25807   2.855   1.784   3.272 -0.1939 -0.5857  0.0389
 4783SOL    HW125808   2.932   1.776   3.327 -0.1341  0.3007  0.0688
 4783SOL    HW225809   2.803   1.715   3.315 -0.2936 -0.3989  0.2149
 4784SOL     OW25810   0.207   4.631   0.622 -0.7107 -0.2792 -0.1132
 4784SOL    HW125811   0.234   4.722   0.634 -1.2164 -0.0965 -0.3325
 4784SOL    HW225812   0.148   4.635   0.547 -2.6168 -1.3098  1.3373
 4785SOL     OW25813   4.582   0.593  14.533  0.1194 -0.1752 -0.1362
 4785SOL    HW125814   4.555   0.515  14.581  0.1566 -0.3461 -0.3953
 4785SOL    HW225815   4.640   0.556  14.467  1.4884 -0.1322  1.0480
 4786SOL     OW25816   1.126   0.165   4.891 -0.4105 -0.4355 -0.1321
 4786SOL    HW125817   1.051   0.117   4.857 -1.5907  1.5156 -0.2705
 4786SOL    HW225818   1.191   0.158   4.821 -0.2302  2.0285 -0.2034
 4787SOL     OW25819   3.392   0.664   6.393 -0.3872  0.2436 -0.3016
 4787SOL    HW125820   3.481   0.686   6.368  0.0871 -1.1736  0.1313
 4787SOL    HW225821   3.407   0.593   6.456  1.8914  0.0925 -1.0196
 4788SOL     OW25822   1.734   2.202   8.835 -0.4201 -0.4922 -0.2748
 4788SOL    HW125823   1.756   2.109   8.832 -0.6062 -0.5092 -1.0627
 4788SOL    HW225824   1.735   2.223   8.742 -1.4746  0.7935 -0.0092
 4789SOL     OW25825   1.708   2.173   3.179  0.0479  0.3511  0.2246
 4789SOL    HW125826   1.776   2.106   3.182 -0.8271 -0.5216  0.9325
 4789SOL    HW225827   1.677   2.182   3.089 -0.4459 -1.1742  0.2370
 4790SOL     OW25828   1.546   1.053   9.082  0.3033 -0.2626  0.4869
 4790SOL    HW125829   1.633   1.094   9.075  0.4417 -0.7068 -0.3925
 4790SOL    HW225830   1.524   1.043   8.989  1.8520 -1.2791  0.2161
 4791SOL     OW25831   3.732   1.706   5.949  0.3720  0.8578  0.0318
 4791SOL    HW125832   3.825   1.710   5.930  0.2655  0.4367 -0.6031
 4791SOL    HW225833   3.723   1.799   5.967 -0.1122  0.9422 -0.6303
 4792SOL     OW25834   3.513   1.152   0.680  0.2375 -0.2507  0.1440
 4792SOL    HW125835   3.463   1.199   0.614 -0.0915  0.4190  0.8730
 4792SOL    HW225836   3.456   1.078   0.699 -0.0586 -0.5066 -1.7408
 4793SOL     OW25837   2.379   2.425   1.828 -0.1430  0.0581  0.5291
 4793SOL    HW125838   2.399   2.518   1.820  2.5287 -0.3398  2.3322
 4793SOL    HW225839   2.426   2.393   1.751  2.2553 -2.1693  2.8833
 4794SOL     OW25840   1.051   2.964   8.644 -0.1708 -0.2612  0.3180
 4794SOL    HW125841   1.074   2.924   8.560 -2.0162  2.7984 -1.6705
 4794SOL    HW225842   0.977   2.909   8.668 -1.6755  2.1338  1.1353
 4795SOL     OW25843   1.060   0.055  17.353  0.1094  0.1416 -0.1591
 4795SOL    HW125844   1.032   0.126  17.411  1.7729 -0.2046  1.1026
 4795SOL    HW225845   1.035   4.706  17.409  1.1446  0.3772  0.6130
 4796SOL     OW25846   0.635   3.072   2.108 -0.6917  0.7055  0.1438
 4796SOL    HW125847   0.642   3.034   2.196 -1.0048 -0.9078 -0.5184
 4796SOL    HW225848   0.724   3.072   2.073 -1.4109 -0.1281 -1.6921
 4797SOL     OW25849   0.870   4.704   7.600 -0.3076 -0.0489  0.3496
 4797SOL    HW125850   0.927   4.669   7.669  0.7791 -0.5874 -0.8244
 4797SOL    HW225851   0.930   0.044   7.564 -3.1581  1.6892 -1.2628
 4798SOL     OW25852   0.497   4.443   0.076 -0.2313 -0.1461 -0.3470
 4798SOL    HW125853   0.406   4.447   0.108  1.0544 -1.1475  3.4553
 4798SOL    HW225854   0.478   4.467  17.685  0.0853  2.5998  0.3025
 4799SOL     OW25855   0.256   2.291   2.318 -0.1983 -0.5070  0.1375
 4799SOL    HW125856   0.313   2.229   2.362  2.4136  1.8495  0.0355
 4799SOL    HW225857   0.302   2.371   2.342 -1.6361 -0.1319  1.7008
 4800SOL     OW25858   0.483   4.206  17.113  0.2695 -0.0388  0.1710
 4800SOL    HW125859   0.491   4.111  17.113 -0.6406 -0.1185  1.3772
 4800SOL    HW225860   0.577   4.218  17.099  0.5421 -1.4929  0.7192
 4801SOL     OW25861   4.407   2.015  12.649 -0.1089  0.4833  0.3084
 4801SOL    HW125862   4.469   2.020  12.722 -1.3342  1.3368  1.3031
 4801SOL    HW225863   4.328   2.007  12.703  0.0383 -1.9106  0.1749
 4802SOL     OW25864   0.214   2.573   0.119  0.2968  0.0070  0.7038
 4802SOL    HW125865   0.291   2.583   0.063  0.3574  0.6482  0.9133
 4802SOL    HW225866   0.241   2.613   0.201  2.4729  1.9810 -0.9818
 4803SOL     OW25867   0.479   2.891   8.226 -0.6573 -0.3923  0.1532
 4803SOL    HW125868   0.500   2.869   8.136 -0.4846  0.6678 -0.0634
 4803SOL    HW225869   0.384   2.901   8.226 -0.5472  0.5979 -0.4834
 4804SOL     OW25870   0.307   3.322   9.255  0.0812 -0.1390  0.0120
 4804SOL    HW125871   0.382   3.295   9.308 -0.7533  3.2728  2.9141
 4804SOL    HW225872   0.275   3.253   9.196  2.6376  0.4390 -2.0632
 4805SOL     OW25873   2.273   2.870   3.487  0.1786 -0.4024  0.2439
 4805SOL    HW125874   2.304   2.915   3.408  0.6108 -0.2093  0.5234
 4805SOL    HW225875   2.328   2.791   3.486 -0.5167 -0.9094  1.8583
 4806SOL     OW25876   3.106   2.898   3.092 -0.3564  0.3388 -0.3089
 4806SOL    HW125877   3.115   2.806   3.067  1.8747  0.2112  0.9027
 4806SOL    HW225878   3.023   2.916   3.049  0.6610  2.0135 -1.6087
 4807SOL     OW25879   1.902   1.827  14.282 -0.1065  0.2252  0.2551
 4807SOL    HW125880   1.810   1.813  14.302  0.3444 -3.3296 -0.1328
 4807SOL    HW225881   1.940   1.837  14.369 -0.8651 -0.4088  0.6625
 4808SOL     OW25882   1.271   4.144   5.153 -0.1637  0.0348  0.0380
 4808SOL    HW125883   1.274   4.206   5.080 -0.4397 -0.2525 -0.2211
 4808SOL    HW225884   1.325   4.186   5.220 -1.5836  1.0341  0.5475
 4809SOL     OW25885   3.991   2.142   5.544 -0.7203  0.8696 -0.2717
 4809SOL    HW125886   4.080   2.158   5.574 -0.6648  0.5895 -0.2951
 4809SOL    HW225887   3.944   2.199   5.606 -1.5128  0.6287 -0.6473
 4810SOL     OW25888   1.280   1.921   4.629  0.4076  0.2926  0.4221
 4810SOL    HW125889   1.315   1.946   4.543  0.4400 -1.2435 -0.0241
 4810SOL    HW225890   1.357   1.876   4.663  0.9379 -0.5967 -1.9287
 4811SOL     OW25891   1.728   1.377   5.337  0.6452 -0.2522  0.0613
 4811SOL    HW125892   1.661   1.338   5.392  0.2803  0.1351 -0.1097
 4811SOL    HW225893   1.677   1.410   5.263  1.7654  2.9518  0.7225
 4812SOL     OW25894   3.596   3.622   3.643 -0.2803 -0.4251 -0.2726
 4812SOL    HW125895   3.681   3.604   3.683 -0.0176  0.7010 -0.3292
 4812SOL    HW225896   3.620   3.676   3.568  0.3837  2.1661  1.7870
 4813SOL     OW25897   1.876   2.255   4.327 -0.0874  0.1756 -0.3368
 4813SOL    HW125898   1.788   2.243   4.290  0.7384 -1.1277 -1.8971
 4813SOL    HW225899   1.921   2.297   4.253  2.2856 -1.1341  0.3508
 4814SOL     OW25900   4.618   1.265   0.360 -0.1370  0.6277 -0.6373
 4814SOL    HW125901   4.524   1.247   0.353 -0.3417  1.4953 -0.1517
 4814SOL    HW225902   4.668   1.186   0.379 -0.4905  0.4668 -0.3829
 4815SOL     OW25903   3.031   1.576   2.711 -0.1312  0.4883 -0.1119
 4815SOL    HW125904   3.063   1.563   2.800  0.0365 -1.7070 -0.4724
 4815SOL    HW225905   2.987   1.492   2.701 -0.2500  0.5708 -0.2800
 4816SOL     OW25906   3.340   2.267  15.267  0.8496  0.2179 -0.3456
 4816SOL    HW125907   3.417   2.210  15.270  0.9380  0.4015  0.9393
 4816SOL    HW225908   3.280   2.218  15.323 -1.3469  2.1174 -1.0542
 4817SOL     OW25909   2.067   0.002   7.856 -0.3141  0.2878  0.1210
 4817SOL    HW125910   2.087   0.028   7.946  0.2815  1.1943 -0.2721
 4817SOL    HW225911   2.087   0.088   7.819 -3.0272  1.2115  0.8539
 4818SOL     OW25912   0.085   2.400   6.054 -0.0142 -0.2270 -0.5931
 4818SOL    HW125913   0.174   2.381   6.084 -1.1485 -2.9603  1.0082
 4818SOL    HW225914   0.079   2.328   5.991  0.6127 -1.9522  1.3166
 4819SOL     OW25915   3.836   0.751   7.551  0.1915 -0.9045 -0.0943
 4819SOL    HW125916   3.875   0.823   7.599 -1.4419 -0.9292  1.2973
 4819SOL    HW225917   3.886   0.678   7.589 -0.1671 -0.7966  0.6040
 4820SOL     OW25918   2.218   1.379  15.099 -0.7766  0.2002 -0.3316
 4820SOL    HW125919   2.302   1.340  15.122  0.0635  2.2598  0.0875
 4820SOL    HW225920   2.169   1.367  15.181  1.8126  0.7064  1.3223
 4821SOL     OW25921   3.852   0.919   4.960  0.0356 -0.3416 -1.0511
 4821SOL    HW125922   3.910   0.843   4.964  0.1503 -0.2075 -0.2123
 4821SOL    HW225923   3.828   0.897   4.870  0.3734 -0.7539 -1.0400
 4822SOL     OW25924   4.308   2.185   2.770 -0.1048  0.7974 -0.5205
 4822SOL    HW125925   4.386   2.194   2.824  1.7439 -0.0725 -3.0701
 4822SOL    HW225926   4.336   2.206   2.681  0.7872  1.2846 -0.1263
 4823SOL     OW25927   0.938   3.002   8.240  0.6988  0.0845 -0.4235
 4823SOL    HW125928   0.888   2.963   8.168  1.8803  0.3683 -1.3889
 4823SOL    HW225929   0.890   3.084   8.253  0.2904 -0.0526 -1.0307
 4824SOL     OW25930   1.150   3.438   4.313  0.6619 -0.1643  0.1415
 4824SOL    HW125931   1.114   3.496   4.381 -1.1748  0.5545 -1.4379
 4824SOL    HW225932   1.229   3.488   4.292  1.4454 -1.8237 -0.7789
 4825SOL     OW25933   1.238   1.249   8.405 -0.6662  0.4648  0.6044
 4825SOL    HW125934   1.294   1.175   8.429 -1.9208 -1.1734 -1.5902
 4825SOL    HW225935   1.203   1.215   8.323  0.4533  0.2592  0.2124
 4826SOL     OW25936   4.332   4.554   5.973 -0.1234 -0.2387 -0.0284
 4826SOL    HW125937   4.267   4.535   6.041  1.3077  1.9082  1.9458
 4826SOL    HW225938   4.283   4.515   5.900 -1.7619 -0.3545  1.1181
 4827SOL     OW25939   1.249   1.652   7.350 -0.7809 -0.4735  0.8916
 4827SOL    HW125940   1.220   1.569   7.312 -1.4019  0.5816 -0.9554
 4827SOL    HW225941   1.170   1.704   7.339 -0.0890  0.8580  2.2282
 4828SOL     OW25942   2.642   1.511  14.174 -0.5154 -0.0050 -0.7244
 4828SOL    HW125943   2.589   1.509  14.254 -0.6136 -0.6802 -0.8009
 4828SOL    HW225944   2.580   1.561  14.121 -1.2571  0.3512  0.4819
 4829SOL     OW25945   3.113   3.396   5.728  0.2372 -0.6782 -0.1664
 4829SOL    HW125946   3.098   3.489   5.714 -0.1853 -0.8931 -1.1426
 4829SOL    HW225947   3.028   3.362   5.755 -0.9694  2.1640 -0.4736
 4830SOL     OW25948   4.684   0.049   8.028  0.4097  0.0057 -0.1166
 4830SOL    HW125949   4.603   0.077   8.070  0.9024  0.7529  0.3371
 4830SOL    HW225950   0.003   0.132   8.049 -0.4426  0.8760 -1.8226
 4831SOL     OW25951   0.475   1.042   9.413  0.1982  0.4148 -0.1225
 4831SOL    HW125952   0.480   1.048   9.508  1.0002 -3.4002  0.0717
 4831SOL    HW225953   0.437   1.130   9.407 -0.8375  0.1136  1.9816
 4832SOL     OW25954   2.044   0.819  16.913 -0.0339  0.1673 -0.1870
 4832SOL    HW125955   2.107   0.756  16.878  0.0168 -0.5048  1.0913
 4832SOL    HW225956   1.970   0.768  16.946  0.5138 -0.5674 -0.0957
 4833SOL     OW25957   2.933   2.008  11.386 -0.3466  0.3779  0.0504
 4833SOL    HW125958   2.961   1.930  11.433  0.1568  0.0149 -0.8573
 4833SOL    HW225959   2.855   1.975  11.341  1.0774 -3.0810  0.1879
 4834SOL     OW25960   4.247   4.129   5.856 -0.1695  0.2173  0.4096
 4834SOL    HW125961   4.337   4.149   5.882  0.0506  0.6404 -0.7002
 4834SOL    HW225962   4.234   4.041   5.892 -1.1855  0.5723  0.9132
 4835SOL     OW25963   4.081   2.543   2.316 -0.0999 -0.3208 -0.3654
 4835SOL    HW125964   4.101   2.616   2.257  0.0880 -0.0197  0.0732
 4835SOL    HW225965   3.986   2.538   2.324 -0.2138  1.1214 -0.8645
 4836SOL     OW25966   1.362   0.847   3.941  0.1900  0.0909 -0.1604
 4836SOL    HW125967   1.365   0.752   3.954 -0.1251  0.3677  1.9834
 4836SOL    HW225968   1.266   0.855   3.942  0.1625 -0.2735  0.2366
 4837SOL     OW25969   0.938   1.639   5.563  0.4041 -0.3431 -0.8819
 4837SOL    HW125970   0.881   1.588   5.505 -1.4733  0.2943  0.3963
 4837SOL    HW225971   0.870   1.704   5.583  1.9354  1.1765 -0.6038
 4838SOL     OW25972   1.616   1.509   3.902  0.1899 -0.3608 -0.0673
 4838SOL    HW125973   1.637   1.542   3.990 -0.5429 -2.4867  0.8919
 4838SOL    HW225974   1.657   1.578   3.850  0.0371  0.5099  0.9680
 4839SOL     OW25975   4.149   2.129   8.298  0.8943  0.5220 -0.1541
 4839SOL    HW125976   4.230   2.079   8.304  0.2095 -1.0035 -3.2749
 4839SOL    HW225977   4.153   2.182   8.377  0.6153 -1.3653  1.1150
 4840SOL     OW25978   4.456   3.636   4.186 -0.4105 -0.5695  0.3267
 4840SOL    HW125979   4.462   3.540   4.187  2.4884 -0.4350 -3.4798
 4840SOL    HW225980   4.540   3.661   4.148 -0.0336 -2.6606 -0.2226
 4841SOL     OW25981   1.948   2.832   7.147 -0.4497  0.3070  0.3029
 4841SOL    HW125982   1.905   2.813   7.231  1.0901  0.4445  1.1262
 4841SOL    HW225983   1.951   2.743   7.113  0.9217  0.2992  0.4334
 4842SOL     OW25984   3.439   3.862   4.446 -0.2040  0.9449 -0.2487
 4842SOL    HW125985   3.359   3.812   4.462 -0.2804  1.0307 -0.3601
 4842SOL    HW225986   3.453   3.845   4.353  3.8708 -3.5208  1.1723
 4843SOL     OW25987   2.858   2.535   4.966  0.3498  0.1160  0.0613
 4843SOL    HW125988   2.789   2.601   4.958  0.4914 -0.0978 -2.9003
 4843SOL    HW225989   2.921   2.578   5.025 -0.1519  0.9364  0.0057
 4844SOL     OW25990   3.982   1.442   3.413 -0.5249  0.0331 -0.2493
 4844SOL    HW125991   4.070   1.481   3.407 -0.8436  0.8103  0.2170
 4844SOL    HW225992   3.993   1.391   3.333 -2.9250  1.7868 -1.7002
 4845SOL     OW25993   4.557   3.734   7.228 -0.7799 -0.1502 -0.0594
 4845SOL    HW125994   4.562   3.825   7.200  0.3015 -0.2096 -0.0482
 4845SOL    HW225995   4.643   3.714   7.266  0.0205 -0.0408 -1.7865
 4846SOL     OW25996   2.359   2.049   9.941 -0.1079 -0.3585  0.4464
 4846SOL    HW125997   2.397   2.045  10.028 -0.8197 -2.5823  0.6662
 4846SOL    HW225998   2.266   2.068   9.955  0.0692  0.4155  0.5767
 4847SOL     OW25999   2.536   2.487  17.376 -0.6476  0.7165 -0.2383
 4847SOL    HW126000   2.506   2.578  17.387  1.0701  0.9042  3.0485
 4847SOL    HW226001   2.589   2.478  17.456  1.2212 -1.4304 -1.7461
 4848SOL     OW26002   3.966   3.161   2.356 -0.2461  0.0228  0.1583
 4848SOL    HW126003   3.993   3.085   2.305 -1.1988 -0.6674  0.6775
 4848SOL    HW226004   3.886   3.128   2.398 -1.2040  0.1347 -1.5671
 4849SOL     OW26005   3.399   2.543   0.369 -0.2832 -0.2628 -0.4381
 4849SOL    HW126006   3.441   2.595   0.301 -1.1229 -1.5353 -1.9243
 4849SOL    HW226007   3.460   2.536   0.443 -0.4698 -0.7457 -0.3308
 4850SOL     OW26008   3.046   2.818   6.156 -0.0384 -0.3318  0.1255
 4850SOL    HW126009   3.129   2.824   6.204  0.0022 -2.5198  0.3218
 4850SOL    HW226010   2.998   2.891   6.194  0.3407 -0.5179  0.9517
 4851SOL     OW26011   2.267   4.163   2.599 -0.1687 -0.5167  0.1140
 4851SOL    HW126012   2.294   4.082   2.555  0.4874 -0.9686  1.3441
 4851SOL    HW226013   2.274   4.136   2.690  2.1497  2.2391  0.7304
 4852SOL     OW26014   1.846   0.290   5.451  0.4574 -0.2206  0.1327
 4852SOL    HW126015   1.770   0.305   5.506  0.9608  0.8025  0.5444
 4852SOL    HW226016   1.898   0.370   5.458 -1.3251  0.9091  0.2747
 4853SOL     OW26017   2.019   0.767   6.184  0.8185  0.1237 -0.0966
 4853SOL    HW126018   1.967   0.737   6.110  0.0755  0.4782  0.2793
 4853SOL    HW226019   1.954   0.780   6.254 -2.3891 -0.8535 -2.9101
 4854SOL     OW26020   4.273   0.407   3.776  0.1762 -0.1946 -0.3247
 4854SOL    HW126021   4.315   0.436   3.695  0.9633  1.4167  0.6756
 4854SOL    HW226022   4.345   0.382   3.834  1.6041 -0.4472 -2.2114
 4855SOL     OW26023   3.018   0.508  16.715 -0.2890 -0.2784 -0.0565
 4855SOL    HW126024   3.068   0.449  16.772 -0.6671  0.1783  0.7401
 4855SOL    HW226025   2.930   0.471  16.718 -0.2968  0.0779  3.0931
 4856SOL     OW26026   0.241   3.025   3.239  0.0672  0.1071  0.2266
 4856SOL    HW126027   0.202   3.110   3.260 -0.4509  0.0241 -0.3647
 4856SOL    HW226028   0.186   3.006   3.162  0.0268  1.4741 -0.0891
 4857SOL     OW26029   0.381   3.161  10.114 -0.4330  0.1547 -0.4667
 4857SOL    HW126030   0.451   3.100  10.089 -1.2851 -1.8185  2.0160
 4857SOL    HW226031   0.405   3.239  10.063  0.6699 -0.1993 -0.4811
 4858SOL     OW26032   2.742   3.345   9.323  0.4844 -0.3169  0.6263
 4858SOL    HW126033   2.760   3.391   9.241 -1.9392  0.0572  0.2904
 4858SOL    HW226034   2.704   3.419   9.371  1.2497  0.1094  0.5746
 4859SOL     OW26035   1.142   2.497  12.916 -0.3762 -0.0397  0.1318
 4859SOL    HW126036   1.211   2.468  12.975 -1.1180 -2.4780 -0.2244
 4859SOL    HW226037   1.070   2.453  12.961 -1.4580  1.5819  0.0010
 4860SOL     OW26038   0.333   3.201   6.191  0.2534  0.3224 -0.1343
 4860SOL    HW126039   0.414   3.155   6.210 -0.4885 -0.2138  1.7385
 4860SOL    HW226040   0.294   3.225   6.275  0.0381 -1.4714  0.2715
 4861SOL     OW26041   2.653   1.374   7.568  0.0746  0.2833  0.4307
 4861SOL    HW126042   2.659   1.308   7.637 -1.5205  0.6985  0.9721
 4861SOL    HW226043   2.657   1.454   7.621  3.6172  0.3318  0.0863
 4862SOL     OW26044   2.029   4.588   4.022  0.2806  0.1265 -0.5996
 4862SOL    HW126045   2.062   4.527   3.957 -0.8958 -0.1667 -0.9321
 4862SOL    HW226046   1.975   4.639   3.961 -0.7241 -1.2176 -0.8254
 4863SOL     OW26047   3.227   3.087   4.326  0.7818  0.6445 -0.4440
 4863SOL    HW126048   3.177   3.105   4.406 -1.2659 -1.2261 -1.3001
 4863SOL    HW226049   3.235   2.992   4.315  1.9737  0.7488 -0.4101
 4864SOL     OW26050   4.544   0.835  13.287 -0.3976 -0.5008 -0.5225
 4864SOL    HW126051   4.514   0.920  13.253 -0.0391  0.1046  0.6915
 4864SOL    HW226052   4.493   0.840  13.368 -0.8174  0.1624 -0.8217
 4865SOL     OW26053   1.153   0.940   9.298 -0.0824  0.1395 -0.2251
 4865SOL    HW126054   1.061   0.964   9.285 -0.4810 -1.1337  0.2534
 4865SOL    HW226055   1.186   1.029   9.309 -0.5865  0.4604 -1.3338
 4866SOL     OW26056   3.820   2.241   3.332 -0.4110 -0.0125  0.0107
 4866SOL    HW126057   3.833   2.161   3.383  1.2328 -0.9426 -1.9325
 4866SOL    HW226058   3.811   2.301   3.407  0.9628 -0.6048  0.6478
 4867SOL     OW26059   3.245   2.576  10.340  0.2579 -0.4938 -0.1452
 4867SOL    HW126060   3.222   2.642  10.275  1.1652  0.8145  0.8541
 4867SOL    HW226061   3.166   2.566  10.393  1.0552 -2.5312  0.6526
 4868SOL     OW26062   2.271   1.414   7.903  0.0677  0.6665  0.6667
 4868SOL    HW126063   2.181   1.386   7.884 -0.7465  2.9888  1.0846
 4868SOL    HW226064   2.318   1.332   7.918  1.0430  0.7696 -1.7140
 4869SOL     OW26065   2.316   2.649   6.413 -0.0760 -0.3848 -0.2204
 4869SOL    HW126066   2.363   2.639   6.496  0.8834 -0.9677 -0.8307
 4869SOL    HW226067   2.312   2.559   6.381 -2.8772 -0.1506 -0.5000
 4870SOL     OW26068   2.715   0.460   8.937 -0.0310 -0.1899  0.1583
 4870SOL    HW126069   2.628   0.434   8.906  0.2562  0.2086 -0.9630
 4870SOL    HW226070   2.681   0.488   9.022  2.1534  1.8083  0.3465
 4871SOL     OW26071   1.418   1.925   1.379  0.3579 -0.0509 -0.4726
 4871SOL    HW126072   1.508   1.955   1.375 -0.2897  2.1323  0.8278
 4871SOL    HW226073   1.421   1.836   1.344  1.6364  0.0497 -0.6005
 4872SOL     OW26074   0.640   3.477   8.264  0.1523  0.2861 -0.0995
 4872SOL    HW126075   0.645   3.542   8.194  0.2247  1.5101  1.0436
 4872SOL    HW226076   0.570   3.522   8.311 -0.6436 -1.2655  0.2110
 4873SOL     OW26077   4.292   1.937  17.403  0.6571 -0.0539  0.1042
 4873SOL    HW126078   4.347   1.960  17.478  0.2044 -1.0068  0.7315
 4873SOL    HW226079   4.241   1.861  17.431  0.1459  0.2278 -0.0711
 4874SOL     OW26080   3.808   3.168   6.132  0.5794 -0.0470 -1.0158
 4874SOL    HW126081   3.874   3.129   6.075  0.4487 -1.5180 -0.1485
 4874SOL    HW226082   3.749   3.093   6.136  2.0837 -1.2415 -1.6324
 4875SOL     OW26083   4.432   1.361   6.437 -0.2934 -0.1161  0.4500
 4875SOL    HW126084   4.522   1.359   6.406 -0.8253 -0.3752 -1.0550
 4875SOL    HW226085   4.442   1.295   6.506  0.4699 -0.9609 -0.4774
 4876SOL     OW26086   0.127   3.699   4.717 -0.1412  0.0375 -0.2470
 4876SOL    HW126087   0.056   3.638   4.737 -1.0937  1.4212  0.6416
 4876SOL    HW226088   0.079   3.741   4.645  1.5605  1.9169 -0.2770
 4877SOL     OW26089   0.517   3.866   6.893  0.6424  0.1123  0.2030
 4877SOL    HW126090   0.466   3.864   6.974  0.3126  0.6377  0.0126
 4877SOL    HW226091   0.474   3.818   6.822  0.5901  0.6024 -0.1030
 4878SOL     OW26092   1.386   3.483   9.553  0.2308  0.9203 -0.1193
 4878SOL    HW126093   1.473   3.509   9.584  0.1775 -0.3334  1.0488
 4878SOL    HW226094   1.409   3.404   9.504 -2.3015  0.5801 -0.7380
 4879SOL     OW26095   0.371   3.296   7.283 -0.6659  0.1856 -0.0888
 4879SOL    HW126096   0.442   3.300   7.347  0.1660  2.1773 -1.1340
 4879SOL    HW226097   0.305   3.248   7.333 -1.0719  0.4237 -0.3946
 4880SOL     OW26098   2.940   1.918   7.607 -0.3322  0.1208  0.1089
 4880SOL    HW126099   3.002   1.965   7.664 -1.4152 -0.7671  2.0135
 4880SOL    HW226100   2.892   1.857   7.662  1.7497  0.2802  2.0956
 4881SOL     OW26101   2.008   3.060   6.838  0.4582 -0.6682 -0.0400
 4881SOL    HW126102   1.974   2.971   6.825 -1.8836  0.0947  1.0016
 4881SOL    HW226103   2.099   3.044   6.863  0.5701  0.4651  0.2733
 4882SOL     OW26104   2.193   4.228   4.302 -0.0956  0.3837 -0.0742
 4882SOL    HW126105   2.263   4.239   4.366  0.0174  0.3972 -0.2020
 4882SOL    HW226106   2.193   4.132   4.304  2.6647  0.3968  0.3737
 4883SOL     OW26107   3.303   3.473   7.058  0.7410  0.3175  0.0500
 4883SOL    HW126108   3.251   3.392   7.054  1.4296 -0.0934 -0.6592
 4883SOL    HW226109   3.360   3.463   6.982  1.6789 -1.6085  1.0111
 4884SOL     OW26110   2.461   2.506   7.786  0.0980  0.2846 -0.4824
 4884SOL    HW126111   2.428   2.452   7.714 -0.4833 -0.6044  0.4488
 4884SOL    HW226112   2.544   2.519   7.741 -0.4484  1.7309 -1.0526
 4885SOL     OW26113   0.750   0.407   1.179  0.4409 -0.0763  0.1311
 4885SOL    HW126114   0.693   0.379   1.107 -0.1068  1.6115 -0.0737
 4885SOL    HW226115   0.722   0.337   1.238  1.9582  0.5149  1.5397
 4886SOL     OW26116   2.189   1.772   5.995 -0.0903  0.2031  0.2024
 4886SOL    HW126117   2.241   1.700   6.030 -0.4500 -0.6470 -1.0013
 4886SOL    HW226118   2.100   1.737   6.006 -0.7501  1.4640 -1.1568
 4887SOL     OW26119   0.954   3.781   4.643  0.0974 -0.1524 -0.2820
 4887SOL    HW126120   0.901   3.758   4.719 -0.2441 -1.2437 -0.8441
 4887SOL    HW226121   0.960   3.874   4.665  1.9260 -0.3902  0.2885
 4888SOL     OW26122   4.517   1.265   8.800 -0.2394  0.2882  0.1544
 4888SOL    HW126123   4.497   1.176   8.771  1.1063 -0.6178  1.9911
 4888SOL    HW226124   4.569   1.289   8.724 -0.1445 -0.0851  0.0995
 4889SOL     OW26125   3.059   3.653   7.537  0.2023  0.4716  0.0352
 4889SOL    HW126126   3.053   3.560   7.515 -0.3775  0.8291 -1.3051
 4889SOL    HW226127   2.970   3.686   7.550 -0.7436 -2.4759  0.9218
 4890SOL     OW26128   2.959   2.462   7.051 -0.4391  0.4476  0.2089
 4890SOL    HW126129   2.876   2.505   7.073  1.0646  1.7550  3.4047
 4890SOL    HW226130   2.961   2.487   6.959 -1.0002  2.1821  0.6754
 4891SOL     OW26131   0.548   3.752  13.324  0.2651 -0.1009  0.0225
 4891SOL    HW126132   0.481   3.819  13.314 -0.2929 -1.0206 -2.3547
 4891SOL    HW226133   0.542   3.716  13.236  1.4942  2.9726 -1.3248
 4892SOL     OW26134   4.175   2.083  14.126  0.2805 -0.1491 -0.2992
 4892SOL    HW126135   4.159   2.166  14.171 -2.8489 -1.5920  1.2423
 4892SOL    HW226136   4.108   2.085  14.058  0.2850  0.0286 -0.2970
 4893SOL     OW26137   1.200   1.980  10.066 -0.8354 -0.2636  0.1659
 4893SOL    HW126138   1.241   2.060  10.033 -0.8259 -0.7673 -1.0487
 4893SOL    HW226139   1.268   1.954  10.128  3.4100 -0.2107 -4.4409
 4894SOL     OW26140   3.456   0.286  17.362 -0.1985  0.2470 -0.3879
 4894SOL    HW126141   3.477   0.374  17.331  1.3905  0.6230  1.7133
 4894SOL    HW226142   3.518   0.281  17.435  0.4346 -1.9625 -1.0819
 4895SOL     OW26143   1.970   0.500   7.487  0.2950 -0.4835 -0.5049
 4895SOL    HW126144   2.015   0.534   7.409  0.4527  0.2990 -0.0804
 4895SOL    HW226145   2.010   0.413   7.488  0.5670 -0.3385  0.5165
 4896SOL     OW26146   2.876   4.433   9.650 -0.0878  0.3136  0.2204
 4896SOL    HW126147   2.824   4.423   9.570 -0.8430 -0.5750  0.8185
 4896SOL    HW226148   2.807   4.421   9.715  0.4082 -1.4104  0.4385
 4897SOL     OW26149   0.139   4.274   6.857 -0.1136 -0.3301 -0.1611
 4897SOL    HW126150   0.161   4.190   6.818 -1.3615 -0.9217  0.4135
 4897SOL    HW226151   0.052   4.260   6.895 -0.3273 -0.2087 -0.5923
 4898SOL     OW26152   1.480   4.526   8.926  0.1090 -0.0397 -0.4926
 4898SOL    HW126153   1.402   4.502   8.875  0.6624  0.7287 -1.6912
 4898SOL    HW226154   1.546   4.541   8.859  0.2550 -1.7931 -0.7329
 4899SOL     OW26155   0.853   2.458   1.564  0.1806 -0.0257  0.4376
 4899SOL    HW126156   0.931   2.513   1.572 -2.0916  3.1002  1.2211
 4899SOL    HW226157   0.892   2.383   1.521  1.0049  1.4957 -1.4846
 4900SOL     OW26158   1.100   0.310   7.683 -0.1902  0.0208  0.0983
 4900SOL    HW126159   1.174   0.260   7.649  0.3015  1.8616 -1.5089
 4900SOL    HW226160   1.147   0.393   7.690  1.9578 -1.1856 -0.0825
 4901SOL     OW26161   2.032   0.358  15.455  0.3578 -0.3849  0.1433
 4901SOL    HW126162   2.093   0.391  15.389 -1.4936  0.8272 -0.9285
 4901SOL    HW226163   2.007   0.275  15.414  0.5993  0.5639 -1.9028
 4902SOL     OW26164   3.658   2.049   5.716  0.2959  0.1501 -0.4080
 4902SOL    HW126165   3.715   2.087   5.783 -1.5208  0.9526  0.6961
 4902SOL    HW226166   3.604   2.122   5.686 -1.3231 -0.2390  1.5271
 4903SOL     OW26167   1.522   3.308   8.928  0.0198  0.1294 -0.2823
 4903SOL    HW126168   1.437   3.350   8.947  0.4835  0.2999  1.4347
 4903SOL    HW226169   1.525   3.246   9.001 -1.4711 -1.2001 -1.3679
 4904SOL     OW26170   3.187   3.240   8.558 -0.4037 -0.3686 -0.1548
 4904SOL    HW126171   3.197   3.310   8.622  0.8232  0.2368 -1.0161
 4904SOL    HW226172   3.266   3.189   8.577 -0.9734 -0.8677  0.9091
 4905SOL     OW26173   2.603   0.031   4.829  0.1245 -0.1877 -0.2143
 4905SOL    HW126174   2.687   0.016   4.873  0.2824 -0.0708 -0.4751
 4905SOL    HW226175   2.561   4.670   4.841  1.3861 -0.6391  1.0025
 4906SOL     OW26176   0.948   0.900   8.976  0.0734 -0.0238 -0.4964
 4906SOL    HW126177   0.906   0.977   8.938 -1.8915 -0.1864  1.3401
 4906SOL    HW226178   1.009   0.891   8.903 -0.4730  0.6785 -1.0345
 4907SOL     OW26179   3.240   1.939  14.731 -0.2539  0.5253  0.2373
 4907SOL    HW126180   3.303   2.003  14.761  0.1254  0.1271  0.2913
 4907SOL    HW226181   3.157   1.986  14.736  0.0971  1.2999 -1.0751
 4908SOL     OW26182   3.781   3.679  10.855 -0.0684 -0.0948 -0.7041
 4908SOL    HW126183   3.697   3.668  10.900  0.4673 -0.2424  0.2741
 4908SOL    HW226184   3.771   3.772  10.838 -0.1809 -0.2332 -1.3878
 4909SOL     OW26185   0.202   3.143   7.439 -0.1628 -0.3218 -0.6076
 4909SOL    HW126186   0.226   3.051   7.432 -0.8231 -0.5196 -0.2546
 4909SOL    HW226187   0.122   3.141   7.492 -0.0026 -2.9839 -0.4611
 4910SOL     OW26188   3.233   3.822   7.355 -0.2509 -0.1825  0.2387
 4910SOL    HW126189   3.142   3.852   7.348  0.4053  1.1074 -2.6509
 4910SOL    HW226190   3.240   3.816   7.450 -0.1334  0.3383  0.2653
 4911SOL     OW26191   4.460   2.656   2.629 -0.7384 -0.1338  0.1361
 4911SOL    HW126192   4.454   2.562   2.646 -0.8411  0.1417  1.6270
 4911SOL    HW226193   4.426   2.658   2.540  0.8223 -1.5035 -0.4910
 4912SOL     OW26194   2.458   2.885   9.226  0.1428  0.0347 -0.9165
 4912SOL    HW126195   2.483   2.977   9.217  1.9357 -0.3183  0.5017
 4912SOL    HW226196   2.449   2.874   9.131  0.2555 -2.1554 -0.6657
 4913SOL     OW26197   3.186   1.125   6.798  0.6166  0.3435 -0.5130
 4913SOL    HW126198   3.172   1.219   6.790  2.4237  0.6225 -0.5291
 4913SOL    HW226199   3.138   1.101   6.719 -2.6151  0.7002  1.3310
 4914SOL     OW26200   0.967   3.968   2.139  0.4132 -0.6899  0.1931
 4914SOL    HW126201   0.890   4.008   2.177  1.0152  0.0201  0.6592
 4914SOL    HW226202   0.922   3.891   2.104  1.2834 -1.2542  0.2980
 4915SOL     OW26203   2.163   4.708  11.535 -0.0889 -0.6609  0.5983
 4915SOL    HW126204   2.188   0.053  11.596  1.6514  0.2533 -1.1581
 4915SOL    HW226205   2.128   0.037  11.465  0.7672 -2.2012 -1.0039
 4916SOL     OW26206   2.850   3.361   5.845  0.0838 -0.0926  0.2040
 4916SOL    HW126207   2.782   3.413   5.888  1.1431  1.5096 -0.0434
 4916SOL    HW226208   2.855   3.275   5.887 -1.1574 -0.1022  0.3379
 4917SOL     OW26209   0.696   3.362   5.131 -0.0907  0.1738  0.0082
 4917SOL    HW126210   0.752   3.343   5.057  0.3741 -0.8785  0.6275
 4917SOL    HW226211   0.754   3.379   5.205  0.1364  2.1885 -0.6427
 4918SOL     OW26212   1.948   3.942   5.280 -0.0609 -0.6724 -0.2243
 4918SOL    HW126213   1.859   3.979   5.282  0.2309 -0.0217  1.0545
 4918SOL    HW226214   1.955   3.949   5.376  0.8017  1.1192 -0.4050
 4919SOL     OW26215   3.985   1.282  16.109  0.0345  0.2501  0.1106
 4919SOL    HW126216   3.997   1.276  16.014  0.5553 -0.2496  0.2106
 4919SOL    HW226217   3.948   1.370  16.114  1.4096  0.9515 -2.0152
 4920SOL     OW26218   1.021   0.884   0.094 -0.4326  0.0498  0.1943
 4920SOL    HW126219   1.017   0.919   0.183  0.2203 -0.0002  0.2455
 4920SOL    HW226220   1.038   0.961   0.040  1.7007  0.3206  1.2459
 4921SOL     OW26221   2.886   0.052   5.366 -0.3483 -0.2341 -0.0009
 4921SOL    HW126222   2.934   0.130   5.393 -0.6725  0.3896 -1.2587
 4921SOL    HW226223   2.927   4.719   5.431  2.4934  0.3886 -1.2347
 4922SOL     OW26224   2.807   3.498   3.906 -0.4063 -0.0074  0.2462
 4922SOL    HW126225   2.714   3.478   3.913 -0.1649 -1.2025  0.0081
 4922SOL    HW226226   2.819   3.562   3.977 -0.0430 -1.6785  1.6857
 4923SOL     OW26227   4.365   0.066  14.095  0.5293 -0.6055 -0.2447
 4923SOL    HW126228   4.436   0.079  14.032 -0.0106  0.3274 -0.6750
 4923SOL    HW226229   4.290   0.102  14.047  0.6244  1.5933  1.2323
 4924SOL     OW26230   1.384   4.055   5.866  0.2002  0.1589  0.2449
 4924SOL    HW126231   1.343   4.037   5.950  0.1623 -0.7587  0.0298
 4924SOL    HW226232   1.366   4.150   5.867  2.4196  0.5685  0.9513
 4925SOL     OW26233   2.168   3.209   8.275  0.1733 -0.2635 -0.4520
 4925SOL    HW126234   2.174   3.297   8.236  0.5354  0.0487  0.2999
 4925SOL    HW226235   2.258   3.176   8.274  0.3421  0.2286 -1.3800
 4926SOL     OW26236   1.353   3.543   2.337 -0.0243 -0.0509  0.2816
 4926SOL    HW126237   1.355   3.459   2.290 -0.2222 -1.0023  1.9612
 4926SOL    HW226238   1.286   3.574   2.276  0.0797  0.1800  0.2843
 4927SOL     OW26239   1.216   1.266   6.942 -0.3856  0.5543  0.2214
 4927SOL    HW126240   1.121   1.272   6.953  0.0962  4.3461  2.4626
 4927SOL    HW226241   1.216   1.171   6.945  2.2708  0.6125  2.2018
 4928SOL     OW26242   4.725   0.998  16.995  0.1844 -0.5215  0.1802
 4928SOL    HW126243   0.037   0.928  16.942 -0.0012 -1.0886  0.8043
 4928SOL    HW226244   4.703   1.065  16.930  0.1759 -1.0931 -0.4035
 4929SOL     OW26245   2.647   2.117   5.176  0.3561 -0.1654  0.1624
 4929SOL    HW126246   2.646   2.045   5.239  1.8291  1.4350  2.0160
 4929SOL    HW226247   2.556   2.146   5.183  0.9220  1.5573  0.3064
 4930SOL     OW26248   4.389   3.495   5.159  0.2115 -0.4318  1.1559
 4930SOL    HW126249   4.381   3.498   5.064  0.4984 -0.4327  1.1321
 4930SOL    HW226250   4.423   3.407   5.173 -0.2953 -0.7549  0.3451
 4931SOL     OW26251   0.893   2.967   9.247 -0.1543  0.0851  0.3303
 4931SOL    HW126252   0.866   3.058   9.261  1.2917  0.4064  1.0423
 4931SOL    HW226253   0.863   2.924   9.327 -1.0576 -0.4570 -0.3013
 4932SOL     OW26254   3.116   4.203   3.760  0.5557  0.6311  0.3134
 4932SOL    HW126255   3.193   4.175   3.810 -0.0254 -3.9947 -1.4286
 4932SOL    HW226256   3.152   4.160   3.682  2.9949  1.2162  1.0918
 4933SOL     OW26257   3.417   3.827  13.489 -0.4243  0.0495  0.0412
 4933SOL    HW126258   3.490   3.862  13.438 -1.1404 -0.7897 -1.5517
 4933SOL    HW226259   3.440   3.880  13.566  0.9488  1.8176 -1.5800
 4934SOL     OW26260   4.113   2.603   3.013  0.0126  0.4625 -0.0588
 4934SOL    HW126261   4.124   2.539   2.943  1.2706  0.5698  0.0431
 4934SOL    HW226262   4.203   2.636   3.020  0.3411 -0.5413  0.5141
 4935SOL     OW26263   0.579   1.933   2.393  0.0241 -0.5186 -0.2794
 4935SOL    HW126264   0.519   2.006   2.382  3.0427  1.6835 -1.9600
 4935SOL    HW226265   0.628   1.926   2.311  0.0951 -1.2443 -0.1777
 4936SOL     OW26266   3.371   4.401   7.651 -0.0942 -0.7172 -0.1053
 4936SOL    HW126267   3.281   4.369   7.661 -0.1722 -0.3457  0.3968
 4936SOL    HW226268   3.377   4.433   7.561  2.0174  0.7402  0.5597
 4937SOL     OW26269   3.648   2.715   2.484 -0.4337 -0.1622 -0.0557
 4937SOL    HW126270   3.681   2.692   2.571 -1.5586  0.2640  0.4876
 4937SOL    HW226271   3.554   2.707   2.497 -0.9694  0.4782 -3.7157
 4938SOL     OW26272   2.369   4.611   8.749 -0.1332  0.1205  0.1545
 4938SOL    HW126273   2.296   4.673   8.748 -0.2107  0.0190 -0.7525
 4938SOL    HW226274   2.393   4.615   8.656 -0.1954  1.7895  0.2097
 4939SOL     OW26275   0.315   2.536   9.021 -0.2674 -0.6807 -0.5318
 4939SOL    HW126276   0.346   2.563   8.934 -1.7048  2.4647 -0.0904
 4939SOL    HW226277   0.332   2.443   9.033  0.3694 -0.8423 -2.6059
 4940SOL     OW26278   2.187   2.057   6.829 -0.5191 -0.3402  0.0781
 4940SOL    HW126279   2.232   2.025   6.907  0.5795  2.2296  0.4881
 4940SOL    HW226280   2.165   2.146   6.857  0.4455 -0.0881  0.0357
 4941SOL     OW26281   0.523   3.037  10.719 -0.0386  0.3500  0.0854
 4941SOL    HW126282   0.509   3.012  10.627  0.7604 -0.2954  0.1424
 4941SOL    HW226283   0.500   2.959  10.768 -0.4017 -0.7910 -1.9201
 4942SOL     OW26284   4.232   2.985   3.116  0.0531 -0.0605  0.1935
 4942SOL    HW126285   4.159   2.982   3.178 -1.0486  0.0711 -1.1167
 4942SOL    HW226286   4.200   2.930   3.045 -0.6337  0.6089 -0.0212
 4943SOL     OW26287   1.731   3.800   8.040  0.3055 -0.3724 -0.7005
 4943SOL    HW126288   1.685   3.877   8.073 -0.6747 -0.1746 -2.5631
 4943SOL    HW226289   1.654   3.751   8.011 -1.3189  1.0562  1.2308
 4944SOL     OW26290   1.219   3.838  10.168  0.2102  0.1503  0.1667
 4944SOL    HW126291   1.130   3.814  10.142 -0.0188 -1.3729  2.3631
 4944SOL    HW226292   1.261   3.752  10.157 -1.2445 -0.3937 -1.1777
 4945SOL     OW26293   2.495   4.020   3.100 -0.5951 -1.1887 -0.1558
 4945SOL    HW126294   2.454   4.093   3.055  0.6979  0.4855  1.3423
 4945SOL    HW226295   2.419   3.971   3.131 -1.0122 -0.4629 -0.0578
 4946SOL     OW26296   2.530   4.451  12.470 -0.6871 -0.2011  0.6445
 4946SOL    HW126297   2.624   4.436  12.455 -0.8096 -1.8940  1.5411
 4946SOL    HW226298   2.497   4.365  12.444 -0.4060  0.7254 -2.8438
 4947SOL     OW26299   4.498   1.557   3.069 -0.3305 -0.1692  0.6299
 4947SOL    HW126300   4.536   1.550   2.982 -0.8456 -0.3460  0.4191
 4947SOL    HW226301   4.566   1.602   3.120  1.3960 -1.3585 -0.6409
 4948SOL     OW26302   0.093   0.374   8.526  0.2542 -0.4231 -0.1089
 4948SOL    HW126303   0.168   0.369   8.585  0.6612 -0.5189 -0.6398
 4948SOL    HW226304   0.018   0.351   8.581  0.4578  4.1764  2.1455
 4949SOL     OW26305   4.630   3.360  13.021  0.2072  0.1423 -0.0296
 4949SOL    HW126306   4.547   3.325  12.988  0.1189  1.5332 -1.2903
 4949SOL    HW226307   4.648   3.277  13.066  1.1865  0.0958 -0.4995
 4950SOL     OW26308   0.015   0.866   6.085 -0.0496 -0.3876 -0.9630
 4950SOL    HW126309   0.105   0.883   6.110 -0.6989  0.9394  0.4785
 4950SOL    HW226310   0.021   0.786   6.032 -0.7560 -1.3097  0.3444
 4951SOL     OW26311   4.504   0.459  11.201 -0.0213 -0.0560  0.0235
 4951SOL    HW126312   4.458   0.542  11.188 -0.6968 -0.8362 -2.5251
 4951SOL    HW226313   4.466   0.441  11.287 -0.3797 -3.2943 -0.8163
 4952SOL     OW26314   1.553   3.727   8.764  0.3862  0.1729  0.2454
 4952SOL    HW126315   1.464   3.704   8.790  0.4168 -0.8892 -0.5869
 4952SOL    HW226316   1.606   3.738   8.842 -0.4569  2.9773  0.4114
 4953SOL     OW26317   4.187   1.720   0.244  0.2273 -0.1494  0.2653
 4953SOL    HW126318   4.243   1.751   0.315  2.3068 -0.0829 -1.3875
 4953SOL    HW226319   4.109   1.708   0.298 -0.1694  4.8478  0.8817
 4954SOL     OW26320   3.131   3.386  15.578  0.2338  0.4788  0.0358
 4954SOL    HW126321   3.079   3.438  15.639  1.1368 -0.3269  1.5275
 4954SOL    HW226322   3.165   3.458  15.525  2.9204 -0.7700  0.0291
 4955SOL     OW26323   3.743   0.001  11.552 -0.0092 -0.5052 -0.3618
 4955SOL    HW126324   3.808   4.670  11.509  0.7717  0.1794 -0.0467
 4955SOL    HW226325   3.705   4.661  11.613 -1.9367 -1.7507 -2.8873
 4956SOL     OW26326   2.530   1.434   8.371  0.4059  0.0974 -0.1448
 4956SOL    HW126327   2.549   1.503   8.308 -1.4705 -0.9605 -1.8562
 4956SOL    HW226328   2.538   1.357   8.316  0.3086 -1.6739  2.3072
 4957SOL     OW26329   0.915   1.313   3.998 -0.1451 -0.4277  0.4496
 4957SOL    HW126330   0.842   1.347   4.049  0.3098  1.1409  0.0596
 4957SOL    HW226331   0.868   1.253   3.940 -2.2114  1.0048  0.6481
 4958SOL     OW26332   4.549   1.268   3.183  0.0373  0.0093  0.5707
 4958SOL    HW126333   4.550   1.360   3.158  0.0118  0.0196  0.6083
 4958SOL    HW226334   4.596   1.277   3.265  1.8058 -1.7528 -0.2509
 4959SOL     OW26335   2.223   3.453   3.461  0.7009 -0.3102  0.5059
 4959SOL    HW126336   2.216   3.506   3.381  1.2094 -0.5328  0.3125
 4959SOL    HW226337   2.180   3.505   3.529  1.9986  0.3595  0.8244
 4960SOL     OW26338   3.720   3.612  12.820 -0.3950 -0.1050  0.0544
 4960SOL    HW126339   3.766   3.635  12.739  0.1120 -1.9570 -0.1827
 4960SOL    HW226340   3.795   3.630  12.877 -1.2047  0.9518  0.8016
 4961SOL     OW26341   0.164   1.676   8.015  0.7343 -0.3821 -0.2253
 4961SOL    HW126342   0.105   1.633   8.078  2.6057 -1.2861  0.9328
 4961SOL    HW226343   0.117   1.759   8.012 -0.1201 -0.8252  0.8860
 4962SOL     OW26344   4.256   2.691   0.153  0.3500  0.5286  0.4172
 4962SOL    HW126345   4.179   2.661   0.104 -0.4310  2.0893  0.6895
 4962SOL    HW226346   4.304   2.609   0.168  1.0349  0.9135  0.3491
 4963SOL     OW26347   3.387   3.274   2.702  1.0046  0.1977  0.4591
 4963SOL    HW126348   3.443   3.198   2.683  0.4971 -0.6328  2.3220
 4963SOL    HW226349   3.458   3.325   2.740 -0.5788  0.7858  2.5856
 4964SOL     OW26350   3.705   3.821   5.648 -0.0314 -0.3673 -0.0361
 4964SOL    HW126351   3.652   3.845   5.572 -0.7098  2.8187  1.4284
 4964SOL    HW226352   3.630   3.794   5.701 -0.6354 -1.3713 -1.4224
 4965SOL     OW26353   0.571   4.337   3.732 -0.1142 -0.3914  0.0805
 4965SOL    HW126354   0.486   4.345   3.688  0.1481 -0.2620 -0.4081
 4965SOL    HW226355   0.600   4.254   3.696 -0.4263  0.0964 -1.2979
 4966SOL     OW26356   4.683   2.104  14.774  0.1783  0.0662  0.5608
 4966SOL    HW126357   4.666   2.049  14.698 -1.6023  1.1806  0.1525
 4966SOL    HW226358   0.003   2.178  14.733 -1.4827  1.0077  0.4939
 4967SOL     OW26359   2.980   4.278  10.291 -0.1336  0.7109 -0.0964
 4967SOL    HW126360   2.926   4.275  10.369  2.0648  0.1181  1.4234
 4967SOL    HW226361   2.989   4.368  10.260  1.5244  0.8915  0.8757
 4968SOL     OW26362   3.182   4.059   3.535 -0.2062  0.3844  0.7336
 4968SOL    HW126363   3.090   4.048   3.509 -0.1087 -0.6010  0.8146
 4968SOL    HW226364   3.225   4.051   3.450  0.0484  1.0310  0.7984
 4969SOL     OW26365   2.380   4.297   3.488 -0.3941  0.0489  0.3083
 4969SOL    HW126366   2.291   4.264   3.476 -0.9528  1.3918  0.6735
 4969SOL    HW226367   2.409   4.261   3.571 -0.3631 -0.0551  0.2519
 4970SOL     OW26368   3.723   1.487   2.905  0.3760 -0.2806  0.1225
 4970SOL    HW126369   3.667   1.465   2.830  0.5842  0.1778 -0.1636
 4970SOL    HW226370   3.763   1.570   2.881 -0.8310  1.2157  3.2938
 4971SOL     OW26371   2.081   1.160   6.867 -0.1392 -0.1302  0.1732
 4971SOL    HW126372   1.994   1.188   6.838 -0.4942 -1.9556 -0.5284
 4971SOL    HW226373   2.084   1.074   6.825  0.1448  0.3583 -0.8155
 4972SOL     OW26374   1.440   1.518   5.595 -0.3224  0.0936 -0.3414
 4972SOL    HW126375   1.474   1.608   5.591  0.9022 -0.3327  0.6445
 4972SOL    HW226376   1.411   1.504   5.685  1.5538  0.0555  0.2582
 4973SOL     OW26377   0.384   2.782   3.619 -0.0937 -0.6163  0.7761
 4973SOL    HW126378   0.466   2.765   3.572  0.7010  0.2737  1.8398
 4973SOL    HW226379   0.329   2.777   3.541 -0.0663  1.3154  0.6480
 4974SOL     OW26380   4.457   2.992   5.192 -0.8539  0.1979 -0.2154
 4974SOL    HW126381   4.494   2.968   5.107  1.4506  0.5305  0.6848
 4974SOL    HW226382   4.502   2.940   5.258 -2.0002  1.0556  1.2307
 4975SOL     OW26383   1.483   2.092   4.119  0.2193 -0.2244  0.5926
 4975SOL    HW126384   1.399   2.095   4.073  0.8462 -0.0603 -0.5336
 4975SOL    HW226385   1.538   2.069   4.045  1.3643 -0.9626  1.6681
 4976SOL     OW26386   0.515   3.123   3.224 -0.5014 -0.0675  0.1756
 4976SOL    HW126387   0.424   3.095   3.212 -1.0918  1.4189  1.1607
 4976SOL    HW226388   0.568   3.056   3.180 -1.4039  0.6297 -1.9604
 4977SOL     OW26389   3.190   1.989   3.881 -0.1296 -0.0083 -0.3984
 4977SOL    HW126390   3.130   2.051   3.839  1.1881  1.2064 -0.5108
 4977SOL    HW226391   3.174   2.008   3.973 -0.5228 -1.0923 -0.2421
 4978SOL     OW26392   4.714   2.821   6.687  0.5189  0.3442 -0.0960
 4978SOL    HW126393   4.671   2.871   6.757 -1.9966  0.6988 -1.9072
 4978SOL    HW226394   4.640   2.793   6.633  0.9724 -0.8498 -0.0999
 4979SOL     OW26395   2.951   1.566   6.673 -0.5826 -0.5479  0.2978
 4979SOL    HW126396   2.901   1.520   6.741  0.4414 -1.1915  0.6108
 4979SOL    HW226397   2.991   1.488   6.634  1.4091  0.8333 -0.3846
 4980SOL     OW26398   1.113   2.563   6.292 -0.0218  0.0186 -0.0017
 4980SOL    HW126399   1.152   2.515   6.219  2.8947  3.0186 -0.3958
 4980SOL    HW226400   1.170   2.542   6.367 -3.4194  1.8410  3.0976
 4981SOL     OW26401   1.262   1.945   7.025 -0.0324  0.1968 -0.1065
 4981SOL    HW126402   1.199   2.000   6.979 -0.7259  0.3040  0.9713
 4981SOL    HW226403   1.257   1.856   6.988  3.8714  0.3668 -0.9808
 4982SOL     OW26404   2.722   1.233   0.262  0.2277  0.0992 -0.5333
 4982SOL    HW126405   2.649   1.295   0.267 -0.8981 -1.3169  0.5767
 4982SOL    HW226406   2.796   1.289   0.240  0.4198 -0.5081 -1.4241
 4983SOL     OW26407   0.631   1.566  11.130 -0.3563  0.0167 -0.2643
 4983SOL    HW126408   0.704   1.597  11.183  1.1413 -0.1454 -2.1976
 4983SOL    HW226409   0.677   1.488  11.098 -2.4180 -0.8184 -1.2107
 4984SOL     OW26410   1.432   0.388  16.889  0.2627  0.1326  0.8124
 4984SOL    HW126411   1.510   0.337  16.869  0.2980  0.9358 -1.0385
 4984SOL    HW226412   1.440   0.421  16.979  1.1942  0.9686  0.4185
 4985SOL     OW26413   0.225   3.736   8.294  0.2975  0.6993  0.5683
 4985SOL    HW126414   0.200   3.821   8.256  2.5602  1.0523 -0.0987
 4985SOL    HW226415   0.182   3.751   8.378  0.0768  3.1064  0.0353
 4986SOL     OW26416   2.532   1.745   3.309  0.4879  0.4988 -0.4880
 4986SOL    HW126417   2.548   1.697   3.228  3.7569 -2.7345  2.0756
 4986SOL    HW226418   2.437   1.748   3.303  0.4052 -4.4903 -1.4113
 4987SOL     OW26419   3.899   0.375   4.234  0.6501 -0.2711  0.4665
 4987SOL    HW126420   3.917   0.438   4.303 -0.8586  0.3626  0.2886
 4987SOL    HW226421   3.811   0.348   4.263  1.5555 -1.1698  2.3635
 4988SOL     OW26422   2.486   1.002  12.611 -0.3632 -0.3841 -0.1470
 4988SOL    HW126423   2.570   1.004  12.565 -0.6491  0.1623 -0.6570
 4988SOL    HW226424   2.422   0.995  12.540  0.7326 -0.5121 -1.1229
 4989SOL     OW26425   1.492   2.459   8.054 -0.3482 -0.4036 -0.5433
 4989SOL    HW126426   1.440   2.441   7.976 -2.8674 -0.4223  1.1302
 4989SOL    HW226427   1.568   2.498   8.011  1.5632 -1.1658  2.1352
 4990SOL     OW26428   4.674   0.645   6.625  0.1943 -0.1066  0.3158
 4990SOL    HW126429   4.715   0.558   6.624 -2.8463 -1.5493 -0.1563
 4990SOL    HW226430   4.612   0.627   6.696 -0.0331  0.9192  0.3687
 4991SOL     OW26431   2.557   2.061   5.918  0.3889 -0.1176 -0.2275
 4991SOL    HW126432   2.548   2.070   5.823 -1.3238 -1.2811 -0.1667
 4991SOL    HW226433   2.463   2.071   5.936  0.0687 -1.4014 -1.1818
 4992SOL     OW26434   3.958   1.803   3.979  0.5210  0.0732  0.2663
 4992SOL    HW126435   3.889   1.762   4.031  0.6292  1.2845  1.3785
 4992SOL    HW226436   3.916   1.795   3.893 -1.2027 -1.3707  1.2368
 4993SOL     OW26437   0.165   4.040  17.145  0.4693 -0.1165  0.3434
 4993SOL    HW126438   0.112   3.979  17.197  1.0737 -4.0717 -3.6839
 4993SOL    HW226439   0.099   4.105  17.123  0.9233  0.4742  0.7270
 4994SOL     OW26440   0.917   0.428  11.172  0.0916 -0.0082 -0.5301
 4994SOL    HW126441   0.903   0.421  11.266 -0.1093 -1.1404 -0.6443
 4994SOL    HW226442   0.834   0.473  11.154  0.9624  2.0575  0.5710
 4995SOL     OW26443   0.548   0.390   3.803 -0.7238 -0.9279 -0.7499
 4995SOL    HW126444   0.532   0.460   3.740 -0.5504  0.5721  0.8946
 4995SOL    HW226445   0.461   0.353   3.784 -0.1306 -2.4580 -0.5019
 4996SOL     OW26446   0.824   0.677   3.706  0.0650  0.0182 -0.1952
 4996SOL    HW126447   0.867   0.745   3.653  0.7578 -0.2302  0.0542
 4996SOL    HW226448   0.838   0.599   3.653 -2.7982  0.1216 -1.1101
 4997SOL     OW26449   1.767   1.454   3.624  0.2374  0.6066 -0.1302
 4997SOL    HW126450   1.811   1.395   3.685 -0.4570  2.2157  1.9609
 4997SOL    HW226451   1.786   1.539   3.664  0.4316 -0.0556  1.1908
 4998SOL     OW26452   2.646   3.292   1.286 -0.1762  0.0245  0.0128
 4998SOL    HW126453   2.680   3.210   1.321 -2.4069 -0.8498  0.1442
 4998SOL    HW226454   2.667   3.357   1.354 -0.4047 -1.1910  1.2311
 4999SOL     OW26455   3.943   3.696  13.013  0.2105  0.0143 -0.3701
 4999SOL    HW126456   3.870   3.744  13.053  0.6159 -0.6434  1.1478
 4999SOL    HW226457   4.019   3.734  13.057 -1.5496  2.8546  0.2138
 5000SOL     OW26458   3.064   3.109   2.382  0.3893 -0.4453 -0.1229
 5000SOL    HW126459   3.029   3.094   2.469  1.8539 -1.2209  0.3378
 5000SOL    HW226460   3.130   3.176   2.402  0.4352 -0.8043  0.9146
 5001SOL     OW26461   0.274   1.449   9.023 -0.0209  0.7902 -0.2047
 5001SOL    HW126462   0.222   1.396   9.083 -1.1351  1.2550 -0.7659
 5001SOL    HW226463   0.204   1.508   8.995  0.6198 -0.7083 -4.9132
 5002SOL     OW26464   1.813   1.943   8.799 -0.6084  0.0213 -0.0500
 5002SOL    HW126465   1.901   1.980   8.808  0.0981 -1.8505  0.7486
 5002SOL    HW226466   1.791   1.936   8.892  0.2489 -1.6110  0.0270
 5003SOL     OW26467   4.629   2.259   8.221  0.2928 -0.3787  0.5613
 5003SOL    HW126468   4.623   2.327   8.289  1.0116 -1.5340  1.7720
 5003SOL    HW226469   4.667   2.183   8.264  2.6114  0.3985 -0.1531
 5004SOL     OW26470   0.512   2.819   7.979 -0.3120  0.0461 -0.3990
 5004SOL    HW126471   0.506   2.892   7.918 -0.8142 -0.2262 -0.6754
 5004SOL    HW226472   0.595   2.780   7.952  0.8609  0.8485  1.9867
 5005SOL     OW26473   2.695   3.940   4.148 -0.5050  0.4557 -0.3483
 5005SOL    HW126474   2.738   3.978   4.224  1.6272 -1.1324 -0.7495
 5005SOL    HW226475   2.603   3.944   4.173 -0.5322 -1.6162 -0.1050
 5006SOL     OW26476   3.673   2.203   6.911 -1.2573  0.0757 -0.4794
 5006SOL    HW126477   3.718   2.141   6.852 -1.5707  0.7247 -1.4053
 5006SOL    HW226478   3.585   2.213   6.875 -1.3959  0.5467 -0.0017
 5007SOL     OW26479   0.603   4.629   5.157 -0.2107 -0.5242 -0.3995
 5007SOL    HW126480   0.672   4.691   5.177 -2.0122  1.0633  0.8651
 5007SOL    HW226481   0.613   4.605   5.065 -0.8402  2.7593 -1.3079
 5008SOL     OW26482   2.524   3.015   3.874 -0.5298  0.4742 -0.6351
 5008SOL    HW126483   2.546   2.926   3.903 -1.2533 -0.2520 -2.2526
 5008SOL    HW226484   2.551   3.063   3.951 -0.5146 -1.1361  0.3751
 5009SOL     OW26485   1.745   4.399   3.820 -0.1225 -0.0594  0.3516
 5009SOL    HW126486   1.705   4.375   3.736 -1.3082 -0.7837  1.1237
 5009SOL    HW226487   1.782   4.315   3.847  2.6213  1.2903  0.7112
 5010SOL     OW26488   0.881   3.876   5.968 -0.7412  0.2854 -0.3695
 5010SOL    HW126489   0.789   3.887   5.941 -0.4754 -2.4198 -2.4481
 5010SOL    HW226490   0.910   3.967   5.964  1.0199 -0.2684 -0.1950
 5011SOL     OW26491   0.673   2.642   9.112 -0.6356 -0.0312  0.1932
 5011SOL    HW126492   0.679   2.708   9.181  3.9379 -1.9787  1.5847
 5011SOL    HW226493   0.758   2.622   9.073 -0.5592 -0.0160  0.3558
 5012SOL     OW26494   0.282   0.080  10.749  0.3169 -0.1583  0.0454
 5012SOL    HW126495   0.358   0.085  10.692  0.5575 -1.4410  0.2377
 5012SOL    HW226496   0.306   0.132  10.825 -1.7801 -0.9976  1.3041
 5013SOL     OW26497   2.360   0.266  14.153 -0.0131  0.1892  0.1137
 5013SOL    HW126498   2.441   0.254  14.104 -1.1091  0.4196 -1.7435
 5013SOL    HW226499   2.291   0.248  14.089 -0.1922 -2.1533  0.9700
 5014SOL     OW26500   4.085   1.315  17.538 -0.0581 -0.1455 -0.2616
 5014SOL    HW126501   4.028   1.371  17.592  0.1426 -0.5594  0.3781
 5014SOL    HW226502   4.077   1.238  17.594 -0.0145  0.1354  0.1350
 5015SOL     OW26503   3.316   1.929   6.628 -0.0541  0.4065 -0.4403
 5015SOL    HW126504   3.326   2.017   6.591  0.1312  0.5454 -0.0635
 5015SOL    HW226505   3.373   1.880   6.570  0.9571  0.6520  0.3460
 5016SOL     OW26506   2.492   2.359   2.623  0.3728  0.0020  0.0162
 5016SOL    HW126507   2.573   2.309   2.623  0.6676  0.5006  2.1868
 5016SOL    HW226508   2.479   2.367   2.717 -0.5851  2.5129 -0.3183
 5017SOL     OW26509   0.767   4.042   7.667 -0.5390 -0.6465  0.3948
 5017SOL    HW126510   0.747   4.136   7.674  0.7663 -0.2730 -0.8237
 5017SOL    HW226511   0.778   4.027   7.573  2.5588  1.0602  0.4857
 5018SOL     OW26512   0.968   3.150  17.243 -0.4789  0.1057 -0.3541
 5018SOL    HW126513   0.933   3.230  17.282  0.0565  0.1922 -0.0522
 5018SOL    HW226514   1.046   3.194  17.208  0.3190  0.4431  1.8294
 5019SOL     OW26515   2.245   3.038   5.336  0.4484  0.4750  0.4253
 5019SOL    HW126516   2.202   3.124   5.334 -2.2108 -0.8601  0.7224
 5019SOL    HW226517   2.310   3.058   5.403  1.8154 -1.0779 -0.4474
 5020SOL     OW26518   2.757   3.880   6.821  0.2464  0.1748 -0.0137
 5020SOL    HW126519   2.742   3.932   6.742 -0.1298 -0.4882 -0.3861
 5020SOL    HW226520   2.850   3.864   6.805 -0.0799 -2.4357  0.6707
 5021SOL     OW26521   1.133   0.078   8.532 -0.3016  0.1484  0.4375
 5021SOL    HW126522   1.057   0.069   8.589  0.0821 -1.1046  0.7494
 5021SOL    HW226523   1.102   0.143   8.470  1.7059 -0.0090 -0.7290
 5022SOL     OW26524   3.090   3.420   6.555 -0.0606  0.2420  0.6534
 5022SOL    HW126525   3.183   3.426   6.531 -0.0045 -0.5939  0.6625
 5022SOL    HW226526   3.045   3.477   6.493 -0.2106 -0.3014  0.2654
 5023SOL     OW26527   4.656   1.371   9.238 -0.2752  0.2177  0.0819
 5023SOL    HW126528   4.604   1.367   9.158  1.5171 -0.4258 -1.0406
 5023SOL    HW226529   4.624   1.456   9.270  2.3370  1.6630 -1.1299
 5024SOL     OW26530   0.035   2.098  14.312  0.3132 -0.1440  0.1279
 5024SOL    HW126531   0.045   2.006  14.333  0.9935 -0.1467 -0.2118
 5024SOL    HW226532   0.109   2.139  14.357  0.9297 -1.4704  0.3128
 5025SOL     OW26533   3.014   4.205   9.659 -0.2451 -0.3455 -0.0240
 5025SOL    HW126534   3.019   4.296   9.689  1.2977 -0.2815 -0.4622
 5025SOL    HW226535   2.924   4.202   9.627  0.2000 -0.1280 -1.2905
 5026SOL     OW26536   3.287   1.633   2.497 -0.5883  0.2594  0.3427
 5026SOL    HW126537   3.208   1.681   2.523 -1.9272 -0.8235 -1.7064
 5026SOL    HW226538   3.293   1.555   2.552  1.4668 -0.2141 -0.5610
 5027SOL     OW26539   2.485   1.325  13.120 -0.0215  0.1226  0.0974
 5027SOL    HW126540   2.414   1.326  13.184  0.3013  0.4359  0.4538
 5027SOL    HW226541   2.526   1.240  13.139 -0.8361 -0.4080 -0.5174
 5028SOL     OW26542   3.390   2.200  17.601 -0.0481 -0.4328 -0.5014
 5028SOL    HW126543   3.410   2.152  17.682  1.4667  0.2928 -0.4646
 5028SOL    HW226544   3.481   2.204  17.573  0.0194  3.8930  0.3382
 5029SOL     OW26545   1.464   2.846   1.338  0.6273 -0.1150  0.2244
 5029SOL    HW126546   1.449   2.752   1.325 -0.1059  0.2361 -1.5303
 5029SOL    HW226547   1.378   2.887   1.325  0.2108 -1.0052  0.1089
 5030SOL     OW26548   1.828   4.413   1.319  0.4197  0.0637 -0.3068
 5030SOL    HW126549   1.773   4.459   1.383 -1.3183  0.0905 -1.8327
 5030SOL    HW226550   1.775   4.333   1.313 -0.8039  0.7175  1.5548
 5031SOL     OW26551   4.120   4.405   9.605 -0.0612 -0.3734 -0.2020
 5031SOL    HW126552   4.078   4.446   9.681 -0.8165 -0.8626 -0.3563
 5031SOL    HW226553   4.208   4.442   9.614 -1.1167  1.3262  3.2389
 5032SOL     OW26554   1.821   3.458   6.703  0.3963 -0.6010 -0.4123
 5032SOL    HW126555   1.853   3.390   6.763 -0.7346 -1.7122 -1.0773
 5032SOL    HW226556   1.739   3.416   6.676  0.7594 -0.2103 -2.0908
 5033SOL     OW26557   2.776   0.853   8.178 -0.4052 -0.0064 -0.0773
 5033SOL    HW126558   2.702   0.914   8.182  0.7697  1.5187 -1.5416
 5033SOL    HW226559   2.771   0.843   8.082 -2.6244 -2.6258  0.2956
 5034SOL     OW26560   1.682   3.372   5.645 -0.4700  0.3633  0.0034
 5034SOL    HW126561   1.692   3.463   5.673  0.6836  1.6559 -4.7355
 5034SOL    HW226562   1.589   3.367   5.667 -0.2522 -1.7555  0.4756
 5035SOL     OW26563   2.272   3.782   7.548 -0.1794  0.3982  0.0060
 5035SOL    HW126564   2.269   3.876   7.529  4.1395  0.6640  0.6666
 5035SOL    HW226565   2.246   3.745   7.463  0.6286  1.0543 -0.5213
 5036SOL     OW26566   0.126   4.460   8.830 -0.6732 -0.5682  0.3771
 5036SOL    HW126567   0.186   4.420   8.892 -0.7635  0.2537  0.9964
 5036SOL    HW226568   0.116   4.542   8.879  1.3806 -0.3492  0.4048
 5037SOL     OW26569   1.728   0.930   7.431 -0.0648 -0.1118  0.3875
 5037SOL    HW126570   1.740   1.004   7.373  1.0168  0.4706  1.3528
 5037SOL    HW226571   1.819   0.908   7.454  0.0076  1.2330  1.4067
 5038SOL     OW26572   0.512   1.780   7.253  0.4278  0.6871  0.0479
 5038SOL    HW126573   0.578   1.741   7.309 -0.0052 -0.3596 -0.1705
 5038SOL    HW226574   0.426   1.763   7.292  0.9521 -0.6082  0.6287
 5039SOL     OW26575   0.461   4.571   2.437  0.0821  0.1554  0.2957
 5039SOL    HW126576   0.517   4.493   2.439 -3.1450 -2.2079 -1.3150
 5039SOL    HW226577   0.479   4.609   2.523  0.7736 -1.8686  1.0540
 5040SOL     OW26578   0.885   3.812   4.012 -0.7394  0.3882 -0.1071
 5040SOL    HW126579   0.930   3.771   4.086  0.9568  0.5847 -1.0432
 5040SOL    HW226580   0.791   3.800   4.029 -0.3514 -0.9847  1.1284
 5041SOL     OW26581   4.480   3.839   9.262 -0.4902  0.2659  0.5212
 5041SOL    HW126582   4.400   3.861   9.310 -0.5437 -0.8962  0.9752
 5041SOL    HW226583   4.451   3.855   9.173 -1.9805  0.3130  1.0169
 5042SOL     OW26584   2.449   0.428   8.969  0.6666 -0.5548 -0.3924
 5042SOL    HW126585   2.418   0.484   9.039  3.2511 -0.2421  0.4870
 5042SOL    HW226586   2.434   0.338   8.999 -0.5927 -0.3669 -0.4540
 5043SOL     OW26587   0.815   4.343   8.582  0.4754  0.1128 -0.0624
 5043SOL    HW126588   0.853   4.419   8.627 -2.0583 -0.0062  2.2417
 5043SOL    HW226589   0.894   4.307   8.542  0.5601 -0.3334  0.5063
 5044SOL     OW26590   0.462   1.750   6.314 -0.1306 -0.0591  0.2391
 5044SOL    HW126591   0.458   1.659   6.285  0.1332  0.2557 -0.8121
 5044SOL    HW226592   0.375   1.760   6.353 -0.8933 -1.2343 -1.1830
 5045SOL     OW26593   0.590   0.008   1.033  0.0097 -0.1187 -0.4781
 5045SOL    HW126594   0.604   0.095   0.997 -1.1967  0.3053  0.0656
 5045SOL    HW226595   0.526   4.689   0.977  0.4064 -0.6544 -0.5090
 5046SOL     OW26596   1.281   2.965   4.991  0.1260 -0.5324  0.9377
 5046SOL    HW126597   1.355   2.942   4.933  0.9150  0.9396  1.3641
 5046SOL    HW226598   1.209   2.932   4.937  2.1486 -0.0670 -2.0395
 5047SOL     OW26599   0.744   0.491   8.582 -0.6142  0.5818  0.0322
 5047SOL    HW126600   0.768   0.399   8.596  0.5494  0.9493  0.4651
 5047SOL    HW226601   0.778   0.538   8.658 -1.6343  0.8353  0.3271
 5048SOL     OW26602   4.174   3.320  10.738 -0.2669  0.0367 -0.5797
 5048SOL    HW126603   4.235   3.287  10.672 -0.1527 -0.2782 -0.3129
 5048SOL    HW226604   4.232   3.368  10.797  0.4807 -3.2472  1.3391
 5049SOL     OW26605   3.858   0.302   3.748  0.1691 -0.1160 -0.4796
 5049SOL    HW126606   3.879   0.290   3.841  0.2155  1.6282 -0.2634
 5049SOL    HW226607   3.931   0.267   3.697 -0.6312 -0.0866 -1.6318
 5050SOL     OW26608   4.249   3.168   2.702 -0.2525  0.3633 -0.4192
 5050SOL    HW126609   4.310   3.109   2.659  1.0080  1.7858 -0.5602
 5050SOL    HW226610   4.201   3.208   2.630 -0.5656  0.5275 -0.1210
 5051SOL     OW26611   1.256   0.023   6.442  0.5480 -0.0208  0.1560
 5051SOL    HW126612   1.193   4.676   6.446 -0.1365  0.6379  1.2912
 5051SOL    HW226613   1.306   4.723   6.364  1.1129 -0.1742  0.5659
 5052SOL     OW26614   3.106   3.699  15.270  0.1676  0.1092  0.1897
 5052SOL    HW126615   3.087   3.764  15.202 -2.1969 -0.5015  0.3030
 5052SOL    HW226616   3.074   3.752  15.343  1.9814  0.7897  0.4957
 5053SOL     OW26617   0.308   3.828   4.929 -0.2570 -0.7840 -0.0950
 5053SOL    HW126618   0.263   3.781   4.859 -3.0355  0.0385  1.1419
 5053SOL    HW226619   0.364   3.768   4.978  1.0180 -2.0486 -3.1185
 5054SOL     OW26620   3.336   1.611   3.906 -0.0509  0.1683 -0.1381
 5054SOL    HW126621   3.240   1.612   3.905 -0.0458  0.5854 -0.0924
 5054SOL    HW226622   3.353   1.689   3.852 -0.9147 -1.8351 -3.3250
 5055SOL     OW26623   3.996   3.547   8.944  0.4637 -0.6464  0.2588
 5055SOL    HW126624   4.004   3.452   8.951 -0.9257 -0.7830  0.0345
 5055SOL    HW226625   3.909   3.555   8.906  0.5406 -1.9052 -0.2011
 5056SOL     OW26626   0.354   0.133   6.678  0.5599  0.1847 -0.6305
 5056SOL    HW126627   0.354   0.229   6.680  1.1112  0.2178 -1.7108
 5056SOL    HW226628   0.371   0.113   6.586  2.7545  0.7151 -0.3409
 5057SOL     OW26629   1.084   2.899   3.447  0.6500  0.3507  0.3284
 5057SOL    HW126630   1.159   2.864   3.400  0.3695  0.2390 -0.0372
 5057SOL    HW226631   1.064   2.981   3.402  1.1553  0.6320  0.6215
 5058SOL     OW26632   4.008   1.819   7.763 -0.2860 -0.0084 -0.1962
 5058SOL    HW126633   4.006   1.781   7.676  0.1093  1.2067 -0.7449
 5058SOL    HW226634   3.930   1.872   7.776  0.8712  1.3799  1.1854
 5059SOL     OW26635   1.512   3.126   2.774  0.2467 -0.6931 -0.0890
 5059SOL    HW126636   1.444   3.189   2.752 -0.3050 -0.7051  1.6420
 5059SOL    HW226637   1.466   3.079   2.843 -1.3285 -2.5584 -2.4010
 5060SOL     OW26638   2.502   0.144   5.302  0.3152 -0.1189  0.4386
 5060SOL    HW126639   2.424   0.166   5.354  0.3376 -0.4386  0.6030
 5060SOL    HW226640   2.477   0.190   5.222 -0.8877 -0.8760  0.3778
 5061SOL     OW26641   0.779   1.172   7.252 -0.1721  0.5104  0.3777
 5061SOL    HW126642   0.742   1.122   7.325 -0.3279 -0.2260 -0.2070
 5061SOL    HW226643   0.711   1.148   7.190 -0.1361 -0.8742  0.8800
 5062SOL     OW26644   0.991   2.649  16.293 -0.3487  0.1729 -0.3109
 5062SOL    HW126645   0.990   2.741  16.318 -0.1168  0.2189 -0.4708
 5062SOL    HW226646   0.989   2.607  16.379 -1.2716  0.4225 -0.2110
 5063SOL     OW26647   0.353   4.196  15.885  0.6657  0.3432  0.6737
 5063SOL    HW126648   0.438   4.223  15.918  1.0120 -3.2318  2.6818
 5063SOL    HW226649   0.349   4.104  15.910  0.8075  0.1380 -0.0492
 5064SOL     OW26650   0.525   0.431  11.431 -0.4175 -0.6038  0.2227
 5064SOL    HW126651   0.451   0.480  11.466 -0.6062 -2.3709  2.3404
 5064SOL    HW226652   0.482   0.382  11.361 -0.1172  1.7852 -1.5909
 5065SOL     OW26653   2.565   3.755   3.349  0.2724  0.2382 -0.4516
 5065SOL    HW126654   2.540   3.668   3.319  0.9211 -0.5012  1.1311
 5065SOL    HW226655   2.640   3.730   3.404 -0.3039 -3.3820 -1.2793
 5066SOL     OW26656   4.669   0.959   7.817 -0.1512  0.1616  0.0126
 5066SOL    HW126657   0.003   1.021   7.774 -0.7624  1.6573  1.3793
 5066SOL    HW226658   4.681   0.977   7.910  0.0396  0.4393 -0.0665
 5067SOL     OW26659   0.430   2.302   1.889 -0.6595  0.1188  0.4531
 5067SOL    HW126660   0.409   2.252   1.811  2.3329  1.1759 -1.0409
 5067SOL    HW226661   0.523   2.283   1.899 -0.7126  0.3184  1.3467
 5068SOL     OW26662   1.795   0.500   5.651  0.2364  0.3979 -0.4521
 5068SOL    HW126663   1.750   0.433   5.702  2.2732 -1.0156 -0.4992
 5068SOL    HW226664   1.818   0.559   5.722  0.1863  0.6575 -0.6507
 5069SOL     OW26665   1.242   2.790   8.057 -0.1093 -0.0459 -0.0052
 5069SOL    HW126666   1.244   2.865   7.998 -1.0136  0.1567  0.2230
 5069SOL    HW226667   1.208   2.724   7.996  0.6019 -0.1195 -0.3167
 5070SOL     OW26668   0.659   0.418   8.147 -0.8243  0.5620  0.0591
 5070SOL    HW126669   0.588   0.413   8.211 -0.7050  1.9273  0.3013
 5070SOL    HW226670   0.729   0.451   8.204  0.9129 -1.0955 -1.0927
 5071SOL     OW26671   1.000   1.670   8.030 -0.2164 -0.0137  0.3478
 5071SOL    HW126672   1.090   1.666   8.061  0.0575 -1.4795 -0.6155
 5071SOL    HW226673   1.000   1.760   8.000 -1.2165 -0.2841 -0.4608
 5072SOL     OW26674   1.812   1.081   9.392  0.0036  0.7719 -0.0977
 5072SOL    HW126675   1.880   1.052   9.331  0.2010  0.2029  0.3964
 5072SOL    HW226676   1.863   1.111   9.467 -3.3431  2.8867  1.3104
 5073SOL     OW26677   0.429   2.649   5.807 -0.1087  0.1871 -0.2303
 5073SOL    HW126678   0.510   2.599   5.817  0.4368  1.3655  1.3391
 5073SOL    HW226679   0.361   2.586   5.783  1.7383 -1.6777 -0.5271
 5074SOL     OW26680   4.166   1.535   8.647  0.3579 -0.6756  0.2976
 5074SOL    HW126681   4.140   1.466   8.708 -0.4902 -0.5877  0.0329
 5074SOL    HW226682   4.225   1.491   8.587 -0.9830 -0.7793 -0.9571
 5075SOL     OW26683   3.480   1.468   3.724  0.1258  0.7905  0.2193
 5075SOL    HW126684   3.423   1.498   3.795 -0.3169  0.6563 -0.0754
 5075SOL    HW226685   3.505   1.382   3.757  1.3401  0.6146 -1.1541
 5076SOL     OW26686   1.035   4.619   0.514 -0.1227  0.3726 -0.7849
 5076SOL    HW126687   0.942   4.599   0.502  0.3937 -2.7209  0.4564
 5076SOL    HW226688   1.072   4.593   0.430 -2.0587 -1.4103 -1.0838
 5077SOL     OW26689   1.220   1.656   2.190  0.1217  0.2099  0.1692
 5077SOL    HW126690   1.313   1.649   2.213  0.0739  0.2720  0.3805
 5077SOL    HW226691   1.183   1.727   2.241  1.7655  1.4390 -0.3423
 5078SOL     OW26692   2.558   3.290  16.845  0.0197 -0.1183 -0.7392
 5078SOL    HW126693   2.590   3.231  16.914 -1.4947 -0.9047 -0.7096
 5078SOL    HW226694   2.557   3.373  16.893  4.4187 -1.3505  1.4599
 5079SOL     OW26695   1.780   3.095   0.249 -0.3489 -0.3927  0.0008
 5079SOL    HW126696   1.776   3.190   0.255  0.9684 -0.3749  0.4497
 5079SOL    HW226697   1.767   3.078   0.156 -0.0289  1.3551 -0.3567
 5080SOL     OW26698   1.823   1.869   7.468 -0.1178  0.1260  0.1715
 5080SOL    HW126699   1.735   1.900   7.449 -0.6730 -1.3324  0.3172
 5080SOL    HW226700   1.872   1.855   7.387 -1.5804  1.8016 -1.0013
 5081SOL     OW26701   2.851   1.094   5.920 -0.4401  0.2228 -0.6028
 5081SOL    HW126702   2.898   1.021   5.960 -1.0409  0.2214  0.1046
 5081SOL    HW226703   2.822   1.138   6.000 -0.0606  1.2835 -1.0541
 5082SOL     OW26704   2.971   1.836  10.244  0.4543  0.3794 -0.5019
 5082SOL    HW126705   2.939   1.842  10.334  0.7353 -1.4969 -0.2793
 5082SOL    HW226706   3.059   1.862  10.270  0.1299  1.6502 -0.6544
 5083SOL     OW26707   3.452   0.900   5.697  0.3552 -0.2314 -0.3461
 5083SOL    HW126708   3.443   0.976   5.639  0.0780  0.7775  1.0192
 5083SOL    HW226709   3.545   0.880   5.706  0.3620 -0.9293 -2.0304
 5084SOL     OW26710   2.330   1.501   1.177  0.8007 -0.5530  0.4007
 5084SOL    HW126711   2.245   1.462   1.154  0.7367  0.7658 -1.5668
 5084SOL    HW226712   2.332   1.492   1.273 -1.6152 -2.1263  0.2909
 5085SOL     OW26713   1.858   0.388   8.619  0.3644 -0.7987  0.6666
 5085SOL    HW126714   1.937   0.396   8.566  0.5969 -1.2365  0.9447
 5085SOL    HW226715   1.889   0.316   8.673  0.8118 -0.6724  0.5796
 5086SOL     OW26716   3.302   1.860   3.121 -0.1548  0.4028 -0.0286
 5086SOL    HW126717   3.313   1.953   3.100  1.3536 -0.4696 -3.0151
 5086SOL    HW226718   3.303   1.817   3.035  1.6837 -1.0606  0.7406
 5087SOL     OW26719   4.463   2.577   6.483  0.0108 -0.2482 -0.0981
 5087SOL    HW126720   4.436   2.669   6.489 -1.1843 -0.7032  1.3718
 5087SOL    HW226721   4.481   2.562   6.390  0.9666  2.7242 -0.4173
 5088SOL     OW26722   0.411   0.624   8.733  0.2141 -0.1505 -0.3811
 5088SOL    HW126723   0.354   0.665   8.797  1.8848 -0.5336  1.3588
 5088SOL    HW226724   0.498   0.653   8.762 -0.6992  0.6735  1.5453
 5089SOL     OW26725   2.725   2.780   8.899  0.0904  0.1245 -0.0954
 5089SOL    HW126726   2.772   2.738   8.828  2.9549  2.0001  0.7343
 5089SOL    HW226727   2.786   2.853   8.902 -1.2248  1.1821  1.4653
 5090SOL     OW26728   1.496   4.699   4.912 -0.6511  0.1438  0.0796
 5090SOL    HW126729   1.571   0.031   4.930 -0.3556 -0.2542  0.0826
 5090SOL    HW226730   1.533   4.635   4.853  0.0710  1.0081 -0.3961
 5091SOL     OW26731   0.458   2.051   7.252 -0.3028  0.4093 -0.1795
 5091SOL    HW126732   0.494   1.964   7.236 -0.2896  0.5171 -0.7226
 5091SOL    HW226733   0.373   2.029   7.290  0.6825 -0.9451  1.2297
 5092SOL     OW26734   3.154   2.910  16.989 -0.1416 -0.2293  0.6934
 5092SOL    HW126735   3.213   2.954  17.050 -0.0807 -0.0900  0.5362
 5092SOL    HW226736   3.182   2.819  16.998 -1.6221 -0.6568  1.0254
 5093SOL     OW26737   4.294   3.793   8.532 -0.1089 -0.3242  0.0090
 5093SOL    HW126738   4.201   3.815   8.532  0.1291  0.6861 -2.9764
 5093SOL    HW226739   4.302   3.702   8.561 -2.2664 -0.5916 -0.2716
 5094SOL     OW26740   2.773   0.927   7.892  0.4501  0.2081 -0.6058
 5094SOL    HW126741   2.845   0.966   7.942 -0.8414  0.2995  1.1564
 5094SOL    HW226742   2.759   0.979   7.813 -1.5976  1.4506  0.6093
 5095SOL     OW26743   0.212   2.008  11.941 -0.5963 -0.1367  0.6079
 5095SOL    HW126744   0.134   2.063  11.943 -2.3262 -2.5791 -0.8796
 5095SOL    HW226745   0.269   2.084  11.927  0.1509 -0.2967  2.6773
 5096SOL     OW26746   3.385   0.431   9.388 -0.1325  0.4219  0.2745
 5096SOL    HW126747   3.421   0.452   9.475  2.2634 -0.3499 -0.5320
 5096SOL    HW226748   3.456   0.429   9.323 -0.3321 -3.3431  0.1244
 5097SOL     OW26749   1.196   0.922  17.381 -0.7299 -0.1913  0.0395
 5097SOL    HW126750   1.174   0.932  17.288 -1.4142  0.0217  0.2245
 5097SOL    HW226751   1.187   0.827  17.379 -0.9957 -0.1342 -1.7358
 5098SOL     OW26752   1.628   2.706  13.466 -0.1374 -0.1931 -0.3475
 5098SOL    HW126753   1.621   2.798  13.491 -1.4576 -0.4378  0.1408
 5098SOL    HW226754   1.544   2.667  13.488  1.8580 -4.3146  0.0507
 5099SOL     OW26755   1.625   1.248   7.103  0.9128  0.0877  0.2816
 5099SOL    HW126756   1.546   1.197   7.118  0.4473 -0.0302 -2.6053
 5099SOL    HW226757   1.687   1.228   7.173  3.9903  0.9230 -2.1921
 5100SOL     OW26758   4.587   0.846   3.033  0.2144  0.1163 -0.3311
 5100SOL    HW126759   4.673   0.838   3.074  0.2869  0.2069 -0.4650
 5100SOL    HW226760   4.608   0.851   2.940  0.4733  0.2992 -0.2624
 5101SOL     OW26761   1.649   3.734   1.293  0.1608  0.3206  0.0987
 5101SOL    HW126762   1.636   3.644   1.263  1.2552  0.5783 -1.1601
 5101SOL    HW226763   1.631   3.786   1.215  1.7303  1.2451  0.3463
 5102SOL     OW26764   2.622   1.890   5.359 -0.1788  0.0527  0.5991
 5102SOL    HW126765   2.697   1.830   5.358  0.4993  0.9111 -0.3376
 5102SOL    HW226766   2.547   1.830   5.353  1.1980 -1.6238 -0.1182
 5103SOL     OW26767   3.143   0.290  10.513  0.1975  0.0961  0.1817
 5103SOL    HW126768   3.163   0.220  10.574  1.8615 -0.7286 -1.2844
 5103SOL    HW226769   3.220   0.315  10.461 -1.1752  1.8821 -1.0209
 5104SOL     OW26770   4.008   3.574  17.672 -0.3148 -0.0055 -0.4262
 5104SOL    HW126771   3.914   3.592  17.670 -0.1238  1.1966  1.9411
 5104SOL    HW226772   4.032   3.663  17.696 -0.7074  0.4278 -1.6207
 5105SOL     OW26773   1.362   4.712   9.782 -0.8297  0.3611  0.5219
 5105SOL    HW126774   1.315   0.025   9.707 -0.9547 -0.3253  0.2524
 5105SOL    HW226775   1.320   4.626   9.792  0.7095 -0.7249 -2.3083
 5106SOL     OW26776   1.406   2.720   4.630  0.2903  0.0778  0.2616
 5106SOL    HW126777   1.454   2.759   4.703  2.4068 -0.2968 -0.9187
 5106SOL    HW226778   1.447   2.759   4.553 -0.8757  1.8115  0.5154
 5107SOL     OW26779   2.892   3.335   7.505 -0.0600  0.4312  0.3244
 5107SOL    HW126780   2.827   3.358   7.439 -1.2697  1.5493  1.9002
 5107SOL    HW226781   2.854   3.355   7.591  0.4002  1.4548  0.2910
 5108SOL     OW26782   2.465   3.202   2.272  0.6950 -0.0363 -0.2802
 5108SOL    HW126783   2.447   3.260   2.199  2.6698 -0.1487 -0.8514
 5108SOL    HW226784   2.529   3.137   2.242 -0.6829 -1.1907 -0.7450
 5109SOL     OW26785   0.815   4.022  11.840 -0.3057  0.2289 -0.3454
 5109SOL    HW126786   0.895   4.068  11.866 -1.4222  0.7150  2.2196
 5109SOL    HW226787   0.751   4.067  11.895 -1.6718  0.5574 -2.2427
 5110SOL     OW26788   3.854   0.480  11.620  0.8921 -0.5089 -0.4422
 5110SOL    HW126789   3.808   0.423  11.683  2.2622 -1.6359 -0.4726
 5110SOL    HW226790   3.879   0.410  11.561 -1.4341 -0.9259 -0.9479
 5111SOL     OW26791   3.631   1.207   7.845  0.7668  0.1714  0.5237
 5111SOL    HW126792   3.603   1.116   7.852 -0.0515  0.2039 -2.3005
 5111SOL    HW226793   3.554   1.262   7.855  0.2156 -0.7029  1.1286
 5112SOL     OW26794   0.358   3.738   3.523 -0.2517  0.0328 -0.0799
 5112SOL    HW126795   0.290   3.739   3.590  0.7894 -2.4495  1.0142
 5112SOL    HW226796   0.419   3.677   3.564  0.6853 -0.5580 -2.3600
 5113SOL     OW26797   4.564   3.008  13.859 -0.0376  0.1048  0.0537
 5113SOL    HW126798   4.542   3.083  13.802  1.6984 -1.4464 -2.6628
 5113SOL    HW226799   4.660   3.010  13.850 -0.1430  0.2726 -1.1637
 5114SOL     OW26800   2.390   0.566   5.812  1.1747  0.9142 -0.2919
 5114SOL    HW126801   2.412   0.544   5.902  0.1946  0.5059 -0.1511
 5114SOL    HW226802   2.362   0.479   5.784  0.6643  0.5323  1.4399
 5115SOL     OW26803   3.435   4.281   4.391  0.0060 -0.2042 -0.0381
 5115SOL    HW126804   3.446   4.290   4.296  0.5357 -2.3538 -0.1875
 5115SOL    HW226805   3.512   4.224   4.397 -0.4478 -0.6507  1.5476
 5116SOL     OW26806   3.152   1.841   0.335  0.5949  0.3334  0.2533
 5116SOL    HW126807   3.194   1.913   0.383 -0.1865 -0.8544  2.7163
 5116SOL    HW226808   3.123   1.784   0.407  0.0063  1.7546  1.1451
 5117SOL     OW26809   0.556   0.241   9.957  0.7352  0.1254 -0.4380
 5117SOL    HW126810   0.563   0.326  10.001  0.9939  0.8013 -1.8044
 5117SOL    HW226811   0.478   0.204   9.999  1.9044 -2.0940 -0.2016
 5118SOL     OW26812   0.986   2.469   0.094 -0.5899 -1.0533  0.0952
 5118SOL    HW126813   0.984   2.400   0.029 -1.1709 -0.5188 -0.4542
 5118SOL    HW226814   1.066   2.441   0.139  0.6732 -0.5179 -1.8092
 5119SOL     OW26815   2.394   1.495   8.605 -0.1723  0.1781  0.3367
 5119SOL    HW126816   2.447   1.462   8.532  0.8280  0.4852  0.9215
 5119SOL    HW226817   2.320   1.530   8.555 -0.1744 -1.4341 -0.7769
 5120SOL     OW26818   2.767   1.035  14.528 -0.1675 -0.1106  0.1035
 5120SOL    HW126819   2.822   0.958  14.510 -0.9752 -0.4380 -0.9470
 5120SOL    HW226820   2.804   1.070  14.609  0.1100 -0.7879  0.2725
 5121SOL     OW26821   1.659   3.969   5.976  0.8867  0.0487 -0.2576
 5121SOL    HW126822   1.704   4.045   5.938  0.4737  0.3552 -0.1359
 5121SOL    HW226823   1.581   3.970   5.921  0.1250  1.3563  0.8411
 5122SOL     OW26824   3.787   4.154   7.876 -0.8297 -0.1594  0.1856
 5122SOL    HW126825   3.870   4.116   7.848 -0.5283 -0.2423  1.1987
 5122SOL    HW226826   3.757   4.197   7.796  1.7292 -0.8481 -1.1132
 5123SOL     OW26827   3.130   2.857   5.356  0.2029  0.1713 -0.1404
 5123SOL    HW126828   3.036   2.874   5.364  0.1440 -0.9275  1.6126
 5123SOL    HW226829   3.178   2.923   5.405 -0.0669 -0.6945  1.2865
 5124SOL     OW26830   2.420   1.354   2.122  0.0560  0.0651 -0.8628
 5124SOL    HW126831   2.408   1.363   2.216 -1.0571 -0.3382 -0.9630
 5124SOL    HW226832   2.352   1.293   2.091 -0.7916  0.6774 -0.1891
 5125SOL     OW26833   3.126   2.330   3.187 -0.2867 -0.4080  0.1654
 5125SOL    HW126834   3.123   2.246   3.140  1.7567 -0.6750  0.4984
 5125SOL    HW226835   3.159   2.312   3.275  0.3245  0.8374  0.1901
 5126SOL     OW26836   0.067   4.003   2.157 -0.5047 -0.0629 -0.6540
 5126SOL    HW126837   0.130   3.933   2.138 -1.2091 -1.1425  0.9134
 5126SOL    HW226838   0.067   4.065   2.085  2.7665  2.9001  1.8789
 5127SOL     OW26839   0.700   1.341   2.407  0.0634 -0.2418 -0.5481
 5127SOL    HW126840   0.646   1.420   2.402  2.1289  1.1946 -0.2513
 5127SOL    HW226841   0.641   1.278   2.367 -0.4317 -1.3409  1.8705
 5128SOL     OW26842   3.684   1.245  16.084  0.0949 -0.9372  0.2718
 5128SOL    HW126843   3.606   1.256  16.138 -0.3480  0.0402 -0.5576
 5128SOL    HW226844   3.710   1.336  16.071 -0.6753 -0.5194  1.6048
 5129SOL     OW26845   2.561   3.791   8.089 -0.3347  0.1117  0.3440
 5129SOL    HW126846   2.532   3.702   8.105  3.1875 -0.9167  0.9070
 5129SOL    HW226847   2.475   3.828   8.066 -0.6296 -2.1187 -2.0789
 5130SOL     OW26848   4.408   1.965   4.195  0.3306  0.1935 -0.2013
 5130SOL    HW126849   4.324   1.947   4.237 -0.8384  2.3441 -1.6321
 5130SOL    HW226850   4.450   1.880   4.187 -1.5731 -0.8917  1.1418
 5131SOL     OW26851   3.531   0.541   5.854 -0.2193 -0.5670 -0.2145
 5131SOL    HW126852   3.480   0.557   5.933  0.1223 -1.3446  0.1687
 5131SOL    HW226853   3.463   0.538   5.786 -0.2835  0.4274 -0.1977
 5132SOL     OW26854   3.740   0.598  10.326 -0.6318 -0.3354 -0.3416
 5132SOL    HW126855   3.707   0.680  10.364 -3.6800 -2.3607  1.4453
 5132SOL    HW226856   3.776   0.562  10.407  0.9657 -3.0236 -2.2662
 5133SOL     OW26857   0.945   4.216   3.417  0.7304 -0.0756 -0.0729
 5133SOL    HW126858   0.928   4.261   3.500 -0.9131 -0.5550 -0.1535
 5133SOL    HW226859   1.033   4.186   3.439  0.3491 -0.2305  1.2374
 5134SOL     OW26860   4.650   0.364   5.116  0.0373  0.9565 -0.1302
 5134SOL    HW126861   4.675   0.315   5.038  0.1079 -0.7955  0.9890
 5134SOL    HW226862   4.555   0.370   5.129 -0.0940  0.2048 -0.7790
 5135SOL     OW26863   2.910   3.508   6.098 -0.5739 -0.8475  0.3919
 5135SOL    HW126864   2.824   3.496   6.059 -0.6305  1.0029 -0.0610
 5135SOL    HW226865   2.938   3.585   6.048  2.0815 -1.0495  1.5635
 5136SOL     OW26866   3.858   0.456   8.666  0.1793  0.6113 -0.2464
 5136SOL    HW126867   3.799   0.474   8.738  3.1965 -0.7500  2.5505
 5136SOL    HW226868   3.817   0.374   8.638  0.1586  0.3153  0.6619
 5137SOL     OW26869   3.412   1.037  12.928  0.3111  0.1964 -0.1387
 5137SOL    HW126870   3.363   1.010  13.006 -0.8468 -4.9586 -2.6931
 5137SOL    HW226871   3.505   1.040  12.950  0.4076 -1.1292 -0.3654
 5138SOL     OW26872   4.145   3.698   9.125 -0.2470 -0.1310 -0.1276
 5138SOL    HW126873   4.133   3.785   9.088 -1.1182 -0.0966  0.2529
 5138SOL    HW226874   4.086   3.644   9.072  0.9298 -1.5856  0.0325
 5139SOL     OW26875   1.174   3.770  11.594 -0.1568 -0.5834  0.4389
 5139SOL    HW126876   1.089   3.802  11.623  1.1185  2.0960  1.2670
 5139SOL    HW226877   1.213   3.735  11.674 -1.0079 -2.2521  0.1242
 5140SOL     OW26878   2.501   3.417   7.606 -0.3775  0.1493 -0.0990
 5140SOL    HW126879   2.510   3.440   7.513 -2.6472  1.5671  0.0256
 5140SOL    HW226880   2.518   3.505   7.639 -1.8107  0.7182 -0.8584
 5141SOL     OW26881   0.382   0.625   6.574  0.0956  0.1033  0.0930
 5141SOL    HW126882   0.417   0.576   6.499  1.3014  1.7460 -0.4036
 5141SOL    HW226883   0.445   0.696   6.575  0.7315 -0.4263 -1.5953
 5142SOL     OW26884   4.456   1.745   8.479  0.2588 -0.4709  0.7210
 5142SOL    HW126885   4.388   1.776   8.538 -0.0204  0.8555 -0.2784
 5142SOL    HW226886   4.511   1.691   8.536  1.1127 -2.0326 -1.5713
 5143SOL     OW26887   2.890   2.111   4.825 -0.1141  0.1482 -0.2902
 5143SOL    HW126888   2.807   2.099   4.778 -0.0828  0.5062 -0.4381
 5143SOL    HW226889   2.917   2.199   4.798 -2.1235  0.5898 -0.8558
 5144SOL     OW26890   1.425   4.567   0.408  0.6041 -0.0211 -0.3815
 5144SOL    HW126891   1.367   4.643   0.405  0.8240  0.1743  0.2578
 5144SOL    HW226892   1.404   4.513   0.332  1.6219  1.2593 -1.5604
 5145SOL     OW26893   4.237   2.952   5.946 -0.7266  0.0352  0.2089
 5145SOL    HW126894   4.251   3.013   5.873  0.9770 -0.3289  0.2215
 5145SOL    HW226895   4.322   2.912   5.965  0.1382  1.8275  0.1200
 5146SOL     OW26896   4.474   4.598   3.137 -0.5185 -0.2281 -0.5022
 5146SOL    HW126897   4.543   4.533   3.123 -2.7662 -2.6467 -0.2776
 5146SOL    HW226898   4.393   4.548   3.129 -0.6844  0.1651 -1.3050
 5147SOL     OW26899   2.259   3.915   3.202  0.4325 -0.2368 -0.0013
 5147SOL    HW126900   2.185   3.966   3.236 -0.3219 -0.3685 -1.4430
 5147SOL    HW226901   2.225   3.858   3.134 -2.0836  0.3835  0.7441
 5148SOL     OW26902   1.674   1.696  10.926 -0.4434  0.2710  0.1512
 5148SOL    HW126903   1.689   1.625  10.864  0.3904 -1.5250  2.4138
 5148SOL    HW226904   1.725   1.666  11.000  0.1103 -2.8744 -1.5226
 5149SOL     OW26905   1.171   2.923   4.680 -0.2561 -0.3130  0.1402
 5149SOL    HW126906   1.261   2.893   4.671 -0.4478 -0.8769  0.0764
 5149SOL    HW226907   1.187   3.009   4.642 -1.7223  0.4106  1.1280
 5150SOL     OW26908   0.039   4.468   2.229  0.1834  0.8338 -0.5515
 5150SOL    HW126909   0.125   4.509   2.219 -0.0686  1.8691  1.4157
 5150SOL    HW226910   0.006   4.470   2.139 -1.6553 -0.6348  0.0838
 5151SOL     OW26911   1.777   0.061   6.568  0.2011  0.2378 -0.0952
 5151SOL    HW126912   1.697   0.056   6.620 -1.2959 -2.7875 -2.6818
 5151SOL    HW226913   1.745   0.009   6.495  0.1199  1.2833 -0.7978
 5152SOL     OW26914   0.486   4.546  15.817  0.3738 -0.1751 -0.2923
 5152SOL    HW126915   0.438   4.597  15.882  0.3222 -0.8347  0.1950
 5152SOL    HW226916   0.571   4.591  15.825  0.5381 -0.8497  1.8869
 5153SOL     OW26917   2.745   0.700   8.787  0.0449 -0.6328 -1.1368
 5153SOL    HW126918   2.745   0.627   8.850 -2.4725 -0.0285 -0.4329
 5153SOL    HW226919   2.785   0.771   8.836  2.9888 -2.6109 -0.6642
 5154SOL     OW26920   4.169   1.788   3.607 -0.1113  0.0623  0.1325
 5154SOL    HW126921   4.171   1.716   3.545 -2.4864  0.7716 -0.7643
 5154SOL    HW226922   4.225   1.858   3.573 -0.7086  0.0798 -0.8235
 5155SOL     OW26923   3.222   2.392   4.018  0.5139 -0.3857  0.0684
 5155SOL    HW126924   3.131   2.400   3.988 -0.4922 -0.4563  3.0536
 5155SOL    HW226925   3.216   2.466   4.079  2.2138  0.4558 -0.8095
 5156SOL     OW26926   2.615   2.486   0.904  0.1472 -0.0903 -0.0154
 5156SOL    HW126927   2.653   2.402   0.930  0.1867 -0.2288 -0.5226
 5156SOL    HW226928   2.593   2.528   0.988 -0.9140 -0.6760  0.0079
 5157SOL     OW26929   3.286   0.158   4.767 -0.0710 -0.7641 -0.0811
 5157SOL    HW126930   3.349   0.114   4.711  0.6663  2.5561 -1.7745
 5157SOL    HW226931   3.228   0.214   4.716  0.4716 -2.0250 -2.0711
 5158SOL     OW26932   1.782   2.330   4.578  0.0736  0.4715  1.0262
 5158SOL    HW126933   1.813   2.293   4.495 -0.5609  0.7267  0.6811
 5158SOL    HW226934   1.855   2.392   4.590  0.5990 -0.2086  1.3553
 5159SOL     OW26935   0.262   0.282  16.835  0.0335  0.0467  0.1810
 5159SOL    HW126936   0.222   0.362  16.802  1.4741  0.6299 -0.1446
 5159SOL    HW226937   0.192   0.216  16.835 -0.4779  0.5816 -0.1000
 5160SOL     OW26938   2.013   1.595  13.755  0.0335 -0.3614  0.5869
 5160SOL    HW126939   1.960   1.635  13.686  1.9475  0.9321 -0.1078
 5160SOL    HW226940   1.975   1.508  13.771  1.1516 -0.4931  2.5610
 5161SOL     OW26941   0.652   3.717   7.103 -0.0646  0.2158  0.5354
 5161SOL    HW126942   0.681   3.793   7.054 -0.3484  0.0283  0.0732
 5161SOL    HW226943   0.596   3.761   7.167 -1.3177  0.4802 -0.7463
 5162SOL     OW26944   3.355   3.471   3.607  0.1758  0.0647  0.1180
 5162SOL    HW126945   3.443   3.501   3.633  0.6075 -0.8507 -0.2858
 5162SOL    HW226946   3.305   3.524   3.669  1.8775 -1.5914  2.9134
 5163SOL     OW26947   1.177   3.202   8.855 -0.2875  0.3745  0.2462
 5163SOL    HW126948   1.092   3.170   8.825 -0.2333 -0.3848  0.9055
 5163SOL    HW226949   1.215   3.222   8.769  0.6424 -0.1316  0.5420
 5164SOL     OW26950   3.778   1.757   0.245 -0.3042  0.3723 -0.4628
 5164SOL    HW126951   3.824   1.807   0.178 -0.9356  2.9261  0.9922
 5164SOL    HW226952   3.840   1.747   0.317 -3.3202  1.1145  2.2403
 5165SOL     OW26953   1.108   3.128  12.453  0.3778 -0.0005 -0.0996
 5165SOL    HW126954   1.052   3.138  12.531 -0.8299  0.1704 -0.9842
 5165SOL    HW226955   1.106   3.216  12.417  0.4882  0.4913  1.1176
 5166SOL     OW26956   4.494   1.480   2.039  0.6087  0.2046 -0.4195
 5166SOL    HW126957   4.481   1.527   1.957 -0.3817  0.6364 -0.0173
 5166SOL    HW226958   4.498   1.388   2.013  0.7116 -0.0979  0.6548
 5167SOL     OW26959   1.181   0.587   7.993 -0.0074 -0.0766 -0.2265
 5167SOL    HW126960   1.139   0.667   7.962 -0.7166 -0.1967  0.4101
 5167SOL    HW226961   1.211   0.564   7.905  1.4381  0.7137  0.0572
 5168SOL     OW26962   1.890   2.979   7.782  0.3453  0.0616 -0.4313
 5168SOL    HW126963   1.924   2.935   7.860  2.3982  0.9488 -0.8474
 5168SOL    HW226964   1.969   2.986   7.729  0.0819 -1.1839 -1.0069
 5169SOL     OW26965   0.315   0.074   2.003 -0.4504 -0.1924 -0.2357
 5169SOL    HW126966   0.229   0.076   1.961  0.5093 -0.9002 -2.2168
 5169SOL    HW226967   0.287   0.040   2.089 -5.3259  1.9015 -0.9645
 5170SOL     OW26968   1.400   4.476   3.828 -0.0195 -0.0633  0.2606
 5170SOL    HW126969   1.329   4.414   3.843  0.5954 -1.0109 -0.7061
 5170SOL    HW226970   1.455   4.458   3.904  0.9750  0.9645 -0.2070
 5171SOL     OW26971   2.488   4.482  16.340  0.6211  0.0176  0.4372
 5171SOL    HW126972   2.410   4.519  16.299  2.7176  1.1482 -2.5312
 5171SOL    HW226973   2.439   4.412  16.383  0.9125 -1.1840 -1.2115
 5172SOL     OW26974   1.830   3.133   6.614  0.0023 -0.6407 -0.0546
 5172SOL    HW126975   1.892   3.130   6.687  0.4745  0.0407 -0.4297
 5172SOL    HW226976   1.808   3.040   6.615  0.6961 -0.8356 -3.1681
 5173SOL     OW26977   3.808   1.615  13.432  0.1128 -0.0251 -0.4826
 5173SOL    HW126978   3.727   1.588  13.475 -0.2215 -0.9801 -1.6844
 5173SOL    HW226979   3.825   1.703  13.464 -0.1754  0.0044 -0.4127
 5174SOL     OW26980   4.512   4.656   7.808 -0.6439  0.2159  0.1309
 5174SOL    HW126981   4.588   4.664   7.866 -2.2499 -0.4655  2.2995
 5174SOL    HW226982   4.453   4.607   7.864 -1.4481  2.4170  1.1787
 5175SOL     OW26983   2.212   2.705   7.011  0.2841  0.5031 -0.3694
 5175SOL    HW126984   2.155   2.684   7.085  0.0499 -1.5810 -1.1529
 5175SOL    HW226985   2.151   2.749   6.952 -0.5428 -2.5334 -1.7849
 5176SOL     OW26986   1.371   4.348   5.882  0.0729  0.0068 -0.2453
 5176SOL    HW126987   1.304   4.404   5.922  0.5677 -0.8539  1.7710
 5176SOL    HW226988   1.408   4.408   5.818 -0.3753 -1.7044 -2.1086
 5177SOL     OW26989   1.157   1.189   8.150  0.0847  0.2241  0.2892
 5177SOL    HW126990   1.200   1.130   8.088 -0.5713 -1.5904  1.5763
 5177SOL    HW226991   1.079   1.202   8.096 -1.1572 -2.3325  1.4860
 5178SOL     OW26992   1.279   0.212   5.497  0.3293  0.1406  0.1303
 5178SOL    HW126993   1.277   0.249   5.409  0.0348  0.4966  0.2838
 5178SOL    HW226994   1.365   0.245   5.524 -0.0018  0.7047  0.5051
 5179SOL     OW26995   3.772   1.394   7.689  0.2278 -0.4321 -0.0676
 5179SOL    HW126996   3.713   1.468   7.672  1.1450  0.1819 -0.5340
 5179SOL    HW226997   3.727   1.332   7.747 -2.1589 -0.2869 -1.7701
 5180SOL     OW26998   2.981   3.036   2.631  0.5818 -0.1297 -0.1280
 5180SOL    HW126999   2.914   2.985   2.677 -0.3954  0.5008 -0.8356
 5180SOL    HW227000   2.988   3.118   2.681 -0.4077 -0.1904  0.1104
 5181SOL     OW27001   2.862   3.152   2.192  0.1888 -0.0309  0.1350
 5181SOL    HW127002   2.840   3.103   2.271  0.4025  1.0740  0.8808
 5181SOL    HW227003   2.958   3.148   2.193  0.1472 -1.1083 -0.3291
 5182SOL     OW27004   3.667   0.023  14.117 -0.0772 -0.1607  0.4032
 5182SOL    HW127005   3.747   4.706  14.149 -0.4996 -0.9748  0.4141
 5182SOL    HW227006   3.628   4.683  14.058  2.8419  0.3658 -2.0871
 5183SOL     OW27007   2.566   1.648   9.969  0.3811  0.0787 -0.5393
 5183SOL    HW127008   2.608   1.604  10.043 -2.1881  0.0521  0.8939
 5183SOL    HW227009   2.645   1.687   9.932  0.3149  0.3829 -0.3551
 5184SOL     OW27010   1.445   3.752  11.521  0.0724  0.1973  0.1884
 5184SOL    HW127011   1.457   3.847  11.519 -1.6450  0.4233  1.0392
 5184SOL    HW227012   1.350   3.746  11.532  0.1360 -1.3468 -0.0883
 5185SOL     OW27013   1.588   3.561  10.149  0.0692 -0.5447 -0.4973
 5185SOL    HW127014   1.563   3.485  10.202 -1.6709 -0.2871 -0.9418
 5185SOL    HW227015   1.502   3.603  10.140 -0.5354 -1.6889  0.0407
 5186SOL     OW27016   3.364   3.681   6.814  0.1605 -0.2964  0.2846
 5186SOL    HW127017   3.426   3.609   6.824  0.5328  0.2067  1.5223
 5186SOL    HW227018   3.284   3.640   6.781 -0.0421  0.0916  0.2960
 5187SOL     OW27019   2.171   3.091   1.430 -0.0853  0.4299  0.5616
 5187SOL    HW127020   2.230   3.156   1.467  1.4907  0.5963 -2.3137
 5187SOL    HW227021   2.110   3.133   1.370 -1.2535  0.4461  1.7629
 5188SOL     OW27022   4.151   3.245  14.199  0.0753 -0.4997  0.0073
 5188SOL    HW127023   4.208   3.192  14.142  0.2512  0.0299 -0.3067
 5188SOL    HW227024   4.116   3.177  14.256  1.0423 -2.1120 -1.3234
 5189SOL     OW27025   4.462   4.494   6.230  0.9356  0.3201 -0.8936
 5189SOL    HW127026   4.489   4.585   6.219  0.5754  0.6781  1.1813
 5189SOL    HW227027   4.423   4.476   6.144 -0.3719 -0.1288 -0.2106
 5190SOL     OW27028   1.688   0.139  13.420 -0.4580 -0.1333 -0.2311
 5190SOL    HW127029   1.697   0.044  13.425  1.0862 -0.0371 -0.9612
 5190SOL    HW227030   1.651   0.158  13.506 -0.6736 -0.3240 -0.2807
 5191SOL     OW27031   0.896   2.553  10.224  0.4101  0.0069 -0.0587
 5191SOL    HW127032   0.861   2.633  10.184 -0.4204 -0.5201 -0.3905
 5191SOL    HW227033   0.845   2.540  10.304  2.0406  0.2328  1.0174
 5192SOL     OW27034   3.721   2.452   6.145 -0.3306 -0.1604  0.3086
 5192SOL    HW127035   3.790   2.425   6.206 -0.6612 -1.1848  0.2278
 5192SOL    HW227036   3.776   2.515   6.097 -0.3997  1.3330  2.1870
 5193SOL     OW27037   1.629   2.030   8.482  0.1181 -0.6043 -0.7010
 5193SOL    HW127038   1.664   1.955   8.529  1.3988  0.8782  0.7348
 5193SOL    HW227039   1.686   2.104   8.507  0.1645 -1.1453  0.7610
 5194SOL     OW27040   4.555   3.191   5.429 -0.0869  0.0581  0.3098
 5194SOL    HW127041   4.627   3.234   5.475 -1.2807 -0.3642  2.5336
 5194SOL    HW227042   4.576   3.100   5.452  0.3882  0.8376  2.9049
 5195SOL     OW27043   1.734   2.642   3.031 -0.1221 -0.0989  0.1650
 5195SOL    HW127044   1.645   2.669   3.055 -0.1531  0.3029 -0.3834
 5195SOL    HW227045   1.768   2.711   2.973 -3.7116  0.3602 -1.4078
 5196SOL     OW27046   2.808   1.160   2.441  0.3096  0.1300 -0.4000
 5196SOL    HW127047   2.797   1.084   2.498 -0.6647  0.4143 -0.1902
 5196SOL    HW227048   2.824   1.121   2.355 -0.8199 -1.0841 -0.0486
 5197SOL     OW27049   2.288   3.901  10.878  0.2966  0.0361  0.1795
 5197SOL    HW127050   2.231   3.873  10.806 -0.9659 -0.0956  1.2358
 5197SOL    HW227051   2.293   3.996  10.879 -0.2247  0.0391  2.2602
 5198SOL     OW27052   2.343   3.710   1.920  0.0206 -0.1625 -0.2590
 5198SOL    HW127053   2.273   3.697   1.984  0.1348 -0.3287 -0.1683
 5198SOL    HW227054   2.331   3.631   1.866  1.8090 -0.3826 -0.3288
 5199SOL     OW27055   0.872   1.232   1.841 -0.1158 -0.0318 -0.1402
 5199SOL    HW127056   0.948   1.280   1.876  0.6796 -0.1709 -1.6656
 5199SOL    HW227057   0.819   1.241   1.919  1.9207  0.4253  1.1968
 5200SOL     OW27058   3.221   1.634   7.447  0.3011  0.1402  0.1126
 5200SOL    HW127059   3.288   1.690   7.407  0.1258  0.2785  0.0152
 5200SOL    HW227060   3.152   1.642   7.381 -2.2268 -0.6742  2.7035
 5201SOL     OW27061   3.486   2.498  17.462  0.3431  0.0818 -0.1084
 5201SOL    HW127062   3.538   2.577  17.445 -0.2211  0.5740  0.4830
 5201SOL    HW227063   3.511   2.445  17.386  2.6109 -0.8499  1.3121
 5202SOL     OW27064   3.974   2.846   6.011  0.0015  0.3721  0.0255
 5202SOL    HW127065   4.060   2.840   5.970  0.3067  1.6138  0.5000
 5202SOL    HW227066   3.933   2.925   5.976 -0.2172 -0.9418 -2.7164
 5203SOL     OW27067   1.604   1.011  12.053  0.3530  0.0956 -0.2350
 5203SOL    HW127068   1.588   1.065  11.976 -0.0335  2.0046  1.2017
 5203SOL    HW227069   1.517   1.000  12.092  0.4651 -1.5777 -0.4268
 5204SOL     OW27070   4.702   0.748  14.317 -0.6076 -0.5980 -0.3295
 5204SOL    HW127071   4.643   0.686  14.275  0.1135 -1.1913 -0.4678
 5204SOL    HW227072   4.645   0.821  14.340 -2.2494 -1.5740 -1.3486
 5205SOL     OW27073   3.463   1.687   3.257 -0.6365 -0.1580 -0.2213
 5205SOL    HW127074   3.416   1.748   3.200  0.4841 -0.0842 -1.0731
 5205SOL    HW227075   3.442   1.732   3.339 -2.5725 -0.1004 -0.7548
 5206SOL     OW27076   3.296   1.252  13.260 -0.3760 -0.9974 -0.5123
 5206SOL    HW127077   3.248   1.261  13.178 -0.1624  0.3899 -0.4900
 5206SOL    HW227078   3.311   1.158  13.252 -0.5738 -1.0010 -0.8247
 5207SOL     OW27079   3.679   3.754   6.316  0.0216 -0.5006 -0.4281
 5207SOL    HW127080   3.665   3.808   6.394 -1.8834 -2.5703  0.6522
 5207SOL    HW227081   3.590   3.754   6.281 -0.3468  0.4543  0.5294
 5208SOL     OW27082   3.003   1.480   5.250 -0.1102  0.0388  0.0108
 5208SOL    HW127083   2.950   1.559   5.232 -1.9697 -1.7352 -2.2738
 5208SOL    HW227084   3.024   1.486   5.343  2.1186  1.8189 -0.6065
 5209SOL     OW27085   0.189   2.749   9.131  0.1039  0.5805 -0.2058
 5209SOL    HW127086   0.251   2.686   9.093 -1.0130 -2.4676  3.0337
 5209SOL    HW227087   0.242   2.787   9.200 -0.6088 -1.0764  1.2712
 5210SOL     OW27088   4.234   4.078   3.197 -0.0297  0.2451  0.1289
 5210SOL    HW127089   4.144   4.048   3.194  0.3896 -1.2951  3.0814
 5210SOL    HW227090   4.207   4.167   3.222  2.3119  0.7938  0.7101
 5211SOL     OW27091   2.741   3.083   7.253  0.6945  0.0998  0.2517
 5211SOL    HW127092   2.695   3.136   7.187 -0.9661 -2.1376 -0.3998
 5211SOL    HW227093   2.668   3.047   7.304 -0.2212 -0.0494 -1.1421
 5212SOL     OW27094   1.047   2.350   3.787  0.2813 -0.4431  0.1306
 5212SOL    HW127095   0.969   2.395   3.755  1.1249  0.9459  0.0337
 5212SOL    HW227096   1.092   2.331   3.704 -0.0857  0.1366 -0.2009
 5213SOL     OW27097   2.581   3.759   2.353  0.0351  0.0479  0.1763
 5213SOL    HW127098   2.539   3.808   2.424 -2.0844  0.4299 -1.3736
 5213SOL    HW227099   2.660   3.811   2.335  0.8970 -1.6454 -0.9577
 5214SOL     OW27100   1.384   1.825  11.965 -0.8637 -0.4070  0.6875
 5214SOL    HW127101   1.392   1.749  11.907 -1.7720 -0.6292  0.8556
 5214SOL    HW227102   1.477   1.839  11.981 -0.6495 -0.3538 -0.5995
 5215SOL     OW27103   3.871   0.564  16.068  0.2645  0.6783 -0.1337
 5215SOL    HW127104   3.913   0.509  16.134  1.8596 -0.2404 -1.9478
 5215SOL    HW227105   3.874   0.653  16.103 -0.5577  0.1106  1.4112
 5216SOL     OW27106   2.129   1.272   6.074  0.1392  0.4138  0.1826
 5216SOL    HW127107   2.141   1.260   6.168 -0.3699 -1.2991  0.0334
 5216SOL    HW227108   2.033   1.270   6.065  0.2455 -2.2793 -0.1685
 5217SOL     OW27109   3.051   0.385   5.885  0.4495  0.4888 -0.3501
 5217SOL    HW127110   3.086   0.406   5.971  2.3828 -2.1747 -0.4769
 5217SOL    HW227111   2.985   0.454   5.877 -0.8417 -1.0033 -2.7542
 5218SOL     OW27112   0.154   2.467   4.839  0.2909 -0.3939  0.5604
 5218SOL    HW127113   0.086   2.530   4.815 -1.3554 -2.2593  0.3606
 5218SOL    HW227114   0.107   2.405   4.895 -1.0492  1.3690  1.4085
 5219SOL     OW27115   0.695   1.932   4.003 -0.4481  0.1004 -0.0368
 5219SOL    HW127116   0.666   1.923   3.912  2.0981 -0.1590 -0.8439
 5219SOL    HW227117   0.649   2.014   4.017 -0.1550  0.3945 -0.7840
 5220SOL     OW27118   1.812   3.810   6.376 -0.1333 -0.1300 -0.7422
 5220SOL    HW127119   1.836   3.721   6.348  2.3939  0.0637  0.7868
 5220SOL    HW227120   1.764   3.797   6.457  2.5254 -1.7561  0.5715
 5221SOL     OW27121   1.407   2.237   0.595  0.9654 -0.5020 -0.1400
 5221SOL    HW127122   1.384   2.328   0.613 -0.5939 -0.8149 -0.5374
 5221SOL    HW227123   1.391   2.236   0.500  0.3068  2.4298 -0.0683
 5222SOL     OW27124   4.481   3.051   2.998 -0.1301 -0.0669  0.1268
 5222SOL    HW127125   4.400   3.035   3.047 -1.8369  0.4009 -2.5082
 5222SOL    HW227126   4.463   3.001   2.919  1.0434  0.2252 -0.3309
 5223SOL     OW27127   2.609   1.549   8.771  0.1922 -0.0730  0.0168
 5223SOL    HW127128   2.657   1.466   8.774 -2.6071 -1.7772 -2.5467
 5223SOL    HW227129   2.539   1.534   8.708  0.5198  0.5883 -0.5052
 5224SOL     OW27130   1.393   2.947  13.164  0.3809 -0.8922  0.1257
 5224SOL    HW127131   1.377   2.858  13.195  0.7252 -0.4353  1.5852
 5224SOL    HW227132   1.477   2.965  13.207  1.6209 -2.0432 -1.8038
 5225SOL     OW27133   0.364   3.754   7.789 -0.2926 -0.0454 -0.2101
 5225SOL    HW127134   0.404   3.800   7.862 -1.3783  2.1817 -1.0335
 5225SOL    HW227135   0.354   3.663   7.818 -1.1133 -0.0726 -0.5776
 5226SOL     OW27136   0.833   2.872   2.474  0.0021 -0.1520 -0.2287
 5226SOL    HW127137   0.797   2.824   2.549 -0.3904  1.0832  0.3782
 5226SOL    HW227138   0.756   2.914   2.436  0.9464 -0.2078 -2.2021
 5227SOL     OW27139   2.356   0.236  14.995  0.2234 -0.0872  0.0976
 5227SOL    HW127140   2.410   0.166  15.031 -0.3351 -1.0002 -0.8576
 5227SOL    HW227141   2.400   0.254  14.911 -1.8445  1.0496 -0.7563
 5228SOL     OW27142   4.636   4.451   3.753  0.5668 -0.2021 -0.5642
 5228SOL    HW127143   4.694   4.501   3.696 -0.5617 -1.0324 -2.4629
 5228SOL    HW227144   4.555   4.462   3.703 -0.4716 -0.3084  1.0984
 5229SOL     OW27145   2.095   3.580   1.341  0.1818 -0.3847  0.5738
 5229SOL    HW127146   2.053   3.567   1.256  0.7520 -1.0881  0.3985
 5229SOL    HW227147   2.081   3.675   1.340  0.0620 -0.3906  2.3440
 5230SOL     OW27148   2.026   4.680   7.199 -0.3382  0.1617  0.2709
 5230SOL    HW127149   1.963   4.667   7.269 -1.4648  0.7437 -0.6241
 5230SOL    HW227150   1.966   4.686   7.125  1.1265  1.0128 -0.8552
 5231SOL     OW27151   4.381   1.147   4.515  0.5449 -0.1882  0.1894
 5231SOL    HW127152   4.395   1.149   4.610 -0.0501 -1.5738  0.3105
 5231SOL    HW227153   4.331   1.229   4.507  0.9932 -0.2037 -2.9403
 5232SOL     OW27154   0.386   2.241  11.911  0.4728  0.6509  0.1624
 5232SOL    HW127155   0.465   2.240  11.966 -0.5229  0.2645  1.5991
 5232SOL    HW227156   0.363   2.333  11.923  0.4083  0.6246  0.2444
 5233SOL     OW27157   2.637   2.399   3.748 -0.2135 -0.5239 -0.2316
 5233SOL    HW127158   2.679   2.479   3.717 -1.7384 -0.3216 -1.7890
 5233SOL    HW227159   2.685   2.328   3.704  2.5684  1.6753 -0.7049
 5234SOL     OW27160   2.063   3.558   4.129 -0.6267 -0.2532  0.1570
 5234SOL    HW127161   2.010   3.547   4.207 -1.1436  0.0656 -0.1540
 5234SOL    HW227162   2.152   3.559   4.165 -0.8256 -1.9783  0.7065
 5235SOL     OW27163   0.131   4.369   7.425 -0.4162 -0.7802  0.0697
 5235SOL    HW127164   0.177   4.453   7.419 -0.4287 -0.9135 -1.9956
 5235SOL    HW227165   0.179   4.313   7.364  0.2822  0.1339 -0.2225
 5236SOL     OW27166   0.213   2.880   0.934  0.4160 -0.6894  0.2398
 5236SOL    HW127167   0.128   2.925   0.932 -0.3750 -2.1332  0.5422
 5236SOL    HW227168   0.181   2.793   0.962  3.0148 -1.2192  1.5022
 5237SOL     OW27169   2.680   3.979   1.970 -0.0791 -0.3911  0.2113
 5237SOL    HW127170   2.727   3.957   1.889 -0.8108 -0.8349 -0.0990
 5237SOL    HW227171   2.589   3.986   1.939 -0.6474 -3.5763  1.2409
 5238SOL     OW27172   4.052   3.890   2.032 -0.1338  0.4803  0.2782
 5238SOL    HW127173   4.108   3.949   1.982  0.8745  0.5269  1.4552
 5238SOL    HW227174   4.058   3.938   2.115 -1.1084  0.5079  0.3349
 5239SOL     OW27175   0.938   4.171   2.606 -0.2019 -0.3925  0.0424
 5239SOL    HW127176   1.028   4.154   2.579  0.2374 -0.3438  1.4517
 5239SOL    HW227177   0.937   4.106   2.676 -2.0907 -0.7958 -0.3465
 5240SOL     OW27178   3.607   0.280   7.878 -0.0876  0.0888 -0.1306
 5240SOL    HW127179   3.552   0.283   7.956 -0.3894 -0.2520 -0.3300
 5240SOL    HW227180   3.678   0.338   7.907  0.5702 -0.6872 -0.1841
 5241SOL     OW27181   0.203   4.038   9.521 -0.5610 -0.6237  0.2450
 5241SOL    HW127182   0.123   4.003   9.481 -1.7451 -1.7738  3.5866
 5241SOL    HW227183   0.254   4.051   9.441  0.1019 -0.7601  0.6479
 5242SOL     OW27184   3.163   4.179  14.045  0.4344  0.0171 -0.4395
 5242SOL    HW127185   3.070   4.164  14.029  0.3066  0.5033 -0.1341
 5242SOL    HW227186   3.194   4.164  13.955 -1.4601  0.0795 -1.1081
 5243SOL     OW27187   2.482   0.915  13.435 -0.4841 -0.3766 -0.1501
 5243SOL    HW127188   2.495   0.827  13.400  0.0964  0.5346 -2.1894
 5243SOL    HW227189   2.419   0.898  13.505 -0.2127 -0.2882  0.1152
 5244SOL     OW27190   3.173   4.329   5.275  0.7397  0.3110  0.3476
 5244SOL    HW127191   3.224   4.405   5.247 -1.2114  1.1886 -0.8258
 5244SOL    HW227192   3.236   4.258   5.263  0.0295  0.3483 -3.5191
 5245SOL     OW27193   2.267   2.698   4.607  0.6717 -0.0496 -0.0992
 5245SOL    HW127194   2.230   2.765   4.665  0.6155 -0.9691  0.9336
 5245SOL    HW227195   2.191   2.675   4.553  0.4657 -1.0978  0.6362
 5246SOL     OW27196   1.599   3.876  16.049  1.1010  0.4295  0.1611
 5246SOL    HW127197   1.628   3.855  16.138 -0.0750 -0.6007  0.2984
 5246SOL    HW227198   1.643   3.958  16.026  1.5794 -0.1982 -1.1451
 5247SOL     OW27199   0.350   1.759  12.889  0.1078 -0.2344 -0.1359
 5247SOL    HW127200   0.406   1.693  12.929  0.7285  0.1040 -0.4463
 5247SOL    HW227201   0.414   1.811  12.840 -0.8363  1.0593  0.0147
 5248SOL     OW27202   1.993   3.662   5.210 -0.6900  0.3139  0.2287
 5248SOL    HW127203   1.961   3.635   5.124  2.2588  0.3173 -0.8765
 5248SOL    HW227204   1.931   3.734   5.221 -0.2280  0.9006 -0.9901
 5249SOL     OW27205   2.664   3.108   6.561 -0.3976  0.3067  0.4429
 5249SOL    HW127206   2.643   3.092   6.469 -2.5048  1.0149  0.7918
 5249SOL    HW227207   2.748   3.151   6.549 -0.5573  1.0397  2.0247
 5250SOL     OW27208   0.609   4.093  12.956  0.5484  0.2421  0.3939
 5250SOL    HW127209   0.552   4.018  12.942  0.6478  0.5162 -1.4202
 5250SOL    HW227210   0.549   4.165  12.936  0.3246  0.7263  2.8066
 5251SOL     OW27211   0.557   1.262   9.251  0.2339 -0.0242  0.2795
 5251SOL    HW127212   0.585   1.243   9.162  0.3166 -1.5562  0.6440
 5251SOL    HW227213   0.624   1.326   9.279  1.1806 -0.9311  0.0837
 5252SOL     OW27214   2.729   1.972   4.363  0.1038  0.4866 -0.2752
 5252SOL    HW127215   2.721   1.903   4.297 -1.1306 -0.3951  0.7933
 5252SOL    HW227216   2.660   1.937   4.419 -1.5839 -1.2956 -3.4377
 5253SOL     OW27217   0.935   0.221  12.872  0.1606  0.1245 -0.6625
 5253SOL    HW127218   0.895   0.252  12.953 -0.2685 -1.2871 -0.3415
 5253SOL    HW227219   0.856   0.218  12.818  0.1038  0.1257 -0.5786
 5254SOL     OW27220   4.642   3.869   8.040  0.0203  0.3007 -0.2549
 5254SOL    HW127221   4.705   3.800   8.021  0.0729  0.7399 -1.6735
 5254SOL    HW227222   4.708   3.929   8.073  0.2377  0.0562 -0.2457
 5255SOL     OW27223   4.626   1.921   7.727  0.3628  0.0903  0.5573
 5255SOL    HW127224   4.607   2.014   7.711 -1.4697 -0.4259 -0.3941
 5255SOL    HW227225   4.716   1.929   7.756  0.1799 -1.5382  1.5670
 5256SOL     OW27226   3.179   0.159   3.114  0.2699 -0.6006  0.0333
 5256SOL    HW127227   3.164   0.226   3.180  0.2083  0.0755 -0.6705
 5256SOL    HW227228   3.242   0.103   3.160 -0.5269  1.3122  3.4868
 5257SOL     OW27229   2.644   4.346   9.812 -0.6104 -0.0291  0.0415
 5257SOL    HW127230   2.676   4.260   9.838 -1.6671 -0.5282 -0.3398
 5257SOL    HW227231   2.565   4.346   9.867  0.0160 -0.2397  0.9426
 5258SOL     OW27232   2.639   0.565   3.876 -0.3359  0.2978 -0.1077
 5258SOL    HW127233   2.600   0.504   3.814  1.2014  0.5515 -1.3197
 5258SOL    HW227234   2.615   0.540   3.965 -0.9329 -0.0875 -0.3728
 5259SOL     OW27235   4.629   3.938   6.120 -0.2139 -0.4113  0.2347
 5259SOL    HW127236   4.618   3.857   6.169 -0.0754 -1.5865 -1.6815
 5259SOL    HW227237   4.615   3.999   6.192  1.6690 -1.0348  1.1144
 5260SOL     OW27238   0.449   1.107   3.990  0.4063 -0.1213 -0.2153
 5260SOL    HW127239   0.514   1.172   3.965  0.0857  0.4236  0.3626
 5260SOL    HW227240   0.496   1.024   3.999  1.2031  0.0934 -2.5775
 5261SOL     OW27241   2.516   0.600  10.519 -0.0061 -0.3618 -0.4712
 5261SOL    HW127242   2.484   0.624  10.606  0.3217  1.0826 -0.7456
 5261SOL    HW227243   2.578   0.670  10.501  0.8824 -1.5259 -1.9595
 5262SOL     OW27244   0.340   4.592  14.254 -0.0171 -0.0215  0.5398
 5262SOL    HW127245   0.323   4.590  14.348  1.6591  0.2393  0.8529
 5262SOL    HW227246   0.337   4.686  14.237 -1.9664 -0.0868  0.5354
 5263SOL     OW27247   0.822   0.397   2.839  0.1817 -0.1741  0.0846
 5263SOL    HW127248   0.890   0.338   2.868 -0.6966 -1.6213 -0.8159
 5263SOL    HW227249   0.793   0.435   2.922  0.3360  0.2684 -0.0608
 5264SOL     OW27250   2.330   2.760   7.749  0.2757  0.0648 -0.1519
 5264SOL    HW127251   2.293   2.673   7.768  1.3914 -0.7091 -1.5041
 5264SOL    HW227252   2.399   2.767   7.815  0.0110  0.6148  0.0621
 5265SOL     OW27253   3.167   0.692   0.526  0.1602  0.3007  0.2793
 5265SOL    HW127254   3.162   0.602   0.494 -0.5555  0.7847 -0.9440
 5265SOL    HW227255   3.177   0.669   0.619  0.8947  1.5977  0.5246
 5266SOL     OW27256   2.197   2.634   9.797 -0.3338 -0.7500  0.1269
 5266SOL    HW127257   2.151   2.625   9.881 -0.1087  0.1475  0.3436
 5266SOL    HW227258   2.164   2.557   9.750  0.2450 -1.6152  1.1228
 5267SOL     OW27259   0.459   2.164  12.289  0.1030 -0.4386 -0.1664
 5267SOL    HW127260   0.457   2.073  12.261  0.5447 -1.3944  2.9006
 5267SOL    HW227261   0.510   2.158  12.370  0.0082  0.7593 -0.0093
 5268SOL     OW27262   4.595   1.309   5.585  0.3113 -0.5816 -0.5651
 5268SOL    HW127263   4.667   1.347   5.534 -0.4996  0.4444 -0.9431
 5268SOL    HW227264   4.530   1.287   5.518 -1.0432 -1.1594  0.9234
 5269SOL     OW27265   4.594   2.361   6.899 -0.3164 -0.0294  0.0581
 5269SOL    HW127266   4.510   2.392   6.932  0.0798  1.5838 -0.4818
 5269SOL    HW227267   4.555   2.293   6.844 -2.0996  1.5198 -0.6098
 5270SOL     OW27268   2.755   1.080   1.457 -0.0996  0.6596 -0.4017
 5270SOL    HW127269   2.842   1.117   1.471  0.4461 -1.3790  1.5342
 5270SOL    HW227270   2.747   1.019   1.530  0.2307  0.6556 -0.3684
 5271SOL     OW27271   4.295   0.503   1.965 -0.7740  0.4375 -0.3704
 5271SOL    HW127272   4.319   0.596   1.961 -2.4727  0.9427  0.9493
 5271SOL    HW227273   4.203   0.524   1.950 -0.4753  0.0817 -2.6243
 5272SOL     OW27274   1.586   1.884   6.252  0.1186  0.2377 -0.3646
 5272SOL    HW127275   1.610   1.839   6.171 -0.4538 -1.1462  0.2346
 5272SOL    HW227276   1.571   1.974   6.224  0.0410 -0.7302 -3.5190
 5273SOL     OW27277   2.622   4.640   6.348  0.4207 -0.1868 -0.0380
 5273SOL    HW127278   2.687   4.571   6.334 -1.0419 -1.5126 -0.3535
 5273SOL    HW227279   2.583   4.612   6.430 -1.2439  2.4319  0.0634
 5274SOL     OW27280   1.482   3.670   6.756 -0.9300 -0.9031  0.7092
 5274SOL    HW127281   1.414   3.737   6.751  1.1707  1.1356 -0.5967
 5274SOL    HW227282   1.475   3.654   6.850 -0.1221  0.1179  0.9392
 5275SOL     OW27283   3.216   1.024   4.942  0.2875  0.2068 -0.3925
 5275SOL    HW127284   3.195   1.107   4.985  0.1154  0.6325 -1.2962
 5275SOL    HW227285   3.288   1.049   4.884 -0.2420  1.6112 -0.4352
 5276SOL     OW27286   1.400   3.958   1.582 -0.7897  0.1037  0.3613
 5276SOL    HW127287   1.489   3.923   1.590  0.5855  3.4166 -0.4854
 5276SOL    HW227288   1.346   3.882   1.603  0.6911 -1.0395  0.0485
 5277SOL     OW27289   1.125   4.554   8.984 -0.1137 -0.0052 -0.2850
 5277SOL    HW127290   1.177   4.634   8.982  0.3424 -0.2444  1.7151
 5277SOL    HW227291   1.058   4.583   9.046 -2.1200 -0.1154 -2.3968
 5278SOL     OW27292   3.525   4.684   4.039  0.4950  0.6374  0.4534
 5278SOL    HW127293   3.581   4.702   3.964  0.8376  1.7741  0.9711
 5278SOL    HW227294   3.461   4.620   4.009 -1.9506  2.2635  2.1768
 5279SOL     OW27295   3.134   1.120   2.492  0.2665 -0.4649  0.7767
 5279SOL    HW127296   3.188   1.073   2.427  1.4629  2.4940 -0.4010
 5279SOL    HW227297   3.050   1.119   2.446  0.6502 -0.1782  0.0636
 5280SOL     OW27298   0.393   4.089   8.524 -0.6590 -0.1430  0.0152
 5280SOL    HW127299   0.453   4.023   8.489  0.0192  0.6598 -0.3034
 5280SOL    HW227300   0.451   4.162   8.543  0.1246 -0.2014 -2.1713
 5281SOL     OW27301   1.581   1.335   3.043 -0.1346  0.4240  0.0077
 5281SOL    HW127302   1.616   1.278   3.111  1.8051  1.5255 -0.0643
 5281SOL    HW227303   1.495   1.295   3.032  0.4458 -1.1040  0.9717
 5282SOL     OW27304   0.732   2.575   5.846  0.6370  0.0854 -0.6479
 5282SOL    HW127305   0.720   2.548   5.937 -1.3768  1.0046 -0.6349
 5282SOL    HW227306   0.798   2.509   5.824  0.8936 -0.1863  0.9378
 5283SOL     OW27307   1.805   2.278   6.193 -0.1763  0.6830 -0.0359
 5283SOL    HW127308   1.887   2.235   6.168 -0.1364  0.2985  0.7514
 5283SOL    HW227309   1.834   2.333   6.265  2.9983  0.1659 -0.9279
 5284SOL     OW27310   0.978   4.636   7.841 -0.6814 -0.2123 -0.2858
 5284SOL    HW127311   1.038   4.600   7.907 -1.6329 -2.3100 -0.5638
 5284SOL    HW227312   0.963   4.722   7.881  1.4447 -0.8278  1.8254
 5285SOL     OW27313   0.943   0.439   0.888  0.5905  0.6928  0.0066
 5285SOL    HW127314   0.930   0.433   0.983  0.8061  1.0504  0.0596
 5285SOL    HW227315   0.995   0.516   0.866 -0.0600  1.0677 -0.2157
 5286SOL     OW27316   3.150   0.447   1.776  0.1369 -0.5584 -1.1122
 5286SOL    HW127317   3.140   0.527   1.726 -1.6493  0.2320  0.4904
 5286SOL    HW227318   3.205   0.481   1.847  0.2499  1.1635 -2.0296
 5287SOL     OW27319   1.876   4.460   9.950  0.3607 -0.4683 -0.8418
 5287SOL    HW127320   1.930   4.479  10.027  0.3329 -0.4647 -0.8232
 5287SOL    HW227321   1.787   4.487   9.972  0.5757  0.6044 -1.2809
 5288SOL     OW27322   4.259   1.887  15.658 -0.0970 -0.1302  0.3907
 5288SOL    HW127323   4.280   1.980  15.670 -1.4478  0.3177 -0.6856
 5288SOL    HW227324   4.262   1.860  15.749  2.0658  0.7274  0.5863
 5289SOL     OW27325   0.448   1.352   0.933  0.4768 -0.4616 -0.0649
 5289SOL    HW127326   0.360   1.315   0.944 -0.8017  2.3929 -0.5101
 5289SOL    HW227327   0.484   1.269   0.964  0.1664 -0.1758  1.0680
 5290SOL     OW27328   0.959   3.380   8.388  0.3015  0.1976 -0.0280
 5290SOL    HW127329   1.026   3.432   8.343 -1.2207  2.4881  0.3733
 5290SOL    HW227330   1.012   3.322   8.442  0.8559 -0.6392 -1.4525
 5291SOL     OW27331   4.571   1.586  15.110  0.0716 -0.3848 -0.2499
 5291SOL    HW127332   4.649   1.555  15.063  0.1600  1.1072 -1.0740
 5291SOL    HW227333   4.562   1.519  15.178  1.0800  0.7997  1.0615
 5292SOL     OW27334   2.886   1.821   6.225 -0.5316 -0.3362  0.3213
 5292SOL    HW127335   2.803   1.821   6.176 -0.4428 -0.9950  0.1685
 5292SOL    HW227336   2.863   1.810   6.317  0.0670  0.7727  0.5976
 5293SOL     OW27337   1.942   1.302   3.750 -0.1670 -0.4621  0.0032
 5293SOL    HW127338   2.024   1.293   3.701 -2.7815  2.2536 -4.9094
 5293SOL    HW227339   1.926   1.211   3.775  1.2020 -0.4755  0.8087
 5294SOL     OW27340   1.318   1.669   2.571  0.9450  0.0959  0.2586
 5294SOL    HW127341   1.375   1.626   2.507  0.5514 -0.6368  0.3956
 5294SOL    HW227342   1.338   1.623   2.653 -1.2859  0.1420  0.8213
 5295SOL     OW27343   0.183   4.119  10.989 -0.4731  0.4806  0.2415
 5295SOL    HW127344   0.207   4.132  10.897  1.0597  0.1845  0.5996
 5295SOL    HW227345   0.118   4.050  10.974 -0.1257 -0.0821  1.2992
 5296SOL     OW27346   1.448   3.956  13.327 -0.6228  0.3288  0.2539
 5296SOL    HW127347   1.538   3.967  13.360 -1.2086 -1.2392  2.3514
 5296SOL    HW227348   1.394   3.942  13.405  0.4612 -1.9429  0.6059
 5297SOL     OW27349   0.823   1.211   2.965 -0.0739  0.3509  0.2520
 5297SOL    HW127350   0.825   1.169   2.879 -0.0500 -0.3347  0.5875
 5297SOL    HW227351   0.742   1.174   3.000  0.7710  1.1552  3.0172
 5298SOL     OW27352   3.170   3.139   3.091 -0.2174  0.5648  0.3261
 5298SOL    HW127353   3.153   3.151   3.184  3.2863  1.9229  0.7688
 5298SOL    HW227354   3.145   3.047   3.082 -0.7276  0.8253 -0.9802
 5299SOL     OW27355   1.499   0.894   3.283 -0.2911  0.4913  0.2171
 5299SOL    HW127356   1.562   0.912   3.213  2.4836 -2.8565  1.8464
 5299SOL    HW227357   1.516   0.802   3.301  0.6787  0.6054 -0.0961
 5300SOL     OW27358   1.312   2.144   5.354 -0.2337  0.2706  0.2839
 5300SOL    HW127359   1.392   2.100   5.384 -2.8439 -2.4666  3.0957
 5300SOL    HW227360   1.344   2.142   5.263 -1.5334 -3.0054 -0.0919
 5301SOL     OW27361   2.825   1.944   5.044 -0.3811 -0.2354  0.0004
 5301SOL    HW127362   2.855   1.992   4.967 -0.1321 -2.3814 -1.2418
 5301SOL    HW227363   2.746   1.992   5.068 -0.3733  0.1287 -0.7037
 5302SOL     OW27364   2.117   3.480   7.710 -0.0335  0.1653 -0.5015
 5302SOL    HW127365   2.050   3.520   7.766 -0.6031 -2.8571  1.0117
 5302SOL    HW227366   2.086   3.389   7.706  1.0580 -0.1149 -2.5018
 5303SOL     OW27367   2.181   0.290  14.617  0.0969 -0.0179 -0.0623
 5303SOL    HW127368   2.106   0.231  14.613 -0.5043  0.7405 -0.0274
 5303SOL    HW227369   2.224   0.257  14.538  0.4948 -2.2275  1.0667
 5304SOL     OW27370   3.660   3.545   6.620 -0.1363 -0.1659  0.2198
 5304SOL    HW127371   3.687   3.637   6.618  0.2957 -0.3179 -1.3101
 5304SOL    HW227372   3.581   3.542   6.673  0.6286  2.3022  1.4622
 5305SOL     OW27373   3.513   2.126  12.036  0.0468 -0.0540 -0.1082
 5305SOL    HW127374   3.423   2.158  12.033 -0.1999 -0.7284  0.1123
 5305SOL    HW227375   3.526   2.108  12.129  1.7189 -0.3630 -0.4025
 5306SOL     OW27376   3.985   1.430   4.833 -0.1841 -0.0008  0.2050
 5306SOL    HW127377   3.901   1.419   4.788  0.5570  2.6061 -1.7774
 5306SOL    HW227378   3.963   1.407   4.923  0.7554 -0.5631  0.2894
 5307SOL     OW27379   1.365   1.745  16.032  0.1690  0.4577  0.1125
 5307SOL    HW127380   1.426   1.696  15.976  1.3319  0.3986  1.4186
 5307SOL    HW227381   1.360   1.819  15.971  0.7986  1.2432  1.0139
 5308SOL     OW27382   1.663   3.584  16.244 -0.3512  0.1314 -0.3356
 5308SOL    HW127383   1.598   3.592  16.175 -1.1981 -2.6964  0.1110
 5308SOL    HW227384   1.736   3.572  16.184 -0.8900 -1.2973 -0.7112
 5309SOL     OW27385   2.313   2.885  17.183 -0.3368 -0.1561  0.6434
 5309SOL    HW127386   2.346   2.912  17.097  1.1319  0.9722  1.5579
 5309SOL    HW227387   2.299   2.974  17.216 -3.4616 -0.7027  0.7383
 5310SOL     OW27388   1.315   3.442   1.188  0.3964 -0.0627 -0.3465
 5310SOL    HW127389   1.302   3.517   1.246 -2.0793 -1.1619  0.5274
 5310SOL    HW227390   1.241   3.393   1.223 -1.1983  1.3646 -1.7453
 5311SOL     OW27391   1.270   0.164   2.278 -0.0667  0.1303 -0.3286
 5311SOL    HW127392   1.255   0.224   2.205  0.9566  0.1255 -0.5430
 5311SOL    HW227393   1.186   0.177   2.322  0.7341  0.4076  1.0934
 5312SOL     OW27394   3.714   2.475   6.939 -0.8336 -0.1094 -0.3175
 5312SOL    HW127395   3.626   2.511   6.951  0.0051  2.1588 -0.9963
 5312SOL    HW227396   3.698   2.381   6.932 -1.2875 -0.2805  2.7760
 5313SOL     OW27397   3.091   4.624  12.739 -0.0264  1.0508  0.1767
 5313SOL    HW127398   3.072   4.574  12.659 -3.0932  0.9075  0.9749
 5313SOL    HW227399   3.145   4.695  12.705  0.4418  0.4713 -0.2882
 5314SOL     OW27400   1.010   0.414   9.526 -0.0532 -0.1539  0.4543
 5314SOL    HW127401   1.092   0.460   9.546 -0.0698  0.7494 -1.5531
 5314SOL    HW227402   0.956   0.434   9.602  1.8217 -1.2651  2.0661
 5315SOL     OW27403   1.531   1.163  16.812 -0.5868  0.2077  0.2571
 5315SOL    HW127404   1.621   1.192  16.800 -1.3891  3.6276  2.2567
 5315SOL    HW227405   1.546   1.105  16.886 -0.2592  0.9557  0.7822
 5316SOL     OW27406   2.842   1.626  10.082  0.0351 -0.1955 -0.4936
 5316SOL    HW127407   2.930   1.626  10.044  0.7879  3.3750  1.2703
 5316SOL    HW227408   2.851   1.693  10.149  0.2309 -1.6158  0.8886
 5317SOL     OW27409   1.347   3.638  14.283 -0.4048 -0.3577  0.1533
 5317SOL    HW127410   1.327   3.621  14.375  2.2804  3.1302  1.3909
 5317SOL    HW227411   1.271   3.604  14.235  0.8052 -1.4242 -1.0345
 5318SOL     OW27412   0.370   2.648   8.420 -0.1025 -0.0162 -0.0210
 5318SOL    HW127413   0.399   2.738   8.405 -2.3911  1.3518  3.8114
 5318SOL    HW227414   0.275   2.658   8.420  0.1908  2.8501  2.1782
 5319SOL     OW27415   2.677   0.943   1.209 -0.5339 -0.5143 -0.2544
 5319SOL    HW127416   2.729   0.864   1.220  0.2965  0.1796  0.7497
 5319SOL    HW227417   2.701   0.993   1.287 -0.9901 -0.9276  0.1539
 5320SOL     OW27418   2.479   3.357   1.978 -0.3794 -0.1066  0.0777
 5320SOL    HW127419   2.541   3.390   2.042 -0.0174 -2.0720  0.7244
 5320SOL    HW227420   2.434   3.440   1.959  1.1358  0.3546 -1.5505
 5321SOL     OW27421   4.448   0.455   6.363 -0.1626 -0.2069 -0.4428
 5321SOL    HW127422   4.471   0.530   6.310  1.4253  1.0620  2.0270
 5321SOL    HW227423   4.386   0.494   6.424 -1.6234 -0.5008 -1.7418
 5322SOL     OW27424   1.079   0.411   4.317  0.2947  0.0727 -0.6667
 5322SOL    HW127425   0.986   0.391   4.306  0.7470 -2.7539  0.4759
 5322SOL    HW227426   1.074   0.504   4.293 -0.9649  0.3973  0.9154
 5323SOL     OW27427   0.977   3.307   5.168 -0.1711 -0.0542 -0.7521
 5323SOL    HW127428   1.026   3.328   5.089 -1.8440  0.4949 -1.6392
 5323SOL    HW227429   1.018   3.369   5.229 -0.7836 -1.7061  1.3218
 5324SOL     OW27430   4.501   3.610  15.025  0.0024 -0.2467  0.7522
 5324SOL    HW127431   4.517   3.636  14.935  0.7985  0.5345  1.1251
 5324SOL    HW227432   4.572   3.659  15.065  0.9325  0.6724 -2.0379
 5325SOL     OW27433   2.680   3.690  15.513  0.2457 -0.1892  0.1273
 5325SOL    HW127434   2.754   3.645  15.471 -0.6909 -1.8394  0.2328
 5325SOL    HW227435   2.657   3.749  15.441 -0.9888 -0.8210 -0.0013
 5326SOL     OW27436   4.352   3.115  14.027  0.3496  0.3684  0.0688
 5326SOL    HW127437   4.415   3.096  13.958  0.3524  0.0386  0.1645
 5326SOL    HW227438   4.407   3.130  14.104  0.8375 -1.2347  0.0202
 5327SOL     OW27439   3.680   0.781   5.843 -0.4253  0.1000  0.2729
 5327SOL    HW127440   3.768   0.762   5.811 -0.4579  2.6757 -1.3771
 5327SOL    HW227441   3.625   0.706   5.822 -0.4137 -0.0268  0.6945
 5328SOL     OW27442   2.580   3.988   1.203  0.1517 -0.0708  0.3223
 5328SOL    HW127443   2.665   3.984   1.248 -0.3212  0.0492  1.2341
 5328SOL    HW227444   2.520   4.039   1.257  1.2965 -1.3178  2.7848
 5329SOL     OW27445   1.337   1.321   3.632 -0.3745 -0.4491 -0.1337
 5329SOL    HW127446   1.284   1.245   3.609  0.3236 -1.3790  1.3283
 5329SOL    HW227447   1.279   1.352   3.701  0.0348 -2.4487  1.1111
 5330SOL     OW27448   1.326   0.841   8.810 -0.5515 -1.0537 -0.0114
 5330SOL    HW127449   1.308   0.787   8.887  0.7900 -0.8743  0.4287
 5330SOL    HW227450   1.294   0.782   8.742  0.2005 -0.7370 -0.6319
 5331SOL     OW27451   0.744   4.111  11.596  0.5088  0.2635 -0.1332
 5331SOL    HW127452   0.765   4.062  11.675  0.6670 -0.9064 -0.9048
 5331SOL    HW227453   0.712   4.197  11.622 -1.9791 -0.8025  0.2452
 5332SOL     OW27454   3.696   0.407   6.271 -0.0223 -0.1334 -0.0122
 5332SOL    HW127455   3.750   0.344   6.223 -1.0156 -0.6405 -0.4680
 5332SOL    HW227456   3.608   0.380   6.247 -0.2645 -0.9545  1.8248
 5333SOL     OW27457   3.480   2.893   8.531  0.6533  0.1561  0.1697
 5333SOL    HW127458   3.573   2.903   8.554  0.7723 -1.1502  0.3014
 5333SOL    HW227459   3.445   2.912   8.618  0.5285 -1.0288  0.3830
 5334SOL     OW27460   1.661   4.271   5.881  0.0444 -0.1919  0.2598
 5334SOL    HW127461   1.565   4.264   5.880  0.0759 -0.6666  0.3711
 5334SOL    HW227462   1.674   4.342   5.944  1.7500 -0.3195  0.0297
 5335SOL     OW27463   3.161   0.010   8.613 -0.4808  0.3406  0.2195
 5335SOL    HW127464   3.075   0.053   8.611 -0.6962 -0.1253 -0.7387
 5335SOL    HW227465   3.136   4.645   8.632 -0.5755  0.0308 -1.3401
 5336SOL     OW27466   4.473   4.553  11.424  0.1100 -0.3869 -0.9063
 5336SOL    HW127467   4.509   4.634  11.460  1.2979 -1.4394  0.2899
 5336SOL    HW227468   4.514   4.494  11.487  0.3938  0.7712 -0.0123
 5337SOL     OW27469   3.225   2.299   6.006  0.3620 -0.1353 -0.2147
 5337SOL    HW127470   3.212   2.386   6.045  0.8574  0.2450 -0.8905
 5337SOL    HW227471   3.142   2.292   5.958  2.1599 -1.2525 -3.1612
 5338SOL     OW27472   1.082   3.695   4.997 -0.2080 -0.1425 -0.0540
 5338SOL    HW127473   1.100   3.737   5.081  3.1425 -1.6393 -0.0252
 5338SOL    HW227474   1.109   3.765   4.938  1.3179 -0.2038  0.5598
 5339SOL     OW27475   1.787   1.474  16.542  0.4552  0.4168 -0.1119
 5339SOL    HW127476   1.796   1.569  16.554 -0.6072  0.7713 -1.9780
 5339SOL    HW227477   1.697   1.481  16.508  0.2427  0.0301  0.3825
 5340SOL     OW27478   2.775   2.239   6.977  0.1085  0.2448 -0.0481
 5340SOL    HW127479   2.843   2.249   7.042 -0.7607 -1.9035  1.1990
 5340SOL    HW227480   2.767   2.329   6.945 -0.6043  0.3133  0.3175
 5341SOL     OW27481   2.059   4.665   2.523 -0.6426  0.4455  0.2951
 5341SOL    HW127482   2.047   4.665   2.428 -0.2255 -1.4256  0.2402
 5341SOL    HW227483   2.092   4.575   2.528 -1.2244  0.2506  0.6228
 5342SOL     OW27484   0.187   2.848  10.420 -0.2511 -0.0695 -0.2709
 5342SOL    HW127485   0.236   2.772  10.451  0.2134  0.4478  0.2812
 5342SOL    HW227486   0.236   2.926  10.446 -0.4937 -0.2183  0.6416
 5343SOL     OW27487   1.566   4.029   4.903 -0.3269 -0.1289 -0.4544
 5343SOL    HW127488   1.631   4.094   4.931  0.9315 -1.9425  0.8672
 5343SOL    HW227489   1.577   3.962   4.970  0.3601  0.4111 -0.0274
 5344SOL     OW27490   2.606   0.763   3.662 -0.2858  0.3928 -0.5199
 5344SOL    HW127491   2.518   0.784   3.694  0.9164  0.3420  2.7809
 5344SOL    HW227492   2.631   0.703   3.733 -1.3197  0.3050 -0.2252
 5345SOL     OW27493   2.994   1.449   6.028 -0.4097  0.5487  0.8354
 5345SOL    HW127494   3.066   1.426   5.969  0.1336 -1.2002  2.1595
 5345SOL    HW227495   2.927   1.444   5.960 -1.4502  1.3671  1.8136
 5346SOL     OW27496   4.620   2.323   8.774  0.4322  0.2010 -0.1628
 5346SOL    HW127497   4.660   2.367   8.848  0.1305  3.8346 -2.1437
 5346SOL    HW227498   4.645   2.383   8.703 -3.3786 -1.2722 -2.8016
 5347SOL     OW27499   3.635   1.080   5.870  0.6835  0.5287 -0.2096
 5347SOL    HW127500   3.589   1.164   5.862  1.4848  1.0435  0.5078
 5347SOL    HW227501   3.669   1.075   5.781 -4.4833 -0.1326 -2.1549
 5348SOL     OW27502   0.354   3.199   1.749 -0.3930 -0.0686  0.5518
 5348SOL    HW127503   0.267   3.159   1.744 -0.4747 -0.0405  1.6018
 5348SOL    HW227504   0.391   3.179   1.664  1.2263  0.9675  1.0224
 5349SOL     OW27505   1.752   0.911   1.845 -0.0140  0.7769  0.0897
 5349SOL    HW127506   1.731   1.003   1.835 -0.4494  0.6753  0.0700
 5349SOL    HW227507   1.671   0.860   1.850 -1.4202  3.0351  0.2144
 5350SOL     OW27508   0.808   0.111   1.461  0.4278  0.1354 -0.1210
 5350SOL    HW127509   0.749   0.156   1.401  0.8819  0.2864 -0.4605
 5350SOL    HW227510   0.761   0.028   1.473  2.3971 -0.8785  0.5502
 5351SOL     OW27511   0.213   1.807   6.419  0.0990  0.3023 -0.2626
 5351SOL    HW127512   0.215   1.873   6.488 -1.4129  1.7049 -1.5751
 5351SOL    HW227513   0.133   1.757   6.434 -1.0591  2.5607  1.1993
 5352SOL     OW27514   3.178   3.609   3.117  0.0959 -0.5024  0.3366
 5352SOL    HW127515   3.248   3.569   3.065 -1.1378  0.8264 -2.3505
 5352SOL    HW227516   3.213   3.577   3.201 -0.7619  1.4380  1.4421
 5353SOL     OW27517   4.304   1.158   3.850  0.1061 -0.0202 -0.1676
 5353SOL    HW127518   4.229   1.106   3.877  1.6335 -2.3051 -0.3234
 5353SOL    HW227519   4.266   1.206   3.776  1.4283  0.2042 -0.6941
 5354SOL     OW27520   0.075   2.383  13.343 -0.4326 -0.8357 -0.2581
 5354SOL    HW127521   4.712   2.356  13.373 -0.9534 -2.0071 -2.8410
 5354SOL    HW227522   0.115   2.427  13.418 -3.1960  0.7513  0.3066
 5355SOL     OW27523   3.186   2.138   1.472  0.0174 -0.0445 -0.3766
 5355SOL    HW127524   3.240   2.136   1.551  0.0798 -1.1553 -0.4425
 5355SOL    HW227525   3.190   2.043   1.456 -1.6017 -0.1853  0.0584
 5356SOL     OW27526   4.191   1.126   6.664  0.0030 -0.1349  0.7582
 5356SOL    HW127527   4.150   1.211   6.684  0.6026  0.4753 -0.6621
 5356SOL    HW227528   4.282   1.152   6.673  0.1379 -1.2760  2.7547
 5357SOL     OW27529   0.149   3.324  11.971 -0.1082  0.3506 -0.1269
 5357SOL    HW127530   0.230   3.314  12.022  0.2287  0.1389 -0.7033
 5357SOL    HW227531   0.172   3.373  11.892 -2.4081  1.9508  0.2105
 5358SOL     OW27532   0.015   1.232   2.341 -0.5413 -0.0395 -0.2369
 5358SOL    HW127533   0.088   1.282   2.378 -1.1073  0.7987 -0.2581
 5358SOL    HW227534   0.034   1.141   2.363  0.2863 -0.0324 -0.9247
 5359SOL     OW27535   1.442   1.788   2.078  0.3903  0.1179  0.2167
 5359SOL    HW127536   1.416   1.863   2.131 -1.2497 -0.2945 -0.0183
 5359SOL    HW227537   1.537   1.803   2.083  0.5003 -1.2241  2.3600
 5360SOL     OW27538   0.117   2.679   9.880 -0.2270 -0.2473 -0.0903
 5360SOL    HW127539   0.129   2.656   9.787 -0.4842 -0.5610 -0.0456
 5360SOL    HW227540   0.203   2.716   9.899  0.4694 -0.5053 -2.7674
 5361SOL     OW27541   0.469   3.561   8.721  0.2772  0.2046 -0.4048
 5361SOL    HW127542   0.520   3.642   8.710  1.2297 -0.2545  0.6387
 5361SOL    HW227543   0.468   3.509   8.641 -4.7303  0.5839 -0.6228
 5362SOL     OW27544   3.842   3.756   2.574  0.1404 -0.1017  0.1343
 5362SOL    HW127545   3.920   3.802   2.543  0.4364  0.0636  1.1214
 5362SOL    HW227546   3.821   3.693   2.505 -0.9106  1.3349 -0.8501
 5363SOL     OW27547   2.158   2.292   5.034  0.5733  0.4979 -0.2296
 5363SOL    HW127548   2.092   2.356   5.061 -0.5458 -0.0729 -1.6280
 5363SOL    HW227549   2.147   2.300   4.940  1.8990  0.4004 -0.4037
 5364SOL     OW27550   4.119   0.520   3.115  1.2109 -0.0556  0.1716
 5364SOL    HW127551   4.070   0.498   3.036  0.4234 -2.0694  1.2296
 5364SOL    HW227552   4.186   0.571   3.071 -0.8856  2.6762  0.1360
 5365SOL     OW27553   4.566   0.922   6.523  0.1588  0.3255  0.1681
 5365SOL    HW127554   4.494   0.915   6.460 -0.7265 -0.8681  1.3017
 5365SOL    HW227555   4.605   0.834   6.527  2.3326  1.1825 -2.7032
 5366SOL     OW27556   3.794   3.964   2.750 -0.3817 -0.1830  0.2571
 5366SOL    HW127557   3.797   3.897   2.682  0.9940 -0.3089  0.4432
 5366SOL    HW227558   3.777   4.043   2.698  1.6118  1.1206  1.6203
 5367SOL     OW27559   0.131   0.241  11.351  0.0984  0.7307  0.3851
 5367SOL    HW127560   0.128   0.287  11.435 -0.7803  0.0933  0.6958
 5367SOL    HW227561   0.217   0.256  11.312  0.4740 -0.2734  0.8366
 5368SOL     OW27562   3.273   0.946   2.289 -0.3204  0.5922  0.0231
 5368SOL    HW127563   3.209   0.877   2.272  0.4336 -0.2287  0.5190
 5368SOL    HW227564   3.283   0.971   2.197  1.6823 -1.0934 -0.2285
 5369SOL     OW27565   4.032   1.787   5.157 -0.1213  0.4765  0.2714
 5369SOL    HW127566   4.059   1.701   5.189 -0.2669 -0.4701 -2.1772
 5369SOL    HW227567   3.996   1.827   5.236  1.5513  0.3858  1.0860
 5370SOL     OW27568   3.137   4.195   2.723  0.1962 -0.5297  0.1129
 5370SOL    HW127569   3.073   4.191   2.651 -0.9452  0.2551  1.0813
 5370SOL    HW227570   3.101   4.128   2.781  0.0207 -1.5554 -1.1762
 5371SOL     OW27571   2.308   3.272   4.173 -0.1684  0.2394  0.2026
 5371SOL    HW127572   2.301   3.365   4.154  0.4551  0.7931  2.6196
 5371SOL    HW227573   2.284   3.284   4.265  0.9985  0.0925  0.5303
 5372SOL     OW27574   4.106   4.490   6.138 -0.0025 -0.1979  0.8370
 5372SOL    HW127575   4.067   4.443   6.064 -0.7273 -1.0964  1.7980
 5372SOL    HW227576   4.028   4.531   6.174 -0.2750 -0.2052  0.2615
 5373SOL     OW27577   2.779   4.673  11.131  0.2066  0.4316  0.2488
 5373SOL    HW127578   2.763   0.019  11.068 -3.1388  1.1442  1.9091
 5373SOL    HW227579   2.836   4.605  11.095 -2.5665 -0.7355 -1.9472
 5374SOL     OW27580   4.338   4.627   8.015  0.2173  0.1054 -0.0349
 5374SOL    HW127581   4.346   4.720   8.037 -0.8966  0.6152 -1.8105
 5374SOL    HW227582   4.344   4.587   8.102 -2.2623  0.7357  0.4117
 5375SOL     OW27583   0.968   3.407  17.333  0.5625 -0.3917  0.3077
 5375SOL    HW127584   0.919   3.469  17.388 -1.3212 -0.7643 -0.9362
 5375SOL    HW227585   1.052   3.400  17.377  1.0167  0.5994 -0.4056
 5376SOL     OW27586   4.425   0.697   0.013 -0.3115 -0.4268  0.0553
 5376SOL    HW127587   4.456   0.777   0.056  0.0992  1.0139 -2.9206
 5376SOL    HW227588   4.504   0.670  17.666 -0.2557 -2.0124  1.0554
 5377SOL     OW27589   4.151   0.134  16.311  0.2078 -0.0878  0.4690
 5377SOL    HW127590   4.161   0.117  16.405 -3.5960  0.7354  1.0274
 5377SOL    HW227591   4.232   0.087  16.292  0.0979  1.4276 -3.8092
 5378SOL     OW27592   3.092   2.043  11.629  0.4073 -0.6490  0.1236
 5378SOL    HW127593   3.056   1.969  11.678  3.7338  0.6856  4.6116
 5378SOL    HW227594   3.146   2.071  11.703 -1.7882  1.5333  0.8903
 5379SOL     OW27595   3.286   3.324  12.285  0.1543  0.0219  0.2973
 5379SOL    HW127596   3.364   3.284  12.322  0.0244 -0.9127 -0.4215
 5379SOL    HW227597   3.247   3.369  12.360  0.9405 -0.6109  1.0845
 5380SOL     OW27598   1.227   2.661  11.168  0.1690  0.0589  0.0149
 5380SOL    HW127599   1.301   2.680  11.226 -0.1704  0.9805  0.1450
 5380SOL    HW227600   1.152   2.633  11.222 -0.0700  0.0567 -0.3222
 5381SOL     OW27601   1.331   4.091  10.152 -0.2670  0.0637  0.8481
 5381SOL    HW127602   1.319   3.997  10.165  0.2672 -0.4776 -2.6250
 5381SOL    HW227603   1.415   4.100  10.108 -1.2338  1.7625 -0.6625
 5382SOL     OW27604   3.198   0.991   0.908 -0.6254 -0.6665  0.3994
 5382SOL    HW127605   3.272   1.041   0.944  0.3328 -1.7993  0.0192
 5382SOL    HW227606   3.232   0.974   0.820  1.2461  0.1363  0.9593
 5383SOL     OW27607   1.063   2.514   2.817 -0.1886 -0.2717  0.4442
 5383SOL    HW127608   1.066   2.420   2.800 -0.2708 -0.0979 -0.5254
 5383SOL    HW227609   1.142   2.519   2.871 -0.2757  2.8177  0.2653
 5384SOL     OW27610   0.030   3.310   9.332  0.0146  0.1071  0.1001
 5384SOL    HW127611   0.126   3.314   9.341  0.0050 -1.4379  0.7956
 5384SOL    HW227612   0.008   3.350   9.417  1.9007 -0.5467  0.9047
 5385SOL     OW27613   1.611   1.760  13.518  0.3739 -0.2612  0.1123
 5385SOL    HW127614   1.616   1.801  13.431 -2.4846 -2.5024 -1.1033
 5385SOL    HW227615   1.556   1.824  13.564 -0.3028 -0.5061 -0.3554
 5386SOL     OW27616   1.386   0.461   3.596  0.0879 -0.6637 -0.1607
 5386SOL    HW127617   1.318   0.415   3.546 -0.6555 -1.2159  1.3759
 5386SOL    HW227618   1.415   0.524   3.530 -2.4279  0.2271 -0.3897
 5387SOL     OW27619   1.048   4.489   3.933  0.1327 -0.0525  0.0006
 5387SOL    HW127620   1.064   4.411   3.881  2.6780 -0.6567  1.6916
 5387SOL    HW227621   0.954   4.505   3.933 -0.4041 -3.4637 -2.5797
 5388SOL     OW27622   4.380   3.654   1.897  0.3488  0.2495 -0.0335
 5388SOL    HW127623   4.372   3.726   1.834 -4.3182  0.8965  1.3256
 5388SOL    HW227624   4.288   3.635   1.912 -0.0301  0.3518 -2.3239
 5389SOL     OW27625   0.185   3.000   4.776 -0.2873  0.2937 -0.3754
 5389SOL    HW127626   0.140   3.036   4.699 -0.2662 -1.6340 -1.2788
 5389SOL    HW227627   0.208   3.089   4.805 -0.0619  0.0919  0.0660
 5390SOL     OW27628   4.217   1.746   2.084 -0.1659  0.0101 -0.3248
 5390SOL    HW127629   4.309   1.768   2.099  0.4483 -3.4132  0.9301
 5390SOL    HW227630   4.226   1.662   2.040  0.7816  0.4565 -0.9828
 5391SOL     OW27631   0.916   4.573   3.280  0.6019  0.6035  0.2967
 5391SOL    HW127632   0.988   4.579   3.217 -0.9991  0.0703 -1.5964
 5391SOL    HW227633   0.948   4.612   3.360 -0.0122  1.9073 -0.0883
 5392SOL     OW27634   3.150   0.601   9.346 -0.7316  0.3152  0.2944
 5392SOL    HW127635   3.116   0.656   9.417  2.0501  0.0324  1.8218
 5392SOL    HW227636   3.225   0.550   9.377  1.1056  1.1688 -2.7643
 5393SOL     OW27637   3.475   3.430  15.244 -0.1502  0.0789  0.3830
 5393SOL    HW127638   3.484   3.386  15.159  1.7122  1.3143 -0.0507
 5393SOL    HW227639   3.564   3.463  15.257 -0.4568  0.6480  1.0225
 5394SOL     OW27640   1.273   3.155   7.632  0.5960 -0.0723 -0.1952
 5394SOL    HW127641   1.226   3.168   7.550 -0.6235  0.4526  0.5940
 5394SOL    HW227642   1.272   3.242   7.672 -1.0409 -0.5550  0.8162
 5395SOL     OW27643   2.806   3.071   2.971  0.2363  0.2629  0.1830
 5395SOL    HW127644   2.834   3.079   3.062  2.6874 -0.3393 -0.5240
 5395SOL    HW227645   2.828   3.152   2.927 -0.8766  0.6128  0.2510
 5396SOL     OW27646   2.319   3.859  11.931  0.0134 -0.4922  0.3752
 5396SOL    HW127647   2.324   3.916  12.007  0.9519 -0.9779  0.6810
 5396SOL    HW227648   2.293   3.926  11.868 -2.4594  0.4532  2.4019
 5397SOL     OW27649   0.143   0.106  15.371  0.0961 -0.1338  0.3620
 5397SOL    HW127650   0.129   0.026  15.320 -1.2277  0.8249 -0.7737
 5397SOL    HW227651   0.232   0.134  15.349  0.2191 -0.4235  0.4813
 5398SOL     OW27652   3.115   4.319  14.877  0.6470 -0.2213  0.2824
 5398SOL    HW127653   3.186   4.314  14.813  1.5486 -1.6995  1.4119
 5398SOL    HW227654   3.116   4.411  14.903 -0.2446 -0.2142  0.2975
 5399SOL     OW27655   2.880   1.815  13.452 -0.1007  0.8403 -0.2829
 5399SOL    HW127656   2.848   1.735  13.496  1.8334  0.3797  0.2879
 5399SOL    HW227657   2.925   1.772  13.380  0.0763  1.5001 -0.5630
 5400SOL     OW27658   2.053   0.214   6.231  0.1790  0.3420  0.1145
 5400SOL    HW127659   2.004   0.133   6.246 -1.6610  1.3027 -0.6690
 5400SOL    HW227660   2.023   0.254   6.149  1.7223  0.7130 -0.2635
 5401SOL     OW27661   0.014   4.262  17.052 -0.4557  0.0299  0.3559
 5401SOL    HW127662   4.697   4.236  16.969 -0.2376  2.7883 -0.6039
 5401SOL    HW227663   0.083   4.312  17.010 -0.2351 -2.2888 -2.0663
 5402SOL     OW27664   2.588   0.243   9.339 -0.1483 -0.4355  0.0282
 5402SOL    HW127665   2.584   0.237   9.243 -1.2978 -0.8020  0.1034
 5402SOL    HW227666   2.500   0.237   9.375  0.5934 -0.8124  1.7770
 5403SOL     OW27667   0.973   1.325   0.605 -0.6152 -0.1385 -1.1165
 5403SOL    HW127668   0.945   1.283   0.686  0.7305 -0.0502 -0.6051
 5403SOL    HW227669   1.019   1.250   0.568  0.1641  0.3712 -1.1781
 5404SOL     OW27670   3.612   3.206   6.921 -0.1392  0.3519  0.3578
 5404SOL    HW127671   3.705   3.226   6.914 -0.3586  0.4290 -2.3862
 5404SOL    HW227672   3.620   3.128   6.976  1.1287  1.3695  1.6106
 5405SOL     OW27673   2.030   4.471  11.969 -0.1659 -0.0833 -0.2008
 5405SOL    HW127674   2.003   4.438  11.883 -1.4233 -1.0203  0.5451
 5405SOL    HW227675   1.963   4.539  11.978  0.6211  0.5417  0.9699
 5406SOL     OW27676   2.829   2.819   3.869 -0.6797 -0.2554 -0.4567
 5406SOL    HW127677   2.921   2.806   3.846 -0.3524  1.9755 -0.4732
 5406SOL    HW227678   2.834   2.900   3.921  1.1312 -0.1726 -0.7568
 5407SOL     OW27679   0.705   2.841   3.991 -0.0187  0.2631 -0.1496
 5407SOL    HW127680   0.714   2.908   4.059  1.3019  0.8941 -0.9554
 5407SOL    HW227681   0.787   2.842   3.943 -0.6611 -0.3806 -1.2634
 5408SOL     OW27682   1.052   1.846  10.966 -0.6162  0.9462 -0.3493
 5408SOL    HW127683   0.978   1.786  10.956  0.2125 -0.2795  0.8301
 5408SOL    HW227684   1.006   1.900  11.031 -0.1579  0.9299 -0.0099
 5409SOL     OW27685   4.720   3.755  15.573  0.3173 -0.1299  0.4865
 5409SOL    HW127686   0.000   3.806  15.493  0.5276  0.1158  0.6561
 5409SOL    HW227687   4.683   3.820  15.632 -0.2968  0.7846 -0.9061
 5410SOL     OW27688   3.937   0.657   5.840 -0.5345  0.3494  0.4854
 5410SOL    HW127689   3.917   0.598   5.767  1.2925  1.5111 -0.9138
 5410SOL    HW227690   3.982   0.727   5.793  0.2103 -1.9207 -2.1838
 5411SOL     OW27691   1.636   3.724   7.398 -0.2859  0.0002 -0.2061
 5411SOL    HW127692   1.566   3.685   7.450  0.3203 -1.9399 -0.8627
 5411SOL    HW227693   1.709   3.722   7.459  0.6393 -2.9668 -1.4339
 5412SOL     OW27694   4.035   3.484   7.412 -0.3163 -0.4813  0.0230
 5412SOL    HW127695   3.987   3.461   7.492 -0.0128 -1.2899 -0.0312
 5412SOL    HW227696   3.978   3.468   7.337 -0.9687  0.7350  0.2450
 5413SOL     OW27697   0.555   0.774   2.590  0.1017 -0.0177  0.4225
 5413SOL    HW127698   0.497   0.699   2.577  0.0994 -0.1467  1.1948
 5413SOL    HW227699   0.561   0.817   2.505  0.6906 -3.0746 -1.0697
 5414SOL     OW27700   2.360   3.166   9.435 -0.4750  0.0168  0.5703
 5414SOL    HW127701   2.373   3.213   9.518  1.5780 -2.1190  1.4579
 5414SOL    HW227702   2.273   3.189   9.404 -1.1663 -0.3323  2.2673
 5415SOL     OW27703   1.435   3.445   5.714  0.4166 -0.0284  0.0349
 5415SOL    HW127704   1.457   3.477   5.802  0.5174 -1.1768  0.4286
 5415SOL    HW227705   1.346   3.419   5.738 -0.3836  0.5708 -2.3252
 5416SOL     OW27706   3.472   3.279   6.640 -0.4509 -0.2189  0.3895
 5416SOL    HW127707   3.428   3.349   6.591 -1.3410 -0.1262  1.3328
 5416SOL    HW227708   3.550   3.273   6.584 -1.7441 -3.2992 -1.0949
 5417SOL     OW27709   3.983   0.622  17.591  0.6726  0.2697  0.5414
 5417SOL    HW127710   3.999   0.705  17.636  2.2780  1.3537 -1.9724
 5417SOL    HW227711   4.061   0.612  17.535  1.5919  4.1311  1.1278
 5418SOL     OW27712   2.924   0.839   8.425  0.3349 -0.3439 -0.1513
 5418SOL    HW127713   2.975   0.759   8.442 -2.2115 -2.2411 -1.4670
 5418SOL    HW227714   2.918   0.830   8.330 -1.1177  0.6349 -0.1555
 5419SOL     OW27715   1.494   2.567  17.603 -0.0856 -0.5049  0.3285
 5419SOL    HW127716   1.508   2.522  17.520 -1.4688  1.1653 -0.8231
 5419SOL    HW227717   1.400   2.581  17.605  0.1400  0.8450  2.0344
 5420SOL     OW27718   0.786   0.027   9.922 -0.1715 -0.0465 -0.0907
 5420SOL    HW127719   0.705   0.077   9.932  0.2038 -0.1794  3.4732
 5420SOL    HW227720   0.848   0.068   9.982  0.2824 -1.2480  0.2485
 5421SOL     OW27721   2.535   3.067   9.686 -0.2376  0.2991  0.4102
 5421SOL    HW127722   2.477   3.138   9.713 -0.5089 -0.4575  1.8735
 5421SOL    HW227723   2.618   3.114   9.683 -0.7963  1.3211  0.8522
 5422SOL     OW27724   2.830   3.071   8.179 -0.0725 -0.8070 -0.0532
 5422SOL    HW127725   2.875   3.111   8.254  5.2433 -1.7825 -2.6934
 5422SOL    HW227726   2.760   3.016   8.212  1.9246 -1.4797  3.1417
 5423SOL     OW27727   1.349   3.329   8.029 -0.1847 -0.3761 -0.7148
 5423SOL    HW127728   1.437   3.319   8.066 -0.3406 -1.2513 -0.5819
 5423SOL    HW227729   1.291   3.350   8.102  0.2442  3.9091 -1.5986
 5424SOL     OW27730   0.657   1.136  10.347  0.5167  0.1420 -0.1000
 5424SOL    HW127731   0.563   1.125  10.336  0.3075  3.5282 -1.6573
 5424SOL    HW227732   0.669   1.221  10.303 -0.2523  0.5017  0.3847
 5425SOL     OW27733   1.748   0.927   6.950  0.3897 -0.3002  0.0600
 5425SOL    HW127734   1.780   0.900   7.036 -2.5414 -0.0398  1.2278
 5425SOL    HW227735   1.818   0.901   6.890  0.1131  0.0531 -0.4116
 5426SOL     OW27736   0.903   3.922   9.404  0.0127  0.2446  0.1857
 5426SOL    HW127737   0.985   3.960   9.374  1.3224 -2.5289  0.2780
 5426SOL    HW227738   0.929   3.888   9.490 -1.0353  0.1473  0.4689
 5427SOL     OW27739   3.232   0.931   7.710 -0.2190 -0.0322 -0.3111
 5427SOL    HW127740   3.230   0.895   7.621 -0.4124 -1.6647  0.3653
 5427SOL    HW227741   3.220   1.023   7.684 -0.8099 -0.0724 -0.1702
 5428SOL     OW27742   0.677   2.873   7.466 -0.0779  0.5360 -0.2874
 5428SOL    HW127743   0.740   2.945   7.468  1.1680 -0.5448 -0.4025
 5428SOL    HW227744   0.610   2.922   7.514  0.2976 -0.1815  0.9642
 5429SOL     OW27745   1.087   2.775   9.174 -0.2559  0.7330  0.4338
 5429SOL    HW127746   1.048   2.855   9.210  1.2578  1.4417  0.4871
 5429SOL    HW227747   1.011   2.719   9.157  0.1128  0.5207 -0.5040
 5430SOL     OW27748   1.864   0.367   4.045 -0.0020 -0.1009  0.0919
 5430SOL    HW127749   1.840   0.434   4.109  1.4877  1.9424 -1.4943
 5430SOL    HW227750   1.885   0.290   4.097 -1.5319 -0.1815  0.6010
 5431SOL     OW27751   4.533   4.669   4.988 -0.1794 -0.2376  0.4424
 5431SOL    HW127752   4.519   4.575   4.977 -0.2905 -0.0458 -1.1289
 5431SOL    HW227753   4.606   4.679   5.049  0.0805 -0.4405  0.1632
 5432SOL     OW27754   3.081   1.686   6.988  0.7903  0.3553 -0.2974
 5432SOL    HW127755   3.100   1.618   7.052 -1.4300 -0.8955 -0.9854
 5432SOL    HW227756   3.163   1.701   6.940  1.1406 -0.6545 -0.0028
 5433SOL     OW27757   2.813   4.456   6.369  0.2018 -0.1782  0.2295
 5433SOL    HW127758   2.896   4.500   6.389 -0.5267  1.3988 -0.1425
 5433SOL    HW227759   2.818   4.377   6.422 -0.5825  0.1118  0.7407
 5434SOL     OW27760   2.574   3.283   2.936 -0.1912  0.0249 -0.5706
 5434SOL    HW127761   2.566   3.199   2.982 -0.5247  0.9034  0.9601
 5434SOL    HW227762   2.610   3.338   3.005 -0.6638 -0.3596 -0.0132
 5435SOL     OW27763   3.983   0.339  16.197 -0.1763 -0.5171 -0.0700
 5435SOL    HW127764   3.994   0.302  16.110 -1.0774  0.3490 -0.5535
 5435SOL    HW227765   4.051   0.286  16.239  0.2112 -0.2647 -0.3872
 5436SOL     OW27766   2.295   2.037   2.237 -0.0666  0.1315  1.1516
 5436SOL    HW127767   2.248   2.108   2.193  3.8302  1.5408 -0.6886
 5436SOL    HW227768   2.362   2.013   2.174 -1.4778 -0.0294 -0.2956
 5437SOL     OW27769   3.069   4.630   1.718  0.5344 -0.2471  0.1267
 5437SOL    HW127770   3.100   4.720   1.733 -0.9737  0.5939 -1.7883
 5437SOL    HW227771   3.153   4.591   1.692  1.3078  1.0634  0.6444
 5438SOL     OW27772   3.948   3.700   6.335 -0.4292 -0.6600 -0.0314
 5438SOL    HW127773   3.856   3.723   6.346  0.0270  1.9179 -1.5042
 5438SOL    HW227774   3.976   3.791   6.322 -1.2578 -0.2958  0.7122
 5439SOL     OW27775   2.171   1.527  12.426 -0.3954 -0.4128 -0.2101
 5439SOL    HW127776   2.232   1.472  12.378 -1.0968 -1.8262  0.5307
 5439SOL    HW227777   2.182   1.495  12.515 -2.2404 -0.7458 -0.1094
 5440SOL     OW27778   3.614   0.057  14.827 -0.2222  0.4893 -0.0281
 5440SOL    HW127779   3.623   0.124  14.895 -2.3198  0.3778  0.3562
 5440SOL    HW227780   3.623   0.115  14.751  0.5026 -1.0930 -1.1487
 5441SOL     OW27781   1.262   0.795   2.852  0.1870 -0.8054  0.0673
 5441SOL    HW127782   1.240   0.878   2.809 -0.2783 -0.0727  1.7148
 5441SOL    HW227783   1.190   0.740   2.822  1.6582 -2.0074 -1.2803
 5442SOL     OW27784   1.923   3.453  14.869 -0.0147  0.3646 -0.2047
 5442SOL    HW127785   1.899   3.490  14.955  1.2642 -3.6898  1.8723
 5442SOL    HW227786   1.877   3.370  14.855  0.2316  0.0642  0.7559
 5443SOL     OW27787   1.913   4.118   8.794 -0.5217  0.0085  0.0963
 5443SOL    HW127788   1.920   4.103   8.888  0.9413 -0.7814 -0.1393
 5443SOL    HW227789   1.817   4.117   8.789 -0.4135 -1.5473 -1.7437
 5444SOL     OW27790   3.668   0.302  11.713  0.3159  0.0724  0.4213
 5444SOL    HW127791   3.649   0.264  11.799 -1.8457  1.6251  0.6438
 5444SOL    HW227792   3.586   0.344  11.686 -1.4880 -2.7664  1.4511
 5445SOL     OW27793   1.611   0.595   5.182 -0.0580  0.1134  0.0189
 5445SOL    HW127794   1.586   0.518   5.132 -0.3131  1.5215 -2.0220
 5445SOL    HW227795   1.608   0.568   5.274 -0.6970  1.5970  0.4415
 5446SOL     OW27796   3.956   2.239   4.379  0.2186  0.0056  0.0722
 5446SOL    HW127797   3.864   2.232   4.402 -0.1205 -1.4305 -1.8082
 5446SOL    HW227798   3.984   2.150   4.400 -2.5889 -1.0502 -0.7370
 5447SOL     OW27799   4.581   3.163   8.895 -0.2440 -0.0727 -0.1001
 5447SOL    HW127800   4.589   3.230   8.963 -2.7727  1.0696 -0.9471
 5447SOL    HW227801   4.555   3.084   8.943  2.4348 -0.0785  1.3717
 5448SOL     OW27802   0.490   0.633   4.402 -0.2484  0.2310  0.4228
 5448SOL    HW127803   0.530   0.697   4.344 -3.0665 -1.0459 -2.8780
 5448SOL    HW227804   0.544   0.645   4.481 -1.6037  1.1786  1.2139
 5449SOL     OW27805   3.919   3.314   3.667 -0.1310 -0.1424 -0.0229
 5449SOL    HW127806   3.989   3.282   3.725  0.2205  1.1056  0.2349
 5449SOL    HW227807   3.953   3.403   3.656  1.9195 -0.5725  2.7852
 5450SOL     OW27808   1.920   0.899   3.348 -0.2296 -0.1699 -0.2145
 5450SOL    HW127809   1.836   0.946   3.352 -0.2163 -0.1452 -0.2274
 5450SOL    HW227810   1.957   0.966   3.290  0.4280  1.1062  1.7094
 5451SOL     OW27811   0.874   2.102   6.200  0.1286  0.2976  0.2764
 5451SOL    HW127812   0.836   2.144   6.123  1.6097 -0.2635 -0.7624
 5451SOL    HW227813   0.796   2.104   6.254 -0.2708 -0.4620 -0.2779
 5452SOL     OW27814   1.785   2.276   3.873  0.6512  0.0803  0.6627
 5452SOL    HW127815   1.774   2.371   3.871 -1.4903 -0.1717  0.6771
 5452SOL    HW227816   1.862   2.270   3.929  1.4821  0.2352 -0.4553
 5453SOL     OW27817   1.691   0.995  15.455  0.2647  0.0982 -0.0504
 5453SOL    HW127818   1.741   0.926  15.499  1.2052  0.9672  0.2384
 5453SOL    HW227819   1.679   1.057  15.527 -1.4253  0.9446 -1.0583
 5454SOL     OW27820   4.664   3.763   4.083 -0.3681  0.1596  0.1953
 5454SOL    HW127821   0.008   3.830   4.088  1.0144 -1.2150 -0.5676
 5454SOL    HW227822   4.634   3.777   3.993 -1.4323 -0.8123  0.3957
 5455SOL     OW27823   0.438   0.600   3.690  0.2153  0.5676  1.0795
 5455SOL    HW127824   0.441   0.662   3.763  3.1680 -0.4084  1.7674
 5455SOL    HW227825   0.369   0.645   3.640 -0.2425 -0.5912  0.6746
 5456SOL     OW27826   3.018   2.531   9.756  0.6989  0.0244  0.0611
 5456SOL    HW127827   3.050   2.529   9.846 -1.4293  4.0325  0.8958
 5456SOL    HW227828   2.927   2.506   9.767  1.7070 -3.0665  1.2374
 5457SOL     OW27829   3.836   2.007   7.853 -0.2436  0.2294  0.1151
 5457SOL    HW127830   3.846   2.097   7.822 -1.6208  0.7832  1.2865
 5457SOL    HW227831   3.869   2.015   7.942 -1.6028  0.9809  0.5510
 5458SOL     OW27832   3.866   2.363   6.363 -0.1730 -0.4156  0.2755
 5458SOL    HW127833   3.919   2.284   6.376  1.1493  0.4311  0.1351
 5458SOL    HW227834   3.939   2.421   6.342 -0.5914 -0.0759 -0.2311
 5459SOL     OW27835   0.284   0.477   9.863  0.8342 -0.2495  0.0618
 5459SOL    HW127836   0.305   0.385   9.880 -0.4931 -0.8838 -1.7937
 5459SOL    HW227837   0.212   0.488   9.926  0.9850  1.1544 -0.0130
 5460SOL     OW27838   1.547   0.382   5.039  0.1860  0.4215 -0.2625
 5460SOL    HW127839   1.601   0.308   5.011 -2.6174 -1.0364 -1.8207
 5460SOL    HW227840   1.486   0.330   5.092 -0.7905  0.9778 -0.8475
 5461SOL     OW27841   1.754   2.783   9.083  0.8852  0.1768 -0.1752
 5461SOL    HW127842   1.846   2.802   9.067  0.4894 -1.1053 -3.9882
 5461SOL    HW227843   1.745   2.800   9.177 -1.7607  0.8439 -0.5405
 5462SOL     OW27844   1.159   1.244  17.234 -0.1033 -0.1338 -0.5368
 5462SOL    HW127845   1.071   1.205  17.241  0.0748  0.2282  3.7139
 5462SOL    HW227846   1.179   1.239  17.328 -0.1065 -1.5271 -0.6056
 5463SOL     OW27847   3.184   0.483   6.253 -0.2272  0.3689 -0.6518
 5463SOL    HW127848   3.230   0.544   6.310 -2.7057  0.9371  0.7542
 5463SOL    HW227849   3.099   0.473   6.296 -0.6400 -0.5803 -1.6721
 5464SOL     OW27850   0.222   0.300   5.218 -0.3235 -0.4293 -0.0531
 5464SOL    HW127851   0.146   0.351   5.247  0.3352  1.2553 -1.2990
 5464SOL    HW227852   0.174   0.217   5.213  1.2401 -1.3818  0.6915
 5465SOL     OW27853   1.037   2.185   4.449 -0.0920 -0.0047  0.2926
 5465SOL    HW127854   1.054   2.101   4.405  2.0880  0.6653 -0.1600
 5465SOL    HW227855   1.046   2.246   4.377 -0.7568 -1.4046 -0.9689
 5466SOL     OW27856   1.319   1.469   6.605  0.1634 -0.0819 -0.0520
 5466SOL    HW127857   1.393   1.527   6.624  1.1593 -1.1210 -0.7729
 5466SOL    HW227858   1.257   1.519   6.658 -1.2901  0.4288 -2.2346
 5467SOL     OW27859   2.683   3.318   3.188 -0.0182  0.1873 -0.1152
 5467SOL    HW127860   2.765   3.367   3.177  0.6023 -0.5008  1.4854
 5467SOL    HW227861   2.716   3.233   3.216  0.0807  0.5865  0.9781
 5468SOL     OW27862   2.667   1.974   3.437  0.2341 -0.1698  0.3747
 5468SOL    HW127863   2.694   1.911   3.504 -0.5157  1.0475  1.8272
 5468SOL    HW227864   2.642   1.905   3.376  0.0302 -2.5105  3.0521
 5469SOL     OW27865   3.217   4.133   6.798  0.0927  0.0823  0.1886
 5469SOL    HW127866   3.278   4.059   6.787 -0.6501 -0.5663  0.4618
 5469SOL    HW227867   3.238   4.145   6.891  3.6141 -1.2983 -0.4039
 5470SOL     OW27868   3.336   0.712  17.435  0.0783  0.1677  0.3513
 5470SOL    HW127869   3.395   0.655  17.385  1.7708 -0.8598  3.4600
 5470SOL    HW227870   3.290   0.762  17.367 -1.8204  1.1715  2.3752
 5471SOL     OW27871   4.231   2.255   3.082  0.2947 -0.8854  0.0996
 5471SOL    HW127872   4.246   2.316   3.009 -0.0078 -1.4457 -0.4327
 5471SOL    HW227873   4.234   2.175   3.030  0.2376 -0.2191 -0.9364
 5472SOL     OW27874   4.405   4.010   5.395  0.3703  0.6721 -0.0127
 5472SOL    HW127875   4.485   3.959   5.397  0.0217  0.2170  2.0290
 5472SOL    HW227876   4.374   3.997   5.485  1.9876  0.5658  0.5270
 5473SOL     OW27877   4.679   4.684   3.317  0.2945 -0.2662  0.0919
 5473SOL    HW127878   4.622   4.647   3.250 -0.2781  0.6413  0.0734
 5473SOL    HW227879   0.015   0.005   3.259 -0.0178 -0.4360 -0.3664
 5474SOL     OW27880   1.139   1.890   7.269  0.2665 -0.1750 -0.4890
 5474SOL    HW127881   1.181   1.961   7.318 -0.4234 -1.0253  1.3179
 5474SOL    HW227882   1.192   1.897   7.189  0.0886  1.2109 -0.4885
 5475SOL     OW27883   4.570   4.563   7.533  0.3864  0.0810 -0.2713
 5475SOL    HW127884   4.583   4.583   7.626  0.6636  1.7853 -0.6727
 5475SOL    HW227885   4.487   4.516   7.536  0.2360  0.6935  4.3836
 5476SOL     OW27886   3.471   4.166   8.055 -0.3329 -0.1029 -0.3149
 5476SOL    HW127887   3.429   4.228   7.996 -0.3021  1.0033  0.8161
 5476SOL    HW227888   3.484   4.229   8.127 -0.4715 -0.8040  0.3274
 5477SOL     OW27889   1.007   2.320   4.672  0.0803  0.3360 -0.3245
 5477SOL    HW127890   0.981   2.408   4.642  3.7176  1.5204 -0.0220
 5477SOL    HW227891   1.007   2.273   4.589 -0.1228 -1.0807  0.4915
 5478SOL     OW27892   0.317   1.792   8.291  0.1213  0.2617 -0.0382
 5478SOL    HW127893   0.321   1.810   8.385 -2.2635  1.2997 -0.1482
 5478SOL    HW227894   0.331   1.697   8.287 -1.8803 -0.0814  0.7291
 5479SOL     OW27895   0.850   1.578   1.640  0.0438 -0.1332 -0.1476
 5479SOL    HW127896   0.856   1.620   1.554  2.3005  1.3659  0.7389
 5479SOL    HW227897   0.769   1.612   1.677 -0.7361  0.5575 -2.4522
 5480SOL     OW27898   2.891   3.500   8.543  0.7464  0.5178  0.4011
 5480SOL    HW127899   2.867   3.566   8.609  0.0065  1.1502 -0.4889
 5480SOL    HW227900   2.979   3.525   8.514 -0.4937 -0.9561 -4.6499
 5481SOL     OW27901   4.336   0.566  10.536  0.3151 -0.0088  0.0665
 5481SOL    HW127902   4.341   0.662  10.533  2.5916 -0.1833 -1.3181
 5481SOL    HW227903   4.341   0.555  10.631 -1.3617 -1.4470 -0.0112
 5482SOL     OW27904   0.960   1.026  15.599 -0.0342 -0.5581  0.1922
 5482SOL    HW127905   0.890   1.029  15.533 -1.3355  1.4762  1.6560
 5482SOL    HW227906   1.034   1.006  15.543 -1.2191 -2.2255 -0.7701
 5483SOL     OW27907   1.465   2.397  15.689  0.0056 -0.3870  0.0119
 5483SOL    HW127908   1.534   2.450  15.731  1.6602 -1.6881 -1.0640
 5483SOL    HW227909   1.397   2.461  15.669 -0.1933 -0.1784  1.3590
 5484SOL     OW27910   0.167   3.419   8.725 -0.2714  0.0045  0.4455
 5484SOL    HW127911   0.204   3.455   8.806  0.1097 -0.5547  0.5190
 5484SOL    HW227912   0.129   3.337   8.756 -1.2778  0.5710  0.7219
 5485SOL     OW27913   1.744   3.290  15.927  0.2378 -0.8020  0.3877
 5485SOL    HW127914   1.706   3.211  15.889  0.4111 -0.9371  0.4936
 5485SOL    HW227915   1.783   3.250  16.005  2.0769  0.6656  0.2549
 5486SOL     OW27916   2.021   1.617  14.144  0.1134 -0.7447  0.7810
 5486SOL    HW127917   2.097   1.576  14.185 -0.2002  0.1423  2.2452
 5486SOL    HW227918   1.990   1.676  14.213  0.4763  0.1191  0.2091
 5487SOL     OW27919   4.367   2.199   0.860  0.0026  0.3288 -0.7852
 5487SOL    HW127920   4.437   2.247   0.816  1.6258 -0.9310  0.4203
 5487SOL    HW227921   4.325   2.267   0.914 -2.0374 -0.6572 -1.1241
 5488SOL     OW27922   3.840   0.059   5.748  0.7068 -0.2720 -0.2306
 5488SOL    HW127923   3.895   0.101   5.814 -0.8492 -0.7256  1.3436
 5488SOL    HW227924   3.896   4.708   5.729  0.3889 -0.6597  0.3641
 5489SOL     OW27925   4.326   2.838   5.705 -0.0870  0.1685 -0.2550
 5489SOL    HW127926   4.417   2.834   5.733 -0.4450 -2.1765  0.5965
 5489SOL    HW227927   4.316   2.926   5.670  1.0516  1.9844  4.0411
 5490SOL     OW27928   3.608   2.090   1.752  0.1219  0.9217 -0.1443
 5490SOL    HW127929   3.655   2.138   1.684 -0.7371  3.6508  1.2009
 5490SOL    HW227930   3.646   2.123   1.833 -2.0871  2.9711  0.0489
 5491SOL     OW27931   4.207   1.795   6.092  0.0326  0.3280 -0.7844
 5491SOL    HW127932   4.301   1.775   6.088 -0.6753 -3.0767  0.0933
 5491SOL    HW227933   4.210   1.890   6.079 -0.3766  0.2427 -1.4789
 5492SOL     OW27934   0.482   3.993   3.750 -0.2287 -0.8058  0.5870
 5492SOL    HW127935   0.406   4.041   3.717  0.4556 -1.2008 -1.5513
 5492SOL    HW227936   0.500   4.044   3.829 -0.4097  2.3391 -1.4245
 5493SOL     OW27937   4.093   0.887   3.022 -0.1593  0.2395 -0.1970
 5493SOL    HW127938   4.156   0.948   3.058 -2.1088  0.2200  3.2309
 5493SOL    HW227939   4.017   0.945   3.022 -0.3870 -0.0368 -2.0341
 5494SOL     OW27940   3.132   2.407   8.035  0.1154  0.2052 -0.1766
 5494SOL    HW127941   3.189   2.335   8.061 -1.0587 -0.4858  0.4694
 5494SOL    HW227942   3.153   2.483   8.089  2.4437  1.4182 -2.7637
 5495SOL     OW27943   2.010   4.570   1.185  0.1109  0.2709  0.4228
 5495SOL    HW127944   2.073   4.512   1.144 -1.2605 -0.3927 -0.7158
 5495SOL    HW227945   1.947   4.514   1.231 -0.8059  0.4071 -0.6698
 5496SOL     OW27946   2.351   2.966   1.817 -0.1158  0.4558  0.2308
 5496SOL    HW127947   2.353   2.890   1.875  0.1134  0.4062  0.1591
 5496SOL    HW227948   2.436   2.998   1.848  0.3386 -0.5370  0.0130
 5497SOL     OW27949   2.733   0.156   5.166  0.3104  0.3359  0.1416
 5497SOL    HW127950   2.643   0.139   5.192 -0.1935  0.3559 -1.6104
 5497SOL    HW227951   2.780   0.102   5.229  0.9100  0.6670 -0.0125
 5498SOL     OW27952   2.309   0.179  14.400 -0.1033 -0.2716  0.1118
 5498SOL    HW127953   2.274   0.090  14.395 -0.8899  0.0848 -0.8554
 5498SOL    HW227954   2.298   0.212  14.311  0.3364  0.7031  0.4206
 5499SOL     OW27955   1.341   3.641   2.649  0.1887  0.5336  0.3890
 5499SOL    HW127956   1.280   3.713   2.635 -0.7066  0.0632  1.8021
 5499SOL    HW227957   1.338   3.635   2.745  2.0906 -1.8367  0.3183
 5500SOL     OW27958   3.256   1.030   1.543 -0.1419 -0.0312 -0.6566
 5500SOL    HW127959   3.272   0.939   1.521  0.6477 -0.7511  2.9016
 5500SOL    HW227960   3.299   1.070   1.467 -0.8950  0.0353 -1.0451
 5501SOL     OW27961   1.720   0.912  14.321 -0.3293  0.6137  0.1994
 5501SOL    HW127962   1.669   0.985  14.286 -0.4587 -0.2471 -1.4032
 5501SOL    HW227963   1.704   0.931  14.413 -4.7922 -0.9463 -0.2810
 5502SOL     OW27964   3.668   2.773   6.767 -0.4146  0.7186  0.4043
 5502SOL    HW127965   3.622   2.843   6.720  0.1200 -0.2580 -1.5609
 5502SOL    HW227966   3.760   2.796   6.758 -0.5409  0.4862 -1.4272
 5503SOL     OW27967   0.618   4.113  10.064  0.2889 -0.0721  0.3815
 5503SOL    HW127968   0.685   4.179  10.050  0.2145 -0.4081 -1.5053
 5503SOL    HW227969   0.667   4.032  10.049  1.2700  0.4628  0.7543
 5504SOL     OW27970   2.385   3.961   9.071  0.2181  0.2710 -0.4121
 5504SOL    HW127971   2.328   3.974   8.995  1.0714  1.7060 -0.8229
 5504SOL    HW227972   2.444   4.033   9.048 -0.8852  0.9786 -1.0598
 5505SOL     OW27973   4.155   0.865   6.576  0.3124  0.2527  0.2303
 5505SOL    HW127974   4.158   0.950   6.621  1.0353 -1.3804  3.2126
 5505SOL    HW227975   4.216   0.809   6.623  0.9142  0.6761 -0.0345
 5506SOL     OW27976   3.230   2.366  10.160  0.6612 -0.1139  0.5674
 5506SOL    HW127977   3.287   2.336  10.089  0.0714 -1.6060  0.7103
 5506SOL    HW227978   3.169   2.426  10.117  1.0654 -1.7662 -2.3453
 5507SOL     OW27979   3.478   0.552  17.645  0.5949 -0.8436 -0.4238
 5507SOL    HW127980   3.500   0.566  17.553 -0.1092 -0.2523 -0.5038
 5507SOL    HW227981   3.501   0.634  17.688  0.6356 -0.6737 -0.7733
 5508SOL     OW27982   2.396   3.375   3.749 -0.3681  0.3115 -0.4361
 5508SOL    HW127983   2.358   3.429   3.681 -1.5453  0.3299  0.2289
 5508SOL    HW227984   2.374   3.289   3.715  1.3664  0.0129 -0.8318
 5509SOL     OW27985   0.931   2.739  16.049  0.0787 -0.2807  0.8113
 5509SOL    HW127986   0.936   2.692  16.132  0.0309  0.3807  1.1874
 5509SOL    HW227987   1.006   2.702  16.003  1.7868  1.0396  2.5715
 5510SOL     OW27988   0.327   0.547   4.603  0.2055 -0.2173  0.5801
 5510SOL    HW127989   0.377   0.556   4.522 -1.2436  0.6573 -0.2027
 5510SOL    HW227990   0.369   0.610   4.662  0.8134 -1.3000  1.3368
 5511SOL     OW27991   2.849   0.243   4.521  0.1519 -0.0165  0.2098
 5511SOL    HW127992   2.856   0.153   4.553  0.7771  0.6322  1.8822
 5511SOL    HW227993   2.762   0.260   4.557 -0.5490 -0.4576 -1.2642
 5512SOL     OW27994   4.131   2.156  16.506  0.4245 -0.0292 -0.2049
 5512SOL    HW127995   4.114   2.232  16.562 -3.4623 -1.4511  0.5738
 5512SOL    HW227996   4.220   2.179  16.480  1.4655 -1.5009  2.1121
 5513SOL     OW27997   1.967   2.412   3.161  0.2615 -0.0644  0.4163
 5513SOL    HW127998   1.910   2.392   3.087 -1.8478 -0.3381  2.0735
 5513SOL    HW227999   2.055   2.427   3.127 -0.6001  1.2725 -1.2280
 5514SOL     OW28000   1.937   3.896   6.106  0.2468 -0.2023 -0.8708
 5514SOL    HW128001   1.948   3.985   6.072  1.1261 -0.4208 -1.1562
 5514SOL    HW228002   2.027   3.862   6.104  0.4580  0.2400  2.4789
 5515SOL     OW28003   4.072   2.261  16.994 -0.5009  0.1334  0.1044
 5515SOL    HW128004   4.040   2.290  17.080 -1.2333 -2.2490  0.6328
 5515SOL    HW228005   4.061   2.166  17.000 -0.0022  0.0424 -0.4949
 5516SOL     OW28006   3.114   0.668   1.611  0.0478  0.3310  0.0276
 5516SOL    HW128007   3.055   0.737   1.641 -1.3037 -0.5378 -0.5920
 5516SOL    HW228008   3.184   0.712   1.562 -1.5990  1.2515 -1.5199
 5517SOL     OW28009   3.590   2.880  16.131 -0.9503 -0.1579  0.3413
 5517SOL    HW128010   3.659   2.927  16.177 -0.1919 -1.5857  0.6511
 5517SOL    HW228011   3.514   2.881  16.190  0.7924 -1.5466  2.6021
 5518SOL     OW28012   3.157   0.445  11.454 -0.2561  0.3355  0.5335
 5518SOL    HW128013   3.127   0.354  11.452 -1.6108  0.8031 -0.2615
 5518SOL    HW228014   3.082   0.482  11.500 -0.5522  0.1389  0.2112
 5519SOL     OW28015   4.112   1.694  17.283  0.0126 -0.5456  0.5770
 5519SOL    HW128016   4.162   1.622  17.245 -0.3208 -1.3909  1.7429
 5519SOL    HW228017   4.025   1.655  17.291 -0.5707  0.4493 -1.0880
 5520SOL     OW28018   3.163   4.528   4.334 -0.1105  0.3648 -0.0248
 5520SOL    HW128019   3.072   4.536   4.363 -1.2546 -1.7458 -3.0491
 5520SOL    HW228020   3.150   4.470   4.259 -0.8741  0.7265 -0.1704
 5521SOL     OW28021   0.086   3.977   0.266  0.0998 -0.1761 -0.6721
 5521SOL    HW128022   0.112   4.019   0.348 -0.2709  2.8202 -2.0600
 5521SOL    HW228023   4.720   3.955   0.289 -0.2415  0.1501 -1.6877
 5522SOL     OW28024   3.034   2.423  14.844  0.3223  0.0805 -0.2217
 5522SOL    HW128025   3.101   2.470  14.794 -1.0228  0.4673 -1.6836
 5522SOL    HW228026   2.954   2.432  14.791 -0.5317  1.6606  1.3657
 5523SOL     OW28027   2.353   0.997   4.183 -0.0746 -0.3998 -0.4848
 5523SOL    HW128028   2.375   0.936   4.113 -3.4191 -2.9942  0.7631
 5523SOL    HW228029   2.261   0.973   4.179 -0.5782  1.3955  0.3811
 5524SOL     OW28030   3.033   3.964   2.817 -0.0890  0.0728  0.1549
 5524SOL    HW128031   2.981   3.979   2.895 -1.4671 -1.1739 -0.5190
 5524SOL    HW228032   2.971   3.903   2.777 -0.9400 -0.9778  3.0730
 5525SOL     OW28033   0.952   4.474   9.474 -0.0617  0.1998 -0.2575
 5525SOL    HW128034   0.917   4.562   9.458 -2.0104 -0.2246  1.6212
 5525SOL    HW228035   1.039   4.496   9.442  0.1716  1.0253  0.9236
 5526SOL     OW28036   2.290   2.224   3.113  0.1512  0.2077  0.1437
 5526SOL    HW128037   2.303   2.317   3.098  1.8708 -0.1755 -0.7323
 5526SOL    HW228038   2.369   2.205   3.163 -0.4084  0.9286  1.2892
 5527SOL     OW28039   0.690   3.373   2.296 -0.2576 -0.0599  0.1473
 5527SOL    HW128040   0.663   3.310   2.229 -3.2781  0.4615  0.9042
 5527SOL    HW228041   0.613   3.428   2.310  0.7638  1.1810  0.9553
 5528SOL     OW28042   2.754   3.471   7.315  0.2092 -0.4396 -0.4056
 5528SOL    HW128043   2.659   3.463   7.319  0.3633 -1.3225  1.8550
 5528SOL    HW228044   2.766   3.557   7.275  3.4970 -0.6992  0.0137
 5529SOL     OW28045   1.869   3.086  15.640  0.0588  0.3457  0.2782
 5529SOL    HW128046   1.920   3.006  15.643  0.7969  0.8437  0.8353
 5529SOL    HW228047   1.778   3.063  15.658 -0.1928  0.1669 -1.2028
 5530SOL     OW28048   3.972   3.998   5.704 -0.1368  0.4060  0.8196
 5530SOL    HW128049   4.032   3.959   5.768 -1.4562  0.4790  2.1081
 5530SOL    HW228050   3.934   3.920   5.665  0.6946  0.2013  0.4005
 5531SOL     OW28051   0.184   0.247   3.935  0.8825 -0.1628  0.3660
 5531SOL    HW128052   0.104   0.194   3.927 -0.0260  1.6615 -2.4618
 5531SOL    HW228053   0.231   0.221   3.857 -2.2456  1.9451 -2.2137
 5532SOL     OW28054   0.382   3.098   5.428  0.2001  0.1327 -0.5188
 5532SOL    HW128055   0.452   3.125   5.368  1.5298 -2.7776 -0.2299
 5532SOL    HW228056   0.438   3.047   5.485 -1.0088 -0.2521  0.3358
 5533SOL     OW28057   4.506   3.964   2.759 -0.0619  0.2674 -0.0816
 5533SOL    HW128058   4.428   3.914   2.738  0.7667 -0.5933 -1.1277
 5533SOL    HW228059   4.553   3.904   2.816 -1.0322  0.7499  1.2184
 5534SOL     OW28060   3.286   3.911   6.002 -0.0474  0.1223  0.1472
 5534SOL    HW128061   3.310   3.929   5.911 -1.3299 -3.8510 -0.9658
 5534SOL    HW228062   3.248   3.995   6.026 -3.9273 -1.1571 -1.4306
 5535SOL     OW28063   2.346   2.403   0.337  0.1790 -0.2018 -0.5130
 5535SOL    HW128064   2.440   2.416   0.329  0.3002 -0.4188  0.5490
 5535SOL    HW228065   2.330   2.488   0.377  1.6540 -0.2228  0.1119
 5536SOL     OW28066   0.765   1.579   2.208  0.4639  0.2769  0.0911
 5536SOL    HW128067   0.778   1.582   2.303 -0.8814 -0.3349  0.2863
 5536SOL    HW228068   0.839   1.526   2.179  0.3926  1.6299 -2.5269
 5537SOL     OW28069   4.649   0.522   3.246 -0.0968  0.2246 -0.5252
 5537SOL    HW128070   4.559   0.491   3.238 -0.1984 -0.3633  2.9394
 5537SOL    HW228071   4.670   0.536   3.154  1.0963  3.1277  0.1913
 5538SOL     OW28072   3.489   1.316   6.761 -0.1016 -0.5976 -0.4167
 5538SOL    HW128073   3.468   1.339   6.670  0.2550  1.1113 -0.0744
 5538SOL    HW228074   3.399   1.326   6.793 -0.2312  2.9806 -1.7798
 5539SOL     OW28075   4.459   2.255   1.608  0.4327  0.2720  0.5913
 5539SOL    HW128076   4.473   2.308   1.687  2.9047 -1.6444  1.4185
 5539SOL    HW228077   4.372   2.228   1.636  0.7787 -1.4428 -0.0127
 5540SOL     OW28078   3.377   2.771  16.723  0.3085  0.0698  0.2797
 5540SOL    HW128079   3.452   2.801  16.673  0.7276 -0.7290  0.4194
 5540SOL    HW228080   3.339   2.850  16.761  0.3923  0.0574  0.3899
 5541SOL     OW28081   1.570   1.256  12.328 -0.1743  0.1281 -0.8968
 5541SOL    HW128082   1.665   1.259  12.337 -0.0833 -2.3163 -0.9567
 5541SOL    HW228083   1.561   1.255  12.233  1.4449  1.9923 -1.0685
 5542SOL     OW28084   2.450   3.490   6.049  0.4372  0.2655 -0.3621
 5542SOL    HW128085   2.369   3.494   5.999  0.1859 -2.2986 -0.1641
 5542SOL    HW228086   2.429   3.427   6.119  3.5549 -0.1633  0.1943
 5543SOL     OW28087   1.523   2.175   9.130  0.0221  0.4909  0.0393
 5543SOL    HW128088   1.515   2.092   9.177 -0.4334  0.2735 -0.4231
 5543SOL    HW228089   1.445   2.224   9.155 -0.2630  0.6673 -1.2075
 5544SOL     OW28090   3.216   3.670   4.603  0.3266 -0.2899 -0.1200
 5544SOL    HW128091   3.144   3.727   4.629  1.3155  0.6165  0.6358
 5544SOL    HW228092   3.248   3.632   4.685  2.4858 -0.6794 -1.1514
 5545SOL     OW28093   2.436   1.031   0.117  0.4190  0.3780 -0.4796
 5545SOL    HW128094   2.370   0.967   0.143  1.1210 -0.6075 -1.1147
 5545SOL    HW228095   2.518   1.015   0.163  0.4408  1.3337 -0.1914
 5546SOL     OW28096   3.695   2.655   5.376  0.5188 -0.2502  0.5318
 5546SOL    HW128097   3.614   2.617   5.410 -1.3839  0.8364 -2.8507
 5546SOL    HW228098   3.673   2.637   5.285  0.7682 -0.5405  0.5275
 5547SOL     OW28099   3.128   0.252   9.110 -0.1667  0.3250 -0.2844
 5547SOL    HW128100   3.130   0.218   9.200  0.2455  1.0530 -0.0147
 5547SOL    HW228101   3.052   0.310   9.122  0.3492  0.8623  0.4282
 5548SOL     OW28102   1.291   0.600  10.816 -0.2259  0.5990 -0.4887
 5548SOL    HW128103   1.237   0.526  10.844  2.0104 -0.3830  1.1935
 5548SOL    HW228104   1.377   0.573  10.849  0.1187  2.5984  0.2516
 5549SOL     OW28105   3.931   3.517   5.504 -0.2369  0.2015  0.1903
 5549SOL    HW128106   4.010   3.471   5.474 -1.9122 -2.3334 -0.3719
 5549SOL    HW228107   3.878   3.518   5.425  2.6370  0.3455 -1.7400
 5550SOL     OW28108   4.713   3.843   1.835 -0.2239  0.1209  0.3674
 5550SOL    HW128109   0.023   3.916   1.783 -2.2136  1.2399  0.5753
 5550SOL    HW228110   4.694   3.789   1.758  2.3330 -0.4959  0.1753
 5551SOL     OW28111   3.970   3.481  13.212  0.1911 -0.4766 -0.0591
 5551SOL    HW128112   3.877   3.492  13.227 -0.3252 -1.9950 -2.1522
 5551SOL    HW228113   3.982   3.519  13.125  1.3943 -0.9477 -0.1066
 5552SOL     OW28114   0.337   0.979   4.812  0.2332  0.2055 -0.2224
 5552SOL    HW128115   0.429   0.954   4.815 -0.0767 -0.8329  0.5390
 5552SOL    HW228116   0.326   1.065   4.852  0.2769 -0.2422  0.7355
 5553SOL     OW28117   3.031   3.774  11.111  0.1186  0.2547 -0.4921
 5553SOL    HW128118   3.024   3.814  11.024  2.5065  0.1224 -0.7287
 5553SOL    HW228119   2.938   3.754  11.121  0.4022 -0.6831  0.2971
 5554SOL     OW28120   2.395   4.402   7.794  0.0922 -0.0615 -0.7685
 5554SOL    HW128121   2.377   4.472   7.731 -2.3615 -0.0979 -0.1064
 5554SOL    HW228122   2.490   4.409   7.798  0.0867  0.5408 -1.5304
 5555SOL     OW28123   2.210   0.602   6.361  0.2672 -0.0191  0.4872
 5555SOL    HW128124   2.163   0.683   6.343  0.0128 -0.4266 -0.7048
 5555SOL    HW228125   2.137   0.543   6.341  0.0983  0.4231 -0.1882
 5556SOL     OW28126   2.260   0.631   2.290 -0.2499 -0.6137 -0.4709
 5556SOL    HW128127   2.264   0.684   2.369  1.3005 -0.8885 -0.3604
 5556SOL    HW228128   2.168   0.637   2.264 -0.2507 -0.7174 -0.4919
 5557SOL     OW28129   3.010   2.594   7.826  0.3203  0.0968 -0.0600
 5557SOL    HW128130   3.068   2.527   7.862 -1.7639 -1.7722 -0.1897
 5557SOL    HW228131   3.076   2.649   7.783  1.9546 -2.1264 -0.3694
 5558SOL     OW28132   1.673   4.404   5.386  0.5956 -0.0203  0.0306
 5558SOL    HW128133   1.756   4.436   5.422  0.6228  0.5699 -0.5446
 5558SOL    HW228134   1.664   4.458   5.308 -2.1268  1.9888  1.7354
 5559SOL     OW28135   2.237   3.959  10.043  0.1958 -1.0022 -0.1137
 5559SOL    HW128136   2.221   3.903  10.118  1.9491  1.8104  2.3527
 5559SOL    HW228137   2.154   3.946   9.996  0.7883 -2.3330 -0.7857
 5560SOL     OW28138   4.138   1.908   6.334 -0.6410  0.1496 -0.2789
 5560SOL    HW128139   4.196   1.859   6.391 -0.5223 -0.4412 -0.9049
 5560SOL    HW228140   4.153   1.852   6.258  0.9012 -0.1303  0.2314
 5561SOL     OW28141   4.178   1.479  17.111 -0.2740 -0.4949 -0.3943
 5561SOL    HW128142   4.170   1.543  17.040  1.3978  0.6672  0.4676
 5561SOL    HW228143   4.247   1.423  17.075 -0.2745 -0.6262 -0.1888
 5562SOL     OW28144   3.321   1.598   1.299  0.1049 -0.4000 -0.3130
 5562SOL    HW128145   3.317   1.649   1.218 -2.3269  0.0806  0.1058
 5562SOL    HW228146   3.259   1.652   1.348  1.4139  0.8873 -0.0826
 5563SOL     OW28147   0.500   0.688   7.068  0.3849 -0.0208  0.6685
 5563SOL    HW128148   0.512   0.596   7.045 -1.5748  0.4868 -2.3113
 5563SOL    HW228149   0.487   0.674   7.162  0.7448  3.0575  1.1904
 5564SOL     OW28150   4.318   2.407   6.961  0.4997  0.5906 -0.0427
 5564SOL    HW128151   4.229   2.370   6.963  0.1418  1.3444 -2.0976
 5564SOL    HW228152   4.321   2.440   6.871  1.2711 -1.3385 -0.7165
 5565SOL     OW28153   0.524   0.599   7.307 -0.2644  0.0060 -0.0632
 5565SOL    HW128154   0.463   0.606   7.381  0.8111 -0.7622  0.8921
 5565SOL    HW228155   0.600   0.556   7.346 -0.3242  2.0659  2.3669
 5566SOL     OW28156   3.992   1.831  17.585 -0.1209 -0.7829 -0.0577
 5566SOL    HW128157   3.952   1.766  17.529 -2.5118 -0.5140  1.3544
 5566SOL    HW228158   4.062   1.778  17.623  0.0847  0.7657  1.7859
 5567SOL     OW28159   0.638   4.651  14.209 -0.6280 -0.1822  0.2173
 5567SOL    HW128160   0.683   4.578  14.166 -1.6168  0.0815 -1.2707
 5567SOL    HW228161   0.550   4.624  14.181 -0.0663  0.5578 -2.2699
 5568SOL     OW28162   3.792   1.974  14.133  0.0703  0.2903  0.0378
 5568SOL    HW128163   3.855   2.040  14.103 -1.2011  1.0076 -1.0350
 5568SOL    HW228164   3.716   1.994  14.079  0.0727 -1.4952 -0.6265
 5569SOL     OW28165   3.451   3.832   3.090  0.3792 -0.0313  0.2691
 5569SOL    HW128166   3.522   3.876   3.042 -0.0750 -0.3670 -0.7095
 5569SOL    HW228167   3.385   3.837   3.021  2.3802  0.2832 -1.6430
 5570SOL     OW28168   4.335   3.301   9.741 -0.5472 -0.3012  0.5080
 5570SOL    HW128169   4.252   3.274   9.701  0.1167  0.7039 -1.5131
 5570SOL    HW228170   4.322   3.275   9.832  1.6985  0.7881  1.1427
 5571SOL     OW28171   2.638   0.353   4.139  0.3373  0.6494  0.0366
 5571SOL    HW128172   2.703   0.421   4.123  0.3487  0.4432 -0.7642
 5571SOL    HW228173   2.696   0.291   4.183 -0.1573  0.7304  0.7961
 5572SOL     OW28174   1.248   3.671   7.081  0.1221 -0.2059  0.3010
 5572SOL    HW128175   1.186   3.719   7.026 -0.6115 -2.8872 -1.2000
 5572SOL    HW228176   1.271   3.739   7.145 -1.2582 -0.0765  0.6661
 5573SOL     OW28177   2.663   2.866   0.945 -0.0624 -0.1165  0.2458
 5573SOL    HW128178   2.753   2.834   0.953 -0.2425 -0.5582  0.4483
 5573SOL    HW228179   2.636   2.843   0.856  3.9887 -2.1429 -0.4492
 5574SOL     OW28180   0.208   1.617   6.730 -0.2498  0.5717 -0.7111
 5574SOL    HW128181   0.132   1.582   6.683  0.7462 -0.0341 -1.8815
 5574SOL    HW228182   0.279   1.556   6.707 -0.7852  0.3271 -1.7166
 5575SOL     OW28183   2.005   1.142   7.853  0.3224 -0.0540 -0.5582
 5575SOL    HW128184   1.980   1.107   7.768  1.4742 -1.5724 -0.2706
 5575SOL    HW228185   1.991   1.235   7.833 -0.9477 -0.7990 -3.2110
 5576SOL     OW28186   0.178   0.270   9.436 -0.2324  0.0301 -0.3758
 5576SOL    HW128187   0.148   0.357   9.463 -0.6161  0.0693 -0.9341
 5576SOL    HW228188   0.110   0.230   9.383  0.1058 -2.9077  1.3779
 5577SOL     OW28189   1.435   3.736   8.281  0.2178 -0.4876  0.5928
 5577SOL    HW128190   1.400   3.824   8.291  0.9562 -0.3438  1.8657
 5577SOL    HW228191   1.493   3.741   8.357 -0.8519  0.2602  1.3385
 5578SOL     OW28192   2.342   0.203   6.028  0.0480 -0.0619 -0.3479
 5578SOL    HW128193   2.357   0.164   6.115 -0.0467  0.0965 -0.2615
 5578SOL    HW228194   2.353   0.290   6.066 -0.7028 -0.5041  0.8878
 5579SOL     OW28195   0.910   4.003   5.174 -0.8336  0.1039 -0.0588
 5579SOL    HW128196   1.002   3.982   5.157 -0.3961  0.8887  1.3698
 5579SOL    HW228197   0.896   4.074   5.112 -1.3958 -0.4323 -0.5523
 5580SOL     OW28198   0.662   4.234  13.438 -0.0591 -0.1645  0.6150
 5580SOL    HW128199   0.597   4.300  13.412 -0.7488 -1.8750 -1.9934
 5580SOL    HW228200   0.749   4.271  13.423 -0.5343 -0.4310 -2.8048
 5581SOL     OW28201   0.488   0.014   4.284 -0.3334  0.9535  0.2260
 5581SOL    HW128202   0.554   4.699   4.342 -0.8248 -0.8922 -0.4560
 5581SOL    HW228203   0.474   4.660   4.232 -0.2455 -0.1931  1.9101
 5582SOL     OW28204   3.740   3.760   9.092  0.0481  0.1943  0.2761
 5582SOL    HW128205   3.787   3.754   9.175 -0.8022 -0.0019  0.7485
 5582SOL    HW228206   3.681   3.835   9.096  1.1434  1.1271 -1.4736
 5583SOL     OW28207   2.512   3.425   8.295  0.3407  0.0909 -0.2091
 5583SOL    HW128208   2.468   3.480   8.360  1.6507  1.5634 -0.5631
 5583SOL    HW228209   2.506   3.338   8.336 -1.3288  0.0784 -0.4967
 5584SOL     OW28210   3.728   1.062   5.599 -0.0259  0.2415  0.1156
 5584SOL    HW128211   3.710   1.119   5.524 -1.5696  0.3560  0.5870
 5584SOL    HW228212   3.812   1.099   5.627 -0.8838  1.2387  1.3721
 5585SOL     OW28213   2.561   2.565   9.655  0.5294  0.1942 -0.1445
 5585SOL    HW128214   2.632   2.523   9.703 -2.0360 -1.0522  2.5910
 5585SOL    HW228215   2.530   2.488   9.606  2.4958 -0.4131 -0.4398
 5586SOL     OW28216   1.436   4.249   3.436 -0.0513  0.0250 -0.0323
 5586SOL    HW128217   1.511   4.213   3.390 -0.3064 -1.6259  0.8450
 5586SOL    HW228218   1.467   4.232   3.525  1.7553  0.2404 -0.6279
 5587SOL     OW28219   0.735   4.108   3.272 -0.3723 -0.1764  0.4085
 5587SOL    HW128220   0.808   4.108   3.334 -1.5989 -2.1267  1.8858
 5587SOL    HW228221   0.684   4.179   3.311 -2.3821 -0.3049 -1.9964
 5588SOL     OW28222   2.536   0.666  12.654  0.1255  0.2388 -0.5034
 5588SOL    HW128223   2.609   0.725  12.675 -1.0668  1.5156  0.0667
 5588SOL    HW228224   2.510   0.707  12.571  1.8791  0.6576 -0.8541
 5589SOL     OW28225   1.719   3.250   8.697  0.7295 -0.0159  0.1968
 5589SOL    HW128226   1.800   3.231   8.744  0.7989  1.4807  0.6656
 5589SOL    HW228227   1.674   3.307   8.759  1.6042  0.7143  0.1692
 5590SOL     OW28228   3.700   0.499   8.914 -0.3155 -0.0553  0.4986
 5590SOL    HW128229   3.764   0.567   8.935  1.1003 -1.3219  0.2631
 5590SOL    HW228230   3.621   0.539   8.951 -0.0445 -1.0660  2.1260
 5591SOL     OW28231   3.007   0.539   9.781 -0.0754 -0.2787 -0.2997
 5591SOL    HW128232   3.051   0.500   9.705  0.8418  1.6662 -0.7548
 5591SOL    HW228233   3.058   0.506   9.855  0.3681 -0.6590 -0.7696
 5592SOL     OW28234   1.979   4.327   9.360 -0.4869 -0.3454 -0.3468
 5592SOL    HW128235   2.023   4.382   9.426 -0.5074 -0.8004  0.0492
 5592SOL    HW228236   2.048   4.263   9.341 -1.5049 -1.7423  0.6716
 5593SOL     OW28237   2.671   3.085   4.630  0.0328  0.0796  0.1387
 5593SOL    HW128238   2.585   3.102   4.668  0.0962  1.0784 -0.1586
 5593SOL    HW228239   2.679   2.991   4.648  1.7444  0.1245 -0.3808
 5594SOL     OW28240   1.779   3.527  13.341 -0.5048 -0.2546 -0.1150
 5594SOL    HW128241   1.838   3.486  13.404  0.4279  1.0853 -0.1017
 5594SOL    HW228242   1.823   3.502  13.260  2.3891  2.9299  0.4707
 5595SOL     OW28243   4.643   1.144   5.255  0.2874  0.0675  0.6267
 5595SOL    HW128244   4.554   1.136   5.221  0.9503 -1.9833 -0.5908
 5595SOL    HW228245   4.650   1.239   5.250 -1.1058  0.0853 -0.9139
 5596SOL     OW28246   0.241   4.165   7.613  0.1375 -0.4137  0.7629
 5596SOL    HW128247   0.207   4.081   7.644  1.3865 -1.2192 -0.0541
 5596SOL    HW228248   0.182   4.190   7.543  0.5596 -1.5727 -0.0072
 5597SOL     OW28249   1.084   3.399  12.378 -0.2191  0.1492  0.1646
 5597SOL    HW128250   1.021   3.465  12.349 -0.1464  0.2628  0.2688
 5597SOL    HW228251   1.095   3.413  12.472 -0.6399  0.7762  0.1208
 5598SOL     OW28252   1.220   3.740   5.509 -0.5459  0.5093  0.4424
 5598SOL    HW128253   1.193   3.679   5.578  2.2005  1.4763  2.3467
 5598SOL    HW228254   1.203   3.821   5.556 -2.4767  0.6946 -0.5575
 5599SOL     OW28255   3.841   3.932  12.101  0.3344  0.1633  0.0862
 5599SOL    HW128256   3.816   3.925  12.009  0.5648 -3.0025  0.2804
 5599SOL    HW228257   3.824   3.845  12.136  1.2195 -0.3152 -0.6616
 5600SOL     OW28258   4.538   2.829   5.908 -0.3380 -0.1959 -0.3354
 5600SOL    HW128259   4.566   2.740   5.931  1.5322  0.4112 -0.2745
 5600SOL    HW228260   4.565   2.880   5.984 -0.4599  0.1129 -0.4986
 5601SOL     OW28261   2.976   3.550  13.559  0.5107 -0.1238  0.3269
 5601SOL    HW128262   3.035   3.590  13.622  0.1576 -0.2638  0.7426
 5601SOL    HW228263   3.030   3.480  13.521  0.6990  0.7179 -0.9764
 5602SOL     OW28264   4.037   2.373  12.645 -0.2312  0.2058 -0.2486
 5602SOL    HW128265   3.989   2.429  12.707  0.4770 -0.9581  1.3357
 5602SOL    HW228266   4.045   2.288  12.688  1.1465  0.9667  0.9743
 5603SOL     OW28267   0.930   3.850   6.523 -0.2120 -0.1179  0.6095
 5603SOL    HW128268   1.025   3.862   6.529  0.1231 -1.6228 -1.4903
 5603SOL    HW228269   0.926   3.763   6.563  3.6082 -0.1016  1.0664
 5604SOL     OW28270   2.501   3.962  13.080 -0.0305 -0.1712 -0.2135
 5604SOL    HW128271   2.457   4.014  13.147  0.8900 -0.0076  0.2709
 5604SOL    HW228272   2.544   3.902  13.141 -1.4824 -0.7122  0.2883
 5605SOL     OW28273   0.565   2.392   9.125 -0.4225  0.3194 -0.1047
 5605SOL    HW128274   0.567   2.403   9.030 -3.5257 -0.7886 -0.2910
 5605SOL    HW228275   0.602   2.474   9.158  1.4135 -0.8813  0.8246
 5606SOL     OW28276   4.195   1.892  16.452 -0.7303  0.0279  0.5793
 5606SOL    HW128277   4.146   1.973  16.440 -0.2229  0.1969 -0.3850
 5606SOL    HW228278   4.135   1.827  16.489 -1.1057  0.4879  0.7651
 5607SOL     OW28279   2.064   0.600   4.821  0.0415 -0.0319 -0.0170
 5607SOL    HW128280   2.009   0.565   4.892 -0.5300  1.2772  0.1895
 5607SOL    HW228281   2.075   0.516   4.778  2.0794 -0.2151  0.8706
 5608SOL     OW28282   3.070   3.584   6.775  0.0021  0.5229 -0.6441
 5608SOL    HW128283   3.047   3.499   6.812 -0.8872 -0.2125 -2.8288
 5608SOL    HW228284   3.071   3.555   6.683  0.9876 -0.3608 -0.3528
 5609SOL     OW28285   4.387   1.333   7.487 -0.1255  0.1255  0.1335
 5609SOL    HW128286   4.432   1.277   7.424 -0.3201  0.4085 -0.2588
 5609SOL    HW228287   4.418   1.291   7.567  0.1951 -1.5096 -0.8561
 5610SOL     OW28288   3.146   3.038  12.147  0.3930 -0.0458 -0.4170
 5610SOL    HW128289   3.103   3.123  12.141  0.0529 -0.2566 -0.9623
 5610SOL    HW228290   3.235   3.054  12.117  0.5698 -1.8528 -0.8939
 5611SOL     OW28291   3.419   1.963  16.856 -0.0562 -0.2800 -0.2416
 5611SOL    HW128292   3.372   1.957  16.772 -0.2690 -0.3412 -0.1171
 5611SOL    HW228293   3.432   2.058  16.857 -0.7819 -0.1816  0.0058
 5612SOL     OW28294   4.528   4.162   7.717  0.3582  0.5152  0.3012
 5612SOL    HW128295   4.550   4.076   7.751 -1.2641 -0.0823 -0.1979
 5612SOL    HW228296   4.573   4.163   7.632 -2.4793 -0.8957 -1.2013
 5613SOL     OW28297   1.603   2.466   5.722 -0.9469 -0.4197 -0.1120
 5613SOL    HW128298   1.598   2.511   5.637 -0.4334 -0.3146 -0.0865
 5613SOL    HW228299   1.697   2.470   5.736 -1.0082 -2.4827  0.8480
 5614SOL     OW28300   0.297   2.613  10.508 -0.0318 -0.3551  0.1631
 5614SOL    HW128301   0.370   2.635  10.566 -1.1731  0.6093  1.2279
 5614SOL    HW228302   0.318   2.524  10.481  1.9998  1.1643 -3.3550
 5615SOL     OW28303   2.703   2.122   7.878 -0.3350 -0.4237 -0.2967
 5615SOL    HW128304   2.766   2.188   7.908 -0.1550 -0.6726 -0.1268
 5615SOL    HW228305   2.709   2.060   7.950  1.4107  0.7961  0.6232
 5616SOL     OW28306   3.209   1.715   6.748  0.5087  0.0584 -0.2560
 5616SOL    HW128307   3.128   1.699   6.700  2.1054 -0.1764 -2.8824
 5616SOL    HW228308   3.239   1.788   6.694  4.3309 -0.9467  0.4985
 5617SOL     OW28309   3.215   2.110  13.992  0.0792  0.1211  0.1744
 5617SOL    HW128310   3.209   2.200  13.958 -0.7209 -0.2408 -0.6607
 5617SOL    HW228311   3.132   2.117  14.039  0.1055  0.3460  0.1905
 5618SOL     OW28312   0.212   0.881   7.359 -0.5764  0.3673  0.3634
 5618SOL    HW128313   0.247   0.803   7.400 -1.8102  0.1332  0.9680
 5618SOL    HW228314   0.195   0.853   7.269 -0.2533 -1.3508  0.8380
 5619SOL     OW28315   2.426   0.584   6.517 -0.2036  0.8152  0.1080
 5619SOL    HW128316   2.336   0.571   6.486 -0.2263  0.5210  0.2887
 5619SOL    HW228317   2.452   0.675   6.508  2.6948 -0.0757 -0.3415
 5620SOL     OW28318   3.379   4.698   6.112  0.7499 -0.4837 -0.6620
 5620SOL    HW128319   3.444   0.033   6.076 -0.7992  1.3128 -0.5109
 5620SOL    HW228320   3.307   0.033   6.134  1.4353  1.2135 -3.0969
 5621SOL     OW28321   4.514   2.073   8.025  0.0330 -0.2325 -0.2783
 5621SOL    HW128322   4.540   2.150   8.075  2.6095 -2.0949  1.2573
 5621SOL    HW228323   4.426   2.097   7.998 -0.4670  1.3192  2.6915
 5622SOL     OW28324   1.157   2.248   6.549 -0.2489 -0.1656 -0.3588
 5622SOL    HW128325   1.191   2.325   6.503 -3.6714 -0.2621 -3.0672
 5622SOL    HW228326   1.206   2.248   6.631  2.3834 -1.0301 -1.9093
 5623SOL     OW28327   0.684   3.952   3.590 -0.0369  0.0893  0.1408
 5623SOL    HW128328   0.627   3.957   3.513 -1.9348  1.7280  1.6536
 5623SOL    HW228329   0.620   3.961   3.661 -1.4545 -2.3727 -0.8173
 5624SOL     OW28330   0.107   4.439   8.439  0.2341 -0.1372 -0.0411
 5624SOL    HW128331   0.082   4.377   8.507 -0.0564  1.3014  1.1798
 5624SOL    HW228332   0.063   4.521   8.464 -3.8660 -1.6014 -2.5359
 5625SOL     OW28333   1.820   0.928   5.202  0.3357 -0.1998 -0.4280
 5625SOL    HW128334   1.761   0.955   5.131 -1.3370  0.2431  1.1190
 5625SOL    HW228335   1.905   0.963   5.176 -0.4380  2.3404  0.4409
 5626SOL     OW28336   2.592   0.326   6.693  0.2023 -0.4088  0.3568
 5626SOL    HW128337   2.531   0.376   6.638 -2.0269 -0.7511  2.5192
 5626SOL    HW228338   2.626   0.254   6.641  1.5921  0.5087  0.0107
 5627SOL     OW28339   1.881   1.690   1.400 -0.0099  0.5351  0.4119
 5627SOL    HW128340   1.970   1.683   1.434  0.9252  0.2332 -2.1063
 5627SOL    HW228341   1.889   1.767   1.344  0.4969  0.8702  0.9493
 5628SOL     OW28342   3.994   0.674  10.691 -0.6156 -0.1848 -0.0135
 5628SOL    HW128343   3.908   0.656  10.729  0.2433 -2.6953  0.7051
 5628SOL    HW228344   4.031   0.588  10.709  0.3457  0.2974  0.2932
 5629SOL     OW28345   2.939   4.553  13.922  0.8033 -0.7123  0.1945
 5629SOL    HW128346   2.872   4.489  13.898 -0.1630  0.3414  0.0902
 5629SOL    HW228347   3.020   4.512  13.891 -0.3706 -2.5417 -0.4926
 5630SOL     OW28348   3.825   4.345   3.998 -0.0251 -0.1386 -0.1930
 5630SOL    HW128349   3.866   4.275   4.048 -0.7544  0.1542  0.8023
 5630SOL    HW228350   3.907   4.382   3.966  1.5219 -1.8765  1.7827
 5631SOL     OW28351   2.628   4.025   9.380  0.3574  0.3607  0.0738
 5631SOL    HW128352   2.687   4.063   9.446  2.3288 -0.0621 -1.4779
 5631SOL    HW228353   2.678   4.043   9.301 -0.4152 -1.7322 -0.8662
 5632SOL     OW28354   3.655   4.169   6.957 -0.6053  0.6787  0.3652
 5632SOL    HW128355   3.673   4.210   7.041  0.4805 -1.8102  1.3483
 5632SOL    HW228356   3.561   4.152   6.963 -0.4860  0.2587  1.0237
 5633SOL     OW28357   4.131   1.618  16.149  0.0548 -0.1793 -0.1342
 5633SOL    HW128358   4.045   1.577  16.156 -0.2713  0.3417 -1.2246
 5633SOL    HW228359   4.180   1.560  16.208 -3.0472 -1.4262  1.2319
 5634SOL     OW28360   0.740   0.910   5.550  0.3169 -0.5807 -0.6790
 5634SOL    HW128361   0.654   0.950   5.540  1.0530  1.4612  0.9657
 5634SOL    HW228362   0.716   0.828   5.592 -1.3682 -0.2132 -0.9413
 5635SOL     OW28363   1.764   0.754   3.115 -0.5563 -0.4524  0.2744
 5635SOL    HW128364   1.857   0.738   3.098 -0.3105 -0.2621  1.4912
 5635SOL    HW228365   1.751   0.841   3.076 -1.1225 -0.4366  0.5073
 5636SOL     OW28366   2.866   2.911   8.582  0.3844  0.0252 -0.0852
 5636SOL    HW128367   2.830   2.841   8.527 -0.4343  2.2644 -2.3596
 5636SOL    HW228368   2.843   2.995   8.542  1.6643 -0.9191 -2.7875
 5637SOL     OW28369   1.443   4.504   0.679  0.0459  0.4336  0.4437
 5637SOL    HW128370   1.355   4.492   0.715  0.6574  2.1450  2.5160
 5637SOL    HW228371   1.424   4.474   0.590 -0.2011  2.5478 -0.2119
 5638SOL     OW28372   2.258   3.931  17.677  0.5088 -0.1766  0.2365
 5638SOL    HW128373   2.261   3.991   0.052  1.5558 -1.5715  1.3342
 5638SOL    HW228374   2.166   3.908  17.673  0.1640  0.9084  2.1533
 5639SOL     OW28375   0.309   2.021  16.440 -0.2020  0.3180 -0.3319
 5639SOL    HW128376   0.326   2.114  16.456  2.1047  0.1892 -2.0512
 5639SOL    HW228377   0.296   2.020  16.345  2.3370  0.1708 -0.6930
 5640SOL     OW28378   2.891   2.946   7.436 -0.4482  0.1052 -0.0401
 5640SOL    HW128379   2.824   2.899   7.486  0.9014 -2.0676 -0.3040
 5640SOL    HW228380   2.842   2.991   7.366  1.2043 -2.1657 -2.6464
 5641SOL     OW28381   0.919   4.564   3.634  0.1304  0.3004 -0.3073
 5641SOL    HW128382   0.825   4.559   3.651  0.3222 -0.7311  0.4844
 5641SOL    HW228383   0.949   4.475   3.653  1.5784  0.8752  0.1326
 5642SOL     OW28384   2.194   1.483   5.119 -0.2508 -0.6955  0.6064
 5642SOL    HW128385   2.136   1.471   5.195  0.9320  0.0964  1.6294
 5642SOL    HW228386   2.148   1.442   5.046  2.3730 -0.3018 -1.2411
 5643SOL     OW28387   0.925   1.434   6.791  0.1241  0.3071  0.0317
 5643SOL    HW128388   0.889   1.358   6.746  2.2835 -0.4969 -0.3267
 5643SOL    HW228389   0.901   1.401   6.878  1.5809 -0.6328  0.0786
 5644SOL     OW28390   0.411   1.284  17.256 -0.3352  0.7292  0.0597
 5644SOL    HW128391   0.349   1.322  17.319  1.7552  0.3121  2.3527
 5644SOL    HW228392   0.348   1.261  17.188  1.2515 -2.0372 -0.4352
 5645SOL     OW28393   3.955   0.885  14.689  0.1775  0.5735  0.1990
 5645SOL    HW128394   3.918   0.803  14.656  1.9091 -0.7912  1.6203
 5645SOL    HW228395   3.892   0.902  14.760  0.4101  0.8141  0.3511
 5646SOL     OW28396   2.599   1.580   5.183 -0.2797 -0.0657  0.3891
 5646SOL    HW128397   2.577   1.494   5.146 -0.6016  0.8327 -1.4713
 5646SOL    HW228398   2.555   1.586   5.268 -2.1165  0.6773 -0.6107
 5647SOL     OW28399   0.268   3.676   9.585 -0.0419  0.3204  0.0112
 5647SOL    HW128400   0.268   3.748   9.521  1.7186 -0.6566 -1.0689
 5647SOL    HW228401   0.225   3.722   9.658  1.8038  1.0688  0.6178
 5648SOL     OW28402   1.511   3.489   4.014 -0.0158  0.6776  0.1931
 5648SOL    HW128403   1.432   3.479   3.961 -0.0529  2.1940 -0.0349
 5648SOL    HW228404   1.518   3.582   4.033  0.2099  1.1244 -2.0759
 5649SOL     OW28405   3.096   2.162  14.889 -0.6652  0.2156  0.4939
 5649SOL    HW128406   3.065   2.245  14.853  0.5133  0.4740  0.0772
 5649SOL    HW228407   3.015   2.112  14.899 -2.0980  2.6511  1.0873
 5650SOL     OW28408   3.921   3.267   0.129  0.1186 -0.2469 -0.5524
 5650SOL    HW128409   3.875   3.325   0.069 -1.1313 -0.6435  0.0320
 5650SOL    HW228410   3.853   3.225   0.182 -0.4122  0.8709 -0.3643
 5651SOL     OW28411   3.417   0.646   7.887  0.4421 -0.5236 -0.4674
 5651SOL    HW128412   3.345   0.709   7.891 -0.2574 -1.4044  0.7794
 5651SOL    HW228413   3.458   0.638   7.973  0.2236 -0.8148 -0.3938
 5652SOL     OW28414   1.463   0.595   4.867 -0.1245 -0.3373 -0.2984
 5652SOL    HW128415   1.469   0.647   4.947 -0.2259  3.4783 -2.7359
 5652SOL    HW228416   1.462   0.505   4.900  1.6634 -0.9675 -1.9406
 5653SOL     OW28417   0.436   2.689   6.481  0.0145 -0.2658 -0.1507
 5653SOL    HW128418   0.349   2.679   6.521  1.0720  0.0227  2.2449
 5653SOL    HW228419   0.437   2.785   6.484  3.6433 -0.2765 -1.3661
 5654SOL     OW28420   2.373   0.683  13.849 -0.5146 -0.2808 -0.0346
 5654SOL    HW128421   2.462   0.655  13.824 -0.9672  0.6347 -2.7242
 5654SOL    HW228422   2.351   0.624  13.921 -2.4329  0.7168  0.1699
 5655SOL     OW28423   1.172   0.888  10.883  0.3487  0.1138 -0.3753
 5655SOL    HW128424   1.233   0.894  10.956  0.0246 -0.0204 -0.0983
 5655SOL    HW228425   1.108   0.958  10.896  0.4821  0.0630  0.5620
 5656SOL     OW28426   4.288   0.671   2.951 -0.2884 -0.5300 -0.2829
 5656SOL    HW128427   4.338   0.630   2.881 -0.9355  1.1280 -1.7319
 5656SOL    HW228428   4.272   0.754   2.905 -0.7662 -0.4862 -0.0394
 5657SOL     OW28429   1.001   1.628   7.048  0.5320 -0.0994 -0.4489
 5657SOL    HW128430   0.963   1.549   7.087  0.8959 -0.1295 -0.1533
 5657SOL    HW228431   0.965   1.686   7.116  0.0858 -1.0100  0.0965
 5658SOL     OW28432   1.790   4.599  11.771  0.3730  0.1146  0.0508
 5658SOL    HW128433   1.834   4.586  11.687 -2.5836  0.2454 -1.4910
 5658SOL    HW228434   1.725   4.666  11.750  1.6160  1.3266  0.0521
 5659SOL     OW28435   4.439   2.747   6.233 -0.1470 -0.0789 -0.0854
 5659SOL    HW128436   4.492   2.823   6.208  0.7920  0.2125  2.8332
 5659SOL    HW228437   4.497   2.672   6.218  0.7764  0.1938  2.1441
 5660SOL     OW28438   0.720   3.742   0.199  0.2376 -0.1149  0.3301
 5660SOL    HW128439   0.787   3.702   0.142  1.0590  1.3620  0.2461
 5660SOL    HW228440   0.780   3.764   0.270  0.6396  2.0745 -0.7043
 5661SOL     OW28441   4.030   0.642   3.635  0.0101 -0.1668 -0.0098
 5661SOL    HW128442   3.941   0.611   3.616 -0.1335  0.0409  0.3121
 5661SOL    HW228443   4.079   0.561   3.647  0.2675 -0.2248 -1.4997
 5662SOL     OW28444   3.550   2.498   1.697  0.1681 -0.0010  0.0225
 5662SOL    HW128445   3.587   2.416   1.663 -0.0192 -0.3792  0.7267
 5662SOL    HW228446   3.609   2.521   1.769  0.0784  2.4401 -0.7049
 5663SOL     OW28447   2.374   3.673   6.518 -0.0963  1.0346  0.6554
 5663SOL    HW128448   2.407   3.743   6.460  1.5100  0.0184  0.3348
 5663SOL    HW228449   2.298   3.711   6.561 -0.6250  1.5347 -0.7176
 5664SOL     OW28450   3.076   2.405  15.309  0.3263 -0.0096  0.0847
 5664SOL    HW128451   3.149   2.367  15.260  0.9819 -0.4599  1.4065
 5664SOL    HW228452   3.006   2.394  15.244  0.9767  0.1300 -0.6497
 5665SOL     OW28453   2.498   1.332   3.521 -0.2094  0.5444  0.3289
 5665SOL    HW128454   2.467   1.314   3.433 -1.3757 -0.2060  0.8941
 5665SOL    HW228455   2.529   1.244   3.544 -1.6040 -0.1596 -0.5599
 5666SOL     OW28456   0.302   4.526   2.214 -0.1075  0.0972  0.0696
 5666SOL    HW128457   0.387   4.541   2.174 -0.0201 -0.5602  0.0098
 5666SOL    HW228458   0.316   4.555   2.305  1.0973 -0.7870  0.1556
 5667SOL     OW28459   3.213   4.509  16.366  0.3187  0.6233  0.0093
 5667SOL    HW128460   3.125   4.547  16.374 -0.1712 -0.8681  1.7769
 5667SOL    HW228461   3.200   4.490  16.273 -0.6647 -2.6363  0.8098
 5668SOL     OW28462   1.475   1.329  14.092 -0.3346  0.3136 -0.5380
 5668SOL    HW128463   1.441   1.273  14.022  0.0838  0.4050 -0.8130
 5668SOL    HW228464   1.398   1.386  14.096  1.3260  2.4024  1.6839
 5669SOL     OW28465   0.390   1.270   6.130  0.7379  0.6363 -0.1123
 5669SOL    HW128466   0.388   1.180   6.164 -0.4442  1.0102  0.7957
 5669SOL    HW228467   0.486   1.276   6.123  0.9224 -0.2206  1.7179
 5670SOL     OW28468   0.074   1.630   4.180  0.1784  0.3160 -0.1417
 5670SOL    HW128469   0.112   1.574   4.248 -0.3882 -0.9863 -0.8778
 5670SOL    HW228470   0.081   1.560   4.114  1.0214  0.4792 -0.2205
 5671SOL     OW28471   1.945   1.958   1.262 -0.3698 -0.2139  0.4562
 5671SOL    HW128472   2.004   1.912   1.203 -0.9298 -3.5189  2.4710
 5671SOL    HW228473   1.949   2.044   1.221  1.8291 -1.0089 -1.0045
 5672SOL     OW28474   1.915   3.040   9.508  0.4096 -0.4423  0.8568
 5672SOL    HW128475   1.858   3.064   9.580 -1.3207  0.9685 -0.9875
 5672SOL    HW228476   1.991   3.009   9.558  1.4498  1.2252  0.3069
 5673SOL     OW28477   1.971   3.259   4.374 -0.0976 -0.1925  0.4972
 5673SOL    HW128478   1.935   3.342   4.343 -0.6400 -0.4255  0.5129
 5673SOL    HW228479   2.022   3.298   4.446  1.4425  0.6326 -1.0375
 5674SOL     OW28480   4.657   1.066   5.690  1.0742 -0.3693  0.3477
 5674SOL    HW128481   4.721   1.073   5.761 -0.8536 -0.2326  2.0552
 5674SOL    HW228482   4.660   1.156   5.658 -0.4144  0.3694  2.2823
 5675SOL     OW28483   0.375   2.660   4.997  0.4892 -0.0522 -0.5562
 5675SOL    HW128484   0.298   2.677   5.052  0.0923  1.4395 -1.5688
 5675SOL    HW228485   0.351   2.704   4.915  0.9072  1.2324  0.0069
 5676SOL     OW28486   3.349   1.311   2.574  0.0973 -0.0748 -0.6634
 5676SOL    HW128487   3.272   1.256   2.564 -0.2583  0.3152 -0.0873
 5676SOL    HW228488   3.390   1.295   2.489  1.2503  1.2484 -0.3495
 5677SOL     OW28489   1.230   2.172   3.951 -0.4897  0.2130 -0.4629
 5677SOL    HW128490   1.138   2.164   3.928 -0.3537  1.2066 -1.3867
 5677SOL    HW228491   1.264   2.210   3.870 -0.0680  0.5057 -0.1509
 5678SOL     OW28492   3.737   4.253  12.654  0.2886 -0.4555  0.3040
 5678SOL    HW128493   3.765   4.341  12.680  1.8357  0.0781 -3.1816
 5678SOL    HW228494   3.748   4.208  12.738 -2.7527 -1.4529  0.1452
 5679SOL     OW28495   2.162   4.136   2.888 -0.1869 -0.4036 -0.5368
 5679SOL    HW128496   2.170   4.042   2.903 -4.1122 -0.4950  0.8694
 5679SOL    HW228497   2.068   4.150   2.876 -0.3076 -2.0312 -1.4767
 5680SOL     OW28498   2.283   1.060   5.215 -0.0140 -0.1899  0.4432
 5680SOL    HW128499   2.347   1.083   5.148 -0.3461 -1.5467 -0.3334
 5680SOL    HW228500   2.310   0.969   5.233 -2.0302 -0.6924  0.9082
 5681SOL     OW28501   4.134   2.253   5.075  0.0423 -0.1408  0.2149
 5681SOL    HW128502   4.089   2.199   5.010  1.4472 -0.6955 -0.2940
 5681SOL    HW228503   4.164   2.185   5.135  1.9982  1.6208  1.2320
 5682SOL     OW28504   3.503   1.489   7.942  0.0234 -0.1357 -0.2505
 5682SOL    HW128505   3.543   1.520   7.860 -0.5683  1.7289  0.1806
 5682SOL    HW228506   3.481   1.573   7.983  4.2234  1.2994 -0.9481
 5683SOL     OW28507   1.790   1.133   8.222 -0.3092  0.0545  0.5149
 5683SOL    HW128508   1.863   1.195   8.221  0.1218 -0.4738 -0.8585
 5683SOL    HW228509   1.760   1.163   8.136 -1.6919 -0.7866  0.6958
 5684SOL     OW28510   4.519   3.038   4.058  0.0524  0.5829  0.4041
 5684SOL    HW128511   4.601   3.049   4.010 -0.9687 -1.3785 -1.7850
 5684SOL    HW228512   4.483   2.989   3.984  2.0865  0.5091 -0.5342
 5685SOL     OW28513   0.163   3.062  12.294 -0.1247 -0.7596  0.4548
 5685SOL    HW128514   0.222   2.987  12.288 -1.3527 -1.6719 -0.2716
 5685SOL    HW228515   0.100   3.032  12.228  1.2163  1.1318 -1.6685
 5686SOL     OW28516   2.080   4.295  14.426  0.3718 -0.4371  0.4863
 5686SOL    HW128517   2.017   4.331  14.364  0.1821 -3.8491 -1.2801
 5686SOL    HW228518   2.163   4.341  14.419 -0.6223  0.9519 -1.8639
 5687SOL     OW28519   2.140   0.044   9.028  0.6071  0.1881 -0.2379
 5687SOL    HW128520   2.194   0.082   9.098 -0.4985  0.2533  0.5858
 5687SOL    HW228521   2.108   4.690   9.072  0.9666 -0.2528 -0.7721
 5688SOL     OW28522   0.358   0.091   4.869  0.3314 -0.1841 -0.8240
 5688SOL    HW128523   0.295   0.064   4.936 -0.5930  1.7240 -0.9199
 5688SOL    HW228524   0.353   0.184   4.890  0.4099  0.1509 -2.2992
 5689SOL     OW28525   2.826   1.193  14.751 -0.0448  0.2978  0.0184
 5689SOL    HW128526   2.848   1.268  14.806  0.9671  0.1130 -0.1283
 5689SOL    HW228527   2.735   1.209  14.728 -0.4472 -1.1507  0.6122
 5690SOL     OW28528   1.467   2.860   5.472  0.5256 -0.4457  0.2332
 5690SOL    HW128529   1.459   2.946   5.431 -0.3948 -1.1439 -1.0397
 5690SOL    HW228530   1.471   2.879   5.566  1.4548 -0.6643  0.2376
 5691SOL     OW28531   0.084   2.505   2.531 -0.1823 -0.2420 -0.4183
 5691SOL    HW128532   0.093   2.595   2.562  0.4060 -0.4330 -0.0472
 5691SOL    HW228533   0.166   2.463   2.553 -0.5006 -1.1889 -1.0139
 5692SOL     OW28534   1.306   2.466   6.484  0.0122 -0.1061  1.1022
 5692SOL    HW128535   1.317   2.537   6.547  0.0598 -0.9680  2.0583
 5692SOL    HW228536   1.386   2.473   6.432 -0.7218 -0.4216 -0.0772
 5693SOL     OW28537   0.155   4.169  15.589  0.8804  0.0405 -0.1530
 5693SOL    HW128538   0.207   4.181  15.668 -0.7050 -0.6645  0.9985
 5693SOL    HW228539   0.209   4.223  15.532  2.3976  0.9834  2.1888
 5694SOL     OW28540   2.786   3.056   5.878 -0.2409 -0.3115 -0.0497
 5694SOL    HW128541   2.715   3.062   5.941  0.0984  0.8695  0.2227
 5694SOL    HW228542   2.735   3.022   5.804  1.4926 -0.4758 -1.1634
 5695SOL     OW28543   0.262   1.330   7.988  0.0551  0.5923 -0.2981
 5695SOL    HW128544   0.325   1.401   7.997  1.0113 -0.5100  1.7382
 5695SOL    HW228545   0.248   1.321   7.893  0.2700  0.5797 -0.3275
 5696SOL     OW28546   4.144   4.078  14.219  0.1249 -0.0730 -0.5847
 5696SOL    HW128547   4.205   4.086  14.146  1.2875 -0.0762  0.3793
 5696SOL    HW228548   4.194   4.023  14.280  1.0270  2.1791  0.7551
 5697SOL     OW28549   2.556   3.412   3.990 -0.6584  0.4259  0.1087
 5697SOL    HW128550   2.519   3.396   3.903  0.7466  0.6748 -0.5361
 5697SOL    HW228551   2.575   3.324   4.025 -2.1385  0.8631  2.0257
 5698SOL     OW28552   2.185   0.990  16.191 -0.3112  0.3793  0.0672
 5698SOL    HW128553   2.277   0.971  16.173  0.0505 -0.5744  2.8841
 5698SOL    HW228554   2.193   1.024  16.281  3.5921 -0.6014  0.0846
 5699SOL     OW28555   3.237   3.441   8.780 -0.1774 -0.1974  0.3030
 5699SOL    HW128556   3.220   3.531   8.807 -0.0252 -0.6530  1.9299
 5699SOL    HW228557   3.319   3.456   8.735 -0.2472 -0.0478  0.2279
 5700SOL     OW28558   0.962   1.186   5.044  0.5707  0.1472  0.0397
 5700SOL    HW128559   0.988   1.188   5.136  0.9249 -1.0587 -0.0324
 5700SOL    HW228560   1.016   1.254   5.004  0.3228  1.1057  1.3333
 5701SOL     OW28561   0.225   3.374   9.907 -0.0763  0.0780  0.2679
 5701SOL    HW128562   0.304   3.380   9.960  0.5837  0.7963 -0.7937
 5701SOL    HW228563   0.188   3.462   9.917 -1.0762 -0.4330  1.0443
 5702SOL     OW28564   3.255   3.216   5.583  0.3684  0.5479 -0.0906
 5702SOL    HW128565   3.219   3.290   5.631 -0.7738  0.2000 -0.4289
 5702SOL    HW228566   3.198   3.144   5.612 -0.4911  2.6149  3.3490
 5703SOL     OW28567   2.590   0.764   7.751  0.4973 -0.1580 -0.4776
 5703SOL    HW128568   2.634   0.688   7.712  0.9606  0.4839 -1.2134
 5703SOL    HW228569   2.650   0.802   7.815  0.7574  1.5748 -1.7484
 5704SOL     OW28570   3.505   1.782   6.475  0.0172 -0.2098 -0.0896
 5704SOL    HW128571   3.556   1.817   6.401  2.9237 -2.0857  1.0170
 5704SOL    HW228572   3.581   1.769   6.532  2.0296  2.3146 -2.1204
 5705SOL     OW28573   2.847   0.709  10.093 -0.2581 -0.0255  0.5988
 5705SOL    HW128574   2.818   0.621  10.118  1.3771 -0.3957  1.2009
 5705SOL    HW228575   2.832   0.720   9.999  1.7538 -0.3504  0.2245
 5706SOL     OW28576   2.222   0.179   4.937  0.2561  0.1055 -0.2690
 5706SOL    HW128577   2.174   0.222   5.008 -0.8838  0.8906 -1.5099
 5706SOL    HW228578   2.214   0.250   4.873  0.7232  0.6940  0.3265
 5707SOL     OW28579   0.255   1.599   1.063 -0.5987  0.5725  0.5110
 5707SOL    HW128580   0.302   1.525   1.101 -3.7324 -1.0693  1.1399
 5707SOL    HW228581   0.313   1.670   1.093 -0.1898  1.9638 -3.5494
 5708SOL     OW28582   3.796   3.191   0.369 -0.5273 -0.0641  0.8833
 5708SOL    HW128583   3.709   3.223   0.393  0.0715  2.2771 -0.0260
 5708SOL    HW228584   3.844   3.271   0.393  1.7830 -0.6234 -1.8106
 5709SOL     OW28585   0.116   0.617   8.403  0.1060 -0.5865 -0.0033
 5709SOL    HW128586   0.124   0.532   8.445  2.2968 -0.1293  0.5158
 5709SOL    HW228587   0.081   0.581   8.322  0.2119 -0.2417 -0.2033
 5710SOL     OW28588   1.612   3.954   5.532 -0.0521 -0.5636 -0.2861
 5710SOL    HW128589   1.637   3.998   5.451 -0.8000  2.0785  0.9149
 5710SOL    HW228590   1.591   4.025   5.592  0.6962 -2.3259  2.0654
 5711SOL     OW28591   2.552   2.618   1.504  0.0135  0.4387  0.4411
 5711SOL    HW128592   2.530   2.581   1.590 -0.9791 -1.0253 -0.4424
 5711SOL    HW228593   2.478   2.591   1.450  0.0210 -0.3504  0.8266
 5712SOL     OW28594   2.992   2.431  17.270  0.2718  0.8533 -0.2373
 5712SOL    HW128595   2.994   2.360  17.334 -0.7962  0.5530 -0.5359
 5712SOL    HW228596   3.019   2.507  17.321 -0.3597  0.9071  0.0194
 5713SOL     OW28597   3.791   1.061  16.269  0.5245 -0.1081  0.5467
 5713SOL    HW128598   3.746   1.110  16.338 -0.3429  1.0310 -0.8239
 5713SOL    HW228599   3.769   1.120  16.196 -1.1685 -0.7660  0.5363
 5714SOL     OW28600   0.447   0.087   5.869 -0.0489  0.1033 -0.2525
 5714SOL    HW128601   0.363   0.117   5.902 -0.7037 -0.1883 -1.6599
 5714SOL    HW228602   0.466   0.035   5.947  0.0486 -1.0661 -1.0467
 5715SOL     OW28603   4.575   3.698  10.132  0.2480  0.0431 -0.2717
 5715SOL    HW128604   4.497   3.722  10.183 -0.1193  0.1942 -0.9117
 5715SOL    HW228605   4.563   3.748  10.052 -0.4968  0.2992 -0.0041
 5716SOL     OW28606   1.846   1.346   7.461  0.2009  0.1505  0.1870
 5716SOL    HW128607   1.817   1.418   7.517  1.4246  0.7775  0.0138
 5716SOL    HW228608   1.938   1.367   7.446 -0.1159 -0.0353 -2.0897
 5717SOL     OW28609   4.215   4.453  17.460  0.2366  0.0946  0.8759
 5717SOL    HW128610   4.196   4.384  17.397  1.8275 -0.4194  0.9556
 5717SOL    HW228611   4.270   4.401  17.520  2.5466 -0.2594 -1.5568
 5718SOL     OW28612   2.672   2.820   4.654  0.4210  0.0735 -0.4533
 5718SOL    HW128613   2.674   2.813   4.559 -0.4886  0.2662 -0.4923
 5718SOL    HW228614   2.639   2.733   4.677  0.8406 -0.0746 -0.4108
 5719SOL     OW28615   1.162   2.078  13.453 -0.0076 -0.6567 -0.3314
 5719SOL    HW128616   1.161   1.986  13.480  2.5798 -0.5914 -0.0407
 5719SOL    HW228617   1.167   2.127  13.535 -2.3197 -0.6077 -0.2001
 5720SOL     OW28618   2.350   2.249  11.241  0.2306  0.2877  0.3651
 5720SOL    HW128619   2.350   2.247  11.146 -1.5676 -3.6787  0.4470
 5720SOL    HW228620   2.262   2.278  11.262 -0.8634 -2.7387 -0.0182
 5721SOL     OW28621   0.258   3.134   9.491  0.5056 -0.0621 -0.0354
 5721SOL    HW128622   0.228   3.113   9.579 -1.0798  0.7684 -0.3721
 5721SOL    HW228623   0.252   3.229   9.495  0.7314 -0.1656  2.4901
 5722SOL     OW28624   3.522   1.664   5.608 -0.2807 -0.0576 -0.3713
 5722SOL    HW128625   3.470   1.745   5.610  3.6034  2.4220  0.2815
 5722SOL    HW228626   3.505   1.630   5.696 -1.7493  4.0770  0.9356
 5723SOL     OW28627   4.613   2.834   8.368  0.5796  0.0710 -0.1468
 5723SOL    HW128628   4.524   2.804   8.347  0.8494  0.3687 -1.7395
 5723SOL    HW228629   4.620   2.916   8.319  2.6660  0.5547  0.9316
 5724SOL     OW28630   3.842   0.497  14.842  0.7047  0.2041  0.1224
 5724SOL    HW128631   3.791   0.428  14.885  1.3477 -1.0066 -1.0589
 5724SOL    HW228632   3.773   0.528  14.784  1.0841 -1.0518 -1.0041
 5725SOL     OW28633   3.591   2.118  14.027 -1.1170 -0.1945  0.1828
 5725SOL    HW128634   3.512   2.066  14.044 -0.2423 -1.6780 -0.2544
 5725SOL    HW228635   3.576   2.143  13.936  0.1687 -1.9637 -0.5310
 5726SOL     OW28636   3.848   3.827   6.077  0.4332 -0.5163  0.0292
 5726SOL    HW128637   3.810   3.793   6.158 -0.0470 -0.6585 -0.2512
 5726SOL    HW228638   3.903   3.758   6.040  0.7829  0.8838 -2.0263
 5727SOL     OW28639   4.504   3.732   9.744  0.7261 -0.0579  0.0056
 5727SOL    HW128640   4.412   3.710   9.733  0.7173 -1.1361  2.2320
 5727SOL    HW228641   4.546   3.647   9.760  0.3781 -0.1790  0.2950
 5728SOL     OW28642   2.349   2.059   4.051  0.6993  0.2691  0.1551
 5728SOL    HW128643   2.262   2.044   4.015  0.0543  0.9842  1.4108
 5728SOL    HW228644   2.365   1.977   4.098  2.8247 -0.3413 -1.6072
 5729SOL     OW28645   2.356   4.152  16.675  0.2760 -0.4275  0.1244
 5729SOL    HW128646   2.335   4.075  16.729 -0.6837  0.3567  0.8599
 5729SOL    HW228647   2.420   4.194  16.731  0.7455 -0.0836 -0.6688
 5730SOL     OW28648   2.166   2.937   9.197  0.2818  0.1060 -0.1187
 5730SOL    HW128649   2.173   3.019   9.246  2.3053  0.5829 -1.2218
 5730SOL    HW228650   2.260   2.918   9.191  0.1304 -0.6352 -0.1306
 5731SOL     OW28651   1.591   0.685  11.014 -0.3979 -0.1145  0.0035
 5731SOL    HW128652   1.572   0.712  10.924 -0.9060  1.7190  0.6738
 5731SOL    HW228653   1.683   0.713  11.014 -1.3133  2.8755  0.9509
 5732SOL     OW28654   0.971   0.860   7.002 -0.1898 -0.2911  0.4645
 5732SOL    HW128655   1.013   0.896   7.081 -0.9963  1.4054  0.1213
 5732SOL    HW228656   0.924   0.930   6.956  0.2088  0.7932  1.7103
 5733SOL     OW28657   1.957   1.888  14.529  0.8957 -0.4123  0.1251
 5733SOL    HW128658   1.877   1.928  14.565  0.3300  0.6684 -2.3620
 5733SOL    HW228659   2.025   1.947  14.561  0.6312 -0.5831  1.0041
 5734SOL     OW28660   4.152   1.806   8.519 -0.1254  0.3964  0.4239
 5734SOL    HW128661   4.139   1.768   8.432 -2.1396 -1.0008  1.3297
 5734SOL    HW228662   4.134   1.729   8.572  0.2470  0.3138  0.4271
 5735SOL     OW28663   2.533   4.401   2.041 -0.0764  0.6013 -0.2848
 5735SOL    HW128664   2.549   4.494   2.024  3.9450 -0.0377  0.0761
 5735SOL    HW228665   2.555   4.359   1.959 -1.1653 -0.0141 -0.2636
 5736SOL     OW28666   0.094   3.212   8.191 -0.0226 -0.7502 -0.0073
 5736SOL    HW128667   0.176   3.252   8.161 -0.6822 -0.4379 -1.3604
 5736SOL    HW228668   0.077   3.261   8.272 -1.2663  0.6376 -1.1221
 5737SOL     OW28669   1.176   2.148  13.748 -0.5549  0.0975  0.7107
 5737SOL    HW128670   1.256   2.200  13.736  0.4382 -1.3485  1.1321
 5737SOL    HW228671   1.216   2.076  13.796  0.1345  0.4377  0.6566
 5738SOL     OW28672   3.162   1.949  13.073  0.0845  0.0450  0.1354
 5738SOL    HW128673   3.222   1.940  13.147  0.8441  1.2569 -0.3464
 5738SOL    HW228674   3.077   1.972  13.111  0.7670 -2.0884  2.9647
 5739SOL     OW28675   2.737   4.392  10.379  0.2454  0.1801  0.5642
 5739SOL    HW128676   2.713   4.340  10.456 -0.9065 -2.3655 -1.5066
 5739SOL    HW228677   2.720   4.334  10.305 -0.2301 -1.5951  2.0410
 5740SOL     OW28678   1.738   2.271   8.569  0.5515 -0.0536  0.8130
 5740SOL    HW128679   1.678   2.329   8.522 -0.6200 -1.1927  0.9075
 5740SOL    HW228680   1.814   2.288   8.513  0.5619 -0.7054  0.6257
 5741SOL     OW28681   3.026   3.895   4.293 -0.4672 -0.1397  0.0588
 5741SOL    HW128682   3.074   3.948   4.357  1.1773  0.6699 -1.8569
 5741SOL    HW228683   2.940   3.928   4.320 -0.6091  1.3111 -2.1486
 5742SOL     OW28684   3.034   1.254   8.291  0.0207  0.0126 -0.2875
 5742SOL    HW128685   3.126   1.229   8.282  0.1698  0.0143  1.2943
 5742SOL    HW228686   3.004   1.223   8.376 -0.3700 -0.0635 -0.4525
 5743SOL     OW28687   3.918   0.957  15.176  0.1359 -0.3022  0.7457
 5743SOL    HW128688   3.895   1.047  15.198  0.7841  0.0066  0.1545
 5743SOL    HW228689   4.003   0.954  15.220  0.9950  0.3309 -0.8527
 5744SOL     OW28690   4.486   0.977   8.439  0.5377  0.7121 -0.6189
 5744SOL    HW128691   4.484   0.938   8.351 -0.5383 -0.8868  0.1234
 5744SOL    HW228692   4.577   0.989   8.466 -0.3803  0.8119  2.3591
 5745SOL     OW28693   0.279   3.772  14.203 -0.3533  0.1414 -0.3465
 5745SOL    HW128694   0.222   3.768  14.280 -0.0314 -0.9479 -0.1714
 5745SOL    HW228695   0.314   3.859  14.224  0.9875  0.1675 -2.6525
 5746SOL     OW28696   4.494   3.617   9.427  0.0016 -0.0934 -0.2590
 5746SOL    HW128697   4.422   3.575   9.379  0.1583 -1.4177  0.6816
 5746SOL    HW228698   4.467   3.707   9.410  0.7338  0.1975  0.1539
 5747SOL     OW28699   2.145   4.670   4.245 -0.3010  0.1238  0.5365
 5747SOL    HW128700   2.217   4.696   4.187  0.2498 -3.4433 -0.4031
 5747SOL    HW228701   2.093   4.618   4.183 -0.1793  2.7399 -1.7477
 5748SOL     OW28702   1.716   1.469   2.877 -0.0188 -0.1296 -0.1901
 5748SOL    HW128703   1.681   1.443   2.962  1.7330 -0.1595  0.5315
 5748SOL    HW228704   1.804   1.449   2.908  0.8496  0.4893 -2.2442
 5749SOL     OW28705   3.022   0.219   1.329  0.9069 -0.0771 -0.6105
 5749SOL    HW128706   3.098   0.162   1.313 -0.2626 -1.8165  0.0844
 5749SOL    HW228707   3.065   0.299   1.359  1.9619 -0.3631 -1.3797
 5750SOL     OW28708   2.181   4.233   6.323  0.1603 -0.0993 -0.1761
 5750SOL    HW128709   2.247   4.208   6.386  1.1813 -1.8381 -1.9259
 5750SOL    HW228710   2.101   4.189   6.354 -2.1889  3.3712 -1.3288
 5751SOL     OW28711   1.327   3.336   6.727  0.3535 -0.5711 -0.0507
 5751SOL    HW128712   1.271   3.291   6.791 -2.2760  3.3525  0.3934
 5751SOL    HW228713   1.412   3.346   6.769 -0.6457  1.4809  1.4905
 5752SOL     OW28714   1.658   2.144  14.992 -0.8820 -0.5702 -0.1581
 5752SOL    HW128715   1.604   2.161  15.069 -1.3851 -2.1037 -0.1550
 5752SOL    HW228716   1.707   2.225  14.979 -1.3850  0.0678  1.9605
 5753SOL     OW28717   1.537   1.530  16.465 -0.2845 -0.4152 -0.1614
 5753SOL    HW128718   1.531   1.599  16.398  0.6172 -0.2656 -0.0824
 5753SOL    HW228719   1.492   1.567  16.541  1.1396 -2.2476  1.5826
 5754SOL     OW28720   1.375   1.306  16.358 -0.3598  0.0191  0.1664
 5754SOL    HW128721   1.370   1.351  16.274  1.5529 -0.4442 -0.2051
 5754SOL    HW228722   1.450   1.344  16.404 -0.4898 -1.4965  1.6068
 5755SOL     OW28723   2.308   2.069   7.097  0.8441  0.2664  0.4737
 5755SOL    HW128724   2.354   1.993   7.132 -0.5877 -1.9646 -2.4922
 5755SOL    HW228725   2.266   2.102   7.177  0.8586  1.5807 -0.0466
 5756SOL     OW28726   1.579   4.409   6.278 -0.0676 -0.8610 -0.0874
 5756SOL    HW128727   1.628   4.429   6.358  1.8535 -0.6393 -1.3325
 5756SOL    HW228728   1.641   4.346   6.241  1.1905 -0.2472  0.9835
 5757SOL     OW28729   2.656   1.587   7.733  0.9184  0.1574  0.4120
 5757SOL    HW128730   2.739   1.614   7.772  1.8461  0.7312 -1.9837
 5757SOL    HW228731   2.593   1.617   7.799  0.5734 -0.2973  0.2854
 5758SOL     OW28732   1.600   3.534  11.419 -0.4706  0.2571 -0.9116
 5758SOL    HW128733   1.577   3.608  11.476 -2.3897 -0.2324 -1.0268
 5758SOL    HW228734   1.508   3.519  11.397  0.3827 -2.9914 -2.1736
 5759SOL     OW28735   2.369   0.951  10.192 -0.3040  0.0328  0.2255
 5759SOL    HW128736   2.446   1.003  10.171  1.0360 -2.0785 -0.1596
 5759SOL    HW228737   2.392   0.932  10.283 -0.3252  1.6761  0.5736
 5760SOL     OW28738   2.892   1.466   4.997  0.7566 -0.0782 -0.5471
 5760SOL    HW128739   2.914   1.398   4.934  0.9647 -0.1821 -0.3645
 5760SOL    HW228740   2.918   1.428   5.081 -1.4177  0.3549  0.3078
 5761SOL     OW28741   0.097   4.473  15.486  0.0542  0.1018 -0.1505
 5761SOL    HW128742   0.188   4.466  15.456 -0.8899 -1.0255 -2.7401
 5761SOL    HW228743   0.117   4.480  15.579 -0.6235  3.1210 -0.2512
 5762SOL     OW28744   3.901   3.103   5.891 -0.2154  0.1827 -0.7887
 5762SOL    HW128745   3.957   3.061   5.825  1.9411  3.1397 -0.8009
 5762SOL    HW228746   3.893   3.193   5.860 -0.1476  0.2887 -0.4969
 5763SOL     OW28747   2.443   0.412   2.494  0.0419  0.2695 -0.5158
 5763SOL    HW128748   2.459   0.502   2.521 -0.8824 -0.0251  1.0375
 5763SOL    HW228749   2.476   0.413   2.404 -1.1425  0.2587 -0.9626
 5764SOL     OW28750   0.274   4.579   3.022 -0.2161  0.6677 -0.2145
 5764SOL    HW128751   0.292   4.536   2.938  0.7695 -1.0905  0.9057
 5764SOL    HW228752   0.356   4.550   3.062  0.0245  1.9508  0.2350
 5765SOL     OW28753   0.507   4.134   3.983 -0.5121 -0.7708  0.6254
 5765SOL    HW128754   0.496   4.228   3.999  1.0833  0.0351 -3.0051
 5765SOL    HW228755   0.599   4.111   3.977 -0.4535 -0.2568 -0.6120
 5766SOL     OW28756   1.185   4.618   4.583 -0.7297 -0.5005 -0.4978
 5766SOL    HW128757   1.240   4.540   4.592  0.1110  0.0561 -0.8266
 5766SOL    HW228758   1.233   4.678   4.526  0.5455 -1.8186 -0.8330
 5767SOL     OW28759   3.137   0.080   5.610 -0.2102  0.5004  0.0558
 5767SOL    HW128760   3.104   0.166   5.584  0.9173  0.8436 -0.2377
 5767SOL    HW228761   3.061   0.059   5.664 -1.2885  1.2415 -1.1670
 5768SOL     OW28762   1.941   0.826   2.665  0.0567  0.1115  0.5910
 5768SOL    HW128763   1.956   0.867   2.580 -0.6635  1.3587  1.0736
 5768SOL    HW228764   1.850   0.797   2.653  0.9874 -1.8569 -1.6724
 5769SOL     OW28765   1.417   0.822   8.531  0.6774  0.2906 -0.1575
 5769SOL    HW128766   1.427   0.914   8.508 -2.0487  0.9408  1.3162
 5769SOL    HW228767   1.494   0.797   8.480  0.0928 -0.6929 -0.5563
 5770SOL     OW28768   1.272   1.114   4.020 -0.1472 -0.0544 -0.9524
 5770SOL    HW128769   1.265   1.085   3.929  2.4191 -0.9823 -0.8403
 5770SOL    HW228770   1.319   1.195   4.003  0.7859 -0.4352 -0.2434
 5771SOL     OW28771   2.849   0.533  17.676  0.6105 -0.3677 -0.2168
 5771SOL    HW128772   2.796   0.575   0.044  1.0874  1.6190 -1.0691
 5771SOL    HW228773   2.883   0.603  17.620 -1.8799  0.7320 -0.3923
 5772SOL     OW28774   0.208   0.555   5.439  0.1092 -0.0296  0.3937
 5772SOL    HW128775   0.210   0.477   5.494 -0.4209  0.9144  1.7384
 5772SOL    HW228776   0.114   0.549   5.418  0.4733  0.1907 -1.3257
 5773SOL     OW28777   0.458   0.105   9.425 -0.3677 -0.1686  0.0391
 5773SOL    HW128778   0.462   0.076   9.516  1.1653 -1.3711 -0.4120
 5773SOL    HW228779   0.388   0.170   9.430  1.0733  1.4447 -0.8581
 5774SOL     OW28780   4.668   4.111   8.919 -1.0350 -0.4599  0.0652
 5774SOL    HW128781   4.575   4.114   8.895 -1.5039 -0.5125  1.8625
 5774SOL    HW228782   4.687   4.017   8.925 -0.2376 -0.3073 -0.0640
 5775SOL     OW28783   4.561   1.705   4.100  0.0198  0.8193  0.0901
 5775SOL    HW128784   4.498   1.652   4.149 -0.0782  0.0804 -0.8541
 5775SOL    HW228785   4.646   1.666   4.121 -1.1368 -0.9315  1.4655
 5776SOL     OW28786   2.854   3.983   7.502 -0.1783 -0.8414  0.4431
 5776SOL    HW128787   2.782   3.941   7.456  1.1169 -0.9332 -1.4684
 5776SOL    HW228788   2.916   3.966   7.432  1.2138 -0.3663  1.5542
 5777SOL     OW28789   2.690   2.556   6.364  0.0167 -0.3365  0.5109
 5777SOL    HW128790   2.759   2.611   6.401 -0.9027  0.0887  1.6057
 5777SOL    HW228791   2.722   2.524   6.279  0.6655  0.1824  0.5582
 5778SOL     OW28792   1.137   0.876   8.504  0.7922 -0.2508  0.4781
 5778SOL    HW128793   1.166   0.880   8.413 -0.2626  2.5342  0.2552
 5778SOL    HW228794   1.219   0.835   8.532  0.8412 -1.4216 -1.3246
 5779SOL     OW28795   1.715   2.830   4.761  0.1971  0.3555  0.7128
 5779SOL    HW128796   1.800   2.869   4.742 -0.0812 -0.0106 -1.2620
 5779SOL    HW228797   1.687   2.798   4.675  1.7064  2.9056 -0.7334
 5780SOL     OW28798   2.652   1.636   0.845 -0.3869  0.2074 -0.2551
 5780SOL    HW128799   2.637   1.573   0.915  1.0303  0.0486 -0.1059
 5780SOL    HW228800   2.562   1.649   0.814 -0.6489 -2.9289 -0.7919
 5781SOL     OW28801   2.632   2.107   4.744  0.1011 -0.0446  0.0695
 5781SOL    HW128802   2.603   2.024   4.783 -2.4284  0.8837  0.1375
 5781SOL    HW228803   2.605   2.175   4.806 -2.2784 -0.2921 -0.6817
 5782SOL     OW28804   3.024   0.852   6.467  0.0936 -0.3735 -0.0501
 5782SOL    HW128805   3.043   0.772   6.516 -0.9870 -0.1688  0.6907
 5782SOL    HW228806   3.109   0.879   6.431  1.1179 -1.3114  1.6982
 5783SOL     OW28807   0.633   1.535   8.722 -0.1099  0.1846  0.5226
 5783SOL    HW128808   0.557   1.580   8.759 -1.2398 -0.9766 -0.3749
 5783SOL    HW228809   0.648   1.473   8.793  0.7830 -0.4111 -0.1956
 5784SOL     OW28810   3.835   0.942   9.322 -0.6983  0.1306 -0.1607
 5784SOL    HW128811   3.745   0.970   9.343 -1.4742 -2.2373 -0.2906
 5784SOL    HW228812   3.872   1.025   9.293 -0.2628 -0.3174 -0.8875
 5785SOL     OW28813   1.323   0.390   6.068 -0.3962  0.0034  0.1668
 5785SOL    HW128814   1.302   0.482   6.051  2.9882  1.1082  2.1267
 5785SOL    HW228815   1.292   0.377   6.157 -0.5724 -1.8518 -0.1721
 5786SOL     OW28816   1.331   1.674   5.009  0.2784 -0.3292 -0.1740
 5786SOL    HW128817   1.256   1.726   4.980 -1.3018 -2.1217  0.6371
 5786SOL    HW228818   1.300   1.650   5.096 -0.6880 -0.9847 -0.6918
 5787SOL     OW28819   0.808   0.428   7.823 -0.1222  0.4018  0.0009
 5787SOL    HW128820   0.835   0.520   7.833 -0.5841  0.4839  0.4908
 5787SOL    HW228821   0.828   0.375   7.900 -0.0297  0.6437  0.1434
 5788SOL     OW28822   2.736   3.401   2.228 -0.1899 -0.1185  0.4017
 5788SOL    HW128823   2.782   3.427   2.308 -0.1251 -1.5717  0.8265
 5788SOL    HW228824   2.755   3.308   2.225  0.2849 -0.1417  4.0989
 5789SOL     OW28825   2.316   2.251   4.445 -0.7495 -0.0740 -0.9636
 5789SOL    HW128826   2.242   2.191   4.444 -0.1135 -0.8386 -2.0466
 5789SOL    HW228827   2.391   2.192   4.455  0.9002  2.1994  0.0480
 5790SOL     OW28828   4.666   2.477   4.340 -0.7418 -0.3273 -0.0307
 5790SOL    HW128829   4.589   2.515   4.382  0.9916  0.9508  1.9763
 5790SOL    HW228830   4.644   2.384   4.343  1.5083 -0.8336  0.2129
 5791SOL     OW28831   0.234   1.029   3.825  0.1209  0.7524 -0.2405
 5791SOL    HW128832   0.204   0.969   3.894  3.3212 -0.1620  0.3507
 5791SOL    HW228833   0.293   1.069   3.888  0.5283  0.2009 -0.2676
 5792SOL     OW28834   2.342   1.845   8.208 -0.2519 -0.5418  0.3169
 5792SOL    HW128835   2.350   1.893   8.126 -0.4385 -1.5544 -0.2900
 5792SOL    HW228836   2.319   1.915   8.269 -1.9394 -0.0075 -0.9425
 5793SOL     OW28837   0.389   3.764  13.917 -0.5318  0.3061  0.0961
 5793SOL    HW128838   0.341   3.726  13.991 -0.2348 -2.0655 -0.9353
 5793SOL    HW228839   0.317   3.764  13.854 -0.8995 -1.0280  0.5162
 5794SOL     OW28840   2.034   1.109   5.101  0.0669 -0.4485 -0.2687
 5794SOL    HW128841   2.107   1.120   5.161 -0.3270 -1.9323  0.4863
 5794SOL    HW228842   1.995   1.196   5.111  0.9131 -0.2520  1.3929
 5795SOL     OW28843   4.315   4.551   2.403 -0.4343 -0.0578  0.2070
 5795SOL    HW128844   4.223   4.565   2.425  0.1183 -1.3863  3.3377
 5795SOL    HW228845   4.338   4.643   2.409  1.7916 -0.7865  2.6825
 5796SOL     OW28846   4.448   2.914   3.849  0.4623  0.2959  0.0609
 5796SOL    HW128847   4.389   2.938   3.777 -1.2198  0.4256  1.4751
 5796SOL    HW228848   4.512   2.852   3.813 -1.3618 -2.3317  1.4001
 5797SOL     OW28849   4.342   2.707   7.354 -0.1073 -0.3333  0.8164
 5797SOL    HW128850   4.253   2.672   7.365 -0.7017  1.2523  1.1395
 5797SOL    HW228851   4.319   2.785   7.305  0.5867 -1.0338 -0.6121
 5798SOL     OW28852   4.422   0.674   4.382 -0.2836 -0.5275 -0.4988
 5798SOL    HW128853   4.437   0.767   4.368  0.4898 -0.6433 -0.4044
 5798SOL    HW228854   4.457   0.668   4.470  0.5549 -1.8464 -0.9321
 5799SOL     OW28855   2.258   2.355   6.587 -0.1403  0.5101 -0.2070
 5799SOL    HW128856   2.297   2.338   6.672 -0.8292  1.1743  0.2441
 5799SOL    HW228857   2.338   2.366   6.535 -0.2674  0.4478 -0.4148
 5800SOL     OW28858   4.507   2.284  15.018  0.4307 -0.6883  0.2922
 5800SOL    HW128859   4.447   2.352  14.987 -0.5934 -2.6343 -2.0058
 5800SOL    HW228860   4.573   2.335  15.065  0.2920 -1.6170  1.5021
 5801SOL     OW28861   2.250   0.302   8.040 -0.0770  0.5106 -0.0124
 5801SOL    HW128862   2.289   0.342   7.962 -0.9854  1.9234  0.2544
 5801SOL    HW228863   2.314   0.238   8.071 -1.7695 -1.6713 -1.0158
 5802SOL     OW28864   2.638   0.018   2.368 -0.5496  0.1081  0.0933
 5802SOL    HW128865   2.555   0.023   2.415 -1.1514  0.2015 -1.0009
 5802SOL    HW228866   2.671   0.107   2.383 -0.1347 -0.2705  1.4944
 5803SOL     OW28867   3.448   3.344   1.775 -0.6069 -0.0139 -0.3969
 5803SOL    HW128868   3.505   3.286   1.825 -2.5395 -0.3617  1.4465
 5803SOL    HW228869   3.399   3.377   1.851  0.0267 -1.6703  0.7343
 5804SOL     OW28870   4.202   3.760  11.299  0.0548  0.1840  0.0052
 5804SOL    HW128871   4.218   3.717  11.215 -2.6954  2.4646 -1.6926
 5804SOL    HW228872   4.130   3.711  11.340 -0.8102  1.7821  0.4083
 5805SOL     OW28873   2.117   4.047   1.500  0.5602  0.3365  0.1713
 5805SOL    HW128874   2.058   3.973   1.488  1.4331 -0.9743  3.7863
 5805SOL    HW228875   2.051   4.116   1.506 -0.6489 -0.6698 -1.5911
 5806SOL     OW28876   2.357   1.266   5.406  0.5839  0.5228  0.0891
 5806SOL    HW128877   2.303   1.302   5.477  0.7007  2.1244 -0.6377
 5806SOL    HW228878   2.295   1.213   5.358  0.0735  1.6581 -0.5096
 5807SOL     OW28879   3.493   3.433  10.278 -0.1440  0.0936 -0.0244
 5807SOL    HW128880   3.556   3.486  10.229  1.3138 -0.5223  1.1873
 5807SOL    HW228881   3.519   3.341  10.269  3.6597  1.1186  0.1663
 5808SOL     OW28882   3.905   1.854  15.251  0.7498  0.1106 -0.3531
 5808SOL    HW128883   3.913   1.906  15.331  2.6170 -0.0676 -0.4029
 5808SOL    HW228884   3.814   1.825  15.252  0.3447  1.3632 -0.7228
 5809SOL     OW28885   4.370   0.799   3.582  0.2517 -0.0924 -0.1489
 5809SOL    HW128886   4.352   0.705   3.586 -2.0988  0.3155 -0.7238
 5809SOL    HW228887   4.462   0.789   3.560  0.6524  0.5283  1.2253
 5810SOL     OW28888   1.904   0.804  11.707 -0.7305 -0.3310  0.2528
 5810SOL    HW128889   1.946   0.746  11.771  3.4664  2.2169 -0.1625
 5810SOL    HW228890   1.967   0.799  11.634 -0.3686  0.9359  0.4707
 5811SOL     OW28891   3.132   2.144   2.268  0.0403 -0.2076  0.2808
 5811SOL    HW128892   3.225   2.122   2.272 -0.3415 -2.0146 -0.6158
 5811SOL    HW228893   3.094   2.067   2.310  2.1382 -2.1425 -1.3605
 5812SOL     OW28894   1.042   3.413   5.842  0.2199 -0.0389 -0.1742
 5812SOL    HW128895   1.106   3.388   5.909 -0.4526 -1.8326 -0.2027
 5812SOL    HW228896   0.996   3.469   5.905  0.8255  2.7076 -2.1867
 5813SOL     OW28897   4.258   2.023   5.590  0.2377  0.4124  0.2072
 5813SOL    HW128898   4.185   1.961   5.585  2.1308 -1.6692 -1.5701
 5813SOL    HW228899   4.302   1.996   5.509  2.0335 -0.7364  1.5821
 5814SOL     OW28900   2.267   0.881   6.779  0.5302  0.2956  0.5793
 5814SOL    HW128901   2.340   0.923   6.826  1.5454 -0.2365 -0.5140
 5814SOL    HW228902   2.274   0.915   6.690  0.0681 -0.2276  0.3441
 5815SOL     OW28903   0.044   1.149   2.932 -0.1551  0.1231  0.7555
 5815SOL    HW128904   0.023   1.218   2.868  1.0531 -1.2976 -1.1661
 5815SOL    HW228905   4.679   1.138   2.965 -0.6130  0.2038 -0.4413
 5816SOL     OW28906   1.383   1.971   4.378 -0.1112 -0.1285 -0.4212
 5816SOL    HW128907   1.409   2.063   4.384 -0.8189  0.0276  0.2599
 5816SOL    HW228908   1.425   1.930   4.303 -0.3940 -0.9820 -0.1145
 5817SOL     OW28909   2.026   4.175  15.548 -0.0140  0.4260 -0.0513
 5817SOL    HW128910   1.993   4.198  15.635 -2.6118 -2.9053 -0.1701
 5817SOL    HW228911   2.074   4.095  15.566  0.0101 -0.1966 -2.9333
 5818SOL     OW28912   2.768   0.174  11.543  0.0333 -0.5049  0.1213
 5818SOL    HW128913   2.739   0.104  11.601 -2.0854 -0.2822 -0.6846
 5818SOL    HW228914   2.703   0.165  11.474 -2.0771  0.9768  1.8898
 5819SOL     OW28915   1.858   0.535  12.393 -0.3457 -0.5999  0.1556
 5819SOL    HW128916   1.817   0.456  12.428 -0.3088  0.6147  2.9388
 5819SOL    HW228917   1.832   0.545  12.301  0.5776 -1.3567 -0.1814
 5820SOL     OW28918   2.976   2.505   6.785 -0.2759 -0.3598 -0.5760
 5820SOL    HW128919   2.976   2.596   6.754 -0.6035 -0.2385 -0.2234
 5820SOL    HW228920   2.957   2.452   6.707  1.6251  1.5554 -2.3467
 5821SOL     OW28921   0.583   3.897   5.998  1.3349 -0.0999 -0.2119
 5821SOL    HW128922   0.499   3.877   6.039  1.1682  0.8768 -0.0869
 5821SOL    HW228923   0.551   3.909   5.908 -1.1993 -0.9098  0.5927
 5822SOL     OW28924   1.323   2.075  16.788 -0.3295  0.3652 -0.2880
 5822SOL    HW128925   1.337   2.169  16.799 -0.1413  0.4184 -0.9971
 5822SOL    HW228926   1.267   2.084  16.711  0.2895  0.9933 -0.6623
 5823SOL     OW28927   1.994   2.097  16.163  0.2320  0.3822  0.5023
 5823SOL    HW128928   1.984   2.131  16.074  0.3096  0.9949  0.7352
 5823SOL    HW228929   2.047   2.019  16.143  1.5801  1.8167 -1.4548
 5824SOL     OW28930   0.881   2.642  17.371  0.4280  0.0844  0.1762
 5824SOL    HW128931   0.920   2.717  17.325 -0.6564 -0.4346 -1.6049
 5824SOL    HW228932   0.901   2.568  17.314 -1.9780  1.4895 -2.5209
 5825SOL     OW28933   4.569   1.594   9.344  0.1178  0.5107 -0.7732
 5825SOL    HW128934   4.536   1.681   9.321 -0.1446  0.5191 -0.3614
 5825SOL    HW228935   4.524   1.579   9.427 -1.1790  0.2423 -1.5320
 5826SOL     OW28936   4.665   2.818   7.578 -0.2135 -0.1448  0.5933
 5826SOL    HW128937   4.665   2.774   7.493  0.0378  0.9465  0.0234
 5826SOL    HW228938   0.028   2.794   7.606  0.0498 -1.5017 -1.3594
 5827SOL     OW28939   1.088   1.138  12.565  0.0151  0.1594 -0.0822
 5827SOL    HW128940   1.133   1.058  12.594  0.2447 -0.0527 -1.0262
 5827SOL    HW228941   1.157   1.166  12.505  3.2481 -0.7167  3.1574
 5828SOL     OW28942   1.098   2.801   6.824  0.2344  0.0728 -0.3899
 5828SOL    HW128943   1.120   2.798   6.917 -0.4413  0.4599 -0.2174
 5828SOL    HW228944   1.106   2.706   6.811  0.7293 -0.1032  1.1193
 5829SOL     OW28945   3.299   2.217   2.824 -0.5868 -0.1550 -0.1889
 5829SOL    HW128946   3.339   2.130   2.823  0.7946  0.4683  0.0362
 5829SOL    HW228947   3.259   2.223   2.737 -2.2876  1.5271  0.7267
 5830SOL     OW28948   4.108   2.472   4.706 -0.3922  0.2374 -0.3376
 5830SOL    HW128949   4.106   2.394   4.761  2.5272  0.4199 -0.0080
 5830SOL    HW228950   4.059   2.530   4.765  1.6364  0.8385  0.7341
 5831SOL     OW28951   2.592   1.068  10.120  0.2811  0.2774 -0.2257
 5831SOL    HW128952   2.668   1.123  10.139 -1.1114  2.0541  0.1864
 5831SOL    HW228953   2.644   0.987  10.113 -1.7942 -1.0422 -0.3450
 5832SOL     OW28954   3.597   4.079   4.440 -0.1799 -0.0992 -0.2776
 5832SOL    HW128955   3.667   4.054   4.380 -0.3998  0.4865 -0.7762
 5832SOL    HW228956   3.556   3.992   4.440 -1.3577  0.4450 -0.8090
 5833SOL     OW28957   1.197   4.138   6.136  0.9679 -0.5852  0.0599
 5833SOL    HW128958   1.187   4.224   6.176  1.0434  0.4933 -2.2111
 5833SOL    HW228959   1.132   4.140   6.065 -1.0563  1.6616  1.9545
 5834SOL     OW28960   1.214   1.234  15.713 -0.3833 -0.2568 -0.0876
 5834SOL    HW128961   1.226   1.193  15.798 -0.7179 -0.6898 -0.2438
 5834SOL    HW228962   1.270   1.178  15.658 -1.3227  0.5623 -1.8905
 5835SOL     OW28963   2.444   2.548   9.962 -0.0092 -0.4989  0.4713
 5835SOL    HW128964   2.378   2.595   9.911 -0.8522 -0.5655  1.5000
 5835SOL    HW228965   2.517   2.579   9.908 -0.9332 -0.1596 -0.5884
 5836SOL     OW28966   0.927   0.887   5.317  0.2360  0.0040  0.0639
 5836SOL    HW128967   0.868   0.892   5.392  0.0380 -0.6375 -0.0505
 5836SOL    HW228968   0.858   0.875   5.252 -0.2222 -0.0711  0.5617
 5837SOL     OW28969   0.834   4.706   6.060  0.4039 -0.2135 -0.2463
 5837SOL    HW128970   0.773   0.054   6.049 -0.3991 -0.6887  1.0102
 5837SOL    HW228971   0.854   4.685   5.969  1.8539 -1.1905  0.3074
 5838SOL     OW28972   1.983   0.845   6.843 -0.4410 -0.3135  0.9052
 5838SOL    HW128973   2.041   0.811   6.774  3.6042  2.2422  3.0233
 5838SOL    HW228974   2.036   0.814   6.917  1.6311 -1.1084 -0.9314
 5839SOL     OW28975   0.164   0.694   7.748  0.1781 -0.2904  0.4085
 5839SOL    HW128976   0.182   0.644   7.828  1.0515  0.2286  0.5469
 5839SOL    HW228977   0.173   0.783   7.783  1.2566 -0.4503  0.5308
 5840SOL     OW28978   3.237   4.534   7.088 -0.6561 -0.1464 -1.0118
 5840SOL    HW128979   3.331   4.548   7.078 -0.2861 -2.6600 -0.9295
 5840SOL    HW228980   3.218   4.605   7.150  1.7541  1.0629 -1.6373
 5841SOL     OW28981   2.255   3.272   0.869 -0.4698 -0.0094  0.3033
 5841SOL    HW128982   2.335   3.325   0.865 -1.5307  1.6670  1.2112
 5841SOL    HW228983   2.281   3.189   0.908 -0.6595  0.0543  0.5674
 5842SOL     OW28984   0.731   1.450   9.339  0.0737 -0.3513  0.2989
 5842SOL    HW128985   0.789   1.439   9.415 -1.0625 -2.0070  0.9244
 5842SOL    HW228986   0.795   1.495   9.284 -1.2552  0.1588 -0.8082
 5843SOL     OW28987   3.089   2.650   2.858 -0.2472  0.5197 -0.5782
 5843SOL    HW128988   3.083   2.607   2.772 -2.5291  1.2149 -0.7614
 5843SOL    HW228989   3.039   2.588   2.911  0.5964  0.7385  0.4684
 5844SOL     OW28990   1.203   4.134   8.244 -0.2628  0.3523 -0.2566
 5844SOL    HW128991   1.176   4.224   8.265  2.0840  0.6299  1.6534
 5844SOL    HW228992   1.298   4.139   8.257 -0.1251 -0.5694 -0.9829
 5845SOL     OW28993   3.584   1.573   1.250 -0.1964  0.2488  0.6465
 5845SOL    HW128994   3.489   1.577   1.262 -0.5664  1.2317 -2.5199
 5845SOL    HW228995   3.605   1.652   1.300 -0.1760  0.0065  1.0145
 5846SOL     OW28996   0.100   2.972   5.197  0.0034  0.5762  0.0695
 5846SOL    HW128997   0.180   2.998   5.152  0.1067  0.6403  0.2889
 5846SOL    HW228998   0.089   3.046   5.257  0.9358 -0.6003  1.6893
 5847SOL     OW28999   2.846   2.233  16.886  0.6732 -0.3752  0.7254
 5847SOL    HW129000   2.925   2.266  16.929  2.6315 -2.1940 -1.5004
 5847SOL    HW229001   2.872   2.245  16.795 -0.4761 -1.7252  0.2274
 5848SOL     OW29002   0.099   4.015  16.819  0.0602 -0.5773  0.5141
 5848SOL    HW129003   0.146   4.082  16.867 -0.4040 -1.1883  1.8260
 5848SOL    HW229004   0.162   3.944  16.830 -0.7924 -1.4106  0.0131
 5849SOL     OW29005   1.266   0.230  15.256 -0.2682 -0.4649  0.1244
 5849SOL    HW129006   1.257   0.154  15.314 -0.6023 -2.1623 -2.1797
 5849SOL    HW229007   1.227   0.194  15.177 -0.5500 -0.2986  0.1889
 5850SOL     OW29008   1.107   0.852   7.644 -0.1718  0.0364  0.4011
 5850SOL    HW129009   1.197   0.831   7.621 -0.2561 -1.0858  1.1024
 5850SOL    HW229010   1.120   0.947   7.649  1.4312 -0.2110  0.8489
 5851SOL     OW29011   0.021   1.361   7.393  0.3758  0.5660 -0.0312
 5851SOL    HW129012   4.691   1.282   7.389 -0.3435  1.0307  0.4870
 5851SOL    HW229013   0.081   1.352   7.319 -1.2779  0.4831 -1.3553
 5852SOL     OW29014   3.982   1.153   7.798 -0.4149  0.0684 -0.2191
 5852SOL    HW129015   3.955   1.220   7.860  0.8343 -1.6923  2.2321
 5852SOL    HW229016   3.947   1.074   7.838 -0.2283 -0.3125 -0.8041
 5853SOL     OW29017   3.018   2.828   9.303 -0.0005 -0.5606  0.6601
 5853SOL    HW129018   2.988   2.903   9.253  0.2319 -0.9017  0.0019
 5853SOL    HW229019   2.983   2.850   9.389  4.9880  1.6390  2.1161
 5854SOL     OW29020   3.690   1.319  15.516 -0.0589  0.0836 -0.0923
 5854SOL    HW129021   3.740   1.363  15.584 -0.5894  2.1897 -1.0295
 5854SOL    HW229022   3.704   1.375  15.439 -0.8367 -0.6688 -0.7868
 5855SOL     OW29023   0.532   4.561   2.100 -0.4244  0.5594  0.5345
 5855SOL    HW129024   0.574   4.647   2.100 -0.0505  0.3717  0.7189
 5855SOL    HW229025   0.606   4.501   2.101 -0.5698  0.3926  1.4733
 5856SOL     OW29026   2.684   0.954   3.346  0.0255 -0.4246 -0.1622
 5856SOL    HW129027   2.634   1.018   3.296 -0.6766 -0.8330  0.0171
 5856SOL    HW229028   2.775   0.985   3.340  0.1195 -0.6456  0.1042
 5857SOL     OW29029   4.278   3.852   6.865 -0.2154  0.0777  0.2252
 5857SOL    HW129030   4.323   3.768   6.867 -1.1755 -0.4893 -2.0062
 5857SOL    HW229031   4.343   3.909   6.906 -2.9706  3.8821 -0.6807
 5858SOL     OW29032   3.100   1.830  15.365 -0.1967  0.2711 -0.6144
 5858SOL    HW129033   3.075   1.886  15.438 -0.6363 -2.3138  1.2276
 5858SOL    HW229034   3.092   1.887  15.289  1.9035  0.1712 -0.9142
 5859SOL     OW29035   0.801   2.146   0.371  0.2334 -0.7993 -0.5199
 5859SOL    HW129036   0.713   2.171   0.342 -1.0408 -2.3611  2.0012
 5859SOL    HW229037   0.813   2.055   0.343  1.5473 -1.2018  1.2995
 5860SOL     OW29038   1.954   2.914  12.128  0.2073 -0.3851  0.1537
 5860SOL    HW129039   1.894   2.885  12.196 -0.7667 -1.1583 -1.0540
 5860SOL    HW229040   1.997   2.987  12.173  2.3743 -0.1017 -2.3833
 5861SOL     OW29041   2.715   1.825   7.455  0.1345  0.0299  0.3271
 5861SOL    HW129042   2.779   1.760   7.483  0.4707 -0.3301 -1.2676
 5861SOL    HW229043   2.750   1.907   7.491  0.6316  0.3907 -0.9691
 5862SOL     OW29044   4.041   4.642   2.756 -0.0344  0.0050 -0.5828
 5862SOL    HW129045   4.127   4.659   2.795 -0.0585  1.6460 -1.2306
 5862SOL    HW229046   3.988   4.702   2.809  1.2365 -0.3339  1.0527
 5863SOL     OW29047   0.931   2.663   1.139  0.2574  0.1048 -0.9620
 5863SOL    HW129048   0.904   2.629   1.224  2.4788  0.9484  0.1035
 5863SOL    HW229049   1.002   2.718   1.172 -0.2246 -0.9080  1.7542
 5864SOL     OW29050   2.269   0.721   0.400  0.5044 -0.3395 -0.2098
 5864SOL    HW129051   2.340   0.733   0.464  1.2360  1.7044 -1.3893
 5864SOL    HW229052   2.260   0.628   0.418  0.4224  0.0530  1.7337
 5865SOL     OW29053   0.005   2.140   0.959 -0.1474 -0.0850 -0.6289
 5865SOL    HW129054   4.713   2.166   1.049 -2.6541  0.9044 -1.3566
 5865SOL    HW229055   4.674   2.206   0.918 -0.0976  2.0428  2.7683
 5866SOL     OW29056   0.205   1.736   7.186 -0.7504  0.4383 -0.3368
 5866SOL    HW129057   0.150   1.695   7.252  1.0160 -0.6491  0.4716
 5866SOL    HW229058   0.140   1.797   7.152 -0.9103 -0.3117 -1.3858
 5867SOL     OW29059   0.382   4.634   0.863  0.4200 -0.0765 -0.4997
 5867SOL    HW129060   0.330   4.626   0.783 -1.0913  1.5205  0.3174
 5867SOL    HW229061   0.325   4.588   0.924  0.6250  1.9190  1.1652
 5868SOL     OW29062   0.062   3.756   0.520 -0.0522  0.0720 -0.2053
 5868SOL    HW129063   0.096   3.823   0.579 -1.3860  0.7957 -0.2622
 5868SOL    HW229064   0.144   3.720   0.487  0.5118  3.5099 -2.4639
 5869SOL     OW29065   0.930   3.860  11.652 -0.0821  0.7690  0.0964
 5869SOL    HW129066   0.878   3.918  11.708 -0.6659 -0.5224  0.8751
 5869SOL    HW229067   0.871   3.808  11.598 -0.4286  0.5438  0.6934
 5870SOL     OW29068   3.555   2.064   6.249 -0.2122 -0.1000 -0.6707
 5870SOL    HW129069   3.483   2.044   6.189  1.2276  0.5368 -2.5818
 5870SOL    HW229070   3.626   2.062   6.185  1.9423  0.9188  1.6989
 5871SOL     OW29071   2.736   2.546   2.245 -0.1449  0.4476  0.1090
 5871SOL    HW129072   2.796   2.595   2.189  2.6378 -0.4664  2.2378
 5871SOL    HW229073   2.785   2.471   2.280 -0.6560 -0.4450 -1.0992
 5872SOL     OW29074   4.232   4.268  14.706 -0.5182  0.1150  0.0583
 5872SOL    HW129075   4.163   4.287  14.770  2.0283  1.9087  2.2630
 5872SOL    HW229076   4.180   4.228  14.636 -1.3331  0.1747  0.6273
 5873SOL     OW29077   4.285   0.344   2.867 -0.0085 -0.0755 -0.0809
 5873SOL    HW129078   4.228   0.387   2.802 -0.3593 -1.2797 -0.5705
 5873SOL    HW229079   4.369   0.389   2.854  0.1788 -0.8711 -1.7303
 5874SOL     OW29080   4.017   2.887  16.880 -0.1198  0.2028  0.2740
 5874SOL    HW129081   4.081   2.866  16.948 -1.1238  1.6999  1.6745
 5874SOL    HW229082   4.062   2.962  16.841  1.4574 -1.8352 -1.8829
 5875SOL     OW29083   1.968   2.339   2.874  0.0435  0.1254  0.2565
 5875SOL    HW129084   1.956   2.398   2.800 -2.6561 -1.0499 -0.2223
 5875SOL    HW229085   2.060   2.317   2.859 -0.4635 -1.9521  0.2152
 5876SOL     OW29086   1.521   1.334  12.029 -0.0573  0.0345 -0.7710
 5876SOL    HW129087   1.530   1.400  11.960 -0.8253 -1.2529 -2.0983
 5876SOL    HW229088   1.602   1.289  12.006 -0.1378  0.7431 -2.4135
 5877SOL     OW29089   2.877   3.266  12.099  0.1858  0.5363 -0.6068
 5877SOL    HW129090   2.886   3.220  12.183 -0.5235 -0.0299 -0.8360
 5877SOL    HW229091   2.886   3.197  12.033 -0.2240  0.4154 -0.5394
 5878SOL     OW29092   3.868   2.367  16.604 -0.1197 -0.1412 -0.2344
 5878SOL    HW129093   3.819   2.286  16.586  1.3429 -1.0510 -0.1064
 5878SOL    HW229094   3.814   2.419  16.664  1.9910  2.7640 -0.8431
 5879SOL     OW29095   0.825   1.286   2.107  0.3969 -0.3609 -0.3649
 5879SOL    HW129096   0.896   1.334   2.149 -0.2755  0.8668 -0.6097
 5879SOL    HW229097   0.801   1.218   2.169  0.8141 -0.0045  0.1827
 5880SOL     OW29098   0.012   1.908   3.637 -0.5959 -0.0751  0.1859
 5880SOL    HW129099   0.003   1.925   3.731  1.2933 -0.9350  0.5250
 5880SOL    HW229100   4.717   1.998   3.611  1.2871  0.5699  0.9590
 5881SOL     OW29101   2.768   3.448   9.067 -0.4302  0.2369  0.2574
 5881SOL    HW129102   2.800   3.538   9.061 -1.0436  0.5554  1.6578
 5881SOL    HW229103   2.702   3.447   8.997 -0.4356  2.4410  0.2555
 5882SOL     OW29104   1.942   4.140   2.300  0.0997 -0.0933  0.4119
 5882SOL    HW129105   1.908   4.055   2.325  2.4806 -0.9253  0.8117
 5882SOL    HW229106   1.858   4.185   2.286  0.2068 -0.2613 -0.7645
 5883SOL     OW29107   1.017   0.036   9.609  1.0126 -0.1404 -0.3415
 5883SOL    HW129108   0.957   4.704   9.657 -1.8500  1.6010 -1.8749
 5883SOL    HW229109   1.030   0.112   9.667 -0.0344  0.7562 -1.2862
 5884SOL     OW29110   2.820   2.950   0.130 -0.4660 -0.1936 -0.1347
 5884SOL    HW129111   2.893   3.010   0.116 -0.6791  0.3428  1.1174
 5884SOL    HW229112   2.791   2.973   0.218  0.6735  0.0262  0.1717
 5885SOL     OW29113   0.764   1.269   2.662 -0.2502 -0.1057  0.4002
 5885SOL    HW129114   0.859   1.257   2.669 -0.0490 -0.5559 -2.7416
 5885SOL    HW229115   0.745   1.291   2.570 -2.5827  0.1908  0.9633
 5886SOL     OW29116   2.231   3.493   5.908 -0.7685  0.0437  0.3289
 5886SOL    HW129117   2.170   3.532   5.845 -0.7897 -0.1402  0.2348
 5886SOL    HW229118   2.225   3.401   5.882  1.1920 -0.0909  0.3472
 5887SOL     OW29119   1.490   0.161   6.065 -0.4069  0.2455  0.2943
 5887SOL    HW129120   1.448   0.246   6.078  0.5865  0.8760 -0.7116
 5887SOL    HW229121   1.576   0.180   6.102 -0.2766 -0.8545  0.5701
 5888SOL     OW29122   0.618   1.164   4.383  0.3672  0.1477  0.2177
 5888SOL    HW129123   0.704   1.194   4.413  0.0998  1.8066 -0.6559
 5888SOL    HW229124   0.628   1.074   4.352  1.2888  0.9637 -1.8561
 5889SOL     OW29125   1.400   1.940  17.008  0.0854 -0.0119  0.4774
 5889SOL    HW129126   1.483   1.911  16.971  0.1216 -1.1671  1.4866
 5889SOL    HW229127   1.368   1.979  16.926  1.8259 -0.3224 -0.3410
 5890SOL     OW29128   0.361   2.351   5.528  0.0059 -0.2260  0.1128
 5890SOL    HW129129   0.319   2.301   5.459  0.1778 -0.5180  0.2215
 5890SOL    HW229130   0.441   2.370   5.480  0.3103  2.5024  1.6689
 5891SOL     OW29131   4.636   3.240   4.873 -0.0620  0.1298  0.2854
 5891SOL    HW129132   4.612   3.191   4.951  0.0686  1.7563  1.3386
 5891SOL    HW229133   4.625   3.180   4.799  0.5628 -0.2912  0.5343
 5892SOL     OW29134   3.412   0.498   1.481  0.1380  0.1318 -0.4828
 5892SOL    HW129135   3.489   0.474   1.533 -1.1080 -2.4531  0.1622
 5892SOL    HW229136   3.423   0.443   1.404  0.4272 -1.7684  0.9045
 5893SOL     OW29137   1.664   1.986   1.266 -0.7284 -0.6267 -0.1820
 5893SOL    HW129138   1.759   1.982   1.259 -0.6931 -0.4488  0.1624
 5893SOL    HW229139   1.649   2.021   1.178 -2.9557 -0.1007  0.4015
 5894SOL     OW29140   3.739   0.544   3.701 -0.4049 -0.8963 -0.2894
 5894SOL    HW129141   3.758   0.450   3.704  2.1127 -0.4080 -0.6878
 5894SOL    HW229142   3.768   0.577   3.786  0.3958  0.2144 -0.9959
 5895SOL     OW29143   4.390   2.055  16.285  0.2313 -0.2118  0.1929
 5895SOL    HW129144   4.365   2.136  16.240  2.1153  0.5413  0.4887
 5895SOL    HW229145   4.320   1.994  16.263  0.4206 -0.1830 -0.4952
 5896SOL     OW29146   1.720   0.597  11.555 -0.5175 -0.1944 -0.6542
 5896SOL    HW129147   1.753   0.675  11.510 -2.5544  0.1367 -1.5773
 5896SOL    HW229148   1.758   0.528  11.501 -1.7152 -0.3106 -1.3491
 5897SOL     OW29149   2.551   1.645   2.268  0.4048 -0.4873  0.0171
 5897SOL    HW129150   2.469   1.610   2.232 -0.1826 -0.6079  1.4642
 5897SOL    HW229151   2.586   1.565   2.307 -1.9430 -0.9802  1.1515
 5898SOL     OW29152   4.376   3.126   3.428  0.1228  0.0004  0.4632
 5898SOL    HW129153   4.344   3.189   3.492 -0.9894  0.4481 -0.5265
 5898SOL    HW229154   4.342   3.166   3.348  1.2227  0.3447  0.1655
 5899SOL     OW29155   1.142   2.488   8.558  0.2054 -0.1463 -0.0607
 5899SOL    HW129156   1.051   2.503   8.584  0.6201  0.2427  1.1846
 5899SOL    HW229157   1.120   2.442   8.477  1.1704 -1.1984  0.2796
 5900SOL     OW29158   2.462   1.966   6.405  0.1491  0.1823 -1.0398
 5900SOL    HW129159   2.425   2.053   6.418  0.9541  0.2994  0.4892
 5900SOL    HW229160   2.515   1.953   6.484 -1.8109 -0.3907  0.2153
 5901SOL     OW29161   3.200   2.320   3.500  0.1537 -0.2546 -0.3036
 5901SOL    HW129162   3.283   2.342   3.542 -0.1928  0.1792  0.1556
 5901SOL    HW229163   3.212   2.226   3.488 -0.6183 -0.1440 -1.9991
 5902SOL     OW29164   2.302   3.545   4.250  0.6696  0.3810 -0.5453
 5902SOL    HW129165   2.343   3.607   4.189  0.6878  1.1586  0.2607
 5902SOL    HW229166   2.383   3.514   4.292  1.4003  0.5414 -1.8203
 5903SOL     OW29167   3.961   0.387   3.314 -0.3715 -0.8724  0.3822
 5903SOL    HW129168   4.007   0.439   3.248  0.9799 -1.5348  0.7916
 5903SOL    HW229169   4.027   0.370   3.381 -0.0331 -0.1791  0.2327
 5904SOL     OW29170   1.320   4.119  11.257 -0.5636 -0.1727 -0.1952
 5904SOL    HW129171   1.248   4.110  11.320 -1.3702 -1.1218 -1.2494
 5904SOL    HW229172   1.282   4.162  11.181  0.9448  0.5282 -0.5575
 5905SOL     OW29173   1.609   0.797   9.622  0.1058 -0.1001 -0.0151
 5905SOL    HW129174   1.583   0.726   9.563  1.2167  2.2171 -3.3493
 5905SOL    HW229175   1.555   0.784   9.700 -0.5740 -1.0445 -0.6370
 5906SOL     OW29176   3.226   1.806   0.728  0.2305 -0.2932  0.5270
 5906SOL    HW129177   3.295   1.784   0.666 -0.8844 -0.9069 -0.5189
 5906SOL    HW229178   3.149   1.780   0.676  2.1287 -0.7370 -2.0788
 5907SOL     OW29179   0.375   1.304   8.362  0.0076 -0.7068  0.0495
 5907SOL    HW129180   0.304   1.241   8.349  0.6357 -1.4135  0.0294
 5907SOL    HW229181   0.453   1.249   8.364  0.4988 -0.0108  0.0104
 5908SOL     OW29182   2.506   4.456   3.220 -0.3119  0.9194 -0.1835
 5908SOL    HW129183   2.446   4.415   3.282 -0.8322  0.0210 -1.2842
 5908SOL    HW229184   2.441   4.501   3.165 -1.0932  2.6568  2.1088
 5909SOL     OW29185   1.332   2.139   8.097  0.4899 -0.6679  0.0288
 5909SOL    HW129186   1.272   2.079   8.140 -0.8745  1.0601  0.5326
 5909SOL    HW229187   1.375   2.184   8.170 -2.1125 -0.3073  1.3484
 5910SOL     OW29188   1.881   1.665   6.243  0.2378  0.1810  0.5570
 5910SOL    HW129189   1.958   1.609   6.252 -1.1856 -1.9784 -0.6497
 5910SOL    HW229190   1.844   1.653   6.331  0.4468 -0.9913  0.4882
 5911SOL     OW29191   0.711   2.783   5.191  0.0893  0.3322  0.4240
 5911SOL    HW129192   0.701   2.878   5.205 -1.0853 -0.2220  3.4242
 5911SOL    HW229193   0.628   2.753   5.229 -1.3254 -1.3460 -4.0577
 5912SOL     OW29194   2.073   2.799   0.646 -0.1237 -0.2036  0.3900
 5912SOL    HW129195   2.145   2.834   0.698 -1.4782  2.4852  0.5049
 5912SOL    HW229196   2.011   2.866   0.676 -0.3026  0.1786 -0.8061
 5913SOL     OW29197   3.855   3.644   3.822  0.2970 -0.2340 -0.1451
 5913SOL    HW129198   3.768   3.662   3.856  0.9486  3.2638 -0.3336
 5913SOL    HW229199   3.901   3.700   3.886 -3.6922  0.6717  1.9602
 5914SOL     OW29200   0.479   3.370   2.042  0.6098  0.1933  0.3116
 5914SOL    HW129201   0.487   3.284   2.082  1.5642 -0.5685 -1.5683
 5914SOL    HW229202   0.389   3.396   2.061  0.8391 -0.3958  2.1976
 5915SOL     OW29203   4.716   3.522   9.533 -0.1636  0.3803 -0.4612
 5915SOL    HW129204   4.637   3.559   9.493 -1.2755 -1.7933 -0.2865
 5915SOL    HW229205   4.697   3.519   9.627  2.3455  0.7391  0.0432
 5916SOL     OW29206   0.921   2.914   6.654 -0.1936 -0.2022 -0.2093
 5916SOL    HW129207   0.986   2.875   6.713 -0.9953 -0.4021  0.5460
 5916SOL    HW229208   0.970   2.917   6.571  1.0760 -2.7055  0.4486
 5917SOL     OW29209   1.872   0.111   1.783  0.1196  0.1155 -0.2519
 5917SOL    HW129210   1.849   0.176   1.850 -1.6182 -1.2356  0.4855
 5917SOL    HW229211   1.943   0.158   1.739  0.0118 -0.5655 -1.1473
 5918SOL     OW29212   4.069   0.874  10.515  0.7007 -0.7231 -0.5902
 5918SOL    HW129213   4.036   0.959  10.543  0.5143 -1.5637  1.7808
 5918SOL    HW229214   4.028   0.812  10.576  2.7794 -1.0288  0.4830
 5919SOL     OW29215   4.534   3.607   7.508 -0.3304 -0.6658 -0.4702
 5919SOL    HW129216   4.627   3.624   7.488 -0.1444 -1.5194 -0.3096
 5919SOL    HW229217   4.536   3.602   7.604 -0.1508  0.3615 -0.4150
 5920SOL     OW29218   0.218   1.656   3.006  0.0437  0.2333  0.2597
 5920SOL    HW129219   0.313   1.648   2.998  0.1996  2.4243 -0.1132
 5920SOL    HW229220   0.196   1.746   2.980  0.5178  0.8937  2.1390
 5921SOL     OW29221   2.641   2.117   6.762 -0.0056  0.0812 -0.0908
 5921SOL    HW129222   2.692   2.139   6.840  1.4556  0.3098 -1.1085
 5921SOL    HW229223   2.644   2.205   6.725 -0.9236  0.5392  0.9264
 5922SOL     OW29224   2.701   0.932   0.488 -0.0925  0.2048 -0.2131
 5922SOL    HW129225   2.717   0.944   0.395 -2.1662  0.8654 -0.4803
 5922SOL    HW229226   2.649   1.011   0.500  0.4273  0.5733 -0.3768
 5923SOL     OW29227   1.584   4.500   6.953  0.0438 -0.0858 -0.0799
 5923SOL    HW129228   1.530   4.432   6.993  3.3532 -2.2770  0.7055
 5923SOL    HW229229   1.548   4.503   6.864 -2.2408  2.0028  0.9167
 5924SOL     OW29230   4.512   2.041   5.402 -0.7672  0.3444 -0.7075
 5924SOL    HW129231   4.547   1.969   5.348  2.3094  1.1412  0.2222
 5924SOL    HW229232   4.470   2.088   5.330  0.6812  0.8158 -1.2535
 5925SOL     OW29233   4.037   0.420   2.696 -0.4880  0.3876 -0.1950
 5925SOL    HW129234   4.111   0.478   2.678  0.6145 -1.0205 -0.2031
 5925SOL    HW229235   3.978   0.449   2.626 -1.7514  0.0755  0.7308
 5926SOL     OW29236   1.208   2.500  17.201 -0.0782  0.3329 -0.1837
 5926SOL    HW129237   1.236   2.409  17.201  0.0979  0.3914  0.6688
 5926SOL    HW229238   1.115   2.480  17.190 -0.6730  1.8515  1.9820
 5927SOL     OW29239   2.863   4.243   7.617  0.0190  0.6672  0.0443
 5927SOL    HW129240   2.853   4.166   7.561  0.5150 -0.5132  1.5776
 5927SOL    HW229241   2.807   4.300   7.563  0.5591  2.2248  1.1204
 5928SOL     OW29242   2.703   0.266   2.485  0.0395  0.3624 -0.0624
 5928SOL    HW129243   2.650   0.245   2.562  0.6997  0.4094  0.4055
 5928SOL    HW229244   2.750   0.345   2.513 -2.2057  1.4486  0.6961
 5929SOL     OW29245   2.856   0.086   6.047 -0.1872  0.5837  0.9152
 5929SOL    HW129246   2.815   0.154   6.100  0.5018  1.4547  0.3252
 5929SOL    HW229247   2.931   0.068   6.104  0.9273 -1.9656 -1.3212
 5930SOL     OW29248   4.072   1.438   3.691 -0.3400 -0.5111  0.3957
 5930SOL    HW129249   3.988   1.449   3.646 -1.4110 -0.2381  2.4742
 5930SOL    HW229250   4.115   1.373   3.635  0.1094 -1.1726  1.5115
 5931SOL     OW29251   0.502   1.473   7.737  0.2053 -0.0553 -0.1749
 5931SOL    HW129252   0.465   1.385   7.745 -2.7726  1.0494 -1.6900
 5931SOL    HW229253   0.501   1.488   7.642  2.3034 -0.3134 -0.2531
 5932SOL     OW29254   0.249   0.668   8.085 -0.5783  0.0403 -0.8241
 5932SOL    HW129255   0.314   0.673   8.155  0.4769 -0.0222 -1.7979
 5932SOL    HW229256   0.312   0.638   8.019  1.2681  3.0166 -0.4096
 5933SOL     OW29257   3.315   4.108   5.526 -0.1170  0.4729  0.2660
 5933SOL    HW129258   3.378   4.113   5.454  2.0395  0.9765  2.1951
 5933SOL    HW229259   3.305   4.198   5.556  2.5919  0.5299  1.0689
 5934SOL     OW29260   0.926   0.477  17.499 -0.0103 -0.4264  0.0247
 5934SOL    HW129261   0.913   0.548  17.563  0.4260  1.2221 -1.7300
 5934SOL    HW229262   0.914   0.528  17.419  1.2341 -0.2300 -0.0398
 5935SOL     OW29263   1.286   0.059   8.966  0.7165  0.2567  0.1292
 5935SOL    HW129264   1.371   0.081   9.003  0.4228 -1.3948  1.7982
 5935SOL    HW229265   1.254   0.149   8.962 -0.4562 -0.1603  0.2469
 5936SOL     OW29266   0.653   1.926   3.725  0.6416  0.4880  0.7277
 5936SOL    HW129267   0.708   1.871   3.670  0.1742  0.4862  0.2598
 5936SOL    HW229268   0.688   2.012   3.750  1.2420  0.2942  0.5529
 5937SOL     OW29269   2.037   4.149   6.021 -0.1684  0.2939  0.2813
 5937SOL    HW129270   2.024   4.214   5.951 -1.1207 -0.9563 -0.7198
 5937SOL    HW229271   2.132   4.155   6.029 -0.2645 -0.0120  1.5977
 5938SOL     OW29272   2.773   1.349   0.647  0.1237  0.5959 -0.3722
 5938SOL    HW129273   2.834   1.341   0.573  0.9276  0.3297  0.3167
 5938SOL    HW229274   2.695   1.298   0.626 -0.0871  1.3315 -1.3812
 5939SOL     OW29275   2.925   1.534   8.521  0.0859  0.1514  0.4467
 5939SOL    HW129276   2.911   1.583   8.603 -2.8885  0.7608 -0.4283
 5939SOL    HW229277   2.897   1.604   8.462  1.9035 -0.2074 -0.8481
 5940SOL     OW29278   1.069   0.245   9.797  0.3841 -0.0429  0.6195
 5940SOL    HW129279   1.041   0.336   9.787 -0.8789 -0.4286  0.6458
 5940SOL    HW229280   1.163   0.265   9.800  0.0380  1.5308  1.0711
 5941SOL     OW29281   2.365   1.034   3.141 -0.2274 -0.2936  0.0728
 5941SOL    HW129282   2.446   1.078   3.167 -1.9883  2.2360  1.2129
 5941SOL    HW229283   2.372   1.036   3.046  3.5760 -2.6560  0.3085
 5942SOL     OW29284   4.709   2.830  10.214  0.4863 -0.2496  0.4684
 5942SOL    HW129285   4.703   2.926  10.213 -0.3797 -0.2862  1.4224
 5942SOL    HW229286   0.043   2.815  10.288 -0.1997  0.2024  1.1115
 5943SOL     OW29287   1.959   3.412  10.166 -0.0326  0.2792  0.0627
 5943SOL    HW129288   2.040   3.377  10.205 -0.8935 -1.9496 -0.1085
 5943SOL    HW229289   1.901   3.394  10.240 -1.7258 -1.5893 -1.6992
 5944SOL     OW29290   2.895   4.353   9.264  0.0994  0.0429  0.3939
 5944SOL    HW129291   2.867   4.402   9.186  0.2945  0.3957  0.5440
 5944SOL    HW229292   2.840   4.397   9.329  1.7756 -0.3142  2.0549
 5945SOL     OW29293   3.823   1.602   8.285  0.2501 -0.0328  0.1012
 5945SOL    HW129294   3.849   1.664   8.352 -0.4570 -0.3188  0.6314
 5945SOL    HW229295   3.855   1.652   8.210  0.3905 -0.5065 -0.1565
 5946SOL     OW29296   3.049   2.075  10.578  0.0069  0.0623 -0.0162
 5946SOL    HW129297   3.026   2.019  10.653  1.8259 -0.2605  0.2884
 5946SOL    HW229298   3.055   2.159  10.624 -1.3141  0.3617 -0.3709
 5947SOL     OW29299   0.841   2.170   1.043 -0.4588 -0.8518 -0.7647
 5947SOL    HW129300   0.850   2.259   1.008  1.6503 -0.0050  1.9525
 5947SOL    HW229301   0.751   2.152   1.016 -0.8359  1.9726 -1.3877
 5948SOL     OW29302   4.672   1.378   3.395 -0.3394 -0.0245 -0.2423
 5948SOL    HW129303   0.020   1.334   3.438 -0.1841 -0.1295 -0.6178
 5948SOL    HW229304   4.712   1.446   3.342  0.7768 -0.6893 -0.2424
 5949SOL     OW29305   3.328   1.631   8.131  0.5392 -0.2988  0.2310
 5949SOL    HW129306   3.292   1.719   8.123  1.6841 -0.1834 -3.6623
 5949SOL    HW229307   3.277   1.603   8.207 -0.7203  0.5654 -0.2944
 5950SOL     OW29308   1.631   0.254   9.876  0.3123 -0.1476  0.6424
 5950SOL    HW129309   1.652   0.161   9.863 -0.0197  0.0111 -1.0071
 5950SOL    HW229310   1.703   0.276   9.935 -0.9442 -0.3684  2.2799
 5951SOL     OW29311   2.590   0.304   3.758  0.0233 -0.0652  0.3846
 5951SOL    HW129312   2.685   0.290   3.754 -0.1195  0.2665 -3.9486
 5951SOL    HW229313   2.567   0.233   3.818 -1.4799  0.6662  0.6554
 5952SOL     OW29314   2.511   2.250  16.201 -0.7993  0.2561  0.1129
 5952SOL    HW129315   2.461   2.273  16.123  0.8486 -1.1656 -1.3560
 5952SOL    HW229316   2.448   2.263  16.272  0.3661  0.3690  1.1414
 5953SOL     OW29317   3.250   0.046   1.293 -0.6444 -0.0893  0.1479
 5953SOL    HW129318   3.262   4.677   1.279 -3.0555 -0.7065  2.2018
 5953SOL    HW229319   3.325   0.068   1.348  0.7888 -1.3257 -1.3069
 5954SOL     OW29320   2.655   0.444   7.187  0.0665  0.1233  0.1691
 5954SOL    HW129321   2.692   0.467   7.272  1.9291 -0.3043 -0.5141
 5954SOL    HW229322   2.567   0.481   7.197  1.1556  2.9387 -0.6578
 5955SOL     OW29323   2.254   2.231   5.817 -0.8659  0.1349  0.0900
 5955SOL    HW129324   2.259   2.294   5.889 -2.1744  2.2228 -1.6521
 5955SOL    HW229325   2.170   2.191   5.836 -0.8881 -0.5705 -1.4583
 5956SOL     OW29326   1.047   1.032  14.817 -0.6800  0.3172 -0.2013
 5956SOL    HW129327   1.012   1.096  14.878 -3.3433 -2.9770  1.7705
 5956SOL    HW229328   1.092   0.968  14.872 -2.0843 -1.6617 -1.3322
 5957SOL     OW29329   2.659   0.220   2.762 -0.1284  0.0013  0.1943
 5957SOL    HW129330   2.589   0.201   2.824 -1.6144  0.0620 -1.4538
 5957SOL    HW229331   2.714   0.142   2.765  1.6616  1.3603  2.4794
 5958SOL     OW29332   2.473   1.362  13.721  0.2849  0.0828  0.2744
 5958SOL    HW129333   2.465   1.379  13.815 -2.1233 -3.5920  0.7569
 5958SOL    HW229334   2.498   1.447  13.686  0.6680  0.0172  0.3946
 5959SOL     OW29335   2.939   2.940   1.470  0.4078  0.2830 -0.0406
 5959SOL    HW129336   2.913   2.901   1.387 -2.6620  1.3536  0.3971
 5959SOL    HW229337   2.947   2.867   1.532 -3.8268  1.3415  1.7612
 5960SOL     OW29338   2.386   0.848   8.478  0.2514 -0.4883 -0.6893
 5960SOL    HW129339   2.479   0.841   8.457  0.6060  0.2256  0.6577
 5960SOL    HW229340   2.398   0.910   8.550 -1.7323 -0.7725 -0.1028
 5961SOL     OW29341   4.343   0.833  10.508  0.0616  0.5889  0.0572
 5961SOL    HW129342   4.250   0.856  10.521  0.0834 -0.3699  1.8811
 5961SOL    HW229343   4.343   0.806  10.417  1.1449  0.6303  0.0510
 5962SOL     OW29344   1.337   1.003  12.171  0.0311 -0.6445  0.0254
 5962SOL    HW129345   1.284   1.080  12.189 -0.5912 -0.5965 -1.9839
 5962SOL    HW229346   1.272   0.937  12.197  1.6222 -2.2577 -0.0578
 5963SOL     OW29347   4.086   3.763   0.718  0.1312  0.2856  0.2725
 5963SOL    HW129348   4.159   3.710   0.687  1.4387  1.8582  0.7009
 5963SOL    HW229349   4.118   3.792   0.803 -0.1679  4.0066 -0.8733
 5964SOL     OW29350   2.933   2.629   7.399 -0.3145 -0.3304  0.2893
 5964SOL    HW129351   3.015   2.584   7.377 -0.4496 -0.5136  0.1637
 5964SOL    HW229352   2.958   2.718   7.426  0.4547 -0.8367  1.2827
 5965SOL     OW29353   0.386   4.252   5.207 -0.5994  0.8811 -0.6839
 5965SOL    HW129354   0.363   4.169   5.164 -1.7602  0.6631  0.3591
 5965SOL    HW229355   0.424   4.303   5.135 -0.9566  0.8948 -0.8638
 5966SOL     OW29356   2.314   1.953   7.930 -0.4756  0.2995 -0.2785
 5966SOL    HW129357   2.280   1.869   7.902 -0.0967  0.6156 -1.6893
 5966SOL    HW229358   2.270   2.013   7.870 -0.8470  0.3796  0.0748
 5967SOL     OW29359   3.253   3.307   8.275 -0.4906 -0.1116  0.1475
 5967SOL    HW129360   3.227   3.398   8.262  2.4902  0.9271  1.4124
 5967SOL    HW229361   3.229   3.297   8.367  1.8560 -1.3079  0.6392
 5968SOL     OW29362   0.188   3.812  16.460  0.0685 -0.1608  0.6908
 5968SOL    HW129363   0.236   3.759  16.524  1.2483  1.1886  0.9234
 5968SOL    HW229364   0.199   3.897  16.502 -0.7303  1.2409 -1.9229
 5969SOL     OW29365   0.793   2.125   3.269 -0.0264  0.2755  0.7105
 5969SOL    HW129366   0.743   2.112   3.189 -0.8017 -1.6870  1.5078
 5969SOL    HW229367   0.767   2.042   3.308 -0.5559 -0.1248 -0.5202
 5970SOL     OW29368   2.514   1.404  17.643 -0.7797  0.2671 -0.3788
 5970SOL    HW129369   2.421   1.428  17.636 -0.8520  0.8059  2.6870
 5970SOL    HW229370   2.545   1.495  17.651 -2.4447  0.8345 -0.3506
 5971SOL     OW29371   1.208   4.412  17.455  0.8310  0.9212  0.2829
 5971SOL    HW129372   1.221   4.318  17.448  2.3480  1.2594 -1.5577
 5971SOL    HW229373   1.113   4.424  17.463  0.9747  2.4742 -0.4155
 5972SOL     OW29374   2.058   1.990   2.370 -0.2014 -1.0442  0.1657
 5972SOL    HW129375   2.138   1.991   2.318 -0.4001 -0.0667 -0.1143
 5972SOL    HW229376   2.009   2.066   2.338  1.4996 -0.6170 -1.4353
 5973SOL     OW29377   3.980   3.494   3.116  0.1730 -0.5433  0.3139
 5973SOL    HW129378   4.060   3.441   3.114  1.0664  0.7998  0.9042
 5973SOL    HW229379   3.923   3.417   3.116 -1.6263  0.7808  1.0193
 5974SOL     OW29380   4.111   0.256   2.157  0.4469  0.0668 -0.3618
 5974SOL    HW129381   4.175   0.310   2.110 -1.9134  1.3830 -2.0979
 5974SOL    HW229382   4.026   0.297   2.137 -2.0865 -3.5083  3.1876
 5975SOL     OW29383   4.345   2.435   6.685  0.7175 -0.2544 -0.1236
 5975SOL    HW129384   4.337   2.344   6.654 -3.0844  0.2610 -0.7406
 5975SOL    HW229385   4.400   2.479   6.621 -0.4363 -0.4163 -1.2445
 5976SOL     OW29386   2.663   0.844   8.529 -0.0211 -0.0163  0.7755
 5976SOL    HW129387   2.751   0.825   8.496  0.1747  3.5041 -0.7249
 5976SOL    HW229388   2.687   0.833   8.621  0.4474 -0.4703  0.6053
 5977SOL     OW29389   0.501   1.405  15.238  0.3619 -0.4681 -0.0959
 5977SOL    HW129390   0.406   1.409  15.238  0.3574 -0.7814  1.6057
 5977SOL    HW229391   0.513   1.391  15.144  0.9774 -0.7464  0.0253
 5978SOL     OW29392   1.579   2.881  17.129 -0.1574  0.3202 -0.2567
 5978SOL    HW129393   1.670   2.852  17.141  0.3753  0.8877 -3.0312
 5978SOL    HW229394   1.546   2.889  17.219  1.2672  0.2700  0.2772
 5979SOL     OW29395   1.356   3.300   5.206 -0.4285 -0.9358  0.3483
 5979SOL    HW129396   1.348   3.214   5.247 -0.2186 -0.5540  1.1738
 5979SOL    HW229397   1.365   3.355   5.284 -2.0167 -0.4867  0.2191
 5980SOL     OW29398   3.006   2.468   0.500 -0.0966 -0.1639  0.3297
 5980SOL    HW129399   3.031   2.560   0.490  0.9927 -0.3499  1.4905
 5980SOL    HW229400   2.968   2.457   0.412  0.4292 -1.9902  0.3225
 5981SOL     OW29401   2.507   2.891  10.886 -0.3033  0.8425  0.0511
 5981SOL    HW129402   2.448   2.827  10.925 -0.5729  0.1811 -1.4210
 5981SOL    HW229403   2.438   2.931  10.833 -0.4263 -1.4213 -1.4656
 5982SOL     OW29404   0.938   2.463   5.407 -0.0310 -0.1345 -0.0281
 5982SOL    HW129405   0.913   2.492   5.319  0.2361 -0.3873 -0.1896
 5982SOL    HW229406   1.019   2.414   5.388  0.9684  1.3803  0.3078
 5983SOL     OW29407   1.374   1.385   3.970  0.4754 -0.2016  0.0472
 5983SOL    HW129408   1.451   1.337   4.004 -0.0820 -1.5412 -0.5698
 5983SOL    HW229409   1.423   1.447   3.916 -0.8043  1.8491  1.2442
 5984SOL     OW29410   3.979   3.783   9.323  0.1961 -0.3266  0.5408
 5984SOL    HW129411   3.967   3.708   9.382 -0.4808 -0.6027  0.0536
 5984SOL    HW229412   4.054   3.755   9.272  0.8807 -0.5408  1.6599
 5985SOL     OW29413   4.270   2.472   1.824 -0.1310  0.0618 -0.3639
 5985SOL    HW129414   4.357   2.436   1.844  0.6609  0.9528 -2.1793
 5985SOL    HW229415   4.223   2.406   1.773 -1.1863 -1.2071  2.2534
 5986SOL     OW29416   4.080   3.692   7.191  0.1203  0.0304 -0.2700
 5986SOL    HW129417   4.159   3.673   7.243  1.2325  0.4557 -1.7885
 5986SOL    HW229418   4.046   3.763   7.245  2.0254  1.1972 -0.6094
 5987SOL     OW29419   1.677   3.994   2.347 -0.0531  0.0249 -0.1438
 5987SOL    HW129420   1.685   4.075   2.297 -1.9744  1.0843  1.2740
 5987SOL    HW229421   1.602   3.956   2.302  1.6114 -1.2625 -1.7996
 5988SOL     OW29422   3.454   1.438   4.081  0.3494 -0.3713  0.5453
 5988SOL    HW129423   3.397   1.365   4.060  2.1480 -1.6150 -0.0149
 5988SOL    HW229424   3.413   1.510   4.034  0.6390 -0.5494  0.0265
 5989SOL     OW29425   1.092   2.209  14.897 -0.0355 -0.4229 -0.6864
 5989SOL    HW129426   1.169   2.227  14.952 -0.2176  0.2506 -0.6576
 5989SOL    HW229427   1.089   2.284  14.839  0.2519  0.3163  0.2572
 5990SOL     OW29428   4.330   4.159   5.126  0.2574 -0.2244 -0.6589
 5990SOL    HW129429   4.323   4.067   5.153 -1.0354 -0.3549 -1.4515
 5990SOL    HW229430   4.404   4.182   5.183 -1.4853  1.1193  1.0426
 5991SOL     OW29431   2.240   0.221   2.414 -0.1703  0.4875  0.2380
 5991SOL    HW129432   2.283   0.297   2.454  1.0991 -0.5599  0.8545
 5991SOL    HW229433   2.298   0.154   2.449  1.6720  2.3051  0.6561
 5992SOL     OW29434   1.983   2.179   8.174  0.7040  0.5397 -0.3556
 5992SOL    HW129435   2.016   2.090   8.173 -0.3437  0.1261  1.1123
 5992SOL    HW229436   1.889   2.170   8.159  0.9555  0.3507 -1.8667
 5993SOL     OW29437   2.613   3.715  10.691 -0.5809 -0.0947 -0.0623
 5993SOL    HW129438   2.593   3.626  10.722  1.5474  0.4378  2.8417
 5993SOL    HW229439   2.568   3.717  10.607 -0.5179  1.2325 -0.0542
 5994SOL     OW29440   1.169   4.564   3.142 -0.4800 -0.4140  0.0312
 5994SOL    HW129441   1.188   4.647   3.098 -0.8905 -0.5654 -0.4368
 5994SOL    HW229442   1.164   4.503   3.069 -0.1264 -0.7912  0.3233
 5995SOL     OW29443   2.341   2.153  16.920 -0.1951 -0.3268  0.5218
 5995SOL    HW129444   2.406   2.212  16.960  2.1076 -2.6487  0.2013
 5995SOL    HW229445   2.267   2.206  16.892  1.4279  0.8036 -1.6109
 5996SOL     OW29446   2.975   2.267   0.169  0.3338  0.5756 -0.4133
 5996SOL    HW129447   3.032   2.294   0.097 -0.1961  0.4576 -0.8782
 5996SOL    HW229448   2.946   2.354   0.196 -1.2931 -0.3303  0.7653
 5997SOL     OW29449   1.941   1.365   8.577 -0.3526 -0.2236 -0.1690
 5997SOL    HW129450   1.920   1.272   8.589 -2.5882  0.4916  1.3105
 5997SOL    HW229451   2.036   1.354   8.578 -0.2900  0.1710 -1.8054
 5998SOL     OW29452   2.064   3.691   4.417  1.1344  0.3588 -0.4390
 5998SOL    HW129453   2.036   3.601   4.402 -0.2921  1.4310 -4.0822
 5998SOL    HW229454   2.002   3.743   4.367 -0.5813 -0.2694  1.0632
 5999SOL     OW29455   0.563   3.958   0.170  0.5262 -0.5904  0.5474
 5999SOL    HW129456   0.607   3.875   0.153 -1.1195 -1.0765 -1.3759
 5999SOL    HW229457   0.613   3.993   0.244  1.1669  0.6555 -0.4802
 6000SOL     OW29458   0.746   1.755  15.109  0.0533  0.2378 -0.1009
 6000SOL    HW129459   0.801   1.767  15.031 -1.5484  1.2545 -1.0770
 6000SOL    HW229460   0.801   1.808  15.166  0.8367  2.3796 -2.8260
 6001SOL     OW29461   2.998   1.010   1.058 -0.1591  0.0424 -0.3935
 6001SOL    HW129462   3.063   1.003   0.988 -0.2803 -0.3046 -0.4724
 6001SOL    HW229463   2.974   0.917   1.056  0.7878 -0.1936 -0.5999
 6002SOL     OW29464   2.342   3.867   5.235 -0.2095 -0.6029 -0.5774
 6002SOL    HW129465   2.251   3.848   5.214 -0.0591 -0.5550 -1.2866
 6002SOL    HW229466   2.336   3.932   5.305  3.1817 -0.6177 -0.2637
 6003SOL     OW29467   3.928   4.679   6.973  0.0709  0.2107 -0.0889
 6003SOL    HW129468   3.873   4.663   6.897  1.4335 -0.5392 -0.9129
 6003SOL    HW229469   3.919   4.612   7.040 -0.4713 -0.6174 -1.0043
 6004SOL     OW29470   1.535   2.174   6.196 -0.3265  0.0899  0.3677
 6004SOL    HW129471   1.597   2.184   6.268  1.0810  0.7885 -0.9464
 6004SOL    HW229472   1.589   2.213   6.127 -1.0271  0.1068 -0.1719
 6005SOL     OW29473   0.789   1.012  13.346 -0.4929  0.3767 -0.6516
 6005SOL    HW129474   0.777   1.054  13.431 -4.5853 -0.8504 -0.6454
 6005SOL    HW229475   0.703   1.031  13.308 -0.6903  0.8365  0.0155
 6006SOL     OW29476   3.663   2.604   7.807  0.5801 -0.2067 -0.5098
 6006SOL    HW129477   3.602   2.556   7.752  1.5932 -2.7637  0.6101
 6006SOL    HW229478   3.604   2.665   7.851 -2.6274 -3.8533  0.2889
 6007SOL     OW29479   0.003   2.987   3.089  0.7528 -0.6940  0.1455
 6007SOL    HW129480   4.646   3.027   3.057  1.1180  0.6727  0.9003
 6007SOL    HW229481   4.703   2.984   3.181 -0.7074 -1.5906 -0.2774
 6008SOL     OW29482   1.290   0.961  12.455  0.1123  1.0580 -0.3778
 6008SOL    HW129483   1.329   0.885  12.498 -0.1455  1.4566  0.5772
 6008SOL    HW229484   1.368   1.011  12.432  0.2641  0.8764 -0.2556
 6009SOL     OW29485   0.360   3.981   5.133  0.3774  0.3643  0.3122
 6009SOL    HW129486   0.285   3.950   5.185 -1.5785 -0.3214 -2.9153
 6009SOL    HW229487   0.353   3.911   5.068 -2.3000  1.9283 -1.0701
 6010SOL     OW29488   0.957   0.856   6.298  0.0534  0.3233  0.2802
 6010SOL    HW129489   0.913   0.776   6.325 -1.6203  1.6280  1.3797
 6010SOL    HW229490   0.887   0.919   6.308  0.7823  0.8027  2.3615
 6011SOL     OW29491   3.086   1.551   1.094 -0.1551 -0.0891  0.2161
 6011SOL    HW129492   3.118   1.465   1.069  0.1160 -0.0102  0.2855
 6011SOL    HW229493   2.993   1.528   1.099 -0.3454  0.5372 -0.4192
 6012SOL     OW29494   3.609   3.378   6.158 -0.3830 -0.2473  0.3410
 6012SOL    HW129495   3.671   3.305   6.157  1.5639  1.4488 -2.3633
 6012SOL    HW229496   3.631   3.417   6.073 -0.4768 -2.2255 -0.6002
 6013SOL     OW29497   3.303   3.088   9.216  0.0170  0.3252 -0.3088
 6013SOL    HW129498   3.275   3.001   9.187 -0.6447 -0.0060  1.2849
 6013SOL    HW229499   3.229   3.115   9.271  0.0546  0.0995 -0.1472
 6014SOL     OW29500   0.168   0.874   4.025  0.2168  0.1608  0.3270
 6014SOL    HW129501   0.163   0.950   4.083  0.9641  1.8889 -1.8933
 6014SOL    HW229502   0.084   0.834   4.049  0.7761 -2.2415 -1.7503
 6015SOL     OW29503   1.790   2.613   9.422 -0.3565 -0.1712 -0.1592
 6015SOL    HW129504   1.861   2.670   9.394 -1.6827  0.5937 -1.9414
 6015SOL    HW229505   1.720   2.677   9.409 -0.9998 -0.0241  3.8981
 6016SOL     OW29506   1.932   1.897  15.717  0.8347  0.4860 -0.2673
 6016SOL    HW129507   1.857   1.955  15.703  2.5160  2.5443 -0.8013
 6016SOL    HW229508   1.908   1.845  15.793  0.1388  0.9868 -0.1479
 6017SOL     OW29509   2.806   1.106   6.864 -1.0197 -0.2777  0.0762
 6017SOL    HW129510   2.867   1.044   6.904  0.3151  1.5789  0.9214
 6017SOL    HW229511   2.749   1.128   6.938  1.7826  3.0394  1.2368
 6018SOL     OW29512   4.383   1.702   8.922 -0.1262  0.3125  0.0176
 6018SOL    HW129513   4.299   1.741   8.946 -0.4942 -1.2087  1.2023
 6018SOL    HW229514   4.392   1.633   8.989 -1.6368 -0.7180 -0.8254
 6019SOL     OW29515   3.132   3.136   8.038  0.2804 -0.7248 -0.0476
 6019SOL    HW129516   3.063   3.109   7.978 -0.6234  0.7515  0.3206
 6019SOL    HW229517   3.146   3.228   8.018 -0.2838 -0.5076  0.5758
 6020SOL     OW29518   2.091   3.899   8.738  0.6314 -0.3412  0.3124
 6020SOL    HW129519   2.113   3.897   8.644  2.3240  0.5750  0.6913
 6020SOL    HW229520   2.010   3.950   8.739  2.1197  2.0193  0.9047
 6021SOL     OW29521   0.476   3.657   5.075  0.3331 -0.0677  0.1794
 6021SOL    HW129522   0.562   3.693   5.098  0.4750  0.1339 -0.6737
 6021SOL    HW229523   0.497   3.600   5.001  3.2145  0.6422  0.4452
 6022SOL     OW29524   0.733   4.368   0.660  0.3004  0.4236  0.1803
 6022SOL    HW129525   0.773   4.367   0.573 -0.6802  1.7677 -0.2887
 6022SOL    HW229526   0.814   4.361   0.710 -0.1662 -0.7532  0.8026
 6023SOL     OW29527   1.366   2.168   5.076 -0.9948 -0.3015  0.5490
 6023SOL    HW129528   1.343   2.104   5.008  0.9651 -1.0536  0.5978
 6023SOL    HW229529   1.351   2.247   5.023 -1.5215  0.1145  1.3290
 6024SOL     OW29530   0.708   0.149   4.848 -0.1166  0.3120  0.0744
 6024SOL    HW129531   0.661   0.162   4.766  1.4234 -1.1118 -1.0137
 6024SOL    HW229532   0.800   0.139   4.827 -0.4280 -0.9148 -0.7032
 6025SOL     OW29533   2.855   0.230   4.248  0.0978  0.3440  0.4821
 6025SOL    HW129534   2.937   0.273   4.224 -0.5109  0.2143 -1.8936
 6025SOL    HW229535   2.864   0.238   4.342 -0.1611 -1.3075  0.6584
 6026SOL     OW29536   2.955   4.084   7.035 -0.2098 -0.0156  0.1559
 6026SOL    HW129537   2.963   4.136   6.955  0.1449  0.4433  0.4886
 6026SOL    HW229538   3.028   4.024   7.024  0.2220  0.7005 -0.8434
 6027SOL     OW29539   2.263   1.028   5.609  0.3925 -0.2210  0.0435
 6027SOL    HW129540   2.355   1.044   5.591  0.2466  1.0503  0.4449
 6027SOL    HW229541   2.260   0.932   5.613  1.1436 -0.2796 -0.7431
 6028SOL     OW29542   0.369   0.569   4.163 -0.0062 -0.4810 -0.0887
 6028SOL    HW129543   0.404   0.572   4.252  1.6872  1.6219 -0.8313
 6028SOL    HW229544   0.277   0.561   4.186  0.1391 -1.7969  0.0507
 6029SOL     OW29545   4.370   0.762   8.990  0.2970  0.0447  0.0976
 6029SOL    HW129546   4.417   0.682   9.011  1.2624  0.5084 -0.2824
 6029SOL    HW229547   4.312   0.763   9.066  0.6420  0.3090  0.3593
 6030SOL     OW29548   3.825   1.606  14.472 -0.2645 -0.3717  0.3480
 6030SOL    HW129549   3.744   1.602  14.421  0.4779  0.5731 -0.9224
 6030SOL    HW229550   3.872   1.678  14.430  0.5813 -0.6850  0.7614
 6031SOL     OW29551   0.670   1.925   6.606  0.0641  0.7369  0.2699
 6031SOL    HW129552   0.587   1.878   6.607  2.1038 -2.8442  1.7120
 6031SOL    HW229553   0.647   2.004   6.655 -0.4413  0.9214 -0.2759
 6032SOL     OW29554   1.776   1.706   3.782  0.8073  0.2629 -0.0654
 6032SOL    HW129555   1.856   1.695   3.834  1.9832  2.7510 -1.3420
 6032SOL    HW229556   1.808   1.765   3.714 -1.1115 -0.0583 -1.2484
 6033SOL     OW29557   0.674   1.494   3.757 -0.4372  0.1072 -0.2077
 6033SOL    HW129558   0.636   1.521   3.673  0.0573 -0.3797 -0.5932
 6033SOL    HW229559   0.602   1.437   3.783 -0.4553  0.6165  0.8676
 6034SOL     OW29560   3.657   4.507   1.438  0.0949 -0.0464  0.2576
 6034SOL    HW129561   3.618   4.446   1.501  0.8241 -2.0141 -1.2229
 6034SOL    HW229562   3.727   4.545   1.491  0.6796 -0.3336 -0.3129
 6035SOL     OW29563   2.562   2.393   9.236 -0.6196  0.4224 -0.0963
 6035SOL    HW129564   2.577   2.481   9.273  1.9182 -0.1748  0.2848
 6035SOL    HW229565   2.653   2.374   9.213 -0.4722 -1.4225  1.9912
 6036SOL     OW29566   2.974   2.268   6.308  0.3744 -0.6854 -0.2140
 6036SOL    HW129567   2.998   2.306   6.223 -0.1491  0.9703  0.3709
 6036SOL    HW229568   3.031   2.191   6.307 -1.3061 -1.9695  3.4787
 6037SOL     OW29569   2.390   2.640  14.009  0.1817  0.0021 -0.0214
 6037SOL    HW129570   2.424   2.605  13.926 -1.5441  0.8569 -1.0889
 6037SOL    HW229571   2.475   2.651  14.051 -0.0142  1.8245 -0.1015
 6038SOL     OW29572   2.723   2.672   5.552 -0.2309 -0.1731 -0.6393
 6038SOL    HW129573   2.723   2.620   5.472 -0.1245  0.1672 -0.8593
 6038SOL    HW229574   2.763   2.613   5.616  1.4827  0.6185 -0.9661
 6039SOL     OW29575   1.966   0.554  10.088  0.0291  0.1770  0.3585
 6039SOL    HW129576   2.058   0.553  10.061 -0.2212  1.9422 -0.5712
 6039SOL    HW229577   1.949   0.648  10.098  1.1735  0.5937 -1.5229
 6040SOL     OW29578   1.109   4.115  11.468 -0.2380  0.3659  0.4886
 6040SOL    HW129579   1.075   4.061  11.540  0.6443 -2.4376 -1.1873
 6040SOL    HW229580   1.039   4.124  11.404 -0.4488 -2.5363  0.2940
 6041SOL     OW29581   4.163   3.399  14.451  0.3822  0.9548 -0.6987
 6041SOL    HW129582   4.099   3.336  14.486 -0.6500  1.9275 -0.8311
 6041SOL    HW229583   4.170   3.373  14.359  0.2309  0.6163 -0.6167
 6042SOL     OW29584   4.527   1.062   2.717  0.0781  0.3362 -0.0942
 6042SOL    HW129585   4.498   1.062   2.809 -2.7432  2.9440 -0.9883
 6042SOL    HW229586   4.564   1.150   2.710  1.3394 -0.1155  0.7839
 6043SOL     OW29587   0.450   0.217  16.640 -0.2596 -0.2781 -0.1445
 6043SOL    HW129588   0.428   0.130  16.674 -1.6384  0.2847  0.4126
 6043SOL    HW229589   0.400   0.280  16.692 -0.0290 -0.4432  0.2742
 6044SOL     OW29590   0.109   0.495   4.291  0.3715 -0.2396  0.5571
 6044SOL    HW129591   0.143   0.406   4.294 -1.1139 -0.7677  2.2336
 6044SOL    HW229592   0.034   0.480   4.233 -0.7014 -0.3084  1.9614
 6045SOL     OW29593   1.054   0.519  17.003  0.3698 -0.3196  0.1533
 6045SOL    HW129594   1.032   0.591  16.943  0.5465  0.3951  0.9506
 6045SOL    HW229595   1.149   0.519  16.999  0.4140 -2.3515  1.4250
 6046SOL     OW29596   3.146   4.065  11.476  0.1464 -0.7166 -0.5934
 6046SOL    HW129597   3.149   4.147  11.525 -0.7504 -0.5717 -0.7966
 6046SOL    HW229598   3.201   4.008  11.530 -0.3826 -1.0541 -0.4160
 6047SOL     OW29599   2.573   4.029   9.760  0.0786 -0.1739  0.5968
 6047SOL    HW129600   2.561   4.049   9.853  1.6223  2.5831  0.2042
 6047SOL    HW229601   2.503   3.971   9.730  0.2419  1.4572 -3.0478
 6048SOL     OW29602   3.069   2.562  16.652 -0.2771  0.0863 -0.1890
 6048SOL    HW129603   3.031   2.629  16.710 -0.5185  1.0751 -1.4897
 6048SOL    HW229604   3.001   2.561  16.585 -1.3570  0.3276  0.9047
 6049SOL     OW29605   0.433   2.348  17.362 -0.3705 -0.1415 -0.1685
 6049SOL    HW129606   0.493   2.413  17.399 -1.9468  0.9929  0.3966
 6049SOL    HW229607   0.391   2.390  17.287  5.3057  0.4634 -3.0662
 6050SOL     OW29608   3.506   1.524  15.653  0.0387 -0.0653  0.8200
 6050SOL    HW129609   3.447   1.470  15.601 -0.0117  0.6409  0.1630
 6050SOL    HW229610   3.523   1.594  15.591  0.0910  0.3593  1.3142
 6051SOL     OW29611   0.309   4.086   4.868 -0.6436  0.4844  0.3524
 6051SOL    HW129612   0.304   3.991   4.876  0.1326  0.5958  2.0201
 6051SOL    HW229613   0.248   4.108   4.938  0.3457 -0.3656  1.4869
 6052SOL     OW29614   1.667   4.120  12.871  0.4324 -0.3956  0.2226
 6052SOL    HW129615   1.750   4.085  12.838 -0.8543 -0.9542 -2.3860
 6052SOL    HW229616   1.694   4.199  12.919 -2.1902  1.7415 -1.7965
 6053SOL     OW29617   3.473   0.539   9.052  0.4794 -0.9258  0.1751
 6053SOL    HW129618   3.447   0.450   9.073  0.1187 -0.4587  1.7088
 6053SOL    HW229619   3.396   0.584   9.088 -0.6674 -0.9309 -2.2766
 6054SOL     OW29620   4.549   2.378  12.689  0.3930 -0.1159 -0.2132
 6054SOL    HW129621   4.482   2.407  12.751  1.6794  0.6029  0.8196
 6054SOL    HW229622   4.636   2.382  12.727 -0.3120 -1.1414  1.5286
 6055SOL     OW29623   4.658   4.407   6.672  0.6823  0.5646  0.0173
 6055SOL    HW129624   0.029   4.410   6.665  0.5578  2.7594 -0.6274
 6055SOL    HW229625   4.637   4.494   6.706  0.2786  0.6313 -0.4092
 6056SOL     OW29626   0.794   0.294   3.713  0.1718  0.2935  0.2795
 6056SOL    HW129627   0.720   0.332   3.760 -0.4115 -1.0483  0.4468
 6056SOL    HW229628   0.830   0.234   3.779  1.7179  0.3225 -0.5419
 6057SOL     OW29629   0.565   1.166   6.691  0.2980  0.1851  0.1261
 6057SOL    HW129630   0.483   1.167   6.642  0.5225  2.4065 -0.2151
 6057SOL    HW229631   0.537   1.226   6.760  2.1110 -0.2688  1.2463
 6058SOL     OW29632   2.135   3.130   3.706  0.2844 -0.3010  0.1677
 6058SOL    HW129633   2.114   3.198   3.770  0.9082 -0.4145  0.5028
 6058SOL    HW229634   2.092   3.056   3.749 -1.1891  1.2269  1.3220
 6059SOL     OW29635   2.549   0.340  15.382 -0.0129  0.0007  0.0635
 6059SOL    HW129636   2.626   0.358  15.329 -0.8535 -1.0053 -1.5163
 6059SOL    HW229637   2.581   0.291  15.458  1.7451  1.3991  0.2130
 6060SOL     OW29638   0.557   0.016   3.285  0.1819  0.1849  0.0827
 6060SOL    HW129639   0.624   4.699   3.230 -0.5461 -3.0802  1.6128
 6060SOL    HW229640   0.606   0.050   3.360 -1.3693  0.3864  1.0103
 6061SOL     OW29641   4.543   4.269   3.922  0.1182  0.0236 -0.1485
 6061SOL    HW129642   4.561   4.279   4.015 -1.7513 -1.0489  0.3004
 6061SOL    HW229643   4.599   4.332   3.875  3.0295 -0.8560  2.1193
 6062SOL     OW29644   2.516   2.772   7.119 -0.2242 -0.5299 -0.8315
 6062SOL    HW129645   2.439   2.719   7.141 -0.7420  0.6457  0.2256
 6062SOL    HW229646   2.565   2.749   7.199 -2.2980  0.6585  0.7797
 6063SOL     OW29647   2.204   2.797   7.408  0.1177  0.6271  0.3948
 6063SOL    HW129648   2.250   2.856   7.467  0.3639  1.0519 -0.2208
 6063SOL    HW229649   2.182   2.860   7.339 -0.1215  3.2875  2.9362
 6064SOL     OW29650   2.773   2.792   3.294 -0.0367  0.4986  0.4431
 6064SOL    HW129651   2.690   2.831   3.267 -0.9388 -0.3034  2.0584
 6064SOL    HW229652   2.767   2.698   3.274  0.3438  0.3809  0.8795
 6065SOL     OW29653   4.692   0.246   4.889  0.0997  0.1923  0.1886
 6065SOL    HW129654   0.041   0.281   4.837  0.6210 -1.7765 -0.4207
 6065SOL    HW229655   4.655   0.176   4.836 -0.3842 -2.1143  3.5784
 6066SOL     OW29656   1.494   0.554   6.758 -1.0519  0.0637  0.6526
 6066SOL    HW129657   1.522   0.462   6.754  1.8477  0.9744 -0.1198
 6066SOL    HW229658   1.536   0.590   6.836  1.4365 -1.6252  0.1004
 6067SOL     OW29659   3.609   4.684  16.693 -0.4826 -0.3053 -0.5944
 6067SOL    HW129660   3.683   4.720  16.644  0.6474 -0.5107  0.9362
 6067SOL    HW229661   3.549   4.671  16.620 -0.8477  0.5646 -0.4415
 6068SOL     OW29662   4.593   1.237   9.765 -0.1715  0.0854 -0.1394
 6068SOL    HW129663   4.644   1.158   9.752 -0.0531 -0.0144  0.9169
 6068SOL    HW229664   4.503   1.207   9.781  0.2993 -1.2407 -0.0331
 6069SOL     OW29665   2.915   0.078   7.208  0.3047 -0.2464 -0.0410
 6069SOL    HW129666   2.871   0.027   7.276 -0.2846 -0.3370 -0.4868
 6069SOL    HW229667   2.970   0.008   7.172  1.4514 -0.2647  1.7795
 6070SOL     OW29668   1.074   0.938  12.301 -0.1460  0.1176  0.5616
 6070SOL    HW129669   1.042   1.022  12.268 -2.6769 -0.6109  1.1756
 6070SOL    HW229670   1.141   0.968  12.362  0.1118 -1.7715  1.2288
 6071SOL     OW29671   2.483   3.095   4.827  0.1820 -0.3146  0.6964
 6071SOL    HW129672   2.411   3.098   4.764 -0.1945  1.1804  1.2065
 6071SOL    HW229673   2.464   3.146   4.906  0.5495 -1.1671  1.3332
 6072SOL     OW29674   3.551   2.840   7.901 -0.1286 -0.0245 -0.0792
 6072SOL    HW129675   3.477   2.899   7.891  1.0463  1.1152 -2.1270
 6072SOL    HW229676   3.555   2.844   7.997 -0.0729 -0.3500 -0.0679
 6073SOL     OW29677   1.708   3.798   3.272 -0.6887  0.1163 -0.4040
 6073SOL    HW129678   1.633   3.754   3.232  0.2673 -1.3356 -0.6226
 6073SOL    HW229679   1.774   3.768   3.209 -0.7114  0.1410 -0.4394
 6074SOL     OW29680   2.083   2.820   5.388  0.1982 -0.7134  0.4424
 6074SOL    HW129681   2.114   2.756   5.324 -0.1135 -0.9844  0.5640
 6074SOL    HW229682   2.137   2.899   5.376 -0.5694 -0.3217 -0.4527
 6075SOL     OW29683   2.079   1.641   7.096 -0.3946  1.0894 -0.0187
 6075SOL    HW129684   2.034   1.680   7.172 -0.6344  0.7736 -0.0004
 6075SOL    HW229685   2.040   1.554   7.102 -1.0328  1.4155  0.6676
 6076SOL     OW29686   1.705   3.647   5.666  0.2164 -0.5868  0.0937
 6076SOL    HW129687   1.651   3.724   5.647  0.5999 -0.0887  1.0111
 6076SOL    HW229688   1.772   3.700   5.709  0.3227  0.1821 -1.0379
 6077SOL     OW29689   4.545   1.611  17.665 -0.1367 -0.4823  0.0169
 6077SOL    HW129690   4.574   1.525  17.696  1.4287  0.5749  1.5186
 6077SOL    HW229691   4.524   1.648   0.051 -0.8495  3.5300 -1.8900
 6078SOL     OW29692   2.734   3.931   5.997  0.0203 -0.0691  0.1393
 6078SOL    HW129693   2.762   3.847   5.962  0.0746 -0.0185  0.0617
 6078SOL    HW229694   2.772   3.989   5.931  2.1031 -0.5395  0.9369
 6079SOL     OW29695   3.244   4.587   3.645  0.6012 -0.2324  0.3013
 6079SOL    HW129696   3.270   4.553   3.559 -2.4220 -1.2066 -0.2394
 6079SOL    HW229697   3.159   4.543   3.650  1.0296 -0.9682  0.9775
 6080SOL     OW29698   3.504   3.893  13.927  0.0460 -0.3265  0.0856
 6080SOL    HW129699   3.495   3.950  14.003 -3.2775 -0.7604  0.0317
 6080SOL    HW229700   3.491   3.806  13.966 -1.5047 -0.2020 -0.1659
 6081SOL     OW29701   0.478   1.903   0.375 -0.5202  0.3940  0.0594
 6081SOL    HW129702   0.439   1.846   0.441 -1.4355 -0.3927 -1.1598
 6081SOL    HW229703   0.565   1.868   0.357  0.5549  2.7980  0.5552
 6082SOL     OW29704   0.227   2.148   8.461  0.1864  0.0060 -0.2105
 6082SOL    HW129705   0.263   2.066   8.496  2.0389  0.9657  0.1382
 6082SOL    HW229706   0.174   2.107   8.392 -1.1902  0.5636  0.5244
 6083SOL     OW29707   4.423   0.346   7.777 -0.3727  0.0862 -0.0883
 6083SOL    HW129708   4.428   0.434   7.740 -0.3446  0.5960  1.1370
 6083SOL    HW229709   4.340   0.339   7.823  0.6736  1.7893  2.0356
 6084SOL     OW29710   0.815   4.092  13.614  0.1203  0.2417  0.5611
 6084SOL    HW129711   0.744   4.143  13.576  0.2325  0.8014  1.1087
 6084SOL    HW229712   0.820   4.015  13.557  0.2846  0.2996  0.4979
 6085SOL     OW29713   2.854   2.094   4.108 -0.3875  0.3196 -0.6476
 6085SOL    HW129714   2.784   2.047   4.155  0.6029 -0.1612  0.3437
 6085SOL    HW229715   2.797   2.140   4.047 -0.1496  0.1564 -0.9931
 6086SOL     OW29716   1.439   3.505   8.603  0.2375 -0.2339  0.2304
 6086SOL    HW129717   1.500   3.563   8.649 -0.7397  1.3401 -0.4521
 6086SOL    HW229718   1.355   3.526   8.643 -0.6491 -1.2452 -1.1226
 6087SOL     OW29719   0.109   1.271   2.046  0.4436  0.0144  0.4714
 6087SOL    HW129720   0.195   1.239   2.074  1.7580  0.7750 -2.6942
 6087SOL    HW229721   0.079   1.300   2.132  1.5888 -1.9282  1.5192
 6088SOL     OW29722   2.817   0.732   4.968  0.2698 -0.2067 -0.5530
 6088SOL    HW129723   2.760   0.784   4.910  1.2340  0.9759 -0.4569
 6088SOL    HW229724   2.903   0.769   4.950  1.0210 -0.9607  1.5548
 6089SOL     OW29725   0.882   2.188  13.711  0.6115  0.3633  0.1608
 6089SOL    HW129726   0.966   2.164  13.751  0.0163  0.4323  1.4448
 6089SOL    HW229727   0.923   2.243  13.644  0.7395  0.3762  0.2499
 6090SOL     OW29728   3.333   3.187   6.882  0.3179  0.3499  0.4002
 6090SOL    HW129729   3.394   3.152   6.947 -0.7898  0.7353  1.6506
 6090SOL    HW229730   3.393   3.212   6.812 -0.7637 -0.9982 -0.9892
 6091SOL     OW29731   0.217   2.073   8.049  0.1610 -0.3489  0.5733
 6091SOL    HW129732   0.166   2.001   8.012  2.6098 -0.9018 -1.6888
 6091SOL    HW229733   0.171   2.153   8.025 -2.8183 -2.3810 -0.5105
 6092SOL     OW29734   0.993   1.691  11.828 -0.5465 -0.6028 -0.4631
 6092SOL    HW129735   1.052   1.615  11.826  2.6671  1.7938  3.1344
 6092SOL    HW229736   0.927   1.677  11.760 -0.3386 -0.7259 -0.6423
 6093SOL     OW29737   0.870   0.632   0.690 -0.6055  0.5585 -0.0187
 6093SOL    HW129738   0.891   0.548   0.652 -0.9868  0.3577  0.2094
 6093SOL    HW229739   0.774   0.626   0.682 -0.4073 -1.1166 -1.0859
 6094SOL     OW29740   2.623   3.968   3.645 -0.3020  0.0613  0.3997
 6094SOL    HW129741   2.661   3.978   3.732  1.9367 -1.4494 -0.4018
 6094SOL    HW229742   2.645   4.053   3.605 -0.1051  0.1026  0.5960
 6095SOL     OW29743   4.497   1.590   4.783 -0.7727 -0.2809 -0.2102
 6095SOL    HW129744   4.470   1.608   4.693 -0.6101 -1.0729 -0.4254
 6095SOL    HW229745   4.422   1.601   4.841 -0.5011 -4.3976  0.9905
 6096SOL     OW29746   1.924   3.954   0.029  0.3121 -0.4961  0.0353
 6096SOL    HW129747   1.944   3.935  17.637 -0.6194 -0.8878 -0.0835
 6096SOL    HW229748   1.861   4.025   0.022 -1.1512 -1.8712 -0.6451
 6097SOL     OW29749   1.336   0.001   6.875  0.0469 -0.4772 -0.1260
 6097SOL    HW129750   1.268   4.662   6.851 -0.5445 -0.3873  1.3045
 6097SOL    HW229751   1.352   4.697   6.965 -1.1708 -2.5227 -0.5665
 6098SOL     OW29752   3.135   1.625   7.721 -0.7340 -0.3169  0.2342
 6098SOL    HW129753   3.146   1.605   7.627  3.7281 -2.5463  1.2430
 6098SOL    HW229754   3.189   1.703   7.731 -2.2162  0.8469 -0.7998
 6099SOL     OW29755   4.386   1.748   5.699  0.0737 -0.4161  0.0834
 6099SOL    HW129756   4.310   1.745   5.640  0.1957 -2.4997  0.0257
 6099SOL    HW229757   4.384   1.837   5.734  2.5802 -0.1245 -0.5215
 6100SOL     OW29758   3.674   4.269   3.543  0.3654 -0.1743 -0.3493
 6100SOL    HW129759   3.619   4.295   3.617  1.3029  0.1545  0.2303
 6100SOL    HW229760   3.643   4.340   3.486  1.3487  0.5241 -0.0102
 6101SOL     OW29761   3.136   0.367   3.299 -0.0022  0.2351  0.2737
 6101SOL    HW129762   3.153   0.341   3.389 -0.7042  0.6280  0.5261
 6101SOL    HW229763   3.130   0.462   3.308 -1.2856  0.2304 -0.4801
 6102SOL     OW29764   3.885   2.186  11.998  0.2409  0.3054 -0.2694
 6102SOL    HW129765   3.852   2.120  12.060  0.5978  1.3563  1.0402
 6102SOL    HW229766   3.829   2.168  11.923  0.6235  0.1113 -0.5081
 6103SOL     OW29767   2.528   4.323  15.506 -0.0963  0.4709  0.1058
 6103SOL    HW129768   2.611   4.327  15.553 -0.5125 -0.0342  0.9067
 6103SOL    HW229769   2.476   4.269  15.567  0.8277 -1.7664 -1.0643
 6104SOL     OW29770   0.057   2.107  12.614  0.1314  0.2294  0.4996
 6104SOL    HW129771   0.123   2.155  12.664  1.0570 -2.0320  1.4753
 6104SOL    HW229772   0.019   2.169  12.552  2.9114  2.2141  0.7812
 6105SOL     OW29773   3.487   0.654   8.363 -0.0605  0.0871  0.0197
 6105SOL    HW129774   3.427   0.726   8.383  0.4919  0.9003 -1.2027
 6105SOL    HW229775   3.562   0.685   8.413 -0.2536 -1.3782  1.2102
 6106SOL     OW29776   3.049   1.136   5.520 -0.0514 -0.1687  0.4186
 6106SOL    HW129777   3.020   1.220   5.556 -0.4520 -0.9045  1.8225
 6106SOL    HW229778   2.960   1.102   5.521  0.0096 -0.3285  0.3419
 6107SOL     OW29779   3.866   1.376   1.925 -0.1314 -0.2552 -0.2485
 6107SOL    HW129780   3.826   1.344   2.006  1.2056  3.0809  1.6977
 6107SOL    HW229781   3.835   1.466   1.919 -0.4178 -0.3042  0.4377
 6108SOL     OW29782   0.750   2.472   6.117  0.6848  0.3352  0.0340
 6108SOL    HW129783   0.658   2.452   6.132  0.9534 -0.5567  0.5248
 6108SOL    HW229784   0.779   2.461   6.208 -1.3201 -1.1430  0.4885
 6109SOL     OW29785   0.125   0.788  16.863 -0.2839  0.0869 -0.2688
 6109SOL    HW129786   0.111   0.693  16.869  0.7484 -0.0927 -0.7292
 6109SOL    HW229787   0.205   0.792  16.810 -1.4061  0.5129 -1.9413
 6110SOL     OW29788   2.459   0.693   8.782 -0.4275 -0.1895  0.3214
 6110SOL    HW129789   2.546   0.703   8.743 -0.1838  1.0167  1.1877
 6110SOL    HW229790   2.469   0.634   8.856 -0.7490 -2.8512 -1.7486
 6111SOL     OW29791   0.681   4.417   3.352  0.7278 -0.6105 -0.3692
 6111SOL    HW129792   0.665   4.470   3.430 -0.7921 -0.5132 -0.7548
 6111SOL    HW229793   0.748   4.467   3.306  1.2613 -2.0292 -1.1294
 6112SOL     OW29794   3.080   0.181   1.701 -0.1741 -0.2797 -0.1519
 6112SOL    HW129795   3.078   0.204   1.608  1.5322  0.1147 -0.1047
 6112SOL    HW229796   3.071   0.266   1.745  1.2950  0.2533 -0.8831
 6113SOL     OW29797   0.539   1.538   5.149  0.2643  0.5387  0.4817
 6113SOL    HW129798   0.617   1.484   5.151  0.7455  1.1440 -1.7280
 6113SOL    HW229799   0.571   1.627   5.167  0.3225  1.1999 -2.8321
 6114SOL     OW29800   1.226   0.220   6.793  0.4484 -0.3983 -0.0336
 6114SOL    HW129801   1.159   0.222   6.862  0.6873  3.5354  0.0472
 6114SOL    HW229802   1.255   0.130   6.808  1.7561  0.1465  0.7355
 6115SOL     OW29803   0.432   4.055  13.605  0.0788  0.6290 -0.1425
 6115SOL    HW129804   0.432   4.140  13.648 -4.4246  1.8104 -2.4989
 6115SOL    HW229805   0.417   4.074  13.513  0.0860  1.2340 -0.0174
 6116SOL     OW29806   4.157   0.385   7.275  0.3840 -0.6608 -0.4462
 6116SOL    HW129807   4.225   0.431   7.226 -0.0934 -1.4324 -1.8501
 6116SOL    HW229808   4.191   0.296   7.271  2.8692  0.3667 -1.8159
 6117SOL     OW29809   4.390   3.563   9.177  0.0458  0.3902 -0.4424
 6117SOL    HW129810   4.438   3.618   9.115  3.3517 -0.0046  1.7542
 6117SOL    HW229811   4.304   3.595   9.150  0.1041  1.3432  0.5142
 6118SOL     OW29812   0.022   3.299   7.595 -0.6198  0.1442 -0.8523
 6118SOL    HW129813   4.653   3.282   7.586 -0.0315 -3.1785 -0.7480
 6118SOL    HW229814   0.041   3.237   7.666 -0.2038 -0.8432 -1.8249
 6119SOL     OW29815   1.237   3.073   3.664  0.2898  0.3709 -0.4476
 6119SOL    HW129816   1.195   3.092   3.748  1.6254  0.7918  0.1241
 6119SOL    HW229817   1.255   3.160   3.629 -2.5188  0.9243 -0.4470
 6120SOL     OW29818   2.477   2.297   9.842 -0.3661 -0.5502 -0.3579
 6120SOL    HW129819   2.447   2.215   9.881  0.7995 -0.5648  0.5017
 6120SOL    HW229820   2.442   2.366   9.898  0.9736 -2.1986  2.5100
 6121SOL     OW29821   2.927   0.447   6.390 -0.4056  0.0345 -0.4887
 6121SOL    HW129822   2.883   0.476   6.470  3.7083 -0.6795  2.0352
 6121SOL    HW229823   2.878   0.499   6.326 -0.0250 -0.5777 -1.2916
 6122SOL     OW29824   1.673   4.469   3.509 -0.0015  0.5680  0.3932
 6122SOL    HW129825   1.674   4.564   3.503  2.5637  0.4969 -0.3280
 6122SOL    HW229826   1.766   4.445   3.509 -0.8391 -2.6996  0.5318
 6123SOL     OW29827   1.171   3.220   7.361  0.0809 -0.3362  0.6064
 6123SOL    HW129828   1.189   3.314   7.354 -1.7208 -0.0457 -0.2100
 6123SOL    HW229829   1.156   3.201   7.268  2.0745 -0.0976  0.2333
 6124SOL     OW29830   0.026   1.227  16.526 -0.4016  0.1910 -0.1366
 6124SOL    HW129831   4.670   1.197  16.485  0.3879 -2.1480  0.0020
 6124SOL    HW229832   0.012   1.211  16.619 -0.5816 -1.2064 -0.4135
 6125SOL     OW29833   4.095   2.131  17.539 -0.7097  0.2346 -0.5265
 6125SOL    HW129834   4.155   2.091  17.476  1.3466  1.7346  0.5165
 6125SOL    HW229835   4.131   2.095  17.620  1.5989 -2.0768 -2.5587
 6126SOL     OW29836   0.822   2.055  17.241  0.2385 -0.2642  0.3795
 6126SOL    HW129837   0.862   2.124  17.187 -1.4353  1.0934  0.8506
 6126SOL    HW229838   0.860   1.982  17.192 -1.2342  0.1406 -1.3632
 6127SOL     OW29839   0.846   1.430  16.039 -0.5766 -0.1316 -0.0310
 6127SOL    HW129840   0.771   1.377  16.014 -0.6847 -0.8020  1.7034
 6127SOL    HW229841   0.830   1.506  15.984 -1.4313 -0.1639  0.1759
 6128SOL     OW29842   4.704   1.732   5.491 -0.5863 -0.0017 -0.2263
 6128SOL    HW129843   4.716   1.637   5.487  2.2762  0.4229 -2.1414
 6128SOL    HW229844   4.661   1.746   5.575  0.3052  1.8651 -0.0927
 6129SOL     OW29845   2.132   0.085   4.591  0.5712  0.1529  0.1732
 6129SOL    HW129846   2.149   0.112   4.501 -1.3786 -1.9406 -0.8346
 6129SOL    HW229847   2.213   0.070   4.639  0.5800  1.2632  0.5040
 6130SOL     OW29848   4.237   1.559   9.112 -0.7712  0.5424  0.6230
 6130SOL    HW129849   4.208   1.575   9.202 -1.4793  1.9904  0.1353
 6130SOL    HW229850   4.193   1.629   9.064  0.5355  2.5640  2.3727
 6131SOL     OW29851   3.968   2.063   6.973  0.1466 -0.2382  0.4518
 6131SOL    HW129852   3.961   1.990   7.034 -1.9077  0.1156  0.6358
 6131SOL    HW229853   3.892   2.041   6.919  0.4185  1.5685 -0.6891
 6132SOL     OW29854   2.271   2.596   9.440  0.0586  0.5809 -0.2325
 6132SOL    HW129855   2.291   2.663   9.506 -0.5944 -0.3603  0.8921
 6132SOL    HW229856   2.288   2.517   9.491 -0.9472 -0.4442 -1.5103
 6133SOL     OW29857   3.519   4.187   4.114 -0.1858 -0.2085 -0.0235
 6133SOL    HW129858   3.559   4.268   4.143  1.9615 -2.1008  2.2988
 6133SOL    HW229859   3.592   4.124   4.117  1.7952  2.0484 -1.2588
 6134SOL     OW29860   1.641   3.931  10.332  0.4612 -0.0899 -0.3175
 6134SOL    HW129861   1.584   4.004  10.354  1.4228 -0.4823  3.4801
 6134SOL    HW229862   1.629   3.867  10.403 -0.8795 -1.8785 -2.1525
 6135SOL     OW29863   2.856   3.549   2.821 -0.0468 -0.7048  0.2685
 6135SOL    HW129864   2.769   3.529   2.787 -0.2290  1.0256 -0.2789
 6135SOL    HW229865   2.836   3.589   2.905  0.8482 -0.5534  0.4104
 6136SOL     OW29866   0.286   0.236   3.041  0.0798  0.3720  0.4550
 6136SOL    HW129867   0.315   0.314   3.089  3.3775  0.4526 -1.6682
 6136SOL    HW229868   0.361   0.199   2.995 -0.9123  0.5979 -1.3540
 6137SOL     OW29869   4.051   2.299  16.277 -0.2004 -0.8549  0.0418
 6137SOL    HW129870   4.136   2.300  16.232 -0.3042 -3.2728 -0.2352
 6137SOL    HW229871   4.072   2.257  16.360 -0.3206 -1.5903 -0.2920
 6138SOL     OW29872   2.374   4.368  10.372  0.7463  0.4429  0.0951
 6138SOL    HW129873   2.373   4.431  10.299  0.8613  1.7797  1.2551
 6138SOL    HW229874   2.299   4.315  10.342  0.1314  1.0462  0.5579
 6139SOL     OW29875   1.687   4.231   5.605 -0.5995  0.4104 -0.0616
 6139SOL    HW129876   1.650   4.316   5.580  1.9145  1.6297  0.3120
 6139SOL    HW229877   1.682   4.250   5.699 -0.8640  0.2588 -0.0453
 6140SOL     OW29878   4.685   1.153  11.855  0.9233 -0.3260 -0.4353
 6140SOL    HW129879   4.718   1.119  11.938  0.3274  0.5115  0.1423
 6140SOL    HW229880   4.590   1.144  11.868  0.8389  1.6303  0.2184
 6141SOL     OW29881   0.763   2.195   5.966  0.1863  0.7240  0.1977
 6141SOL    HW129882   0.825   2.265   5.948 -0.2665  1.1968  0.4857
 6141SOL    HW229883   0.684   2.241   5.995  1.8524  1.2429  3.8128
 6142SOL     OW29884   2.471   1.943  11.219 -0.1060 -0.0528  0.2860
 6142SOL    HW129885   2.463   2.039  11.220 -1.2330 -0.1846  2.0398
 6142SOL    HW229886   2.392   1.908  11.258 -0.0377  0.5712  0.9852
 6143SOL     OW29887   0.450   2.983   2.597 -0.1084  0.0193 -0.4975
 6143SOL    HW129888   0.486   3.069   2.620 -0.1392 -0.0245 -0.2876
 6143SOL    HW229889   0.370   2.980   2.649 -1.0165 -0.7654 -1.9356
 6144SOL     OW29890   1.447   4.180   1.832 -0.1952 -0.6770 -0.2051
 6144SOL    HW129891   1.418   4.091   1.852 -1.8458  0.4968  2.6037
 6144SOL    HW229892   1.532   4.163   1.792  0.0885  0.1199  0.0533
 6145SOL     OW29893   0.478   4.178   2.818  0.4486 -0.0412 -0.0475
 6145SOL    HW129894   0.513   4.136   2.896  1.2106 -0.6350 -0.7182
 6145SOL    HW229895   0.402   4.123   2.798  0.6894  0.1214 -1.4174
 6146SOL     OW29896   1.281   1.188   1.226 -0.5297 -0.6086 -0.5207
 6146SOL    HW129897   1.217   1.145   1.282 -0.2334 -3.1297 -2.1044
 6146SOL    HW229898   1.365   1.171   1.268  0.3868  2.2493 -1.1954
 6147SOL     OW29899   4.412   4.181   9.927 -0.4425 -0.4495  0.0076
 6147SOL    HW129900   4.485   4.243   9.937 -1.6953  0.7076  2.0354
 6147SOL    HW229901   4.333   4.225   9.958 -0.3010  1.0849 -1.8166
 6148SOL     OW29902   0.699   1.430   4.484  0.3876  0.0207 -0.4932
 6148SOL    HW129903   0.731   1.476   4.407 -0.0619  1.4459  0.1759
 6148SOL    HW229904   0.776   1.378   4.505 -0.4548 -1.0258  0.0378
 6149SOL     OW29905   0.659   1.027   3.085  0.1988 -0.3140  0.0558
 6149SOL    HW129906   0.580   1.077   3.105  0.4818 -1.0826  3.1022
 6149SOL    HW229907   0.621   0.963   3.025 -0.7109  0.5232 -0.2563
 6150SOL     OW29908   3.790   2.417  10.568  0.5378 -0.3741  0.3601
 6150SOL    HW129909   3.715   2.401  10.625 -0.0243  0.9621 -0.0016
 6150SOL    HW229910   3.770   2.506  10.539 -2.3954 -0.6944  1.4599
 6151SOL     OW29911   1.093   1.415  15.909 -0.3236  0.2787  0.2787
 6151SOL    HW129912   1.044   1.402  15.828  1.6429 -1.3345 -0.6503
 6151SOL    HW229913   1.024   1.410  15.975  1.0222 -1.3772  1.5771
 6152SOL     OW29914   3.539   0.262   8.141  0.5634 -0.2633  0.0247
 6152SOL    HW129915   3.498   0.238   8.224 -0.5950  2.4324  0.2548
 6152SOL    HW229916   3.579   0.346   8.163  1.9905 -1.2058  1.0282
 6153SOL     OW29917   1.682   3.676   9.036  0.1021 -0.1580 -0.5832
 6153SOL    HW129918   1.628   3.667   9.115 -0.4997  1.2518 -0.8164
 6153SOL    HW229919   1.751   3.613   9.055 -1.3232 -1.1398  1.2742
 6154SOL     OW29920   0.749   2.625   0.077  0.3736  0.2111 -0.4912
 6154SOL    HW129921   0.829   2.573   0.074  0.7703  0.6959  1.6288
 6154SOL    HW229922   0.707   2.574   0.147  1.1299  1.2426  0.7117
 6155SOL     OW29923   4.361   1.561   8.139 -0.5821 -0.5234 -0.5693
 6155SOL    HW129924   4.298   1.500   8.099 -0.0471 -0.7275 -1.0937
 6155SOL    HW229925   4.442   1.550   8.090 -0.5885 -0.4835 -0.5900
 6156SOL     OW29926   2.796   1.449   0.053 -0.3402  0.5700  0.5317
 6156SOL    HW129927   2.872   1.460  17.695 -3.0913 -0.6518 -3.3392
 6156SOL    HW229928   2.735   1.454  17.679  0.8613 -1.1943 -0.5845
 6157SOL     OW29929   2.040   2.552  15.579 -0.4669 -0.1121 -0.3263
 6157SOL    HW129930   2.057   2.630  15.631  1.9559 -1.1125  0.3948
 6157SOL    HW229931   2.094   2.568  15.501  1.9851  0.1998  1.4416
 6158SOL     OW29932   4.382   2.128   7.594 -0.3937 -0.6496  0.2665
 6158SOL    HW129933   4.328   2.084   7.660 -0.9945  1.3469  1.0821
 6158SOL    HW229934   4.364   2.076   7.515 -1.1976 -2.4936  1.6553
 6159SOL     OW29935   3.697   3.492   3.275 -0.2112  0.0222 -0.2511
 6159SOL    HW129936   3.691   3.428   3.346  2.7247  0.1410  0.1040
 6159SOL    HW229937   3.647   3.561   3.318  1.0055  1.0636 -0.5094
 6160SOL     OW29938   2.598   0.217   4.622  0.2537 -0.3827 -0.1621
 6160SOL    HW129939   2.610   0.170   4.705  0.9775  1.7231  0.9023
 6160SOL    HW229940   2.553   0.294   4.658  2.3241  0.3008  0.9361
 6161SOL     OW29941   2.414   3.969   1.954 -0.3046  0.2984  0.1812
 6161SOL    HW129942   2.408   3.873   1.962  1.8929  0.3131  2.1860
 6161SOL    HW229943   2.374   3.984   1.869  0.9912  1.3165 -0.2368
 6162SOL     OW29944   1.693   2.768   8.173  0.7381 -0.0124 -0.3332
 6162SOL    HW129945   1.745   2.693   8.203  0.6755  0.3289  0.6362
 6162SOL    HW229946   1.661   2.808   8.254  0.4327  0.1040 -0.5083
 6163SOL     OW29947   0.154   4.430   4.964 -0.0595  0.1722  0.6452
 6163SOL    HW129948   0.123   4.505   4.913  1.7882 -0.1042 -0.8783
 6163SOL    HW229949   0.143   4.467   5.052 -0.5712  1.3260  0.0946
 6164SOL     OW29950   0.057   1.671   5.062  0.2319  0.0105  0.4778
 6164SOL    HW129951   0.142   1.703   5.090  0.4964  0.0509 -0.3789
 6164SOL    HW229952   0.073   1.643   4.972 -0.0440  4.7974 -1.0152
 6165SOL     OW29953   0.676   0.884   8.717 -0.3948 -0.6088 -0.5148
 6165SOL    HW129954   0.717   0.964   8.749 -0.5990 -0.6952 -0.0383
 6165SOL    HW229955   0.607   0.927   8.666 -1.1035 -0.2434  0.7518
 6166SOL     OW29956   1.555   2.545   6.360 -0.3145  0.1555 -0.2035
 6166SOL    HW129957   1.599   2.464   6.382  0.2789  0.7623  0.8503
 6166SOL    HW229958   1.630   2.599   6.335 -0.9563  0.4608 -1.5127
 6167SOL     OW29959   2.642   0.835   7.299  0.0584  0.6929 -0.0052
 6167SOL    HW129960   2.549   0.819   7.314  0.1258 -0.3997 -0.7761
 6167SOL    HW229961   2.664   0.912   7.352  0.2542 -1.1310  2.5829
 6168SOL     OW29962   2.051   1.387   3.289  0.1701  0.2728 -0.0929
 6168SOL    HW129963   2.117   1.319   3.294  0.5088  0.5112 -1.1499
 6168SOL    HW229964   1.973   1.337   3.313 -1.1054  1.9258 -0.7649
 6169SOL     OW29965   3.830   4.082   5.987  0.1680 -0.0409 -0.1304
 6169SOL    HW129966   3.828   3.996   6.031 -1.6926 -0.0738 -0.2790
 6169SOL    HW229967   3.902   4.077   5.924  2.2287 -1.6648  2.3334
 6170SOL     OW29968   3.104   3.933   8.721  0.1970  0.1333 -0.8369
 6170SOL    HW129969   3.153   4.015   8.718  0.8331 -0.1667  1.3288
 6170SOL    HW229970   3.127   3.914   8.812  0.5247 -0.0653 -0.9614
 6171SOL     OW29971   3.426   0.515   2.450 -0.1600  0.2922  0.6455
 6171SOL    HW129972   3.352   0.462   2.480 -0.7611  1.2913  0.9732
 6171SOL    HW229973   3.446   0.575   2.522 -1.1728 -0.4172  1.5227
 6172SOL     OW29974   2.492   3.634   4.942 -0.4393  0.2163 -0.3402
 6172SOL    HW129975   2.420   3.596   4.993  0.1246 -0.9292 -0.3935
 6172SOL    HW229976   2.446   3.687   4.877 -3.1576 -1.2870  0.3274
 6173SOL     OW29977   4.412   3.311   5.720 -0.5467 -0.0117  0.1969
 6173SOL    HW129978   4.412   3.388   5.663  2.2247 -0.9265 -1.0263
 6173SOL    HW229979   4.507   3.303   5.727 -0.4552  0.7623 -0.1332
 6174SOL     OW29980   4.559   4.311   1.931 -0.8080  0.5224  0.3956
 6174SOL    HW129981   4.533   4.226   1.898  1.1858 -0.9560  2.5708
 6174SOL    HW229982   4.639   4.282   1.975 -1.5626 -0.7724  0.9038
 6175SOL     OW29983   2.882   3.549  15.356  0.0561  0.5429  0.2879
 6175SOL    HW129984   2.969   3.588  15.362  0.6959 -0.9279  0.4811
 6175SOL    HW229985   2.876   3.540  15.261  1.0593 -0.2856  0.3159
 6176SOL     OW29986   0.530   2.707   2.170 -0.2643 -0.7369 -0.1415
 6176SOL    HW129987   0.466   2.639   2.150 -2.5406  1.6511 -1.0724
 6176SOL    HW229988   0.492   2.785   2.129  1.0122 -0.3990 -0.6684
 6177SOL     OW29989   2.425   0.039   3.644 -0.4100 -0.1940 -0.1953
 6177SOL    HW129990   2.494   4.699   3.628 -1.3384 -1.0647 -0.6709
 6177SOL    HW229991   2.351   4.709   3.618 -0.7911  1.3631 -2.4382
 6178SOL     OW29992   1.729   2.073  15.765 -1.0904  0.0886  0.7338
 6178SOL    HW129993   1.769   2.153  15.799 -0.6444 -0.3847  1.3114
 6178SOL    HW229994   1.687   2.027  15.837  0.1443 -2.5832 -0.2485
 6179SOL     OW29995   3.239   1.271  13.674  0.4436  0.8387 -0.1628
 6179SOL    HW129996   3.230   1.256  13.768  0.0208  2.3336  0.0368
 6179SOL    HW229997   3.330   1.300  13.676 -0.2303  2.9357  0.0801
 6180SOL     OW29998   2.359   0.676   4.137  0.0853  0.7633  0.1700
 6180SOL    HW129999   2.319   0.665   4.223 -0.3549 -0.3990 -0.1859
 6180SOL    HW230000   2.316   0.605   4.090  0.7894 -0.9668  2.1024
 6181SOL     OW30001   3.087   1.825  14.953 -0.3616  0.4224  0.2576
 6181SOL    HW130002   3.142   1.823  14.874  0.0666 -2.3336  0.6304
 6181SOL    HW230003   3.002   1.835  14.909  1.2720  1.7833 -2.6159
 6182SOL     OW30004   0.774   0.142   5.114 -0.3260  0.0396  0.0314
 6182SOL    HW130005   0.781   0.235   5.134  0.0074  0.7959 -3.4784
 6182SOL    HW230006   0.725   0.148   5.031  1.3446  1.4881 -0.8366
 6183SOL     OW30007   1.756   2.447  15.843 -0.3070  0.0557  0.3336
 6183SOL    HW130008   1.797   2.416  15.763 -0.3728  0.0646  0.2964
 6183SOL    HW230009   1.762   2.542  15.839 -0.5157  0.0477 -0.1952
 6184SOL     OW30010   0.682   3.191   1.543  0.0246  0.2874 -0.0813
 6184SOL    HW130011   0.699   3.186   1.449  0.9706 -2.6558  0.2352
 6184SOL    HW230012   0.709   3.101   1.564 -0.6191 -0.4332 -2.3571
 6185SOL     OW30013   3.641   2.243   8.690  0.0380 -0.4884 -0.2783
 6185SOL    HW130014   3.594   2.218   8.611  0.3403 -0.3523 -0.5003
 6185SOL    HW230015   3.620   2.336   8.700  0.2232 -0.6615  1.8653
 6186SOL     OW30016   0.393   4.518   8.140  0.6579 -0.0209 -0.3428
 6186SOL    HW130017   0.401   4.558   8.226 -0.2190 -1.2986  0.3259
 6186SOL    HW230018   0.300   4.494   8.144  0.7497  0.3585  3.4474
 6187SOL     OW30019   3.235   0.776  11.100  0.4674 -0.2356 -0.2649
 6187SOL    HW130020   3.282   0.708  11.149  0.9898  1.3654  1.4325
 6187SOL    HW230021   3.214   0.721  11.024 -1.7826  0.3891 -0.0933
 6188SOL     OW30022   0.700   4.015   7.412  0.4292  0.1057  0.2246
 6188SOL    HW130023   0.702   4.090   7.352  2.2131  1.3988  1.8948
 6188SOL    HW230024   0.772   3.963   7.375 -1.0857 -1.4668 -0.5314
 6189SOL     OW30025   1.485   4.084   9.180  0.9035  0.4041  0.1737
 6189SOL    HW130026   1.454   4.008   9.229 -0.4886  0.5474 -0.4850
 6189SOL    HW230027   1.408   4.140   9.185  2.2538  2.3432 -0.4977
 6190SOL     OW30028   4.005   2.270  14.588 -0.2271 -0.3499  0.5350
 6190SOL    HW130029   4.047   2.343  14.543 -0.7044 -0.1488  0.4215
 6190SOL    HW230030   3.920   2.272  14.544 -0.2532 -1.4214  0.5270
 6191SOL     OW30031   0.726   3.796   3.181 -0.2412 -0.2972  0.3748
 6191SOL    HW130032   0.711   3.867   3.244  1.0878 -1.0663  1.5537
 6191SOL    HW230033   0.644   3.753   3.205 -1.1866  0.2379 -1.9549
 6192SOL     OW30034   3.103   1.269   8.747  0.6765  0.2527  0.0645
 6192SOL    HW130035   3.042   1.279   8.820 -0.9272 -0.9589 -1.1199
 6192SOL    HW230036   3.054   1.208   8.691 -2.5672  1.9537  1.0553
 6193SOL     OW30037   0.174   4.290   4.686  0.9783 -0.3617  0.6033
 6193SOL    HW130038   0.129   4.350   4.745  2.0950  2.6097 -1.5067
 6193SOL    HW230039   0.209   4.222   4.743 -0.2014 -1.4729 -0.0079
 6194SOL     OW30040   0.905   1.487   2.904  0.0626  0.4690 -0.4493
 6194SOL    HW130041   0.818   1.506   2.869  0.1060 -0.6976 -1.1763
 6194SOL    HW230042   0.890   1.396   2.929  1.9647 -0.3698 -2.3320
 6195SOL     OW30043   1.423   4.426   7.614 -0.6648 -0.0256  0.2258
 6195SOL    HW130044   1.495   4.480   7.582 -0.8008 -0.7787 -1.3274
 6195SOL    HW230045   1.418   4.449   7.707 -1.3220  1.9272 -0.2914
 6196SOL     OW30046   4.018   1.206   0.203 -0.3455  0.2408  0.1501
 6196SOL    HW130047   4.052   1.246   0.284  0.0251 -1.4310  0.8195
 6196SOL    HW230048   3.962   1.136   0.237  1.5788 -0.0912  2.6169
 6197SOL     OW30049   4.247   0.945   7.732  0.3516  0.4469  0.5413
 6197SOL    HW130050   4.248   0.872   7.671  1.0761 -0.0086  1.1021
 6197SOL    HW230051   4.200   1.009   7.679  0.8301  1.1108  0.9206
 6198SOL     OW30052   0.699   0.614   9.009 -0.9101  0.0804 -0.2347
 6198SOL    HW130053   0.610   0.648   9.006 -0.6834  0.6862 -0.1924
 6198SOL    HW230054   0.697   0.526   9.046  0.6223 -0.2280 -0.8675
 6199SOL     OW30055   2.287   1.940   9.027  0.1055 -0.1034 -0.1705
 6199SOL    HW130056   2.296   2.008   9.094 -2.1820 -1.6064  1.6389
 6199SOL    HW230057   2.279   1.868   9.089  0.4521  1.5166  1.7608
 6200SOL     OW30058   4.329   2.674   2.368  0.3167  0.8842 -0.2700
 6200SOL    HW130059   4.279   2.595   2.388  0.9533  0.6921  0.5739
 6200SOL    HW230060   4.323   2.667   2.273 -0.5894  2.5296 -0.3338
 6201SOL     OW30061   1.480   4.405   4.094 -0.1574 -0.2761 -0.4173
 6201SOL    HW130062   1.438   4.430   4.176 -0.0075 -0.6852 -0.2167
 6201SOL    HW230063   1.573   4.408   4.116  0.2698 -0.9232 -2.1549
 6202SOL     OW30064   3.298   1.107   8.799 -0.5449 -0.4240 -0.5075
 6202SOL    HW130065   3.292   1.053   8.720  1.6077 -0.9979 -0.2704
 6202SOL    HW230066   3.231   1.175   8.786 -1.8451 -1.4862  0.6081
 6203SOL     OW30067   0.027   2.772   2.020  0.1773  0.3981  0.1808
 6203SOL    HW130068   4.663   2.798   2.047  0.3416  1.3926 -0.2306
 6203SOL    HW230069   0.061   2.835   1.956 -3.4585  0.9721 -1.2049
 6204SOL     OW30070   4.174   2.443   2.795 -0.4775  0.0302  0.1970
 6204SOL    HW130071   4.215   2.475   2.714 -0.9395  0.4446  0.1272
 6204SOL    HW230072   4.193   2.349   2.800  3.0357  0.7499  0.5564
 6205SOL     OW30073   4.288   2.057   6.062 -0.0975  0.2916  0.5496
 6205SOL    HW130074   4.332   2.084   5.981 -1.6373  0.4935 -0.2388
 6205SOL    HW230075   4.330   2.123   6.116  1.2501  0.5151 -0.7573
 6206SOL     OW30076   1.560   3.841   7.735 -0.1917  0.3599  0.1135
 6206SOL    HW130077   1.465   3.847   7.724 -0.2529 -0.9759 -0.0646
 6206SOL    HW230078   1.565   3.919   7.792 -0.5879  1.7326 -1.7261
 6207SOL     OW30079   0.830   0.848   1.953 -0.2867  0.2409 -0.3718
 6207SOL    HW130080   0.805   0.873   1.865  0.5719  0.8741 -0.4336
 6207SOL    HW230081   0.926   0.842   1.952 -0.2527  0.4268  1.3359
 6208SOL     OW30082   3.244   2.278  17.366 -0.0903  0.0795  0.4701
 6208SOL    HW130083   3.294   2.314  17.439 -1.7617 -0.9043  2.0859
 6208SOL    HW230084   3.163   2.244  17.403 -0.4637  1.3684  0.8236
 6209SOL     OW30085   2.702   1.899   3.026 -0.1794  0.3991  0.0356
 6209SOL    HW130086   2.751   1.857   3.097 -0.1899  0.5045  0.1047
 6209SOL    HW230087   2.623   1.844   3.032  0.2590 -0.2410 -0.0714
 6210SOL     OW30088   2.092   3.589   3.649  0.9292 -1.1675  0.1256
 6210SOL    HW130089   2.133   3.628   3.726  1.4978  0.6753 -1.1155
 6210SOL    HW230090   2.022   3.537   3.688 -0.0055 -0.3529 -0.4893
 6211SOL     OW30091   4.253   3.484  10.947 -0.0190  0.3965 -0.2503
 6211SOL    HW130092   4.249   3.450  11.036 -1.4841  0.5491 -0.2513
 6211SOL    HW230093   4.186   3.552  10.957 -2.5644 -2.5009  2.1229
 6212SOL     OW30094   2.080   2.422   9.643  0.2091  0.0475 -0.1339
 6212SOL    HW130095   2.063   2.355   9.578 -1.2431 -0.4131  0.7279
 6212SOL    HW230096   1.997   2.468   9.650  0.7513  0.6381  2.4002
 6213SOL     OW30097   3.087   2.207   7.060 -0.3245  0.2757 -0.1699
 6213SOL    HW130098   3.012   2.181   7.114  0.3343  0.3436  0.7825
 6213SOL    HW230099   3.102   2.301   7.070  3.0526 -0.3072  0.3656
 6214SOL     OW30100   3.632   4.291   7.605 -0.8733 -0.4342 -0.7209
 6214SOL    HW130101   3.560   4.344   7.637  0.7323  0.8661  0.7350
 6214SOL    HW230102   3.699   4.359   7.596  1.8101 -2.7021  2.0118
 6215SOL     OW30103   1.831   1.149   6.764  0.0213 -0.6835 -0.0758
 6215SOL    HW130104   1.763   1.100   6.810 -0.6750  1.1645  0.8792
 6215SOL    HW230105   1.778   1.223   6.733 -0.3180 -1.0730 -0.4203
 6216SOL     OW30106   3.458   0.868   6.038  0.2687  0.0821 -0.6382
 6216SOL    HW130107   3.425   0.778   6.043  0.7896  0.0724  2.3593
 6216SOL    HW230108   3.405   0.902   5.966 -1.5968 -0.1831  0.6007
 6217SOL     OW30109   2.323   3.081   5.780 -0.1077 -0.4917 -0.3455
 6217SOL    HW130110   2.240   3.127   5.797 -1.0950 -2.0666 -0.8428
 6217SOL    HW230111   2.368   3.130   5.712 -0.7930 -0.3497 -0.6957
 6218SOL     OW30112   4.087   3.181   9.661 -0.3379 -0.2798  0.2592
 6218SOL    HW130113   4.066   3.124   9.734  0.7612 -0.5875  0.3318
 6218SOL    HW230114   4.129   3.109   9.614 -1.5572 -1.1381  0.4893
 6219SOL     OW30115   0.653   1.152  16.979 -0.2067 -0.1898  0.2747
 6219SOL    HW130116   0.561   1.128  16.972 -0.3786  0.1261  1.3506
 6219SOL    HW230117   0.697   1.067  16.973 -1.5637 -0.8276 -0.5642
 6220SOL     OW30118   4.677   3.629   9.153  0.0791  0.1362 -0.0559
 6220SOL    HW130119   4.592   3.638   9.196  0.1553 -1.5519  0.4709
 6220SOL    HW230120   0.007   3.636   9.232  1.0815 -2.9825 -0.4497
 6221SOL     OW30121   1.839   3.337   7.246  0.4823 -0.1636 -0.0660
 6221SOL    HW130122   1.759   3.382   7.220  0.0551 -0.7546  0.2410
 6221SOL    HW230123   1.857   3.369   7.335 -0.8336 -1.8413  0.8220
 6222SOL     OW30124   3.051   0.332   8.244 -0.5394 -0.0264  0.5169
 6222SOL    HW130125   3.077   0.242   8.225 -1.0869  0.4783 -2.5555
 6222SOL    HW230126   2.965   0.309   8.281 -0.3808 -0.6431  0.5045
 6223SOL     OW30127   0.166   2.165   1.814 -0.5600  0.0642  0.3298
 6223SOL    HW130128   0.138   2.221   1.887  1.1492  0.1539  0.9415
 6223SOL    HW230129   0.135   2.079   1.842 -0.7095 -0.5529 -1.7526
 6224SOL     OW30130   2.189   1.118   9.642  0.1881 -0.2836  0.0363
 6224SOL    HW130131   2.191   1.056   9.715 -3.1109 -0.6429 -0.1936
 6224SOL    HW230132   2.095   1.137   9.639  0.2226  0.0041  0.7937
 6225SOL     OW30133   1.493   3.712   9.895  0.1138  0.2560 -0.3084
 6225SOL    HW130134   1.562   3.742   9.954  0.7140 -0.7978 -0.4543
 6225SOL    HW230135   1.433   3.683   9.963  1.9186 -0.1630  1.1050
 6226SOL     OW30136   3.974   1.602   5.682 -0.8914  0.9045 -0.4187
 6226SOL    HW130137   3.955   1.663   5.753 -0.7738 -0.8874  1.1683
 6226SOL    HW230138   4.037   1.656   5.634  2.2950 -0.8114  1.7718
 6227SOL     OW30139   1.651   0.479   3.196 -0.4696 -0.1881 -0.0444
 6227SOL    HW130140   1.556   0.483   3.208 -0.2916 -0.8179  1.6118
 6227SOL    HW230141   1.678   0.563   3.158 -1.5882  0.6721  1.0706
 6228SOL     OW30142   1.485   1.810  11.588 -0.0192 -0.0608  0.2570
 6228SOL    HW130143   1.573   1.784  11.561 -1.4768 -3.8246 -0.9943
 6228SOL    HW230144   1.454   1.746  11.652  0.2205 -0.4099  0.0301
 6229SOL     OW30145   0.469   0.291   3.416 -0.0064 -0.1063 -0.1026
 6229SOL    HW130146   0.501   0.200   3.422  2.2335  0.6569 -0.3647
 6229SOL    HW230147   0.484   0.311   3.324  1.6094 -1.2877 -0.1086
 6230SOL     OW30148   1.841   4.366   2.067 -0.5787  0.2796  0.2215
 6230SOL    HW130149   1.887   4.322   1.995 -0.2569 -0.3912  0.8398
 6230SOL    HW230150   1.918   4.408   2.106 -0.3486 -0.2802  0.3633
 6231SOL     OW30151   0.206   4.065   8.707  0.0970 -0.0029  0.4421
 6231SOL    HW130152   0.275   4.075   8.642  0.4592 -1.0223  0.6657
 6231SOL    HW230153   0.182   3.972   8.707 -1.8741  0.5104 -1.9085
 6232SOL     OW30154   3.081   2.412   2.198  0.7851  0.3288  0.1048
 6232SOL    HW130155   3.110   2.324   2.222  3.5310  0.9515 -0.9408
 6232SOL    HW230156   3.051   2.400   2.108 -2.4064  0.0575  1.2057
 6233SOL     OW30157   2.132   3.582  10.033  0.4181  0.3387  0.3248
 6233SOL    HW130158   2.076   3.523  10.083  2.4813 -2.1871 -0.3486
 6233SOL    HW230159   2.070   3.655  10.027  1.9226  1.5371 -0.8300
 6234SOL     OW30160   0.539   3.819   6.359  0.1399  0.0290 -0.0615
 6234SOL    HW130161   0.570   3.858   6.440 -3.4173  0.7835  0.9509
 6234SOL    HW230162   0.458   3.779   6.393  0.7826 -0.5343  0.8173
 6235SOL     OW30163   3.733   3.071  15.127 -0.3489  0.2918  0.1400
 6235SOL    HW130164   3.749   3.082  15.221  1.5116 -0.7755 -0.0555
 6235SOL    HW230165   3.749   3.158  15.089 -2.9878  0.1393 -1.3648
 6236SOL     OW30166   4.133   0.325   3.507 -0.1594 -0.4284 -0.2064
 6236SOL    HW130167   4.167   0.243   3.469  1.0226 -0.0731  0.1025
 6236SOL    HW230168   4.169   0.316   3.595  2.4578 -0.0400 -1.2269
 6237SOL     OW30169   4.248   0.091   1.606 -0.2047  0.6649 -0.1126
 6237SOL    HW130170   4.216   0.180   1.617 -1.6300  0.2338 -0.7400
 6237SOL    HW230171   4.224   0.047   1.687  1.4891  2.2512  1.2586
 6238SOL     OW30172   3.012   0.312  17.689 -0.1470 -0.1517 -0.1519
 6238SOL    HW130173   3.088   0.347  17.643 -1.6461  2.5536 -0.5286
 6238SOL    HW230174   2.960   0.391  17.696  0.9505  0.4698  1.1444
 6239SOL     OW30175   0.282   3.218   6.775 -0.5042  0.0646 -0.3150
 6239SOL    HW130176   0.226   3.277   6.725 -0.8184 -0.0987 -0.1568
 6239SOL    HW230177   0.287   3.260   6.860 -0.9722 -0.6409  0.0579
 6240SOL     OW30178   0.816   1.808   4.795  0.1404 -0.0750 -0.0505
 6240SOL    HW130179   0.741   1.780   4.741 -0.2484 -1.2803  1.1053
 6240SOL    HW230180   0.876   1.842   4.729  0.0596  0.4909  0.1682
 6241SOL     OW30181   2.574   2.042   8.322  0.2514  0.3318  0.5058
 6241SOL    HW130182   2.558   2.118   8.267  2.8996  1.7186  1.6787
 6241SOL    HW230183   2.527   2.065   8.402 -0.3694 -2.5451  0.9699
 6242SOL     OW30184   3.955   1.184  16.869  0.6835 -0.0256 -0.2409
 6242SOL    HW130185   4.012   1.260  16.855 -2.2656  2.0204 -1.1350
 6242SOL    HW230186   4.019   1.132  16.917  1.8888 -0.1125 -1.9223
 6243SOL     OW30187   0.321   1.790   2.338  0.7855  0.4048  0.1990
 6243SOL    HW130188   0.341   1.872   2.382  1.0570  0.8268 -0.7035
 6243SOL    HW230189   0.394   1.774   2.278 -0.4390 -1.3163 -0.8293
 6244SOL     OW30190   0.404   1.310   1.263  0.0173 -0.5043 -0.1163
 6244SOL    HW130191   0.463   1.239   1.286  1.3547  0.5015 -0.4172
 6244SOL    HW230192   0.465   1.384   1.259  2.2516 -2.4847 -2.5967
 6245SOL     OW30193   3.712   0.702  11.649  0.3029  0.4594  0.3705
 6245SOL    HW130194   3.750   0.617  11.624 -0.5697 -0.0248  0.6915
 6245SOL    HW230195   3.677   0.678  11.735  0.1098 -0.1377  0.1226
 6246SOL     OW30196   0.222   1.036   5.654  0.1036  0.0609 -0.2811
 6246SOL    HW130197   0.234   0.944   5.632 -0.7469  0.5148 -2.6385
 6246SOL    HW230198   0.137   1.052   5.612  0.1404  0.2535 -0.2805
 6247SOL     OW30199   0.978   4.401   9.740 -0.5528 -0.6935  0.2123
 6247SOL    HW130200   1.003   4.390   9.649  0.3872 -1.1639  0.5343
 6247SOL    HW230201   0.909   4.466   9.727  1.1812  1.6389  2.6015
 6248SOL     OW30202   1.763   4.425   4.275  0.5050 -0.7398  0.0238
 6248SOL    HW130203   1.818   4.458   4.347 -0.7523 -2.7238  1.9039
 6248SOL    HW230204   1.822   4.361   4.236  0.8437 -1.5401  1.8307
 6249SOL     OW30205   2.511   3.413   1.712 -0.4524  0.8545  0.0060
 6249SOL    HW130206   2.512   3.370   1.797 -3.1299 -0.1117 -0.4472
 6249SOL    HW230207   2.555   3.497   1.721 -0.1894  0.5532  1.6034
 6250SOL     OW30208   0.529   2.122   2.098 -0.1320  0.1462 -0.2371
 6250SOL    HW130209   0.532   2.057   2.027 -1.6954  1.5829 -1.6169
 6250SOL    HW230210   0.445   2.162   2.077  0.0945  0.7329 -0.0421
 6251SOL     OW30211   2.859   3.233  13.965  0.3713 -0.0870 -0.2961
 6251SOL    HW130212   2.811   3.221  13.883 -0.4385 -1.0967  0.3259
 6251SOL    HW230213   2.946   3.240  13.926  0.5907  0.9366  0.3749
 6252SOL     OW30214   4.106   0.913  11.549  0.2428 -0.2282  0.6900
 6252SOL    HW130215   4.066   0.844  11.602 -0.3780 -0.8064 -0.5238
 6252SOL    HW230216   4.201   0.904  11.557  0.1919 -0.7527  0.7237
 6253SOL     OW30217   4.011   1.877  11.346 -0.2035 -0.1965 -0.2741
 6253SOL    HW130218   4.012   1.970  11.324 -0.9470 -0.1670 -0.1825
 6253SOL    HW230219   4.088   1.847  11.297  0.4042  1.6528 -0.4740
 6254SOL     OW30220   0.541   3.146   8.151 -0.5073  0.2105  0.4204
 6254SOL    HW130221   0.624   3.154   8.198 -0.6979 -1.6233  1.0787
 6254SOL    HW230222   0.518   3.065   8.196 -1.5657 -0.4757 -1.3448
 6255SOL     OW30223   3.203   4.391   4.087  0.2310  0.1309  0.6270
 6255SOL    HW130224   3.119   4.409   4.044  2.3775 -0.3392 -3.7717
 6255SOL    HW230225   3.258   4.448   4.034 -0.3205  2.2940  2.4154
 6256SOL     OW30226   3.327   2.406   3.017  0.3605 -0.4397 -0.6209
 6256SOL    HW130227   3.254   2.416   3.078  0.9237  1.0748 -0.1864
 6256SOL    HW230228   3.284   2.363   2.943 -0.9927  2.1293 -1.3260
 6257SOL     OW30229   0.391   3.586   9.231  0.0914 -0.1143  0.3164
 6257SOL    HW130230   0.356   3.497   9.236  0.8683 -0.4188  0.4192
 6257SOL    HW230231   0.420   3.595   9.140 -0.9487  1.9587  0.1812
 6258SOL     OW30232   3.517   3.951   5.083 -0.1096 -0.2291 -0.7318
 6258SOL    HW130233   3.586   4.013   5.060 -0.5948  0.7435  0.4090
 6258SOL    HW230234   3.494   3.921   4.995 -0.8918 -1.0770 -0.2427
 6259SOL     OW30235   2.128   0.299   9.915  0.0352 -0.3575 -0.0872
 6259SOL    HW130236   2.038   0.320   9.941 -0.7106 -2.2161 -1.1466
 6259SOL    HW230237   2.130   0.204   9.931 -1.3991 -0.5966 -1.3867
 6260SOL     OW30238   1.525   2.089   6.583  0.0626  0.0329 -0.3306
 6260SOL    HW130239   1.465   2.101   6.509 -0.6916  0.4093  0.3460
 6260SOL    HW230240   1.513   2.169   6.635  0.0440  0.5759 -1.1664
 6261SOL     OW30241   1.980   3.733   7.366  0.3816 -0.2603  0.0263
 6261SOL    HW130242   1.911   3.695   7.312 -1.6444 -1.2185  3.3279
 6261SOL    HW230243   2.060   3.729   7.314  0.2481 -0.3152 -0.1745
 6262SOL     OW30244   2.953   3.945   9.840 -0.2164 -0.4431 -0.9110
 6262SOL    HW130245   2.991   3.919   9.924 -1.6545  1.7298  0.4100
 6262SOL    HW230246   3.035   3.953   9.791  0.7531  0.8397  0.8892
 6263SOL     OW30247   1.702   1.642  17.464 -0.5908 -0.3941  0.1571
 6263SOL    HW130248   1.607   1.652  17.461 -0.5216  0.5498  1.3410
 6263SOL    HW230249   1.723   1.671  17.553  0.0433  0.3815 -0.2495
 6264SOL     OW30250   0.738   0.880   1.688 -0.3849  0.1564 -0.0112
 6264SOL    HW130251   0.651   0.908   1.658  0.3794  2.4695 -0.1178
 6264SOL    HW230252   0.769   0.832   1.612 -0.4548  1.4234 -0.8490
 6265SOL     OW30253   0.392   1.641  12.576  0.0087  0.4585 -0.1433
 6265SOL    HW130254   0.308   1.685  12.566 -0.3952 -0.1072  0.7105
 6265SOL    HW230255   0.371   1.573  12.641 -2.6294  0.6806 -0.7493
 6266SOL     OW30256   2.305   2.244  16.034 -0.1009 -0.3708  0.4646
 6266SOL    HW130257   2.302   2.148  16.032  1.5163 -0.3991 -1.1681
 6266SOL    HW230258   2.254   2.260  16.113  0.5546 -1.5174  1.1273
 6267SOL     OW30259   2.165   0.735   9.831  0.5178  0.6540 -0.0351
 6267SOL    HW130260   2.160   0.758   9.738  2.3103 -2.3283 -0.8868
 6267SOL    HW230261   2.112   0.656   9.831  2.3087 -0.5505  0.7894
 6268SOL     OW30262   3.053   1.450   2.971  0.3944 -0.4902 -0.4585
 6268SOL    HW130263   2.978   1.477   3.024 -0.5553 -0.1226 -1.9781
 6268SOL    HW230264   3.130   1.473   3.024  0.1361  0.9045 -0.6714
 6269SOL     OW30265   1.115   0.682  11.103 -0.2019  0.2695  0.3213
 6269SOL    HW130266   1.183   0.750  11.103 -1.1955  1.2688  0.8675
 6269SOL    HW230267   1.068   0.707  11.024  1.0586 -0.4145 -0.6440
 6270SOL     OW30268   2.695   3.906   1.695  0.1205 -0.4122  0.5083
 6270SOL    HW130269   2.767   3.897   1.632  0.4242  0.5555  0.7173
 6270SOL    HW230270   2.674   3.998   1.677 -1.6431 -1.1912 -1.4757
 6271SOL     OW30271   3.245   0.600  10.560  0.1267  0.0026  0.0602
 6271SOL    HW130272   3.225   0.691  10.540  0.3810 -0.3090 -1.6255
 6271SOL    HW230273   3.270   0.579  10.470  2.4728  2.4054  0.1588
 6272SOL     OW30274   3.708   1.707  11.524 -0.1070  0.5786  0.2163
 6272SOL    HW130275   3.730   1.776  11.587 -1.5342  1.0858  0.1498
 6272SOL    HW230276   3.685   1.754  11.444 -0.9362  1.5610  1.0234
 6273SOL     OW30277   4.337   2.577   3.581  0.0793  0.0802  0.7045
 6273SOL    HW130278   4.324   2.592   3.675 -0.2236  1.1337  0.4994
 6273SOL    HW230279   4.265   2.632   3.549 -0.3542 -0.5061  0.6833
 6274SOL     OW30280   2.354   3.182  16.446 -0.1947 -0.3679 -0.4798
 6274SOL    HW130281   2.412   3.106  16.436  1.1099  0.5606  0.0496
 6274SOL    HW230282   2.387   3.235  16.374 -4.7411  0.7565 -1.7391
 6275SOL     OW30283   0.387   3.681   6.730  0.5243 -0.2870  1.0451
 6275SOL    HW130284   0.457   3.618   6.713 -0.8987 -1.8832  1.2266
 6275SOL    HW230285   0.343   3.644   6.806 -1.0512 -0.2843  0.1263
 6276SOL     OW30286   4.226   2.228   5.765 -0.0010  0.0792 -0.4571
 6276SOL    HW130287   4.249   2.291   5.698 -0.3538 -0.0171 -0.6706
 6276SOL    HW230288   4.252   2.149   5.717 -0.8932 -1.2620  1.2263
 6277SOL     OW30289   1.030   0.596   5.525  0.0705 -0.5717  0.0893
 6277SOL    HW130290   1.097   0.604   5.456  0.2409  1.3001  0.4746
 6277SOL    HW230291   0.946   0.606   5.482  0.8712 -1.1717 -1.6266
 6278SOL     OW30292   1.117   2.853  10.375  0.0021 -0.7705 -0.2984
 6278SOL    HW130293   1.053   2.844  10.445  2.3938  1.9001  2.2549
 6278SOL    HW230294   1.072   2.908  10.311 -0.6487 -2.8669 -1.6266
 6279SOL     OW30295   3.490   2.261   0.335 -0.1280 -0.3537 -0.0885
 6279SOL    HW130296   3.455   2.299   0.416 -0.4515 -0.4822 -0.1693
 6279SOL    HW230297   3.482   2.334   0.274 -3.1816  1.5779  2.6156
 6280SOL     OW30298   0.855   4.552  10.820 -0.1145 -0.0123 -0.1086
 6280SOL    HW130299   0.880   4.608  10.746 -0.5046  2.3436  1.5252
 6280SOL    HW230300   0.798   4.609  10.871  1.1580  2.2269 -1.1893
 6281SOL     OW30301   4.286   1.543   3.822  0.4309 -0.1858  0.2044
 6281SOL    HW130302   4.228   1.488   3.770 -1.8401 -0.2283  2.7627
 6281SOL    HW230303   4.299   1.610   3.755 -1.4233 -1.6761 -1.6110
 6282SOL     OW30304   0.673   4.167  12.051  0.0689  0.1750  0.5445
 6282SOL    HW130305   0.586   4.188  12.086 -0.5152 -0.6107 -0.4212
 6282SOL    HW230306   0.690   4.094  12.109 -3.1801 -0.5301  0.6288
 6283SOL     OW30307   3.205   4.255   7.040 -0.1224 -0.6793 -0.4844
 6283SOL    HW130308   3.120   4.278   7.002  0.8632  0.7171 -1.8582
 6283SOL    HW230309   3.228   4.343   7.069  0.5533 -0.9668 -0.1661
 6284SOL     OW30310   4.398   1.566   9.841 -0.0890  0.4811  0.5081
 6284SOL    HW130311   4.374   1.508   9.914 -2.9241 -0.2553 -1.0193
 6284SOL    HW230312   4.487   1.532   9.828 -0.4197  0.3882 -1.5047
 6285SOL     OW30313   3.948   2.470  12.266 -0.0478 -0.4567 -0.0031
 6285SOL    HW130314   3.929   2.544  12.324  3.2984  0.5034 -0.1398
 6285SOL    HW230315   3.963   2.510  12.180  0.1903 -1.0094 -0.2169
 6286SOL     OW30316   3.480   2.326  11.542 -0.2935  0.4974 -0.3053
 6286SOL    HW130317   3.410   2.339  11.605 -1.1221  0.7244 -1.2682
 6286SOL    HW230318   3.486   2.231  11.551  2.4873  0.7500  0.6609
 6287SOL     OW30319   4.507   1.058  10.248 -0.6404 -0.0730 -0.2278
 6287SOL    HW130320   4.432   1.109  10.219  1.5935  3.4408  0.1699
 6287SOL    HW230321   4.468   0.971  10.246  3.9081 -2.1614  1.6751
 6288SOL     OW30322   1.678   3.184   3.700  0.1659  0.3507 -0.2759
 6288SOL    HW130323   1.647   3.144   3.619  3.0191 -2.5883  0.0880
 6288SOL    HW230324   1.616   3.163   3.770 -0.1162  0.0777 -0.6057
 6289SOL     OW30325   1.067   2.448   4.064 -0.3303 -0.6848 -0.0101
 6289SOL    HW130326   1.086   2.408   3.979  0.5094 -0.5794  0.1338
 6289SOL    HW230327   0.973   2.454   4.043 -0.2799 -3.0880 -0.9249
 6290SOL     OW30328   2.399   4.520  10.618 -0.0920  0.5798  0.2651
 6290SOL    HW130329   2.406   4.460  10.544  5.3590  0.8935  0.4972
 6290SOL    HW230330   2.451   4.598  10.599  0.6205 -0.0168 -0.2563
 6291SOL     OW30331   0.918   4.471   7.374  0.3320  0.4097  0.0467
 6291SOL    HW130332   0.877   4.489   7.459  1.0139  1.3477  0.1832
 6291SOL    HW230333   1.005   4.442   7.403  0.8666  1.0880 -0.9064
 6292SOL     OW30334   2.931   0.758   0.795 -0.1712  0.0448 -0.7621
 6292SOL    HW130335   2.937   0.819   0.722 -2.9882 -2.8075 -3.3805
 6292SOL    HW230336   3.022   0.732   0.809 -0.2733  0.3081  0.4457
 6293SOL     OW30337   0.044   3.612   6.766  0.5526 -0.4783  0.2055
 6293SOL    HW130338   4.711   3.629   6.841  0.9510  2.0377 -0.0551
 6293SOL    HW230339   0.130   3.604   6.808  0.1217 -0.3277  1.1216
 6294SOL     OW30340   1.819   4.666   3.836  0.2469  0.3880 -0.2005
 6294SOL    HW130341   1.811   4.571   3.828 -2.2972  0.7141 -1.4450
 6294SOL    HW230342   1.726   4.680   3.851  0.8893  1.4360  2.8174
 6295SOL     OW30343   1.390   4.445   3.228  0.0690 -0.3337  0.6495
 6295SOL    HW130344   1.385   4.376   3.294 -1.9492 -0.1174  0.7321
 6295SOL    HW230345   1.306   4.487   3.247 -0.2706 -0.1711 -1.2698
 6296SOL     OW30346   4.668   0.144   3.794  0.7356 -0.3755 -0.1342
 6296SOL    HW130347   4.720   0.118   3.717 -1.1229  1.6675 -2.1026
 6296SOL    HW230348   4.675   0.068   3.852  0.1561  0.0071  0.4321
 6297SOL     OW30349   2.077   2.082   4.409 -0.1518 -0.7399 -0.1728
 6297SOL    HW130350   2.006   2.138   4.379  1.3083  1.7050  0.9129
 6297SOL    HW230351   2.072   1.999   4.361  0.9507  0.0957 -1.7323
 6298SOL     OW30352   0.937   1.029  14.589  0.2449 -0.2711 -0.1813
 6298SOL    HW130353   0.857   0.992  14.625 -0.3151 -0.6931 -1.8538
 6298SOL    HW230354   0.985   1.030  14.672 -1.4788 -0.5158  0.7999
 6299SOL     OW30355   3.077   1.589   9.201 -0.2926 -0.5556 -0.1180
 6299SOL    HW130356   3.155   1.643   9.209 -0.3802 -0.4492  0.0032
 6299SOL    HW230357   3.101   1.549   9.117  0.7463 -1.0048  0.3897
 6300SOL     OW30358   2.066   2.929   1.904  0.2807  0.0175 -0.1668
 6300SOL    HW130359   2.152   2.916   1.863  1.3110  1.1487  1.6201
 6300SOL    HW230360   2.058   2.850   1.958 -1.9944 -0.3203 -1.0103
 6301SOL     OW30361   4.465   3.489   2.803  0.1938 -0.2123  0.6122
 6301SOL    HW130362   4.485   3.540   2.724  0.5055 -2.0662 -0.4933
 6301SOL    HW230363   4.378   3.519   2.829  1.0707  0.8540  2.3174
 6302SOL     OW30364   2.998   1.784   1.850 -0.2692 -0.7250  0.2725
 6302SOL    HW130365   3.084   1.824   1.864  0.1328 -2.2198  1.9952
 6302SOL    HW230366   3.035   1.697   1.833  0.8955 -0.0293 -0.7681
 6303SOL     OW30367   2.949   0.157   9.939 -0.5246  0.2173 -0.1123
 6303SOL    HW130368   2.953   0.122  10.028 -0.8119  1.0176  0.2175
 6303SOL    HW230369   2.854   0.170   9.934 -0.7108 -1.5121 -0.9698
 6304SOL     OW30370   3.309   3.414   6.195 -0.3008  0.2476 -0.1635
 6304SOL    HW130371   3.382   3.430   6.136  1.9001 -1.2941  2.1034
 6304SOL    HW230372   3.302   3.318   6.194  1.1740  0.1181  2.2285
 6305SOL     OW30373   3.145   1.721   3.344 -0.0805 -0.0540 -0.2231
 6305SOL    HW130374   3.138   1.760   3.431 -1.1815 -0.5336 -0.0994
 6305SOL    HW230375   3.177   1.795   3.294 -1.3122 -1.3284 -2.8935
 6306SOL     OW30376   3.566   2.964   8.173 -0.5291  0.2172 -0.1899
 6306SOL    HW130377   3.481   3.008   8.171  0.3227  1.8832 -0.0937
 6306SOL    HW230378   3.579   2.979   8.266  1.8330 -0.1008 -0.4595
 6307SOL     OW30379   3.025   1.607   2.139  0.2942 -0.3277  0.0398
 6307SOL    HW130380   3.047   1.628   2.049 -0.1257  0.0461  0.0242
 6307SOL    HW230381   3.027   1.512   2.128  3.1324  0.0031 -2.1669
 6308SOL     OW30382   2.351   1.415   2.671  0.0341 -0.3278 -0.0570
 6308SOL    HW130383   2.336   1.507   2.694 -1.8694 -0.7183  0.2635
 6308SOL    HW230384   2.305   1.402   2.588 -0.2815  2.6497 -0.3461
 6309SOL     OW30385   4.709   4.304   3.204  0.5840  0.1278 -0.8839
 6309SOL    HW130386   4.724   4.221   3.157  2.2547  0.3163 -0.6662
 6309SOL    HW230387   4.693   4.372   3.138  0.2095  0.5620 -0.3380
 6310SOL     OW30388   2.225   0.909   7.629  0.3364 -0.9940 -0.3878
 6310SOL    HW130389   2.231   0.813   7.632 -0.4088 -1.0179  0.4178
 6310SOL    HW230390   2.276   0.923   7.709 -0.0170 -0.3149 -0.2799
 6311SOL     OW30391   3.014   2.177   3.748 -0.6054  0.0374 -0.0455
 6311SOL    HW130392   3.016   2.272   3.755 -2.6395  0.1912 -1.5439
 6311SOL    HW230393   2.926   2.155   3.717 -0.9891  0.9795  0.3832
 6312SOL     OW30394   1.187   3.142  13.144  0.0004  0.2563  0.2480
 6312SOL    HW130395   1.266   3.088  13.151 -0.6890 -0.6759  0.7594
 6312SOL    HW230396   1.129   3.080  13.188  1.3527 -1.1660  0.0373
 6313SOL     OW30397   4.532   1.397   7.997  0.0645  0.0432  0.0150
 6313SOL    HW130398   4.514   1.396   7.903  0.9174 -0.3011 -0.1418
 6313SOL    HW230399   4.447   1.364   8.024 -0.3566  0.2077 -1.0996
 6314SOL     OW30400   3.389   1.005   6.913  0.2672 -0.4747 -0.0476
 6314SOL    HW130401   3.409   1.061   6.988  1.7635  0.9719 -1.5268
 6314SOL    HW230402   3.305   1.041   6.886 -0.2958  0.4368  2.9203
 6315SOL     OW30403   4.018   4.405   5.185  0.3328  0.0453 -0.1148
 6315SOL    HW130404   3.936   4.452   5.200  0.6642  0.3978  0.5794
 6315SOL    HW230405   3.994   4.318   5.153  1.0614  0.0337 -0.6395
 6316SOL     OW30406   0.729   1.787   0.963  0.3006  0.2252 -0.1085
 6316SOL    HW130407   0.810   1.782   0.912 -0.6048 -1.6260 -1.3518
 6316SOL    HW230408   0.703   1.697   0.980  1.2671 -0.0962 -0.3521
 6317SOL     OW30409   1.652   4.501   3.225 -0.7505 -0.0267 -0.0595
 6317SOL    HW130410   1.556   4.499   3.220 -0.6753 -1.3051 -1.0885
 6317SOL    HW230411   1.647   4.472   3.316  0.8626 -0.0137  0.0228
 6318SOL     OW30412   1.046   0.266  17.604 -0.0552 -0.1944  0.2122
 6318SOL    HW130413   1.015   0.347  17.563  0.8498 -0.1031 -0.2790
 6318SOL    HW230414   1.120   0.298  17.655  2.0635 -0.8373 -2.4730
 6319SOL     OW30415   1.759   4.525   2.972  0.0905 -0.4965 -0.1518
 6319SOL    HW130416   1.690   4.560   2.914 -1.1749  0.3554  1.8818
 6319SOL    HW230417   1.710   4.504   3.051 -0.1445  1.7994  0.3100
 6320SOL     OW30418   2.080   0.706   5.464  0.0141 -0.1582 -0.2136
 6320SOL    HW130419   2.154   0.754   5.503  1.9824 -2.8733 -0.6310
 6320SOL    HW230420   2.083   0.620   5.505  0.9857  0.0589  0.1724
 6321SOL     OW30421   4.506   2.747  14.944  0.1208 -0.1843  0.0515
 6321SOL    HW130422   4.511   2.825  14.999  1.3496  0.7496 -1.3692
 6321SOL    HW230423   4.503   2.679  15.011 -0.8156 -1.1149 -0.9400
 6322SOL     OW30424   2.146   1.895  11.195  0.2168  0.0251 -0.0875
 6322SOL    HW130425   2.147   1.982  11.155  0.1627 -0.0005 -0.1460
 6322SOL    HW230426   2.055   1.869  11.180  0.0204  1.2048 -1.0150
 6323SOL     OW30427   2.619   3.969   7.343 -0.4789  0.1866  0.0370
 6323SOL    HW130428   2.523   3.966   7.333 -0.3024  0.4077 -1.8378
 6323SOL    HW230429   2.647   3.987   7.253  1.2986  1.3576  0.8247
 6324SOL     OW30430   0.541   2.349   5.319 -0.1047  0.5852  1.0357
 6324SOL    HW130431   0.546   2.404   5.241  3.2224 -1.5829 -0.3036
 6324SOL    HW230432   0.494   2.276   5.279  0.7772  0.5036  0.1293
 6325SOL     OW30433   2.226   1.523   2.443  0.2662  0.5559  0.6274
 6325SOL    HW130434   2.249   1.613   2.419  0.5995  0.1634 -0.5267
 6325SOL    HW230435   2.132   1.525   2.459  0.1629 -0.2897  0.1242
 6326SOL     OW30436   0.138   1.025  17.241  0.0076 -0.1311 -0.0548
 6326SOL    HW130437   0.086   1.006  17.163 -0.6311 -1.0603  0.6030
 6326SOL    HW230438   0.152   1.116  17.214  3.1714  0.1603  2.7077
 6327SOL     OW30439   0.717   4.328   5.906 -0.2617 -0.0927 -0.7364
 6327SOL    HW130440   0.778   4.307   5.835  0.3148  0.0958 -0.2930
 6327SOL    HW230441   0.770   4.358   5.980 -0.6890  0.1473 -0.5288
 6328SOL     OW30442   1.941   4.014   7.520 -0.6718 -0.1638 -0.0330
 6328SOL    HW130443   1.980   4.029   7.607  0.0541 -0.8863 -0.2329
 6328SOL    HW230444   1.919   3.921   7.520 -0.3875 -0.2320 -1.7378
 6329SOL     OW30445   3.503   3.184   9.040 -0.5385  0.1961  0.1995
 6329SOL    HW130446   3.533   3.266   9.078  4.0879 -1.6379  0.4832
 6329SOL    HW230447   3.412   3.175   9.070 -0.3335  0.2602  0.8376
 6330SOL     OW30448   3.780   0.288  16.726 -0.0882  0.1029  0.1853
 6330SOL    HW130449   3.793   0.230  16.801  0.6271 -2.7259 -2.0956
 6330SOL    HW230450   3.807   0.227  16.657  0.3182  0.7613 -0.2325
 6331SOL     OW30451   2.669   4.396   4.372 -0.0908  0.1738 -0.4671
 6331SOL    HW130452   2.688   4.350   4.290 -0.7161  1.0272 -1.0925
 6331SOL    HW230453   2.588   4.438   4.345 -0.2942  0.1288  0.0740
 6332SOL     OW30454   3.937   3.501   6.100  0.3757 -0.3523  0.0871
 6332SOL    HW130455   3.920   3.473   6.190 -4.4265 -0.5325 -0.8389
 6332SOL    HW230456   4.025   3.538   6.095  0.0918  0.2326 -0.5890
 6333SOL     OW30457   2.487   3.134   6.792 -0.4379 -0.3234 -0.1239
 6333SOL    HW130458   2.569   3.086   6.806 -0.4351 -0.2246  0.1887
 6333SOL    HW230459   2.495   3.171   6.704 -1.9845 -0.4097 -0.3003
 6334SOL     OW30460   2.252   2.325  15.508  0.2266 -0.7645  0.5136
 6334SOL    HW130461   2.283   2.285  15.427  0.7179 -1.6096  1.1160
 6334SOL    HW230462   2.218   2.405  15.468 -0.1859 -1.2412 -0.0881
 6335SOL     OW30463   0.027   3.638  14.618  0.3553  0.0803  0.7066
 6335SOL    HW130464   0.054   3.567  14.676 -1.8653 -1.0951  0.3096
 6335SOL    HW230465   0.104   3.647  14.561  0.8293  1.0491  1.5057
 6336SOL     OW30466   3.286   1.408   9.027 -0.1723 -0.3280 -0.3874
 6336SOL    HW130467   3.236   1.452   8.958 -0.8769  1.7789  1.4966
 6336SOL    HW230468   3.357   1.383   8.968 -0.6712 -0.4504 -0.9376
 6337SOL     OW30469   4.494   3.464  10.045  0.0272 -0.3086 -0.0710
 6337SOL    HW130470   4.450   3.455  10.129 -0.0995  2.2690  0.1513
 6337SOL    HW230471   4.535   3.550  10.052  1.7593 -0.8021 -4.1043
 6338SOL     OW30472   3.515   2.433   0.072 -0.3812  0.3201 -0.1751
 6338SOL    HW130473   3.501   2.522   0.040 -0.2103  0.2528 -0.4322
 6338SOL    HW230474   3.522   2.389  17.688 -0.5398 -0.0101 -0.0131
 6339SOL     OW30475   3.330   0.237   0.063  0.3687  0.5446  0.3370
 6339SOL    HW130476   3.300   0.229  17.672  1.4024  1.3396 -0.0761
 6339SOL    HW230477   3.279   0.167   0.104  1.1882 -0.9483 -1.1916
 6340SOL     OW30478   1.565   2.875   2.649 -0.3454  0.0359 -0.1855
 6340SOL    HW130479   1.471   2.890   2.635 -0.3829  0.1191  0.1550
 6340SOL    HW230480   1.586   2.966   2.670 -0.7066  0.2923 -0.9104
 6341SOL     OW30481   4.148   1.962   6.774  1.0642 -0.1757 -0.3943
 6341SOL    HW130482   4.115   1.988   6.688 -2.2692 -1.5167  0.4639
 6341SOL    HW230483   4.097   2.021   6.830 -0.3751  0.8259 -2.7538
 6342SOL     OW30484   4.165   2.623   4.194  0.7886 -0.1171  0.2128
 6342SOL    HW130485   4.248   2.651   4.155  0.8846 -1.7587 -0.7847
 6342SOL    HW230486   4.176   2.528   4.195 -3.2445 -0.5617 -0.1969
 6343SOL     OW30487   2.128   4.662   5.191 -0.1388 -0.6059 -0.1312
 6343SOL    HW130488   2.107   4.569   5.182  0.0097 -0.6925  0.4491
 6343SOL    HW230489   2.201   4.656   5.252  0.8385 -0.2280 -1.2640
 6344SOL     OW30490   2.224   1.642  13.929 -0.1397  0.4185 -0.8922
 6344SOL    HW130491   2.172   1.645  13.849 -1.8523 -2.6406  0.0809
 6344SOL    HW230492   2.155   1.626  13.993  3.6148  0.2000  3.1501
 6345SOL     OW30493   3.052   3.841   3.662 -0.5297 -0.1965  0.1966
 6345SOL    HW130494   2.966   3.866   3.630 -0.6452  0.2049  0.8220
 6345SOL    HW230495   3.112   3.886   3.603 -0.9176 -0.3575 -0.3199
 6346SOL     OW30496   1.361   0.804   7.566  0.4366  0.2940  0.3599
 6346SOL    HW130497   1.412   0.874   7.606  0.7277  0.4644 -0.3030
 6346SOL    HW230498   1.418   0.801   7.489  2.2082  0.4442  1.6787
 6347SOL     OW30499   4.380   0.361  13.096  0.0246  0.3309 -0.5816
 6347SOL    HW130500   4.392   0.444  13.143  2.2180 -0.3723  0.0681
 6347SOL    HW230501   4.446   0.374  13.027  0.5451  0.5426 -0.0437
 6348SOL     OW30502   0.397   1.490   7.486  0.0481  0.0416 -0.2443
 6348SOL    HW130503   0.310   1.519   7.513 -0.1377  1.6384 -2.5303
 6348SOL    HW230504   0.380   1.432   7.412  1.0219  1.7011 -1.7695
 6349SOL     OW30505   0.855   4.346   6.171 -0.0540 -0.5150 -0.1119
 6349SOL    HW130506   0.856   4.415   6.238 -1.1632 -1.9236  1.3373
 6349SOL    HW230507   0.807   4.281   6.222  1.3660 -2.6877 -1.5400
 6350SOL     OW30508   3.730   0.478  10.561 -0.0533 -0.2005 -0.0955
 6350SOL    HW130509   3.758   0.484  10.652  0.1514 -1.8579 -0.0538
 6350SOL    HW230510   3.636   0.485  10.571  0.0258  1.7439 -0.7750
 6351SOL     OW30511   0.166   1.815   8.787 -0.0230 -0.1184 -0.7251
 6351SOL    HW130512   0.080   1.776   8.773  0.0090 -0.0646 -1.0673
 6351SOL    HW230513   0.176   1.837   8.879 -0.7882 -1.5933 -0.2857
 6352SOL     OW30514   4.523   4.045   4.921  0.9799 -0.0769  0.2222
 6352SOL    HW130515   4.544   3.970   4.976 -1.6007 -0.1552  1.1134
 6352SOL    HW230516   4.428   4.054   4.930  1.3460  1.5827  2.3974
 6353SOL     OW30517   4.064   2.547   6.331  0.1605  0.3336 -0.5238
 6353SOL    HW130518   4.058   2.529   6.425  0.0838 -1.0508 -0.7940
 6353SOL    HW230519   4.123   2.622   6.327 -0.8819  1.1141 -1.2268
 6354SOL     OW30520   3.635   0.448   6.534 -0.2470  0.0701 -0.2913
 6354SOL    HW130521   3.654   0.434   6.442  3.8320  0.4092  0.4735
 6354SOL    HW230522   3.663   0.540   6.533 -0.4996  0.1569  0.2894
 6355SOL     OW30523   4.231   1.131   5.707  0.0301  0.0836 -0.1169
 6355SOL    HW130524   4.313   1.086   5.725 -0.1513 -0.6544 -1.1371
 6355SOL    HW230525   4.253   1.224   5.717  0.0378  0.1734 -0.9790
 6356SOL     OW30526   2.417   0.552   9.687  0.0293 -0.2240 -0.7146
 6356SOL    HW130527   2.331   0.518   9.663 -1.6113  2.2705  1.5886
 6356SOL    HW230528   2.474   0.476   9.672  2.8425  1.8092 -0.2627
 6357SOL     OW30529   4.699   4.566   6.967 -0.1938 -0.5079 -0.3235
 6357SOL    HW130530   4.665   4.626   6.900 -0.8829 -3.0409 -2.2235
 6357SOL    HW230531   4.641   4.579   7.042 -0.0071 -1.4780 -0.0049
 6358SOL     OW30532   3.430   2.225   3.944 -0.0984  0.3378 -0.1422
 6358SOL    HW130533   3.363   2.276   3.990 -1.9538 -1.0077 -1.3419
 6358SOL    HW230534   3.369   2.169   3.896  1.5160 -0.6005 -1.1195
 6359SOL     OW30535   0.385   4.027   3.185  0.2368  0.1132  0.6060
 6359SOL    HW130536   0.332   4.090   3.136  0.8841  0.3261  0.1727
 6359SOL    HW230537   0.470   4.043   3.144 -0.0819 -0.0720 -0.1323
 6360SOL     OW30538   0.328   1.873   8.564 -0.3893 -0.1459  0.6897
 6360SOL    HW130539   0.417   1.870   8.598  0.2787 -2.3593 -1.2886
 6360SOL    HW230540   0.273   1.842   8.636  0.0710  1.3553  1.6942
 6361SOL     OW30541   2.472   1.953   1.868  0.1157  0.0586 -0.1694
 6361SOL    HW130542   2.495   1.930   1.778 -2.4276 -1.4762 -0.4348
 6361SOL    HW230543   2.496   1.874   1.916  0.6656  0.8456  0.8406
 6362SOL     OW30544   2.417   0.586   7.221  1.0709 -0.0695  0.0138
 6362SOL    HW130545   2.395   0.665   7.271  0.0843 -0.4071  0.1102
 6362SOL    HW230546   2.377   0.598   7.135  0.9528 -0.3302  0.0312
 6363SOL     OW30547   4.016   3.823   6.960 -0.0097 -0.0955  0.0480
 6363SOL    HW130548   4.036   3.798   7.050 -1.6682 -0.3449  0.3341
 6363SOL    HW230549   4.107   3.828   6.929 -0.3569  0.1432 -0.9159
 6364SOL     OW30550   3.421   1.657   2.928 -0.5612 -0.7036 -0.3531
 6364SOL    HW130551   3.461   1.706   2.856  1.4696  0.4058  1.4876
 6364SOL    HW230552   3.487   1.667   2.997 -1.6255  2.5373  0.1887
 6365SOL     OW30553   0.355   0.107  17.643 -0.3196  0.0036  0.0999
 6365SOL    HW130554   0.339   0.019  17.678  1.2156 -0.3060  0.0336
 6365SOL    HW230555   0.391   0.142   0.025 -2.1294  1.4633  0.2423
 6366SOL     OW30556   2.876   1.688   4.510  0.7280  0.2114 -0.3191
 6366SOL    HW130557   2.887   1.774   4.550 -2.7965 -0.2422  1.7398
 6366SOL    HW230558   2.963   1.650   4.520  0.1240 -0.9481  0.6573
 6367SOL     OW30559   4.013   1.535  12.014  0.0906  0.5174 -0.0115
 6367SOL    HW130560   4.105   1.532  12.043  0.7616 -1.2824 -2.3027
 6367SOL    HW230561   4.002   1.610  11.955 -0.4356  0.7991  0.4532
 6368SOL     OW30562   1.694   4.236   3.283 -0.0180 -0.2253 -0.1567
 6368SOL    HW130563   1.696   4.320   3.238 -2.0046  0.0490  0.2697
 6368SOL    HW230564   1.654   4.178   3.218 -0.8505  1.4027 -1.1059
 6369SOL     OW30565   0.524   3.580   4.218 -0.9788 -0.1243 -0.8589
 6369SOL    HW130566   0.445   3.573   4.165 -0.1940  0.7554 -2.1688
 6369SOL    HW230567   0.592   3.534   4.168  0.2673  0.7934 -0.0229
 6370SOL     OW30568   0.288   3.880   6.561 -0.0004 -0.1939  0.8493
 6370SOL    HW130569   0.302   3.805   6.618 -0.0381  0.0402  1.1686
 6370SOL    HW230570   0.342   3.948   6.602 -0.6333  0.2758  0.8972
 6371SOL     OW30571   3.512   1.875   0.258  0.4908  0.7185  0.6514
 6371SOL    HW130572   3.452   1.818   0.305  1.2116  1.2718  2.2302
 6371SOL    HW230573   3.596   1.830   0.264  0.0292 -0.5282 -2.1932
 6372SOL     OW30574   2.000   1.791   6.884  0.6964  0.5180  0.8965
 6372SOL    HW130575   2.045   1.752   6.959  0.9989  0.5952  0.7545
 6372SOL    HW230576   2.050   1.873   6.877  0.6517  0.3418 -1.5181
 6373SOL     OW30577   0.084   3.383  14.724 -0.0673  0.2683 -0.3768
 6373SOL    HW130578   0.161   3.329  14.743  0.1822  1.4886  2.2066
 6373SOL    HW230579   0.073   3.361  14.632  2.6192 -0.5558 -0.5125
 6374SOL     OW30580   2.562   2.057  15.252  0.8520  0.0407 -0.0028
 6374SOL    HW130581   2.494   2.068  15.319  0.9058  1.6500 -0.2058
 6374SOL    HW230582   2.522   2.101  15.178 -0.9601  1.5503  1.8552
 6375SOL     OW30583   2.860   3.698   4.149  0.1201  0.0701  0.2966
 6375SOL    HW130584   2.933   3.749   4.185  0.0669 -0.9282  1.8000
 6375SOL    HW230585   2.797   3.769   4.137 -0.1221 -0.0878  0.6374
 6376SOL     OW30586   1.932   3.232  15.355 -0.1188  0.1089 -0.5326
 6376SOL    HW130587   1.908   3.244  15.446 -1.6763 -3.1313 -0.5145
 6376SOL    HW230588   1.959   3.316  15.319  2.1260 -0.2610  0.2621
 6377SOL     OW30589   4.061   4.714  15.512  0.4556  0.6848  0.1205
 6377SOL    HW130590   4.116   4.647  15.472 -0.0598  0.6262 -0.4885
 6377SOL    HW230591   3.993   4.658  15.547 -0.1211  1.3152  0.0117
 6378SOL     OW30592   1.035   0.176   4.065 -0.3741  0.3584 -0.2264
 6378SOL    HW130593   0.964   0.136   4.016 -0.5418 -0.3680  0.5982
 6378SOL    HW230594   1.030   0.266   4.033  1.0420  0.0327 -1.3578
 6379SOL     OW30595   3.698   4.620   9.802 -0.5045  0.0496 -0.2676
 6379SOL    HW130596   3.657   4.663   9.727  1.4507  0.2288 -1.2351
 6379SOL    HW230597   3.616   4.592   9.843  1.7496 -0.6992  3.7375
 6380SOL     OW30598   3.469   3.938   9.058 -0.1151  0.1500  0.6880
 6380SOL    HW130599   3.435   3.918   9.146 -1.5659  1.9267  0.5232
 6380SOL    HW230600   3.514   4.021   9.068  0.1276  0.2376 -1.1469
 6381SOL     OW30601   0.703   3.340   6.868  0.0292  0.3150 -0.1706
 6381SOL    HW130602   0.659   3.281   6.930 -0.0218 -0.9781 -1.4389
 6381SOL    HW230603   0.766   3.276   6.837  0.7211  0.0596  1.7387
 6382SOL     OW30604   2.126   3.190   0.395  0.0315 -0.6698 -0.4784
 6382SOL    HW130605   2.073   3.119   0.429 -0.8434  0.7528  1.1619
 6382SOL    HW230606   2.061   3.259   0.381  1.7642  1.4293  1.6854
 6383SOL     OW30607   4.485   2.156  17.326 -0.0339 -0.5563  0.6652
 6383SOL    HW130608   4.432   2.114  17.259  0.2575 -0.2006  0.2156
 6383SOL    HW230609   4.576   2.152  17.294 -0.2102 -0.5788  0.1705
 6384SOL     OW30610   4.547   2.434   3.001 -0.8388  0.1397  0.1394
 6384SOL    HW130611   4.539   2.356   2.946  0.9144  0.0148  0.0483
 6384SOL    HW230612   4.528   2.406   3.091 -2.3525  0.0766 -0.1917
 6385SOL     OW30613   0.399   3.901  16.826 -0.1005  0.3554  0.5949
 6385SOL    HW130614   0.464   3.846  16.782  0.0080  1.2807 -0.4154
 6385SOL    HW230615   0.394   3.978  16.768  0.7249  1.5859  2.1645
 6386SOL     OW30616   0.348   2.319   8.798  0.7029 -0.5053  0.2663
 6386SOL    HW130617   0.315   2.371   8.724  0.4241  2.4373  2.4927
 6386SOL    HW230618   0.287   2.245   8.794  0.7811 -0.4454 -2.0168
 6387SOL     OW30619   3.265   0.892   6.353  0.5068 -0.0491 -0.1378
 6387SOL    HW130620   3.297   0.955   6.288 -2.4720  1.2971 -0.3249
 6387SOL    HW230621   3.335   0.828   6.353 -0.3843 -1.0340 -4.4233
 6388SOL     OW30622   0.592   0.820  11.282  0.8151  0.4923 -0.0637
 6388SOL    HW130623   0.590   0.916  11.281 -0.2483  0.4754  2.0164
 6388SOL    HW230624   0.605   0.812  11.376 -2.1200  0.9264  0.3695
 6389SOL     OW30625   3.971   4.350   5.462  0.1043 -0.4496  0.3002
 6389SOL    HW130626   4.013   4.265   5.453 -2.0789 -1.7296  1.9864
 6389SOL    HW230627   3.968   4.378   5.371  0.1429 -0.4871  0.2875
 6390SOL     OW30628   2.771   1.804   9.835  0.2980  0.5454  0.6830
 6390SOL    HW130629   2.780   1.807   9.739 -0.6417 -1.4551  0.5311
 6390SOL    HW230630   2.797   1.894   9.857 -0.2832  0.5040  1.5405
 6391SOL     OW30631   1.709   0.051   3.158  0.2945 -0.0797 -0.2879
 6391SOL    HW130632   1.709   0.062   3.063 -0.1302  0.2198 -0.2547
 6391SOL    HW230633   1.730   4.683   3.171 -1.7042 -0.7876 -1.9826
 6392SOL     OW30634   4.344   2.995   1.687 -0.1033  0.0331  0.2727
 6392SOL    HW130635   4.365   3.035   1.771  0.2482  0.5976 -0.0774
 6392SOL    HW230636   4.425   2.962   1.648  0.0532 -0.1748  0.7770
 6393SOL     OW30637   1.634   3.552   0.517  0.1919  0.6146  0.3439
 6393SOL    HW130638   1.699   3.618   0.539  0.8505 -0.4036  1.4408
 6393SOL    HW230639   1.610   3.566   0.425  3.3499  2.0796 -0.2649
 6394SOL     OW30640   3.475   2.522   9.100 -0.2620 -0.2901 -0.0180
 6394SOL    HW130641   3.417   2.495   9.171 -2.0782  1.8756 -0.7084
 6394SOL    HW230642   3.462   2.453   9.035  0.4044 -1.1729  0.7740
 6395SOL     OW30643   4.080   3.498   8.656 -0.6024  0.6508 -0.2043
 6395SOL    HW130644   4.074   3.440   8.731  0.7930  0.5859 -0.1364
 6395SOL    HW230645   4.156   3.540   8.697 -0.6040 -0.8377  1.3317
 6396SOL     OW30646   1.768   4.639   0.872  0.2021 -0.4653 -0.0410
 6396SOL    HW130647   1.789   4.551   0.902  0.3905 -0.7313 -0.9645
 6396SOL    HW230648   1.747   4.613   0.782 -0.9771  1.0417 -0.1995
 6397SOL     OW30649   1.971   2.921  13.500  0.2942  0.3360 -0.2858
 6397SOL    HW130650   2.050   2.923  13.555 -2.0086  4.4107  2.8988
 6397SOL    HW230651   1.982   2.990  13.435 -0.0041  0.4664 -0.1967
 6398SOL     OW30652   1.970   2.204   5.752 -0.2755  0.1658  0.1853
 6398SOL    HW130653   1.973   2.169   5.663  1.3484 -1.3959  0.8439
 6398SOL    HW230654   2.000   2.292   5.732  1.3815 -0.1299  1.3790
 6399SOL     OW30655   1.729   2.924   5.276 -0.1054 -0.0331 -0.7944
 6399SOL    HW130656   1.794   2.986   5.309  0.6218 -0.8298 -0.7063
 6399SOL    HW230657   1.681   2.966   5.205 -1.5535  0.0725  0.2472
 6400SOL     OW30658   0.428   2.246   5.782  0.2934  0.0678 -0.3619
 6400SOL    HW130659   0.490   2.177   5.757 -0.8595 -1.2750  0.5110
 6400SOL    HW230660   0.394   2.283   5.701 -1.1053  1.4398  0.8522
 6401SOL     OW30661   2.812   2.355  16.044 -0.1876  0.7636 -0.1425
 6401SOL    HW130662   2.766   2.274  16.022  1.0388 -0.3049  1.2471
 6401SOL    HW230663   2.866   2.324  16.116  0.6117 -0.5735 -1.3145
 6402SOL     OW30664   3.506   3.209   0.023  0.2294 -0.0348 -0.2167
 6402SOL    HW130665   3.578   3.271   0.035 -0.5392  0.7210  0.5003
 6402SOL    HW230666   3.538   3.175  17.640 -0.5783 -0.0496 -0.5249
 6403SOL     OW30667   0.594   0.636  15.039 -0.5217  0.3474 -0.2649
 6403SOL    HW130668   0.687   0.612  15.048 -1.1363 -2.4232 -1.1549
 6403SOL    HW230669   0.586   0.690  14.960  1.7211  1.0770 -0.0093
 6404SOL     OW30670   1.628   0.332   3.696  0.3643 -0.3814 -0.4607
 6404SOL    HW130671   1.550   0.287   3.664 -0.0910  0.1286 -0.0953
 6404SOL    HW230672   1.622   0.417   3.651 -1.3157 -0.9051 -1.2119
 6405SOL     OW30673   2.290   0.747   5.632 -0.1452  0.4504 -0.5402
 6405SOL    HW130674   2.379   0.754   5.597  0.7976  1.7518  2.1486
 6405SOL    HW230675   2.321   0.695   5.706  1.9503 -0.0809 -1.7821
 6406SOL     OW30676   0.166   2.787  13.466 -0.7449 -0.2680 -0.0690
 6406SOL    HW130677   0.132   2.700  13.488  2.0523 -1.1478  0.9141
 6406SOL    HW230678   0.113   2.841  13.524  0.2695 -0.1464  0.7593
 6407SOL     OW30679   3.331   4.145   8.642 -0.3698  0.5841  0.3953
 6407SOL    HW130680   3.317   4.238   8.656 -0.5017  0.5872  0.2415
 6407SOL    HW230681   3.407   4.119   8.694  0.5227 -0.3020 -1.3375
 6408SOL     OW30682   3.159   4.320   8.327  0.3871  0.1981 -0.1878
 6408SOL    HW130683   3.192   4.232   8.310 -1.4460 -0.2666 -1.3865
 6408SOL    HW230684   3.081   4.296   8.378  1.6839 -2.9850  0.3230
 6409SOL     OW30685   1.012   0.933   3.745  0.5149  0.4070  0.6753
 6409SOL    HW130686   1.078   0.873   3.710  0.3185 -1.0753  2.8729
 6409SOL    HW230687   0.934   0.922   3.691 -0.1149  2.0899  1.2576
 6410SOL     OW30688   0.230   0.218   4.212 -0.2260 -0.1924 -0.2482
 6410SOL    HW130689   0.236   0.234   4.118 -0.1168  1.0279 -0.0366
 6410SOL    HW230690   0.165   0.148   4.210 -1.3904  0.8521  1.0942
 6411SOL     OW30691   0.919   0.077   8.708 -0.0465  0.0136 -0.1033
 6411SOL    HW130692   0.879   0.136   8.643  0.7827  2.4155  1.5793
 6411SOL    HW230693   0.875   0.113   8.785 -0.5512 -1.8249  0.4655
 6412SOL     OW30694   4.292   0.380  15.456 -0.0939 -0.0935  0.4951
 6412SOL    HW130695   4.196   0.380  15.450 -0.2692 -0.2743  3.3410
 6412SOL    HW230696   4.318   0.416  15.371  0.7356 -2.1327 -0.1102
 6413SOL     OW30697   2.993   0.078   7.665 -0.0411 -0.1132  0.1689
 6413SOL    HW130698   2.904   0.108   7.684 -0.2957 -0.0148 -1.1512
 6413SOL    HW230699   3.035   0.164   7.671 -0.9541  0.4780 -1.7632
 6414SOL     OW30700   2.628   0.500   2.765 -0.1053  0.1344  0.4501
 6414SOL    HW130701   2.595   0.412   2.783  1.4876 -0.6354 -0.4216
 6414SOL    HW230702   2.547   0.541   2.734  0.4771  1.5682  0.8555
 6415SOL     OW30703   1.461   4.144   6.213 -0.0719 -0.7168 -0.0297
 6415SOL    HW130704   1.476   4.226   6.261 -1.5354  0.1294 -1.0184
 6415SOL    HW230705   1.366   4.142   6.199 -0.1575  0.3282  0.4095
 6416SOL     OW30706   1.165   4.453   7.487 -0.1335  0.3369  0.0220
 6416SOL    HW130707   1.124   4.376   7.526  1.2933  0.2917  1.4558
 6416SOL    HW230708   1.245   4.453   7.539 -0.4677  3.1813  0.5829
 6417SOL     OW30709   4.255   2.373   4.486  0.5382 -0.1066 -0.4167
 6417SOL    HW130710   4.204   2.412   4.557  1.1875  2.2169 -1.2212
 6417SOL    HW230711   4.213   2.288   4.480 -0.3962  0.2974  0.3054
 6418SOL     OW30712   2.804   0.269   0.330  0.0131  0.1276  0.3956
 6418SOL    HW130713   2.759   0.353   0.320 -0.5757  0.0642  2.4903
 6418SOL    HW230714   2.807   0.254   0.425 -0.5958 -0.6673  0.2880
 6419SOL     OW30715   4.540   1.713   3.546 -0.0335 -0.5226  0.0357
 6419SOL    HW130716   4.488   1.788   3.573  3.4157  1.8561  0.0144
 6419SOL    HW230717   4.600   1.734   3.617 -0.6037 -1.2489  0.7295
 6420SOL     OW30718   3.140   3.343   4.178 -0.2878  0.1487 -0.0286
 6420SOL    HW130719   3.069   3.401   4.205 -1.2551 -0.9757 -0.1573
 6420SOL    HW230720   3.178   3.316   4.262  0.7267 -2.6269 -1.3916
 6421SOL     OW30721   0.343   4.086  10.758 -0.3686  0.0639 -0.1094
 6421SOL    HW130722   0.432   4.114  10.779  0.7359 -2.5473 -1.2791
 6421SOL    HW230723   0.345   3.995  10.786  2.7000 -0.1126 -0.8263
 6422SOL     OW30724   1.383   2.326  16.578  0.6674  0.3396  0.0947
 6422SOL    HW130725   1.331   2.254  16.541  1.9792 -0.1994 -0.7134
 6422SOL    HW230726   1.463   2.321  16.525 -0.0736 -1.8889 -0.8585
 6423SOL     OW30727   2.222   1.297   6.342  0.1280  0.2465  0.3610
 6423SOL    HW130728   2.291   1.308   6.408  1.5422  0.9087 -1.2260
 6423SOL    HW230729   2.148   1.311   6.401  0.7236 -0.0998  1.1878
 6424SOL     OW30730   1.011   3.698  13.066 -0.0028 -0.3494  0.3396
 6424SOL    HW130731   0.942   3.660  13.012 -1.2792  0.5858  1.3040
 6424SOL    HW230732   0.966   3.780  13.088 -1.1246 -0.9667  0.3725
 6425SOL     OW30733   4.507   2.657   8.700 -0.1446 -0.0007 -0.0826
 6425SOL    HW130734   4.470   2.701   8.777 -0.4874  0.0597 -0.2813
 6425SOL    HW230735   4.600   2.673   8.714 -0.4954  2.3437 -0.4424
 6426SOL     OW30736   4.320   3.882   1.746 -0.1073  0.6210  0.8840
 6426SOL    HW130737   4.265   3.951   1.710  0.1847 -0.9340 -2.5430
 6426SOL    HW230738   4.359   3.922   1.823  0.1121  1.7828  0.1642
 6427SOL     OW30739   0.821   3.083   7.388 -1.0367  0.4253 -0.1248
 6427SOL    HW130740   0.842   3.176   7.388  1.8243 -0.2058  1.5919
 6427SOL    HW230741   0.869   3.057   7.309 -2.3191 -1.7576 -0.1866
 6428SOL     OW30742   2.402   3.173   1.141 -0.5915  0.6491 -0.1269
 6428SOL    HW130743   2.366   3.232   1.207 -3.0788  1.2490 -2.0229
 6428SOL    HW230744   2.493   3.201   1.148 -0.1738 -0.3775 -1.4249
 6429SOL     OW30745   1.456   4.360  11.258 -0.0828  0.5483 -0.3076
 6429SOL    HW130746   1.397   4.287  11.277  1.8038 -0.5091  1.4997
 6429SOL    HW230747   1.542   4.319  11.264  0.2431  1.4408  0.9999
 6430SOL     OW30748   1.700   4.123   5.297 -0.0721  0.1627 -0.0339
 6430SOL    HW130749   1.712   4.210   5.334 -1.5500  1.0554 -1.6469
 6430SOL    HW230750   1.731   4.133   5.207 -0.1289  1.2662  0.0638
 6431SOL     OW30751   1.165   3.914   3.347 -0.4021 -0.1941 -0.0009
 6431SOL    HW130752   1.194   3.996   3.306 -1.4719 -0.5708 -1.4883
 6431SOL    HW230753   1.234   3.853   3.321  0.2434  1.1738 -1.5138
 6432SOL     OW30754   3.332   0.007   0.724  0.4928 -0.2952  0.3672
 6432SOL    HW130755   3.371   0.030   0.640  2.0136  1.5448  1.5877
 6432SOL    HW230756   3.378   0.067   0.783  0.3751 -1.2869  1.4784
 6433SOL     OW30757   1.896   2.938   4.409 -0.3346  0.3708  0.6929
 6433SOL    HW130758   1.875   2.914   4.318  1.8195 -1.6852  0.7489
 6433SOL    HW230759   1.951   3.012   4.384 -2.5823  2.4236  1.7620
 6434SOL     OW30760   2.015   1.715   7.892  0.0319 -0.2608 -0.5539
 6434SOL    HW130761   1.944   1.712   7.955 -0.0905  1.4058 -0.5962
 6434SOL    HW230762   1.972   1.768   7.825 -0.0297 -0.3059 -0.5494
 6435SOL     OW30763   1.374   0.419   9.372  0.1579 -0.1678  0.1599
 6435SOL    HW130764   1.310   0.447   9.437 -0.1160  0.6051 -0.4542
 6435SOL    HW230765   1.432   0.494   9.359  0.8037 -0.5128  1.0263
 6436SOL     OW30766   3.526   0.826   3.656  0.2280  0.3052  0.2022
 6436SOL    HW130767   3.556   0.758   3.596  0.5478 -1.0614  1.8961
 6436SOL    HW230768   3.450   0.860   3.609  0.5384 -0.9346 -1.2044
 6437SOL     OW30769   1.881   1.435   7.081 -0.0392  0.2707  0.7445
 6437SOL    HW130770   1.836   1.505   7.033  1.3946  1.6937  1.4917
 6437SOL    HW230771   1.817   1.364   7.074 -0.1079  0.5300 -1.2112
 6438SOL     OW30772   3.415   2.296   5.770 -0.1945  0.4978 -0.0675
 6438SOL    HW130773   3.404   2.390   5.752 -2.9578  0.5689  1.9781
 6438SOL    HW230774   3.359   2.275   5.845  0.7078  2.2065  1.0969
 6439SOL     OW30775   0.803   0.643   8.217 -0.0937  0.1589  0.4939
 6439SOL    HW130776   0.804   0.697   8.138  4.4070  1.2852  1.2812
 6439SOL    HW230777   0.749   0.697   8.276 -0.4577 -0.2161  0.5012
 6440SOL     OW30778   3.204   1.609   6.418  0.1118  1.0590  0.2789
 6440SOL    HW130779   3.232   1.640   6.332 -0.2865  0.5782 -0.0262
 6440SOL    HW230780   3.121   1.657   6.424  0.7225  1.9144  1.7826
 6441SOL     OW30781   1.201   1.084   3.244  0.2115  0.7028  0.0802
 6441SOL    HW130782   1.145   1.013   3.273  0.3519 -0.1490 -1.7411
 6441SOL    HW230783   1.277   1.095   3.301 -0.5369  0.4842  1.1194
 6442SOL     OW30784   0.110   1.057   6.425 -0.4892 -0.3966 -0.2145
 6442SOL    HW130785   0.072   1.099   6.349 -2.0780 -0.2337  0.6721
 6442SOL    HW230786   0.026   1.028   6.461  0.1677 -1.9583  0.0893
 6443SOL     OW30787   2.277   2.570   2.822 -0.0467 -0.0745 -0.0750
 6443SOL    HW130788   2.255   2.478   2.806  0.4811 -0.1097 -0.6368
 6443SOL    HW230789   2.355   2.571   2.766 -0.5953  0.7575 -0.8271
 6444SOL     OW30790   3.792   2.382   3.569 -0.1015 -0.0371  0.3535
 6444SOL    HW130791   3.803   2.343   3.656 -3.4233 -0.9282  0.3850
 6444SOL    HW230792   3.810   2.475   3.583  0.6919  0.0893 -1.5469
 6445SOL     OW30793   0.345   4.449   2.775 -0.5017 -0.3238  0.0001
 6445SOL    HW130794   0.352   4.355   2.760  1.9104 -0.1969  0.3101
 6445SOL    HW230795   0.438   4.472   2.766 -0.9026  1.3839  0.2566
 6446SOL     OW30796   0.493   3.069   9.178 -0.4984 -0.2048 -0.7566
 6446SOL    HW130797   0.519   3.103   9.264 -2.4223 -0.9481  0.1132
 6446SOL    HW230798   0.399   3.068   9.195 -0.5448  0.7235 -0.9972
 6447SOL     OW30799   3.725   3.608  10.198  0.0097 -0.1887 -0.1889
 6447SOL    HW130800   3.810   3.652  10.202  1.0018 -2.2066  1.2432
 6447SOL    HW230801   3.666   3.674  10.162 -0.7589 -0.4038  0.6625
 6448SOL     OW30802   3.963   3.286   9.393  0.0557  0.1158  0.6983
 6448SOL    HW130803   4.028   3.245   9.336 -2.3349  1.5025 -3.0758
 6448SOL    HW230804   3.943   3.215   9.454 -1.1435  1.3208  1.6898
 6449SOL     OW30805   4.617   2.138   2.030  0.0581  0.1218 -0.2575
 6449SOL    HW130806   4.695   2.176   2.070 -0.0790 -0.7162  0.8198
 6449SOL    HW230807   4.656   2.062   1.986 -1.5693 -0.5323 -0.5653
 6450SOL     OW30808   0.418   0.764   3.925  0.6171 -0.2864 -0.4856
 6450SOL    HW130809   0.334   0.802   3.952  0.3013 -1.3254  0.0159
 6450SOL    HW230810   0.438   0.725   4.010  1.7079  0.0477 -0.5909
 6451SOL     OW30811   3.074   4.427   2.803 -0.9095  0.1993 -0.1846
 6451SOL    HW130812   3.040   4.378   2.878  0.1769 -0.6024 -0.2147
 6451SOL    HW230813   3.113   4.354   2.756 -1.7866 -1.9902  2.4836
 6452SOL     OW30814   4.485   1.410   1.727  0.0894  0.0592  0.2566
 6452SOL    HW130815   4.543   1.397   1.652 -0.0182  1.3622 -0.0685
 6452SOL    HW230816   4.507   1.340   1.788 -2.8980 -2.1081 -1.1576
 6453SOL     OW30817   4.427   0.572  13.263  0.0329  0.1897  0.0723
 6453SOL    HW130818   4.473   0.656  13.265  0.3976 -0.0129  0.1923
 6453SOL    HW230819   4.390   0.577  13.351  1.6946  1.9281  0.6670
 6454SOL     OW30820   1.764   3.057  13.682  0.1952  0.0564 -0.1512
 6454SOL    HW130821   1.817   3.000  13.627  0.0746 -0.0386 -0.1670
 6454SOL    HW230822   1.680   3.040  13.640 -0.4988 -0.8457  1.6042
 6455SOL     OW30823   3.026   3.908   9.139 -0.0209  0.1972  0.3456
 6455SOL    HW130824   3.091   3.901   9.070 -0.2808  1.2893  0.0019
 6455SOL    HW230825   3.082   3.889   9.214  0.1562 -0.4987  0.0355
 6456SOL     OW30826   3.687   2.092  17.333 -0.2896 -0.0648  0.0659
 6456SOL    HW130827   3.777   2.063  17.318  0.0295 -0.4245  2.6288
 6456SOL    HW230828   3.641   2.083  17.249  0.5212  0.4052 -0.4303
 6457SOL     OW30829   3.403   0.155   8.353  0.7191  0.1512 -0.5430
 6457SOL    HW130830   3.376   0.236   8.394  1.1454 -0.5045  1.0080
 6457SOL    HW230831   3.323   0.109   8.326 -0.4463  2.1672 -0.4827
 6458SOL     OW30832   0.229   2.094   1.552  0.4129  0.0807  0.2225
 6458SOL    HW130833   0.216   2.139   1.635 -1.0671  1.4230 -0.7410
 6458SOL    HW230834   0.275   2.023   1.597  0.3418 -0.8789 -1.1910
 6459SOL     OW30835   4.516   1.432   0.566  0.5570 -0.5888 -0.3861
 6459SOL    HW130836   4.543   1.523   0.550  1.9018 -0.5593  2.0582
 6459SOL    HW230837   4.582   1.380   0.519  1.2052 -1.2131  1.2126
 6460SOL     OW30838   0.029   2.341  14.193 -0.6835 -0.1469 -0.5259
 6460SOL    HW130839   4.700   2.321  14.117  0.1408  0.6507 -1.3054
 6460SOL    HW230840   0.064   2.254  14.212  2.2401  0.9397 -0.8332
 6461SOL     OW30841   1.494   3.270  13.483 -0.2579 -0.1511 -0.1909
 6461SOL    HW130842   1.580   3.298  13.515  0.5643  0.3543 -2.8206
 6461SOL    HW230843   1.464   3.344  13.431  0.8952 -0.2660 -1.0116
 6462SOL     OW30844   3.728   0.239  17.233 -0.0498  0.3811  0.8465
 6462SOL    HW130845   3.641   0.279  17.224  0.0689  0.5708  0.5123
 6462SOL    HW230846   3.714   0.155  17.190  0.6814  0.9591 -0.5465
 6463SOL     OW30847   2.669   0.358   1.797 -0.3889 -0.5202  0.1904
 6463SOL    HW130848   2.579   0.363   1.764 -0.3564 -2.1952 -0.1675
 6463SOL    HW230849   2.709   0.406   1.724 -0.0866 -0.1094  0.6314
 6464SOL     OW30850   2.959   2.760   6.672  0.2601 -0.1315  0.0683
 6464SOL    HW130851   2.875   2.805   6.677  0.7892  0.5901  2.8019
 6464SOL    HW230852   2.965   2.752   6.577  0.9518 -2.4191  0.2928
 6465SOL     OW30853   2.503   1.380   0.226  0.1353  0.3187 -0.1366
 6465SOL    HW130854   2.512   1.372   0.131 -1.2497 -2.3462 -0.0361
 6465SOL    HW230855   2.435   1.448   0.225 -0.4255 -0.2547 -1.8587
 6466SOL     OW30856   2.885   1.247  14.098  0.0858  0.4623  0.0412
 6466SOL    HW130857   2.972   1.224  14.130 -0.4273 -2.0748 -0.3594
 6466SOL    HW230858   2.896   1.238  14.003 -1.2805  0.5782 -0.1300
 6467SOL     OW30859   3.063   2.028   6.220 -0.1507  0.4990  0.5054
 6467SOL    HW130860   3.051   1.979   6.302 -2.2920 -0.0256 -0.1210
 6467SOL    HW230861   2.992   1.992   6.167  1.1379 -1.6774  0.2522
 6468SOL     OW30862   2.793   4.427  13.592  0.0641  0.0208 -0.2223
 6468SOL    HW130863   2.744   4.423  13.674 -1.1143  0.3789 -0.9089
 6468SOL    HW230864   2.803   4.335  13.568 -1.7144 -0.1181 -0.4760
 6469SOL     OW30865   1.636   3.832   9.512 -0.5106 -0.2716  0.7266
 6469SOL    HW130866   1.686   3.887   9.452  0.3188 -2.1556 -0.3066
 6469SOL    HW230867   1.548   3.845   9.478 -0.2642  1.1491  0.5969
 6470SOL     OW30868   0.830   2.988  11.900 -0.2216 -0.7309 -0.2999
 6470SOL    HW130869   0.848   2.929  11.827 -0.3845 -0.6222 -0.4296
 6470SOL    HW230870   0.738   2.964  11.911 -0.6163 -0.4271 -2.7587
 6471SOL     OW30871   0.024   4.115   3.592  0.1431  0.5036 -0.1380
 6471SOL    HW130872   4.662   4.082   3.616  0.6765  0.2248  1.4265
 6471SOL    HW230873   0.069   4.038   3.556  1.3224  1.7195 -1.2393
 6472SOL     OW30874   3.971   1.456   0.047 -0.3082  0.3862  0.2688
 6472SOL    HW130875   3.879   1.478   0.057 -0.6218 -1.0764  0.6694
 6472SOL    HW230876   3.970   1.376   0.101  3.2990 -0.7295 -1.2849
 6473SOL     OW30877   3.845   0.013  17.551  0.4229 -0.0325  0.3725
 6473SOL    HW130878   3.832   0.104  17.576  0.8750  0.9459 -2.9571
 6473SOL    HW230879   3.785   4.693  17.610 -0.9253 -2.6192 -2.9325
 6474SOL     OW30880   0.814   0.762   9.191  0.4218  0.0514 -0.0200
 6474SOL    HW130881   0.773   0.708   9.123  0.8070 -0.2524 -0.0132
 6474SOL    HW230882   0.877   0.812   9.140  1.5555 -1.4193 -0.0721
 6475SOL     OW30883   4.594   2.214   7.707 -0.5095  0.1794 -0.3594
 6475SOL    HW130884   4.569   2.262   7.786  0.7082 -1.4617  1.0482
 6475SOL    HW230885   4.513   2.171   7.678 -0.5670 -0.2049  0.3575
 6476SOL     OW30886   1.920   3.568   9.711 -0.6507 -0.0485  0.1707
 6476SOL    HW130887   1.903   3.546   9.802 -0.5649 -0.1181  0.1693
 6476SOL    HW230888   1.847   3.624   9.684  1.5151  2.7914  0.2465
 6477SOL     OW30889   0.120   1.433   3.984 -0.7132 -0.5413 -0.1233
 6477SOL    HW130890   0.123   1.460   3.892 -2.6812  1.3832  0.3667
 6477SOL    HW230891   0.056   1.362   3.976 -1.9007  0.4606  0.4275
 6478SOL     OW30892   0.392   4.553   9.211  0.3861 -0.1666  0.4007
 6478SOL    HW130893   0.388   4.621   9.278  2.0181 -0.5728  0.9090
 6478SOL    HW230894   0.334   4.577   9.139 -1.8291  0.0315  2.2387
 6479SOL     OW30895   1.708   3.553   3.436 -0.1428 -0.0601  0.3079
 6479SOL    HW130896   1.743   3.574   3.350 -1.0763  0.6976  0.1084
 6479SOL    HW230897   1.692   3.642   3.465  1.4631 -0.3566  2.0713
 6480SOL     OW30898   1.870   1.566  11.094  0.0172  0.0269 -0.5100
 6480SOL    HW130899   1.889   1.660  11.096 -4.8133  0.9431  1.9360
 6480SOL    HW230900   1.960   1.534  11.082  0.4206  0.7888  0.5002
 6481SOL     OW30901   1.459   4.145   7.839 -0.0231  0.3138  0.8375
 6481SOL    HW130902   1.528   4.203   7.870  1.6465  1.1266 -4.3518
 6481SOL    HW230903   1.381   4.182   7.880  0.3365  1.9564  0.0466
 6482SOL     OW30904   1.260   0.972   8.013 -0.4689 -0.5146 -0.4302
 6482SOL    HW130905   1.184   0.921   7.986  0.1673 -0.4842 -2.2324
 6482SOL    HW230906   1.293   0.934   8.095  1.7401 -0.3435 -1.2425
 6483SOL     OW30907   0.887   0.632   1.210  0.2522  0.1500  0.6366
 6483SOL    HW130908   0.975   0.593   1.209 -0.1722 -0.7721 -2.1199
 6483SOL    HW230909   0.834   0.553   1.197  0.0140  0.7108 -1.8071
 6484SOL     OW30910   3.975   2.837   8.033 -0.8102 -0.3832 -0.5066
 6484SOL    HW130911   3.958   2.744   8.018 -0.3401 -0.7237  1.0547
 6484SOL    HW230912   3.927   2.846   8.116 -0.4567  0.5213 -0.3939
 6485SOL     OW30913   0.193   1.245   9.191  0.6055  0.2222 -0.3642
 6485SOL    HW130914   0.250   1.254   9.267 -0.8693  0.8148  0.6647
 6485SOL    HW230915   0.110   1.231   9.236  0.6312  1.9344  0.1995
 6486SOL     OW30916   3.089   0.443  15.418 -0.0511 -0.0920 -0.4036
 6486SOL    HW130917   3.037   0.504  15.367 -1.9262  0.9517  2.7985
 6486SOL    HW230918   3.021   0.379  15.441  1.3486  0.2482  4.6029
 6487SOL     OW30919   2.026   3.045   8.807  0.1416 -0.2735 -1.1154
 6487SOL    HW130920   2.030   2.973   8.871 -2.9874 -0.0594 -0.6529
 6487SOL    HW230921   1.982   3.003   8.733  0.5050  1.9723 -2.6167
 6488SOL     OW30922   3.729   2.994   9.759 -0.1602 -0.1484  0.4515
 6488SOL    HW130923   3.767   3.078   9.784 -0.0881  0.2201 -0.9135
 6488SOL    HW230924   3.748   2.999   9.665 -1.9837 -0.4610  0.0815
 6489SOL     OW30925   1.753   3.361   5.352  0.2403 -0.7005  0.3164
 6489SOL    HW130926   1.661   3.333   5.355  1.3495 -4.7192 -2.7177
 6489SOL    HW230927   1.778   3.364   5.444  1.4367 -1.8680  0.0336
 6490SOL     OW30928   3.535   2.429   0.582 -0.0740  0.3469 -0.5285
 6490SOL    HW130929   3.628   2.445   0.595 -0.1625 -0.5142  1.1256
 6490SOL    HW230930   3.526   2.341   0.619  0.3495  0.9100  0.8998
 6491SOL     OW30931   3.605   2.366   5.526 -0.2124 -0.0180  0.0525
 6491SOL    HW130932   3.551   2.419   5.467 -0.9160 -0.2399  0.4942
 6491SOL    HW230933   3.576   2.388   5.615  0.7652 -0.0233  0.3699
 6492SOL     OW30934   2.257   2.293   4.135 -0.0343 -0.7781 -0.2670
 6492SOL    HW130935   2.219   2.242   4.206 -2.4734 -1.0402 -1.7376
 6492SOL    HW230936   2.304   2.226   4.086 -1.6554 -1.7085 -0.5480
 6493SOL     OW30937   3.594   2.704   5.649  0.3162 -0.3146 -0.3524
 6493SOL    HW130938   3.654   2.647   5.602  0.5031 -1.1195  0.8559
 6493SOL    HW230939   3.613   2.795   5.623 -0.3940  0.9163  3.3854
 6494SOL     OW30940   0.371   3.786   0.656  0.8114 -0.5445 -0.5806
 6494SOL    HW130941   0.279   3.802   0.679  0.5839 -1.6496 -0.7470
 6494SOL    HW230942   0.416   3.852   0.709 -1.2003 -0.0621  0.5442
 6495SOL     OW30943   0.514   3.860  11.061 -0.1491 -0.4830  0.3664
 6495SOL    HW130944   0.507   3.934  11.000 -1.0762 -0.4541  0.5050
 6495SOL    HW230945   0.517   3.796  10.990  2.5454  1.1866 -1.0250
 6496SOL     OW30946   3.665   2.054   6.518  0.1346 -0.4210  0.4889
 6496SOL    HW130947   3.616   2.054   6.436 -0.0410 -2.8053  0.6085
 6496SOL    HW230948   3.671   2.146   6.544 -0.9072 -0.0140 -0.7190
 6497SOL     OW30949   1.751   0.098  10.143 -0.3147 -0.1698 -0.2199
 6497SOL    HW130950   1.696   0.026  10.112 -1.0610  0.0282  0.6514
 6497SOL    HW230951   1.702   0.137  10.215  1.0402 -0.1217  0.6817
 6498SOL     OW30952   1.418   2.550   6.794  0.1153  0.0217  0.3498
 6498SOL    HW130953   1.334   2.584   6.763 -0.2123 -1.7206 -0.7143
 6498SOL    HW230954   1.438   2.625   6.850 -2.7938  0.1081  1.2569
 6499SOL     OW30955   1.694   1.051   3.381 -0.4012 -0.6529 -0.3320
 6499SOL    HW130956   1.609   1.009   3.369  0.0673 -1.4400 -0.8758
 6499SOL    HW230957   1.693   1.059   3.476 -0.5153 -0.8747 -0.3145
 6500SOL     OW30958   2.277   2.068   2.604 -0.3519 -0.1398 -0.2736
 6500SOL    HW130959   2.359   2.065   2.555 -0.8641 -1.7930 -1.0328
 6500SOL    HW230960   2.305   2.040   2.692 -0.0818 -1.1741 -0.6806
 6501SOL     OW30961   2.956   1.380   3.516 -0.3799 -0.9028 -0.2054
 6501SOL    HW130962   3.051   1.387   3.511 -0.3901 -0.6125  0.0037
 6501SOL    HW230963   2.931   1.290   3.536 -0.3124 -0.8519  0.1063
 6502SOL     OW30964   3.721   4.464   6.145 -0.0506  0.0022 -0.7642
 6502SOL    HW130965   3.710   4.501   6.058 -0.9872  1.2514 -0.1104
 6502SOL    HW230966   3.634   4.432   6.169  0.2779  0.5641  1.1790
 6503SOL     OW30967   2.765   2.510   5.775  0.0518  0.0850  0.0844
 6503SOL    HW130968   2.817   2.560   5.838  2.4922 -0.9393 -1.1132
 6503SOL    HW230969   2.715   2.449   5.829  2.3494 -1.1217  0.8024
 6504SOL     OW30970   4.346   4.389   4.328  0.5583 -0.0039 -0.0020
 6504SOL    HW130971   4.370   4.378   4.420  2.0822  0.8563 -0.2976
 6504SOL    HW230972   4.312   4.305   4.297  0.1080 -0.7866  2.5961
 6505SOL     OW30973   3.299   0.169   7.368  0.2265  0.4009 -0.1929
 6505SOL    HW130974   3.300   0.255   7.325  0.9642  0.0037 -0.9767
 6505SOL    HW230975   3.388   0.139   7.350 -0.6496 -2.0023 -0.4452
 6506SOL     OW30976   2.937   4.358  17.399  0.2540  0.4439 -0.2593
 6506SOL    HW130977   2.923   4.348  17.493  0.4868  1.3416 -0.1242
 6506SOL    HW230978   3.020   4.313  17.385 -1.1160 -1.8652 -0.9022
 6507SOL     OW30979   1.023   3.976   9.753 -0.1326  0.5199 -0.1194
 6507SOL    HW130980   1.101   3.922   9.738  0.3989  1.2229  0.1180
 6507SOL    HW230981   1.058   4.029   9.824  0.0800 -0.6105  0.6144
 6508SOL     OW30982   1.790   2.235   9.481 -0.3083 -0.6661 -0.1398
 6508SOL    HW130983   1.768   2.149   9.518  0.1714 -1.0190 -0.6683
 6508SOL    HW230984   1.885   2.233   9.470 -0.1713  1.0266  0.8216
 6509SOL     OW30985   4.722   4.366   2.764 -0.0144  0.0295  0.2975
 6509SOL    HW130986   0.014   4.383   2.672  4.1408 -0.7861  0.9037
 6509SOL    HW230987   0.023   4.274   2.759  2.0275  0.6689 -1.0594
 6510SOL     OW30988   2.984   0.648  11.591  0.3802 -0.3708  0.6141
 6510SOL    HW130989   2.930   0.708  11.540 -1.9989 -2.2593  0.9484
 6510SOL    HW230990   3.040   0.707  11.642  0.5944  2.6954 -3.1478
 6511SOL     OW30991   2.971   4.618   9.191 -0.6815 -0.1425 -0.3068
 6511SOL    HW130992   2.925   4.695   9.223  0.4358  0.0059  0.9314
 6511SOL    HW230993   3.006   4.591   9.275 -2.6434 -0.5787  0.3817
 6512SOL     OW30994   4.350   0.838  12.586  0.1439 -0.1083  0.1284
 6512SOL    HW130995   4.424   0.893  12.560 -1.1879  1.0926 -1.1148
 6512SOL    HW230996   4.293   0.831  12.509  1.6735 -0.4141 -0.9781
 6513SOL     OW30997   0.573   1.719   1.381  0.4095 -0.5561  0.0675
 6513SOL    HW130998   0.666   1.710   1.401  0.4031 -0.4782  0.1316
 6513SOL    HW230999   0.577   1.809   1.349 -0.2232 -0.6302 -0.2028
 6514SOL     OW31000   0.274   4.357   7.151 -0.6918 -0.1698 -0.6815
 6514SOL    HW131001   0.349   4.415   7.167 -0.5357 -0.6286  0.2690
 6514SOL    HW231002   0.312   4.301   7.083 -1.9308 -2.1053  0.2346
 6515SOL     OW31003   1.756   2.013   5.532  0.1547  0.2965  0.6210
 6515SOL    HW131004   1.753   2.093   5.480  1.8122 -0.5074 -0.7169
 6515SOL    HW231005   1.847   1.985   5.536 -0.7658 -2.6368  1.4550
 6516SOL     OW31006   1.386   4.579   9.189  0.0873 -0.5388 -0.6237
 6516SOL    HW131007   1.413   4.548   9.103  0.1862  1.1801 -1.2147
 6516SOL    HW231008   1.424   4.666   9.191  2.1033 -1.4195 -1.4504
 6517SOL     OW31009   1.410   1.676   4.077  0.3772  0.0330  0.1592
 6517SOL    HW131010   1.322   1.668   4.114 -1.2622  1.7973 -3.3614
 6517SOL    HW231011   1.397   1.759   4.031  1.6004 -0.9940 -2.0939
 6518SOL     OW31012   3.517   0.167   5.972  0.7087 -0.2087  0.2667
 6518SOL    HW131013   3.579   0.229   5.934  0.4310  1.1101  1.9802
 6518SOL    HW231014   3.446   0.174   5.907  0.6071  0.6880  0.4721
 6519SOL     OW31015   1.308   1.415   8.685  0.3494  0.5055 -0.2080
 6519SOL    HW131016   1.214   1.410   8.667  0.6852 -3.1165 -0.9526
 6519SOL    HW231017   1.323   1.488   8.625  0.3423 -0.4525 -1.3900
 6520SOL     OW31018   0.169   0.374   2.634  0.0010 -0.6701  0.4119
 6520SOL    HW131019   0.089   0.329   2.659 -0.2989 -0.3858 -0.0260
 6520SOL    HW231020   0.245   0.336   2.678  0.3800 -0.8457 -0.3893
 6521SOL     OW31021   0.534   3.420   2.867 -0.4119 -0.5434 -0.1055
 6521SOL    HW131022   0.481   3.435   2.945  0.0030  0.6390 -0.0452
 6521SOL    HW231023   0.523   3.505   2.824  0.4511 -0.4122 -0.0801
 6522SOL     OW31024   3.955   0.529  10.175 -0.4340  0.5128 -0.4006
 6522SOL    HW131025   3.869   0.517  10.215 -0.3097 -0.7066 -0.5116
 6522SOL    HW231026   4.014   0.572  10.236  1.1057 -2.8809  0.5116
 6523SOL     OW31027   1.201   2.601   7.832  0.4075  0.3069  0.0252
 6523SOL    HW131028   1.188   2.509   7.855  0.0371  0.5202  0.6551
 6523SOL    HW231029   1.295   2.604   7.813  0.4249 -1.7589 -0.2384
 6524SOL     OW31030   3.427   0.482   3.603 -0.1345  0.1058 -0.0651
 6524SOL    HW131031   3.522   0.484   3.596 -0.0714 -3.4680 -0.0755
 6524SOL    HW231032   3.410   0.473   3.697  0.2485 -0.5000 -0.0603
 6525SOL     OW31033   3.551   4.585  15.016  0.4916  0.5440  0.2142
 6525SOL    HW131034   3.644   4.571  15.035  1.6833  3.5360 -3.6580
 6525SOL    HW231035   3.545   4.659  14.956  2.2548 -0.3250 -1.0431
 6526SOL     OW31036   2.310   0.533   3.694 -0.0886 -0.4240 -0.5554
 6526SOL    HW131037   2.234   0.524   3.637 -1.8057  0.2844  1.6146
 6526SOL    HW231038   2.361   0.460   3.661  1.0766 -0.0566  0.4266
 6527SOL     OW31039   4.561   3.793  11.155  0.4767  0.1516  0.2017
 6527SOL    HW131040   4.514   3.756  11.230 -1.3177  2.0140 -0.0043
 6527SOL    HW231041   4.546   3.716  11.099 -0.2902  0.2449  0.2758
 6528SOL     OW31042   3.502   1.082  14.034 -0.1942  0.1729  0.2436
 6528SOL    HW131043   3.547   1.134  13.967  3.3791  0.6667  3.0470
 6528SOL    HW231044   3.582   1.041  14.067 -1.6094 -1.8023  1.1962
 6529SOL     OW31045   1.140   3.835   5.967 -0.4451 -0.0895  0.4523
 6529SOL    HW131046   1.044   3.830   5.974 -0.4528 -1.6711 -0.7833
 6529SOL    HW231047   1.168   3.793   6.048 -0.5893 -0.5908  0.2448
 6530SOL     OW31048   2.167   2.300   8.003 -0.3316 -0.7783  0.1015
 6530SOL    HW131049   2.098   2.241   8.033 -1.5527 -1.0123 -3.2203
 6530SOL    HW231050   2.154   2.285   7.909  1.5106 -1.9947  0.0355
 6531SOL     OW31051   4.563   1.601   8.731  0.0961  0.1271 -0.6075
 6531SOL    HW131052   4.488   1.634   8.779 -0.3782 -1.7195 -0.0721
 6531SOL    HW231053   4.529   1.515   8.707 -0.3247 -0.1262  0.8790
 6532SOL     OW31054   3.265   0.159  17.487 -0.8129  0.0479 -0.0909
 6532SOL    HW131055   3.320   0.206  17.425 -1.2318 -0.3377 -0.7467
 6532SOL    HW231056   3.283   0.071  17.456  0.2657  0.7522 -1.4261
 6533SOL     OW31057   0.036   4.198   1.524  0.0374 -0.0713  0.2145
 6533SOL    HW131058   4.678   4.181   1.568 -0.8559  2.9107 -0.3479
 6533SOL    HW231059   0.071   4.111   1.506 -0.9768 -0.1480 -1.3424
 6534SOL     OW31060   3.279   3.726   8.699 -0.1756 -0.5655 -0.4380
 6534SOL    HW131061   3.369   3.756   8.692  0.5003 -3.2632 -3.4185
 6534SOL    HW231062   3.219   3.799   8.681 -0.9449 -0.9427  0.5992
 6535SOL     OW31063   3.580   0.908   4.326  0.0860  0.2800  0.3129
 6535SOL    HW131064   3.631   0.896   4.246 -2.1339  0.1682 -1.0860
 6535SOL    HW231065   3.655   0.937   4.378  1.0938  1.1752 -1.6182
 6536SOL     OW31066   3.861   0.560   1.700  0.0750  0.2889 -0.1038
 6536SOL    HW131067   3.884   0.468   1.692  2.4417  0.6664  2.3948
 6536SOL    HW231068   3.779   0.547   1.748  0.4542 -0.5737  0.3075
 6537SOL     OW31069   3.034   2.696   1.621 -0.0035 -0.2082 -0.3205
 6537SOL    HW131070   2.943   2.665   1.630  0.1309 -0.4151  0.3128
 6537SOL    HW231071   3.080   2.614   1.606 -0.7693 -0.6938 -0.0106
 6538SOL     OW31072   3.673   1.185   1.417 -0.0803  0.2146  0.5448
 6538SOL    HW131073   3.696   1.223   1.332  0.5743 -2.5258 -0.4774
 6538SOL    HW231074   3.713   1.253   1.472 -0.4254 -0.7069  1.9451
 6539SOL     OW31075   2.597   1.399   2.375 -0.1836  0.5177 -0.0579
 6539SOL    HW131076   2.663   1.335   2.401  0.4568  1.5928  0.9317
 6539SOL    HW231077   2.548   1.426   2.453 -1.7883 -2.2112 -0.1203
 6540SOL     OW31078   2.097   4.454  10.127 -0.7872  0.0888 -0.0231
 6540SOL    HW131079   2.134   4.382  10.178  2.3242  2.2767  0.7704
 6540SOL    HW231080   2.146   4.529  10.159  1.5783 -1.4745  0.0448
 6541SOL     OW31081   0.532   4.602   8.955 -0.4182 -0.3776 -0.0260
 6541SOL    HW131082   0.574   4.518   8.942  0.9089  0.2576  0.1569
 6541SOL    HW231083   0.511   4.608   9.048 -1.8605 -0.0902 -0.3631
 6542SOL     OW31084   2.965   0.580  10.443 -0.5181 -0.0282 -0.6097
 6542SOL    HW131085   2.986   0.559  10.353 -1.1807 -0.0853 -0.7515
 6542SOL    HW231086   2.881   0.624  10.428 -1.2918 -1.4330 -0.3424
 6543SOL     OW31087   2.749   0.925   6.131 -0.0210 -0.2164 -0.1564
 6543SOL    HW131088   2.758   0.904   6.224  0.5152  1.6468  0.2052
 6543SOL    HW231089   2.657   0.948   6.118 -0.3408 -0.2622  2.0162
 6544SOL     OW31090   3.649   3.338   6.426 -0.2373 -0.2950  0.2037
 6544SOL    HW131091   3.623   3.375   6.342 -0.4944  1.0118  0.8586
 6544SOL    HW231092   3.670   3.416   6.479 -2.1261 -1.6058  2.8899
 6545SOL     OW31093   0.231   3.134  10.326 -0.1617  0.2191  0.4118
 6545SOL    HW131094   0.302   3.155  10.265 -0.1226 -0.5675  0.1852
 6545SOL    HW231095   0.154   3.163  10.277  0.5798 -1.3141 -1.7042
 6546SOL     OW31096   4.185   2.198   8.581 -0.1599  0.3976  0.0871
 6546SOL    HW131097   4.215   2.253   8.654  0.2483 -0.0323  0.2494
 6546SOL    HW231098   4.092   2.217   8.578 -0.6437 -1.8680  0.5547
 6547SOL     OW31099   4.469   2.339  16.672  0.2948 -0.4133 -0.4907
 6547SOL    HW131100   4.429   2.263  16.714 -0.2994 -0.0602 -0.4044
 6547SOL    HW231101   4.403   2.361  16.606  0.7632  3.2345  0.2458
 6548SOL     OW31102   2.789   0.792  15.864 -0.0403  0.1457  0.2330
 6548SOL    HW131103   2.834   0.876  15.854 -0.0451 -0.0467 -1.5148
 6548SOL    HW231104   2.780   0.789  15.959 -0.2813 -2.4141  0.1280
 6549SOL     OW31105   2.877   3.793   2.635 -0.7804  0.7939  0.2764
 6549SOL    HW131106   2.817   3.860   2.602 -2.1634 -0.3849  0.4002
 6549SOL    HW231107   2.916   3.775   2.550 -0.1561 -0.5293  0.8396
 6550SOL     OW31108   0.470   0.111  16.000  0.4857 -0.1571 -0.0984
 6550SOL    HW131109   0.451   0.205  15.997 -0.6937 -0.4142 -0.7292
 6550SOL    HW231110   0.386   0.070  15.978 -0.0374  0.5991  0.4692
 6551SOL     OW31111   1.986   1.419   5.301  0.1115 -0.4762  0.7446
 6551SOL    HW131112   1.893   1.398   5.309 -0.1980  0.0332 -1.5401
 6551SOL    HW231113   2.024   1.338   5.335  0.6088 -0.1224  1.0261
 6552SOL     OW31114   1.018   0.473   8.768  0.1648 -0.2847 -0.2170
 6552SOL    HW131115   0.968   0.554   8.780 -0.6782 -0.8697  0.2497
 6552SOL    HW231116   1.017   0.475   8.672  0.2891 -0.7610 -0.2308
 6553SOL     OW31117   0.146   1.663   3.721 -0.4084  0.0366 -0.1102
 6553SOL    HW131118   0.081   1.713   3.672 -1.0342 -1.1461 -0.4829
 6553SOL    HW231119   0.125   1.575   3.689  2.9994 -1.5140  1.8885
 6554SOL     OW31120   3.517   0.018   3.333 -0.9276  0.1710 -0.4350
 6554SOL    HW131121   3.480   0.103   3.312  1.3364  1.9668  2.7558
 6554SOL    HW231122   3.596   0.049   3.377  1.0180 -2.7996 -1.8001
 6555SOL     OW31123   2.903   4.613   5.613 -0.1069  0.1250 -0.0528
 6555SOL    HW131124   2.835   4.658   5.663 -0.8740  0.4454 -1.3719
 6555SOL    HW231125   2.920   4.534   5.663  2.7919  0.7395 -0.0879
 6556SOL     OW31126   3.646   0.822  10.412 -0.1933  0.2356  0.4699
 6556SOL    HW131127   3.612   0.906  10.381 -0.3318 -0.3654 -1.0076
 6556SOL    HW231128   3.644   0.834  10.507  1.6793 -1.3113  0.6975
 6557SOL     OW31129   3.815   2.543   2.349 -0.2726  0.1091  0.1300
 6557SOL    HW131130   3.744   2.481   2.365 -1.1205  1.0102 -0.2288
 6557SOL    HW231131   3.775   2.616   2.397  0.6076 -0.5987  1.9651
 6558SOL     OW31132   4.437   1.828   7.538  0.2089  0.1903  0.4655
 6558SOL    HW131133   4.408   1.754   7.591  1.2780  0.2409  1.1145
 6558SOL    HW231134   4.503   1.862   7.598 -1.2461  2.7568  0.5919
 6559SOL     OW31135   2.643   3.224   7.035  0.3355  0.6365  0.0090
 6559SOL    HW131136   2.677   3.198   6.949 -1.9565 -1.5351 -0.2638
 6559SOL    HW231137   2.572   3.282   7.007  0.4116  1.6287  1.9488
 6560SOL     OW31138   1.986   4.386   2.793  0.0605 -0.2588  0.0319
 6560SOL    HW131139   1.996   4.350   2.881  0.3776 -1.6097 -0.5716
 6560SOL    HW231140   1.936   4.466   2.809  3.2452  1.4334  1.4512
 6561SOL     OW31141   3.327   4.407   8.711  0.4844  0.1246 -0.3786
 6561SOL    HW131142   3.338   4.456   8.629 -0.5780 -0.4419 -0.8645
 6561SOL    HW231143   3.390   4.453   8.767  2.4044 -1.9228 -0.8558
 6562SOL     OW31144   3.262   1.369  16.620 -1.0566 -0.1368 -0.3420
 6562SOL    HW131145   3.295   1.306  16.556  2.7062  0.7476  0.6768
 6562SOL    HW231146   3.172   1.384  16.592 -1.6874  0.7642  2.1738
 6563SOL     OW31147   3.674   0.765   8.511 -0.0711 -0.3441 -0.4400
 6563SOL    HW131148   3.663   0.816   8.591 -0.4823 -3.6949  1.5925
 6563SOL    HW231149   3.759   0.730   8.533  0.6056 -0.0745 -2.5922
 6564SOL     OW31150   3.290   1.350  10.700 -0.0785  0.2293 -0.2455
 6564SOL    HW131151   3.358   1.404  10.741  0.1168  1.0416 -1.6263
 6564SOL    HW231152   3.259   1.289  10.767  0.4021 -0.0959 -0.3168
 6565SOL     OW31153   0.314   1.196   6.579 -0.2209  0.0125  0.2726
 6565SOL    HW131154   0.290   1.288   6.570  1.2871  0.3887  0.0173
 6565SOL    HW231155   0.284   1.190   6.489  0.9116  0.9736 -0.1589
 6566SOL     OW31156   0.366   4.581   7.500  0.5248  0.8821 -0.0986
 6566SOL    HW131157   0.416   4.537   7.431 -0.2748  1.7939 -1.2593
 6566SOL    HW231158   0.442   4.619   7.545  0.2973  1.3244 -0.0904
 6567SOL     OW31159   2.849   2.940   4.153 -0.0710 -0.3519  1.0103
 6567SOL    HW131160   2.918   3.004   4.133  0.5287 -0.9292  1.2077
 6567SOL    HW231161   2.777   2.988   4.193 -0.4415  0.8076 -1.0625
 6568SOL     OW31162   0.681   3.476   3.139 -0.1730 -0.7705  0.3348
 6568SOL    HW131163   0.651   3.500   3.227  0.3894  0.5752  0.1569
 6568SOL    HW231164   0.601   3.438   3.103 -0.7429 -0.5976  1.4053
 6569SOL     OW31165   3.358   3.489   7.419 -0.2070 -0.7764 -0.1162
 6569SOL    HW131166   3.395   3.527   7.340 -0.0850 -0.5497  0.0488
 6569SOL    HW231167   3.361   3.397   7.393 -1.3960 -0.9466  0.3343
 6570SOL     OW31168   1.778   4.564  12.104  0.0335  0.1830  0.4095
 6570SOL    HW131169   1.734   4.484  12.078 -0.5312  0.3890  0.7318
 6570SOL    HW231170   1.710   4.622  12.070  0.8472  0.0582 -1.4527
 6571SOL     OW31171   3.027   4.035   7.701 -0.1469 -0.4016 -0.1958
 6571SOL    HW131172   2.951   4.017   7.647 -0.4554  0.9699 -0.2186
 6571SOL    HW231173   3.011   4.128   7.718  0.0410 -0.3312 -0.4036
 6572SOL     OW31174   4.073   3.752  13.464 -0.0324  0.4422 -0.3842
 6572SOL    HW131175   4.130   3.675  13.473 -1.1277 -0.2042  0.8209
 6572SOL    HW231176   4.078   3.790  13.551  3.9940  1.1182 -0.8795
 6573SOL     OW31177   2.414   3.396  10.937 -0.2230 -0.4167  0.1231
 6573SOL    HW131178   2.419   3.312  10.981  0.0116 -0.5573 -0.1749
 6573SOL    HW231179   2.401   3.455  11.012  0.1362  1.3312 -1.1849
 6574SOL     OW31180   4.698   3.587   2.064 -0.1787 -0.1693  0.6739
 6574SOL    HW131181   4.699   3.660   2.002 -2.4481 -1.5592 -0.9977
 6574SOL    HW231182   0.029   3.536   2.005 -1.1800 -0.7789  0.2633
 6575SOL     OW31183   1.390   0.862   4.974 -0.4344 -0.2895 -0.3457
 6575SOL    HW131184   1.338   0.933   5.012  0.4612  1.1706 -1.8246
 6575SOL    HW231185   1.405   0.912   4.893  0.5097 -1.3008 -0.7958
 6576SOL     OW31186   2.115   3.299   8.819  0.7848 -0.3364 -0.1556
 6576SOL    HW131187   2.144   3.314   8.909 -1.4444 -2.1744  0.8607
 6576SOL    HW231188   2.094   3.206   8.816  0.5006 -0.2333 -1.5665
 6577SOL     OW31189   4.190   1.589   4.076 -0.0102  0.3408 -0.5672
 6577SOL    HW131190   4.096   1.572   4.068 -0.4234  1.8749  1.0050
 6577SOL    HW231191   4.222   1.579   3.986  1.5842  1.0694 -0.0812
 6578SOL     OW31192   2.418   3.757   1.050  0.4675 -0.1320 -0.3627
 6578SOL    HW131193   2.417   3.701   1.129  0.7218 -1.0541 -1.0166
 6578SOL    HW231194   2.324   3.774   1.039  0.3297  0.3096  1.4081
 6579SOL     OW31195   4.252   0.072   8.454 -0.7810 -0.1508 -0.3671
 6579SOL    HW131196   4.322   0.088   8.391 -0.8172  1.0057 -0.1069
 6579SOL    HW231197   4.303   0.058   8.534 -0.6683  0.9953 -0.2325
 6580SOL     OW31198   2.652   1.100   3.621 -0.3151 -0.1461 -0.1688
 6580SOL    HW131199   2.581   1.081   3.682 -1.3538 -0.0744 -1.3580
 6580SOL    HW231200   2.661   1.017   3.573  4.2519  0.9492 -1.2347
 6581SOL     OW31201   1.909   1.847   4.460 -0.2342  0.4371  0.1928
 6581SOL    HW131202   1.947   1.851   4.372 -0.4532  0.7816  0.1136
 6581SOL    HW231203   1.978   1.808   4.514  0.5816  2.7131  0.8028
 6582SOL     OW31204   0.228   3.069   1.481  0.3357 -0.3391  0.0306
 6582SOL    HW131205   0.262   3.147   1.438  1.1942 -2.3435 -2.9456
 6582SOL    HW231206   0.294   3.007   1.448 -0.8683 -0.2547 -2.5392
 6583SOL     OW31207   2.010   0.775   2.230  0.1141 -0.2338 -0.3706
 6583SOL    HW131208   1.982   0.820   2.310  0.3096 -1.1973  0.2373
 6583SOL    HW231209   1.929   0.732   2.203  0.0049 -0.7734  0.8129
 6584SOL     OW31210   3.480   3.556  12.664  0.1076 -0.2222  0.0644
 6584SOL    HW131211   3.556   3.550  12.722  1.1342  0.8665 -1.1527
 6584SOL    HW231212   3.445   3.644  12.678 -1.5881 -1.1578  1.6345
 6585SOL     OW31213   2.091   2.593   7.855 -0.8336  0.1766 -0.1192
 6585SOL    HW131214   2.042   2.640   7.787  0.6166  0.7834 -0.7531
 6585SOL    HW231215   2.059   2.505   7.837 -2.3134  0.7127 -0.1328
 6586SOL     OW31216   2.032   2.719   9.357  0.1555  0.0425  0.5572
 6586SOL    HW131217   2.061   2.810   9.366  2.1513 -0.3902 -1.5783
 6586SOL    HW231218   2.112   2.674   9.381  1.0071 -0.4438 -3.1119
 6587SOL     OW31219   0.439   0.826   5.848 -0.1291 -0.4428  0.1545
 6587SOL    HW131220   0.510   0.769   5.817 -0.1289 -0.7224  0.6750
 6587SOL    HW231221   0.374   0.807   5.781  0.2516  0.6594 -0.5345
 6588SOL     OW31222   0.743   1.013   9.313  0.2035  0.4122 -0.3019
 6588SOL    HW131223   0.737   0.936   9.257 -0.1029  0.5267 -0.4250
 6588SOL    HW231224   0.657   1.033   9.350 -0.1660  0.1103 -1.0105
 6589SOL     OW31225   4.672   3.582  11.362  0.8506  0.0280  0.1791
 6589SOL    HW131226   4.584   3.609  11.387  0.9149  0.1495  0.2757
 6589SOL    HW231227   4.658   3.536  11.279 -0.0952 -0.4181  0.5866
 6590SOL     OW31228   2.902   4.363   8.488 -0.2830 -0.2745 -0.5476
 6590SOL    HW131229   2.900   4.268   8.500  1.5707 -0.4680 -1.8778
 6590SOL    HW231230   2.871   4.391   8.575  2.0360 -2.9177  1.1419
 6591SOL     OW31231   1.346   0.083   8.376  0.3384  1.0410  0.1564
 6591SOL    HW131232   1.285   0.081   8.450 -3.1974 -0.0162 -2.7864
 6591SOL    HW231233   1.401   0.157   8.402  2.1186 -0.2034 -0.0012
 6592SOL     OW31234   2.856   2.880   5.370  0.6937 -0.2984 -0.0447
 6592SOL    HW131235   2.813   2.809   5.417  1.6600  0.1435  1.5165
 6592SOL    HW231236   2.778   2.918   5.329  0.9450  0.7263  0.4373
 6593SOL     OW31237   0.155   4.215   5.730 -0.1302  0.2124  0.2406
 6593SOL    HW131238   0.129   4.198   5.821 -0.8693 -0.0726 -0.0270
 6593SOL    HW231239   0.249   4.227   5.745 -0.3213  1.3436  0.5404
 6594SOL     OW31240   2.783   4.708   8.760 -0.3188 -0.2389 -0.2773
 6594SOL    HW131241   2.835   0.024   8.829  2.2754 -1.7565 -1.3256
 6594SOL    HW231242   2.805   0.038   8.685  1.6220 -1.3505 -0.5232
 6595SOL     OW31243   2.304   2.323  17.237 -0.3248 -0.7822 -0.4332
 6595SOL    HW131244   2.373   2.297  17.299 -2.6294  0.8998  2.8498
 6595SOL    HW231245   2.337   2.408  17.209 -0.9160 -0.2514  0.4920
 6596SOL     OW31246   2.694   3.388  15.463  0.5440 -0.4497  0.2248
 6596SOL    HW131247   2.774   3.418  15.420  0.3064 -0.2228 -0.0564
 6596SOL    HW231248   2.630   3.432  15.408  1.1440 -0.1253 -0.2121
 6597SOL     OW31249   2.561   3.322  14.638  0.4901  0.3403 -0.1275
 6597SOL    HW131250   2.515   3.400  14.607 -2.1250 -2.0748 -2.2728
 6597SOL    HW231251   2.533   3.312  14.729 -1.2780 -0.6331 -0.7794
 6598SOL     OW31252   0.642   4.254   8.185 -0.1060 -0.1683  0.5730
 6598SOL    HW131253   0.612   4.271   8.095 -1.9932 -2.4006  0.8052
 6598SOL    HW231254   0.664   4.161   8.193 -0.3261 -0.3566 -0.8761
 6599SOL     OW31255   3.523   2.357   6.344 -0.6387 -0.5033  0.4383
 6599SOL    HW131256   3.589   2.418   6.311  0.7878 -0.7779  2.7652
 6599SOL    HW231257   3.526   2.287   6.278  0.6487 -0.4105  0.4048
 6600SOL     OW31258   2.015   1.472   5.747  0.0265 -0.8049 -0.3993
 6600SOL    HW131259   1.967   1.542   5.790 -2.1773 -2.5434 -0.0465
 6600SOL    HW231260   1.985   1.394   5.793 -0.1038  0.7815  2.1907
 6601SOL     OW31261   4.711   3.603   6.035 -0.1556 -0.3359  0.2223
 6601SOL    HW131262   0.078   3.623   6.053 -0.0652  1.9479 -2.8348
 6601SOL    HW231263   4.706   3.611   5.940 -0.5820  1.1420  0.3788
 6602SOL     OW31264   1.560   2.231   0.811  0.3088 -0.1258  0.0807
 6602SOL    HW131265   1.506   2.224   0.732  1.7196  0.4620 -0.9323
 6602SOL    HW231266   1.592   2.321   0.806 -1.6544  0.6301  0.8435
 6603SOL     OW31267   3.646   0.887   2.230  0.0741  0.1531 -0.1292
 6603SOL    HW131268   3.653   0.983   2.225  0.0373  0.1376 -0.5305
 6603SOL    HW231269   3.584   0.861   2.162  1.1392 -1.1833 -0.5874
 6604SOL     OW31270   2.016   4.675   6.122 -0.3554 -0.2908 -0.1853
 6604SOL    HW131271   2.060   4.699   6.041 -0.5952 -2.4960 -0.9857
 6604SOL    HW231272   2.080   4.614   6.159 -0.3647 -0.2856 -0.1606
 6605SOL     OW31273   2.166   3.078   1.053  0.7283 -0.0286  0.2165
 6605SOL    HW131274   2.221   3.125   1.116  1.7902  0.2057 -0.8791
 6605SOL    HW231275   2.226   3.025   1.000  0.5941 -0.5279  0.5671
 6606SOL     OW31276   3.723   1.639   6.565  0.3710 -0.3756 -0.1160
 6606SOL    HW131277   3.770   1.708   6.518  0.8243 -0.1426  0.6714
 6606SOL    HW231278   3.792   1.613   6.627 -1.5145 -1.8388  1.3645
 6607SOL     OW31279   2.169   2.068  14.607  0.8265  0.0248 -0.0248
 6607SOL    HW131280   2.248   2.121  14.618  0.5767  0.4475 -0.2531
 6607SOL    HW231281   2.144   2.052  14.698  0.6826  1.5214  0.1973
 6608SOL     OW31282   2.296   2.705  10.334  0.0282  0.2244  0.2391
 6608SOL    HW131283   2.314   2.725  10.425 -0.4826  0.6283  0.2545
 6608SOL    HW231284   2.210   2.665  10.344 -0.3858  1.5517  1.8622
 6609SOL     OW31285   2.003   1.056   1.945  0.3186  0.0182  0.5131
 6609SOL    HW131286   1.911   1.074   1.926  0.5644 -0.0964 -0.8461
 6609SOL    HW231287   2.015   0.972   1.900  1.8236  0.5423 -0.0515
 6610SOL     OW31288   3.444   3.957   6.800  0.0464  0.0294 -0.2579
 6610SOL    HW131289   3.515   3.935   6.860 -0.0642  1.2654  0.3352
 6610SOL    HW231290   3.406   3.870   6.791 -0.7558  0.2769  0.7544
 6611SOL     OW31291   2.164   2.097  10.973  0.3678  0.1095 -0.5661
 6611SOL    HW131292   2.249   2.138  10.958 -0.3136  1.5963 -0.3429
 6611SOL    HW231293   2.105   2.171  10.985 -0.4086 -0.5866 -0.0534
 6612SOL     OW31294   4.182   3.086   8.587 -0.0399  0.2471  0.0429
 6612SOL    HW131295   4.163   3.071   8.679 -1.7158  0.2553 -0.2976
 6612SOL    HW231296   4.213   3.177   8.588 -0.8428  0.5417 -1.5616
 6613SOL     OW31297   2.924   1.027   9.491 -0.2458 -0.2951  0.3075
 6613SOL    HW131298   2.846   1.061   9.536 -0.9145  1.3714 -2.1310
 6613SOL    HW231299   2.990   1.042   9.558  0.2317 -0.6728 -0.0828
 6614SOL     OW31300   1.207   4.130   2.616  0.4156  0.0610 -0.5782
 6614SOL    HW131301   1.241   4.215   2.642  0.8048 -0.4806  0.7030
 6614SOL    HW231302   1.286   4.092   2.576 -1.6423 -1.0605 -3.4911
 6615SOL     OW31303   1.131   1.877   1.711  0.2791 -0.5165 -0.5510
 6615SOL    HW131304   1.119   1.869   1.805  0.0183 -0.5731 -0.5877
 6615SOL    HW231305   1.196   1.809   1.694  1.2348  0.1001  0.6939
 6616SOL     OW31306   1.921   0.626   3.372 -0.6236 -0.0414  0.5996
 6616SOL    HW131307   1.876   0.601   3.291 -0.7495 -1.4695  1.1168
 6616SOL    HW231308   1.906   0.720   3.360 -0.1831  0.1281  1.3616
 6617SOL     OW31309   3.618   4.515  17.651 -0.5488 -0.0967  0.1592
 6617SOL    HW131310   3.550   4.457  17.687 -1.3560  0.4183 -0.5205
 6617SOL    HW231311   3.620   4.579   0.022  2.0668 -0.9572  0.8353
 6618SOL     OW31312   2.589   4.487   6.038  0.2964 -0.5351  0.4639
 6618SOL    HW131313   2.667   4.436   6.058  0.2027 -0.7565  0.2764
 6618SOL    HW231314   2.609   4.574   6.072  0.3288 -0.5763  0.5481
 6619SOL     OW31315   1.195   2.893  10.773  0.1117  0.5376  0.2598
 6619SOL    HW131316   1.125   2.828  10.764 -0.2428  0.8959  0.3999
 6619SOL    HW231317   1.262   2.849  10.825  2.0899  1.9363 -1.1297
 6620SOL     OW31318   2.657   3.585  14.544 -0.7036  0.0587  0.3604
 6620SOL    HW131319   2.741   3.593  14.590 -0.4047  0.4508 -0.2499
 6620SOL    HW231320   2.591   3.576  14.612 -3.3987 -0.5027 -2.3290
 6621SOL     OW31321   0.535   3.002   4.872 -0.8492  0.0825  0.0873
 6621SOL    HW131322   0.450   2.989   4.831 -1.2292  2.4599  0.0908
 6621SOL    HW231323   0.558   2.910   4.883 -3.4118 -0.4356  1.0424
 6622SOL     OW31324   3.122   4.595  10.392  0.4766 -0.2709  0.1949
 6622SOL    HW131325   3.164   4.589  10.478 -0.5279 -0.8682  0.6387
 6622SOL    HW231326   3.170   4.526  10.347  2.2482  1.8404 -1.1996
 6623SOL     OW31327   0.677   4.458   9.207  0.2759  0.5685 -0.2724
 6623SOL    HW131328   0.612   4.432   9.142 -0.1863 -0.3546  0.5633
 6623SOL    HW231329   0.625   4.475   9.286 -1.3123 -2.1592 -0.7515
 6624SOL     OW31330   1.280   1.920  13.860  0.3463 -0.5624 -0.5559
 6624SOL    HW131331   1.318   1.856  13.920  2.8975  0.4375 -1.1332
 6624SOL    HW231332   1.192   1.882  13.861 -0.4480  1.2889  0.7591
 6625SOL     OW31333   1.219   4.225   7.941  0.5457 -0.1082 -0.3556
 6625SOL    HW131334   1.196   4.200   8.031  0.0694  1.0177 -0.1691
 6625SOL    HW231335   1.190   4.316   7.933 -0.3315 -0.3586 -0.0003
 6626SOL     OW31336   0.108   2.075   7.379 -0.3792  0.2539 -0.3362
 6626SOL    HW131337   0.050   2.001   7.364  1.8444 -2.2103  3.2326
 6626SOL    HW231338   0.096   2.124   7.298  0.3875 -1.1165 -1.2614
 6627SOL     OW31339   3.576   0.635   7.495 -0.6271 -0.4517 -0.4592
 6627SOL    HW131340   3.669   0.637   7.472 -0.1899  2.6060  1.6876
 6627SOL    HW231341   3.578   0.587   7.577 -2.6358 -0.9669 -0.7156
 6628SOL     OW31342   2.945   4.112   2.112 -0.2617 -0.1012 -0.0362
 6628SOL    HW131343   2.985   4.181   2.059  4.2445 -2.0975  0.7424
 6628SOL    HW231344   3.000   4.103   2.189  0.2232  3.8588  0.0784
 6629SOL     OW31345   4.555   1.863  16.173  0.1389 -0.3546 -0.6432
 6629SOL    HW131346   4.512   1.935  16.219  2.8037  0.3652  0.6706
 6629SOL    HW231347   4.635   1.913  16.160  1.1028 -1.0320  2.6463
 6630SOL     OW31348   1.168   3.527   8.313 -0.2025 -0.2181 -0.0376
 6630SOL    HW131349   1.251   3.485   8.292  1.2251  1.6160  1.9313
 6630SOL    HW231350   1.183   3.614   8.277 -1.5086  0.5509  1.2831
 6631SOL     OW31351   0.959   4.141   5.969  0.1515  0.9619  0.2395
 6631SOL    HW131352   0.965   4.184   5.884  1.7797  0.2260 -0.0260
 6631SOL    HW231353   0.953   4.215   6.030  0.2885  0.9821  0.2298
 6632SOL     OW31354   0.567   2.493   5.072 -0.1426 -0.3596  0.1891
 6632SOL    HW131355   0.605   2.482   4.985 -2.0188 -0.2567 -0.6512
 6632SOL    HW231356   0.506   2.566   5.060  3.2068  2.3140 -0.5059
 6633SOL     OW31357   4.270   1.933   7.821 -0.5041  0.5651 -0.1353
 6633SOL    HW131358   4.264   2.016   7.869  1.5996 -0.2854  1.5983
 6633SOL    HW231359   4.177   1.908   7.823 -0.2315 -0.2379  3.1614
 6634SOL     OW31360   3.090   3.952   5.565 -0.4734  0.2149 -0.5784
 6634SOL    HW131361   3.174   3.998   5.568 -0.6947  0.4836  1.0793
 6634SOL    HW231362   3.031   4.026   5.552  0.0927  0.7158 -0.3153
 6635SOL     OW31363   3.364   3.309   4.688  1.1120 -0.0864  0.4681
 6635SOL    HW131364   3.422   3.245   4.729  1.5924 -0.6650 -1.1153
 6635SOL    HW231365   3.279   3.284   4.725  0.0132  1.0654 -1.3050
 6636SOL     OW31366   1.410   0.826   5.511 -0.0941 -0.7820  0.1318
 6636SOL    HW131367   1.368   0.869   5.586 -0.5669  1.0065 -1.1526
 6636SOL    HW231368   1.339   0.810   5.450  0.9337  0.0736 -1.3028
 6637SOL     OW31369   2.849   0.067  13.818 -0.5616 -0.4228 -0.1439
 6637SOL    HW131370   2.875   4.709  13.859 -1.2266 -0.1651  0.7852
 6637SOL    HW231371   2.762   0.078  13.856 -0.5493  1.3265 -0.6414
 6638SOL     OW31372   3.119   1.745  13.295  0.0711 -0.1000  0.0487
 6638SOL    HW131373   3.186   1.730  13.229  0.9555 -0.5074  1.0321
 6638SOL    HW231374   3.165   1.716  13.374  0.7017 -1.7172 -0.9370
 6639SOL     OW31375   4.074   3.107   3.326  0.4225 -0.7386 -0.5663
 6639SOL    HW131376   3.982   3.132   3.326  0.5463 -0.2864 -1.1600
 6639SOL    HW231377   4.080   3.087   3.420 -0.8878  2.1906  0.1516
 6640SOL     OW31378   4.529   3.903   7.772 -0.0140 -0.3638  0.1486
 6640SOL    HW131379   4.540   3.927   7.864 -0.5005  0.6225 -0.0514
 6640SOL    HW231380   4.525   3.808   7.783 -0.4310 -0.4734 -0.8856
 6641SOL     OW31381   2.434   1.851   7.514 -0.3778  0.0705 -0.3918
 6641SOL    HW131382   2.529   1.839   7.516 -0.6612 -1.8291  0.8328
 6641SOL    HW231383   2.428   1.927   7.572  1.7999  1.9848 -2.6112
 6642SOL     OW31384   3.113   4.134   2.300  0.2496 -0.0907 -0.4455
 6642SOL    HW131385   3.161   4.078   2.361 -0.6070 -1.1686 -0.7755
 6642SOL    HW231386   3.139   4.219   2.337 -2.6522  1.1495 -1.2844
 6643SOL     OW31387   4.058   1.368  11.070  0.0080  0.0132 -0.1149
 6643SOL    HW131388   4.047   1.417  10.988 -1.4399  0.5136  0.3874
 6643SOL    HW231389   4.133   1.314  11.046  0.0314  0.8271 -1.8741
 6644SOL     OW31390   3.199   2.548   4.716 -0.2611  0.0602  0.4145
 6644SOL    HW131391   3.219   2.534   4.809 -1.7097  0.6117  0.8109
 6644SOL    HW231392   3.165   2.636   4.734 -1.3054 -0.4822  1.1519
 6645SOL     OW31393   0.123   3.175   5.372 -0.4034 -0.1342 -0.1210
 6645SOL    HW131394   0.117   3.240   5.442 -0.5531 -0.4861  0.2011
 6645SOL    HW231395   0.218   3.163   5.371 -0.6403 -1.7820 -2.2240
 6646SOL     OW31396   2.560   1.543   6.505 -0.4198  0.6631 -0.4797
 6646SOL    HW131397   2.475   1.587   6.498 -0.0456  1.4908  0.2435
 6646SOL    HW231398   2.581   1.560   6.597  1.3060 -2.6934 -0.2836
 6647SOL     OW31399   3.554   4.571  16.208  0.4188  0.5313 -0.0017
 6647SOL    HW131400   3.567   4.598  16.117 -0.8659 -0.3997 -0.4387
 6647SOL    HW231401   3.539   4.477  16.201 -0.5621  0.7036 -0.2054
 6648SOL     OW31402   0.073   2.565   3.446  0.2839  0.1560 -0.4240
 6648SOL    HW131403   0.083   2.630   3.516  0.2763 -3.1748  2.6950
 6648SOL    HW231404   4.705   2.585   3.436  0.2112 -0.2840 -0.6525
 6649SOL     OW31405   1.513   2.795   0.975 -0.3217 -0.2815 -0.4081
 6649SOL    HW131406   1.568   2.858   1.023 -1.4076 -0.1432  0.6391
 6649SOL    HW231407   1.496   2.845   0.895 -0.3786 -1.9406 -1.4392
 6650SOL     OW31408   0.296   3.316   7.679 -0.2702 -0.1019 -0.5453
 6650SOL    HW131409   0.303   3.220   7.682 -1.1754 -0.0893  1.3877
 6650SOL    HW231410   0.201   3.320   7.664 -0.0845 -0.1886 -1.7458
 6651SOL     OW31411   0.504   0.001   0.636 -0.1604 -0.4270  0.7486
 6651SOL    HW131412   0.487   4.663   0.707 -0.8649 -1.3770 -0.2576
 6651SOL    HW231413   0.534   0.084   0.672  0.0888  0.6567 -1.9874
 6652SOL     OW31414   2.003   2.868   3.910 -0.1430  0.2046  0.1639
 6652SOL    HW131415   2.049   2.940   3.954 -1.2589  0.0951  1.5009
 6652SOL    HW231416   2.080   2.834   3.865 -1.6002  0.7976 -2.7911
 6653SOL     OW31417   2.542   3.138   9.251 -0.6535  0.0836 -0.0343
 6653SOL    HW131418   2.472   3.123   9.314 -0.3912 -2.3416 -0.3156
 6653SOL    HW231419   2.549   3.233   9.254 -2.2476  0.1849  0.4399
 6654SOL     OW31420   4.372   2.438   9.038 -0.4118 -0.3869 -0.1743
 6654SOL    HW131421   4.337   2.404   8.955 -0.3729  1.4557 -0.9664
 6654SOL    HW231422   4.446   2.491   9.006 -0.7958  0.2840  0.0560
 6655SOL     OW31423   0.313   2.951   6.898  0.5832  0.4550 -0.2854
 6655SOL    HW131424   0.273   3.033   6.870  0.4344  0.4068 -0.2141
 6655SOL    HW231425   0.402   2.944   6.863  0.6648 -1.2269  0.2697
 6656SOL     OW31426   0.195   0.443   3.289  0.7287  0.1929 -0.1094
 6656SOL    HW131427   0.243   0.517   3.251  0.4303  0.3622 -0.1559
 6656SOL    HW231428   0.117   0.443   3.233  0.8150 -0.3248 -0.2344
 6657SOL     OW31429   3.014   0.270   5.454  0.0932 -0.4939 -0.2051
 6657SOL    HW131430   2.996   0.334   5.523  2.8034 -0.7029  0.6928
 6657SOL    HW231431   3.049   0.324   5.384 -0.2512  0.3898  0.2983
 6658SOL     OW31432   1.362   0.995   4.254 -0.4012  0.0014  0.4476
 6658SOL    HW131433   1.308   1.015   4.178  0.5257 -1.9209 -0.7251
 6658SOL    HW231434   1.359   0.900   4.247  1.7288 -0.0433  0.0562
 6659SOL     OW31435   1.300   0.799  16.254 -0.0035  0.0992  0.4032
 6659SOL    HW131436   1.231   0.802  16.187 -0.1263  2.9647  0.6430
 6659SOL    HW231437   1.249   0.825  16.331  0.5852 -1.4596  1.3099
 6660SOL     OW31438   3.048   3.153   4.530 -0.1791  0.5183 -0.2303
 6660SOL    HW131439   2.972   3.096   4.516  1.5399 -2.1300  1.3271
 6660SOL    HW231440   3.080   3.123   4.614 -0.1619 -0.2544 -0.5139
 6661SOL     OW31441   2.833   4.576   6.745  0.6432  0.5532  0.0499
 6661SOL    HW131442   2.927   4.573   6.726  0.2107 -0.0587 -2.0238
 6661SOL    HW231443   2.816   4.663   6.780 -0.1924  1.1499 -1.7990
 6662SOL     OW31444   0.842   1.904  10.713 -0.0015  0.4358  0.1649
 6662SOL    HW131445   0.750   1.928  10.712 -0.7759 -2.6491 -0.9782
 6662SOL    HW231446   0.849   1.832  10.775 -0.5717 -1.0548 -1.5040
 6663SOL     OW31447   0.413   1.998   8.905 -0.3440 -0.0411  0.4211
 6663SOL    HW131448   0.407   2.039   8.991 -0.1550 -0.7867  0.7843
 6663SOL    HW231449   0.357   2.052   8.848 -1.6265 -0.6392  1.1113
 6664SOL     OW31450   3.405   4.651   2.018 -0.7609 -0.2689  0.1174
 6664SOL    HW131451   3.324   4.601   2.008  0.1355 -1.4618 -1.1022
 6664SOL    HW231452   3.409   4.676   2.111  0.4425 -0.7813  0.2015
 6665SOL     OW31453   2.033   2.760   3.456  0.2042 -0.2609  0.1662
 6665SOL    HW131454   2.120   2.801   3.462 -0.1798  0.3600  1.5396
 6665SOL    HW231455   2.014   2.740   3.364  0.3817 -2.0994  0.5247
 6666SOL     OW31456   4.326   0.672   6.713  0.4917 -0.2750 -0.2935
 6666SOL    HW131457   4.405   0.624   6.738  1.7300  1.8026 -0.3019
 6666SOL    HW231458   4.269   0.641   6.784  0.6886  0.0984  0.0290
 6667SOL     OW31459   3.508   1.889   1.019 -0.3824  0.4939 -0.0468
 6667SOL    HW131460   3.450   1.815   1.033 -0.9915  1.4528  2.6534
 6667SOL    HW231461   3.460   1.929   0.946 -2.4384 -1.5186  0.2151
 6668SOL     OW31462   2.596   4.149   6.694  0.5523  0.4727  0.0985
 6668SOL    HW131463   2.673   4.164   6.640  0.1176 -0.1112 -0.6909
 6668SOL    HW231464   2.573   4.241   6.707  0.0589  0.3581  0.0659
 6669SOL     OW31465   1.303   4.466   4.304 -0.5397 -0.2322  0.0657
 6669SOL    HW131466   1.253   4.541   4.270 -0.6996 -0.8341 -0.9985
 6669SOL    HW231467   1.256   4.397   4.258  0.8375  0.3327 -2.1648
 6670SOL     OW31468   2.776   0.542   0.811 -0.0919  0.4092  0.1668
 6670SOL    HW131469   2.826   0.624   0.802  0.5372 -0.0415 -0.4662
 6670SOL    HW231470   2.686   0.568   0.830 -0.0752  1.5120 -1.2237
 6671SOL     OW31471   3.343   0.543  13.771 -0.1405 -0.0139 -0.2472
 6671SOL    HW131472   3.280   0.537  13.699 -0.4060  0.7222 -0.0738
 6671SOL    HW231473   3.336   0.453  13.804  4.5663 -0.9756 -1.9346
 6672SOL     OW31474   3.148   1.354   0.671 -0.0126 -0.3137 -0.8576
 6672SOL    HW131475   3.102   1.296   0.610 -2.2158 -0.5101  0.9802
 6672SOL    HW231476   3.075   1.404   0.706  0.2195 -1.0968  0.7867
 6673SOL     OW31477   2.434   1.217   9.587 -0.8210  0.6126  0.0262
 6673SOL    HW131478   2.350   1.169   9.590  0.4205 -1.7067 -1.9098
 6673SOL    HW231479   2.426   1.247   9.678 -1.0482 -0.0773  0.2347
 6674SOL     OW31480   4.702   4.475   3.003  0.1847  0.3253 -0.1227
 6674SOL    HW131481   4.709   4.428   2.920  0.5088  0.7228 -0.3197
 6674SOL    HW231482   0.066   4.510   3.000  0.3120 -0.1054 -1.3182
 6675SOL     OW31483   4.273   3.555  12.637  0.0810  0.0426 -0.2280
 6675SOL    HW131484   4.282   3.564  12.543  2.9085  1.6519  0.2085
 6675SOL    HW231485   4.352   3.599  12.669  0.0754  0.4716 -0.8093
 6676SOL     OW31486   1.031   2.810   8.407 -0.3295 -0.1580  0.0680
 6676SOL    HW131487   0.959   2.748   8.397 -1.6977  1.3133  0.8175
 6676SOL    HW231488   1.003   2.886   8.357 -1.2937  0.0692  0.9652
 6677SOL     OW31489   2.778   0.540   6.138 -0.1201  0.4016 -0.1968
 6677SOL    HW131490   2.764   0.446   6.151 -1.0397  0.6552  0.6975
 6677SOL    HW231491   2.689   0.565   6.111  1.0968  2.9961 -1.8006
 6678SOL     OW31492   1.288   3.953   3.949  0.0882  0.1560  0.2083
 6678SOL    HW131493   1.274   3.864   3.916  2.1305  0.5318 -1.6777
 6678SOL    HW231494   1.333   3.923   4.028  1.3991 -0.2752 -0.6932
 6679SOL     OW31495   0.353   0.646   9.461  0.3025 -0.3855 -0.1563
 6679SOL    HW131496   0.421   0.688   9.513 -0.0168 -0.9360  0.7076
 6679SOL    HW231497   0.404   0.568   9.439 -0.1505 -0.7024 -0.1060
 6680SOL     OW31498   0.566   0.627  11.766  0.1050 -0.3071  0.2911
 6680SOL    HW131499   0.505   0.598  11.834 -0.3532 -2.0096 -0.8573
 6680SOL    HW231500   0.648   0.577  11.772 -1.1486 -2.3232  0.5785
 6681SOL     OW31501   0.269   0.760   5.618 -0.3685  0.3749  0.7673
 6681SOL    HW131502   0.269   0.699   5.544  2.2056  0.3880  0.7442
 6681SOL    HW231503   0.184   0.744   5.660 -0.0260 -0.3891  1.1825
 6682SOL     OW31504   1.614   3.011   7.739  0.3723  0.5140 -0.3850
 6682SOL    HW131505   1.707   2.995   7.750  0.0103 -0.3984  1.2915
 6682SOL    HW231506   1.584   2.965   7.817 -1.8103 -0.7885 -1.9812
 6683SOL     OW31507   4.037   3.555   8.240  0.1401  0.4779  0.2757
 6683SOL    HW131508   4.020   3.630   8.297 -0.4576 -0.8151  1.7563
 6683SOL    HW231509   3.953   3.511   8.236 -1.3684  3.3809  0.1769
 6684SOL     OW31510   3.177   2.372  17.680 -0.7615  0.8028  0.0379
 6684SOL    HW131511   3.177   2.447  17.620 -0.7896  1.1648  0.4932
 6684SOL    HW231512   3.255   2.319  17.664  0.0033  2.5788 -2.1574
 6685SOL     OW31513   1.716   0.892   5.457 -0.6999 -0.0261 -0.2849
 6685SOL    HW131514   1.730   0.918   5.366 -1.2199 -0.5985 -0.5324
 6685SOL    HW231515   1.630   0.850   5.457 -0.8027  0.1830 -0.5350
 6686SOL     OW31516   2.928   4.168  13.256 -0.4553  0.1066 -0.4823
 6686SOL    HW131517   2.834   4.173  13.271 -0.7771  1.5627 -3.1264
 6686SOL    HW231518   2.933   4.199  13.166 -0.4743 -0.3322 -0.6359
 6687SOL     OW31519   0.592   2.658   3.492  0.5070 -0.6120 -0.3328
 6687SOL    HW131520   0.675   2.706   3.484  0.5074 -0.4157  0.8039
 6687SOL    HW231521   0.578   2.611   3.410 -3.0930  1.2707 -0.7630
 6688SOL     OW31522   1.921   0.140   5.754 -0.0120  0.1542 -0.0862
 6688SOL    HW131523   1.942   0.135   5.661  0.6546  0.0415  0.0700
 6688SOL    HW231524   1.994   0.094   5.796 -1.0273 -1.1285  0.2777
 6689SOL     OW31525   2.628   1.095   0.827 -0.0902 -0.3355 -0.1819
 6689SOL    HW131526   2.675   1.150   0.890 -1.7783 -0.5716  1.2877
 6689SOL    HW231527   2.686   1.082   0.752 -0.3116 -1.9807 -0.0678
 6690SOL     OW31528   1.165   0.436   3.426 -0.2584 -1.3338  0.1071
 6690SOL    HW131529   1.085   0.449   3.477  0.5804  0.8597  0.8379
 6690SOL    HW231530   1.161   0.350   3.384 -0.1324 -0.9069 -0.7769
 6691SOL     OW31531   1.188   4.086   0.162  0.1506 -0.9861  0.6160
 6691SOL    HW131532   1.098   4.061   0.183  0.9051 -2.7314  1.8253
 6691SOL    HW231533   1.220   4.015   0.105  0.8527 -0.0132 -0.1930
 6692SOL     OW31534   0.490   4.095   0.501  0.2348 -0.5264  0.2578
 6692SOL    HW131535   0.404   4.106   0.462  1.1751 -1.8870 -2.1962
 6692SOL    HW231536   0.478   4.074   0.594  1.4819 -0.5844  0.4080
 6693SOL     OW31537   1.224   2.971   0.640  0.3587  0.0026 -0.8529
 6693SOL    HW131538   1.174   3.021   0.704 -0.0022 -0.5020 -0.7401
 6693SOL    HW231539   1.207   2.882   0.671  1.3161 -0.4394 -1.6072
 6694SOL     OW31540   3.704   2.498  11.611 -0.4043  0.0377  0.0860
 6694SOL    HW131541   3.776   2.445  11.578 -0.8371  0.5831 -1.7442
 6694SOL    HW231542   3.641   2.426  11.621  0.4873 -0.9648 -1.6677
 6695SOL     OW31543   4.641   0.787   2.598 -0.0398 -0.0651 -0.1836
 6695SOL    HW131544   4.673   0.841   2.527  2.1543  0.4086  1.1458
 6695SOL    HW231545   4.551   0.818   2.604  0.1358  0.2927  0.6674
 6696SOL     OW31546   2.320   2.889   1.529 -0.2709  0.1144  0.4203
 6696SOL    HW131547   2.283   2.970   1.496 -3.1059 -0.7747  1.4032
 6696SOL    HW231548   2.325   2.919   1.620 -1.7778 -1.1288  0.9133
 6697SOL     OW31549   1.070   2.678   5.584  0.0434  0.1300  0.2418
 6697SOL    HW131550   0.994   2.626   5.558  0.1949  0.4452 -0.8509
 6697SOL    HW231551   1.110   2.691   5.498 -1.6739 -1.2289 -0.7595
 6698SOL     OW31552   2.511   4.002   5.080  0.1684 -0.4404 -0.5533
 6698SOL    HW131553   2.585   3.945   5.059  3.2131  3.1578  0.4950
 6698SOL    HW231554   2.441   3.946   5.113  0.5852 -1.3880 -1.2780
 6699SOL     OW31555   1.246   1.097   5.068 -0.1382  0.1315  0.1500
 6699SOL    HW131556   1.159   1.086   5.107 -1.0153  1.2777 -1.4656
 6699SOL    HW231557   1.285   1.163   5.124  1.7160  0.5866 -1.6719
 6700SOL     OW31558   3.682   1.233   3.476  0.2875 -0.1888 -0.4896
 6700SOL    HW131559   3.603   1.239   3.422  0.7443  0.5929 -1.0596
 6700SOL    HW231560   3.659   1.157   3.529  0.7518  0.8949  1.2582
 6701SOL     OW31561   2.738   3.953   7.105 -1.2026 -0.1672  0.2487
 6701SOL    HW131562   2.704   3.923   7.020 -0.1404  1.0097 -0.5885
 6701SOL    HW231563   2.801   4.020   7.079 -0.2641 -0.4971  1.6958
 6702SOL     OW31564   0.033   0.423   6.293 -0.3001 -0.1895  0.2310
 6702SOL    HW131565   0.061   0.500   6.343  0.7268 -0.5528  0.2200
 6702SOL    HW231566   4.684   0.393   6.346 -1.8171  0.9280 -1.2244
 6703SOL     OW31567   2.805   4.723   4.127  0.2916  0.2942  0.4406
 6703SOL    HW131568   2.807   0.084   4.171 -0.3302  1.0492 -1.0071
 6703SOL    HW231569   2.896   4.697   4.118 -0.4576 -1.6979 -1.4592
 6704SOL     OW31570   3.697   4.070   1.908  0.3622 -0.0941  0.2129
 6704SOL    HW131571   3.713   4.163   1.921  1.3287 -0.3163  0.6053
 6704SOL    HW231572   3.708   4.064   1.813 -0.9639  1.4775 -0.0431
 6705SOL     OW31573   0.112   4.343   7.930 -0.0754  0.8159 -0.6572
 6705SOL    HW131574   0.189   4.371   7.880  0.4593  2.2313  0.9251
 6705SOL    HW231575   0.126   4.394   8.011  1.2321 -1.5006  0.5737
 6706SOL     OW31576   2.780   3.692   3.046 -0.2424 -0.3694  0.4176
 6706SOL    HW131577   2.816   3.780   3.055 -3.0814  0.7993  0.4590
 6706SOL    HW231578   2.766   3.675   3.140 -0.3470  0.1863  0.5012
 6707SOL     OW31579   0.522   2.445   6.390  0.4770 -0.1195  0.2086
 6707SOL    HW131580   0.605   2.461   6.434 -0.8318  0.9176  2.3587
 6707SOL    HW231581   0.485   2.531   6.411  0.1587 -0.2133  0.0292
 6708SOL     OW31582   2.866   2.832   2.797  0.0909  0.2604  0.5043
 6708SOL    HW131583   2.818   2.884   2.861 -2.0327 -1.9741  0.7205
 6708SOL    HW231584   2.946   2.809   2.845 -0.7415  0.0609  1.8058
 6709SOL     OW31585   2.276   0.717  12.752 -0.5024  1.0254  0.4588
 6709SOL    HW131586   2.305   0.705  12.842  0.1851  2.0598  0.3704
 6709SOL    HW231587   2.353   0.732  12.697 -1.2626  1.7978 -0.4011
 6710SOL     OW31588   2.121   1.635  15.677  0.2660 -0.2907 -0.2783
 6710SOL    HW131589   2.156   1.569  15.618  1.5055 -0.1043  0.2442
 6710SOL    HW231590   2.038   1.661  15.638 -0.3877 -0.7160  0.8329
 6711SOL     OW31591   3.462   4.273  10.134 -0.2817 -0.2441  0.0781
 6711SOL    HW131592   3.398   4.312  10.193  1.2169 -0.0150  1.5766
 6711SOL    HW231593   3.415   4.205  10.086  1.8940 -0.9747 -1.0285
 6712SOL     OW31594   3.384   0.468   0.200  0.1743 -0.5826  0.3353
 6712SOL    HW131595   3.408   0.497   0.112  0.5345 -1.0552  0.2801
 6712SOL    HW231596   3.380   0.375   0.179 -0.6343 -0.3294 -0.6125
 6713SOL     OW31597   4.565   0.014   9.652 -0.0862 -0.1509 -0.7690
 6713SOL    HW131598   4.647   0.050   9.619  0.2589 -0.8641 -0.6914
 6713SOL    HW231599   4.571   0.043   9.744 -1.1668 -1.5490 -0.2639
 6714SOL     OW31600   4.451   0.739   1.105  0.0035 -0.0197 -0.5588
 6714SOL    HW131601   4.532   0.716   1.059  1.1147  1.6384  0.5469
 6714SOL    HW231602   4.384   0.725   1.038 -0.4539 -0.2290 -0.0554
 6715SOL     OW31603   0.877   1.701   3.110  0.2350 -0.1491 -0.2414
 6715SOL    HW131604   0.966   1.726   3.136  0.0543  1.6346 -1.3376
 6715SOL    HW231605   0.877   1.608   3.133 -1.6575 -0.0339  0.2140
 6716SOL     OW31606   2.060   0.989   2.836 -0.0206 -0.6368 -0.3815
 6716SOL    HW131607   2.016   0.923   2.783 -2.0002  0.4667 -0.1222
 6716SOL    HW231608   2.147   0.950   2.844 -0.5234 -1.5604  0.5323
 6717SOL     OW31609   2.907   2.642   4.145 -0.1408  0.3118 -0.0255
 6717SOL    HW131610   2.885   2.706   4.077 -0.3160 -0.4623 -0.6926
 6717SOL    HW231611   2.824   2.603   4.172  0.7324 -1.2078  0.4644
 6718SOL     OW31612   1.096   0.860   3.993 -0.0575  0.1178  0.0639
 6718SOL    HW131613   1.055   0.892   3.913 -0.0223  0.9618  0.3807
 6718SOL    HW231614   1.061   0.919   4.061 -2.3037  0.0540 -1.0551
 6719SOL     OW31615   3.975   4.137   5.137  0.6348  0.0294  0.0405
 6719SOL    HW131616   4.012   4.068   5.192  3.2499  0.5852 -1.0102
 6719SOL    HW231617   4.011   4.105   5.054  1.6909 -2.2050  1.3391
 6720SOL     OW31618   4.034   1.833   2.415 -0.3391  0.0340  0.0193
 6720SOL    HW131619   4.025   1.847   2.509 -1.1740  0.1320 -0.0708
 6720SOL    HW231620   4.062   1.923   2.401  0.3172 -0.3178 -0.9271
 6721SOL     OW31621   0.770   2.317  17.500 -0.2852  0.6370  0.1738
 6721SOL    HW131622   0.767   2.228  17.465 -0.4198  0.6521  0.1477
 6721SOL    HW231623   0.852   2.342  17.458  1.4260 -3.5844  1.0386
 6722SOL     OW31624   3.204   2.169  11.358 -0.0430 -0.4352 -0.2413
 6722SOL    HW131625   3.220   2.250  11.406  0.6517 -0.0189 -1.1675
 6722SOL    HW231626   3.234   2.099  11.415 -0.0108  0.4675  0.8346
 6723SOL     OW31627   3.080   0.267   6.513  0.6622 -0.2461  0.1843
 6723SOL    HW131628   3.053   0.353   6.482  1.4682 -0.6395 -1.6027
 6723SOL    HW231629   3.025   0.208   6.459  0.2005  1.4060 -1.1527
 6724SOL     OW31630   1.463   3.464   5.409 -0.2613  0.0497 -0.2614
 6724SOL    HW131631   1.453   3.443   5.502 -1.5877  0.5718 -0.2893
 6724SOL    HW231632   1.446   3.558   5.412 -1.4120 -0.0678 -4.2191
 6725SOL     OW31633   2.063   1.381   4.879 -0.3549  0.3555  1.2206
 6725SOL    HW131634   2.087   1.356   4.790 -2.8929  0.7786  0.4289
 6725SOL    HW231635   1.969   1.398   4.874 -0.0252  2.0680  0.7314
 6726SOL     OW31636   4.010   0.010   5.382 -0.5926 -0.4246 -0.0809
 6726SOL    HW131637   4.079   4.672   5.360  0.1386 -0.1377  1.3874
 6726SOL    HW231638   3.932   4.698   5.342  1.1035 -2.9253 -1.1323
 6727SOL     OW31639   4.515   1.860   6.694 -0.1159 -0.5453  0.2997
 6727SOL    HW131640   4.481   1.771   6.681 -1.4329 -0.0906  0.6463
 6727SOL    HW231641   4.606   1.840   6.717 -0.0390 -1.7405 -0.9994
 6728SOL     OW31642   1.703   3.130   4.680 -0.8456 -0.2648 -0.3532
 6728SOL    HW131643   1.720   3.161   4.769 -0.1743 -0.0137 -0.5710
 6728SOL    HW231644   1.783   3.079   4.674 -1.4462 -1.1333 -1.0059
 6729SOL     OW31645   1.230   2.317   1.213 -0.1488 -0.7607 -0.2517
 6729SOL    HW131646   1.244   2.224   1.192  1.5292 -0.7083  0.6409
 6729SOL    HW231647   1.306   2.364   1.180 -0.4762  0.9450  1.4604
 6730SOL     OW31648   2.215   3.564   6.970 -0.0214 -0.3487 -0.1586
 6730SOL    HW131649   2.178   3.615   6.899  1.2830  0.6071 -0.1558
 6730SOL    HW231650   2.134   3.524   7.001 -1.0592  2.9669  1.4418
 6731SOL     OW31651   1.820   1.588   7.567  0.2850 -0.0191  0.1928
 6731SOL    HW131652   1.786   1.677   7.573 -1.9510 -0.7819 -0.9092
 6731SOL    HW231653   1.873   1.609   7.491 -1.6331 -0.4208 -1.2724
 6732SOL     OW31654   3.892   0.796   2.324 -0.5920 -0.2426  0.0138
 6732SOL    HW131655   3.812   0.847   2.316 -1.0531 -1.1640 -1.2251
 6732SOL    HW231656   3.947   0.850   2.267  1.0483  0.2639  2.0818
 6733SOL     OW31657   0.394   2.481   2.075 -0.1947  0.3529 -0.2376
 6733SOL    HW131658   0.421   2.416   2.010  0.4167  0.4426 -0.0707
 6733SOL    HW231659   0.300   2.471   2.090 -0.4716  0.2515 -2.0449
 6734SOL     OW31660   4.679   0.657   5.147  0.4089  0.2889  0.6110
 6734SOL    HW131661   4.705   0.694   5.231 -0.8354 -3.4335  2.6275
 6734SOL    HW231662   4.681   0.565   5.174 -0.7134 -0.2615 -1.2059
 6735SOL     OW31663   3.380   3.119   2.340 -0.1287  0.2134 -0.5856
 6735SOL    HW131664   3.358   3.130   2.247  0.8274  1.7072 -0.6455
 6735SOL    HW231665   3.464   3.165   2.330  0.9739 -1.1255  2.6622
 6736SOL     OW31666   2.186   3.852   4.589  0.2354 -0.5209 -0.4344
 6736SOL    HW131667   2.147   3.797   4.520  0.8739 -0.6942 -0.6604
 6736SOL    HW231668   2.203   3.927   4.532  0.9859 -0.5799 -0.2883
 6737SOL     OW31669   0.945   2.321   4.978 -0.1828  0.1985 -0.1771
 6737SOL    HW131670   0.856   2.356   4.985 -0.4914 -0.7550  0.7585
 6737SOL    HW231671   0.975   2.363   4.898  0.3072  0.6176  0.2281
 6738SOL     OW31672   1.452   1.823   7.974 -0.3273 -0.0916  0.1279
 6738SOL    HW131673   1.444   1.918   7.967  1.3622 -0.1964 -3.3955
 6738SOL    HW231674   1.492   1.830   8.060 -0.5586 -0.4230  0.2615
 6739SOL     OW31675   1.093   0.258   8.932 -0.0766  0.0049 -0.3166
 6739SOL    HW131676   1.127   0.322   8.994  0.1842 -0.1641 -0.2886
 6739SOL    HW231677   1.072   0.320   8.862 -0.1097  0.3271 -0.0192
 6740SOL     OW31678   3.269   1.678  14.619  0.5049 -0.7227  0.0063
 6740SOL    HW131679   3.202   1.669  14.551 -1.5086  2.1965  1.5914
 6740SOL    HW231680   3.253   1.765  14.657  1.3244 -0.8351  0.5924
 6741SOL     OW31681   0.887   3.339   7.342 -0.4999  0.1195 -0.3546
 6741SOL    HW131682   0.822   3.393   7.298 -1.2897 -0.5764 -0.0324
 6741SOL    HW231683   0.965   3.378   7.304 -1.2192  1.9475  0.0779
 6742SOL     OW31684   1.858   2.640   0.475 -0.1705 -0.1073  0.3441
 6742SOL    HW131685   1.917   2.605   0.409 -0.1763  0.1536  0.2039
 6742SOL    HW231686   1.912   2.709   0.512  0.7986  0.4704 -2.1623
 6743SOL     OW31687   0.344   0.177   6.173  0.3217  0.2192  0.6014
 6743SOL    HW131688   0.401   0.109   6.138  0.0447 -0.7726  2.0907
 6743SOL    HW231689   0.302   0.132   6.246 -0.5285  0.6386  0.3783
 6744SOL     OW31690   0.048   0.924  13.569 -0.2349  0.0115 -0.0578
 6744SOL    HW131691   0.047   0.922  13.474 -0.1356  1.4500 -0.0957
 6744SOL    HW231692   0.043   1.019  13.577 -0.6733 -0.1050  1.0913
 6745SOL     OW31693   4.538   4.346   7.948  0.4966 -0.5408  0.1828
 6745SOL    HW131694   4.533   4.297   7.866  0.2298  0.6331 -0.4951
 6745SOL    HW231695   4.633   4.357   7.945  0.4931 -1.1211 -1.9966
 6746SOL     OW31696   2.789   0.565   1.975 -1.2121  0.4756  0.6023
 6746SOL    HW131697   2.781   0.469   1.972  0.2067  0.3269  1.2148
 6746SOL    HW231698   2.702   0.586   1.941  0.5515  1.4633 -3.2639
 6747SOL     OW31699   4.229   0.559   4.003  0.0483  0.5863 -0.0087
 6747SOL    HW131700   4.248   0.496   3.933  1.3508  0.1427  0.7524
 6747SOL    HW231701   4.268   0.638   3.966 -1.5913  0.4712 -1.9857
 6748SOL     OW31702   0.954   3.198   3.721 -0.0314 -0.0128  0.1310
 6748SOL    HW131703   0.910   3.281   3.702  1.2524  0.3184 -1.4261
 6748SOL    HW231704   0.912   3.135   3.662  1.3871  0.5181 -1.4659
 6749SOL     OW31705   1.641   2.375   2.986  0.1626  0.4687 -0.4558
 6749SOL    HW131706   1.644   2.395   2.893 -1.6245  1.2793 -0.3344
 6749SOL    HW231707   1.673   2.458   3.022  1.8962 -0.5550  0.3567
 6750SOL     OW31708   3.923   1.978  14.610 -0.4311 -0.0264  0.0309
 6750SOL    HW131709   3.909   1.958  14.517 -0.3619  1.5608 -0.3129
 6750SOL    HW231710   3.972   2.059  14.601  0.6266 -0.4457  2.1026
 6751SOL     OW31711   2.763   1.029  12.438  0.1892  0.1376  0.3675
 6751SOL    HW131712   2.828   1.003  12.503  1.7125 -0.4858 -1.3801
 6751SOL    HW231713   2.793   1.118  12.419 -1.8354  0.8179  0.3425
 6752SOL     OW31714   1.985   2.688   4.879  0.3364 -0.1299  0.2749
 6752SOL    HW131715   1.931   2.699   4.801  1.1382 -2.4170 -0.6245
 6752SOL    HW231716   1.917   2.687   4.946 -0.3418 -1.4431 -0.4320
 6753SOL     OW31717   0.648   0.321   6.270 -0.2084  0.1644 -0.1183
 6753SOL    HW131718   0.741   0.342   6.258 -0.3529  1.6664  1.3689
 6753SOL    HW231719   0.620   0.340   6.181  1.2003 -1.5813 -0.9309
 6754SOL     OW31720   0.632   2.260  11.989  0.6762  0.2849  0.0546
 6754SOL    HW131721   0.714   2.246  11.942 -0.4817 -0.5088 -1.7354
 6754SOL    HW231722   0.662   2.272  12.079 -1.6009 -0.0038  0.8580
 6755SOL     OW31723   1.506   1.681   6.441 -0.4056  0.0512 -0.2662
 6755SOL    HW131724   1.477   1.725   6.521  1.8213  2.4018 -0.7611
 6755SOL    HW231725   1.509   1.756   6.381 -2.5193  1.5202  1.4611
 6756SOL     OW31726   3.479   2.484   8.085  0.1318  0.1925 -0.1887
 6756SOL    HW131727   3.554   2.533   8.119 -0.1877  1.4580 -1.3395
 6756SOL    HW231728   3.413   2.528   8.137  0.8870  1.1159 -0.0105
 6757SOL     OW31729   4.152   3.348   8.434  0.0511 -0.1860  0.2646
 6757SOL    HW131730   4.142   3.384   8.523 -0.4121 -1.6577  0.8101
 6757SOL    HW231731   4.140   3.430   8.387  2.0253  0.2246  0.4761
 6758SOL     OW31732   3.365   4.197   7.364  0.5136 -0.4064 -0.4165
 6758SOL    HW131733   3.298   4.265   7.375  0.3502 -0.7757  0.8708
 6758SOL    HW231734   3.334   4.126   7.419  1.2425 -0.5898 -0.2507
 6759SOL     OW31735   1.826   3.244   1.792  0.5182  0.3013 -0.1988
 6759SOL    HW131736   1.742   3.274   1.758  1.6085  1.6981 -1.6576
 6759SOL    HW231737   1.891   3.280   1.732  2.2465 -0.6995  1.0671
 6760SOL     OW31738   0.105   2.601   3.779  0.4915  0.0334 -0.2723
 6760SOL    HW131739   0.089   2.573   3.870 -0.5612  0.0863 -0.4481
 6760SOL    HW231740   0.194   2.636   3.789  0.0152  0.9042  0.8820
 6761SOL     OW31741   2.468   3.176  11.939 -0.0380  0.2161 -0.4563
 6761SOL    HW131742   2.446   3.269  11.936  1.2296  0.5628  0.9833
 6761SOL    HW231743   2.386   3.145  11.901 -0.3491 -0.8813  1.1211
 6762SOL     OW31744   3.413   3.928  17.649  0.1601  0.3360  0.6022
 6762SOL    HW131745   3.393   3.996  17.584  0.4657 -0.4415 -0.3197
 6762SOL    HW231746   3.346   3.957   0.010 -0.9971  0.1451 -0.5595
 6763SOL     OW31747   3.645   2.266   1.010 -0.2143 -0.4840  0.4124
 6763SOL    HW131748   3.699   2.345   1.008 -1.8780  0.6539  1.4234
 6763SOL    HW231749   3.650   2.225   1.096  0.1716 -1.2718  0.0190
 6764SOL     OW31750   1.830   4.544   9.271  0.3356  0.3140  0.7767
 6764SOL    HW131751   1.844   4.451   9.292 -0.7982  0.5555  2.6361
 6764SOL    HW231752   1.922   4.562   9.252  0.5468 -1.2973  0.2076
 6765SOL     OW31753   1.628   3.227   2.305  0.5816  0.0007 -0.3947
 6765SOL    HW131754   1.637   3.320   2.284 -0.2467  0.3316  0.7073
 6765SOL    HW231755   1.708   3.227   2.358  0.3215 -1.4964 -0.0239
 6766SOL     OW31756   1.356   0.807  15.482 -0.9344  0.0020 -0.2459
 6766SOL    HW131757   1.328   0.717  15.469 -0.8955  0.0606 -0.7229
 6766SOL    HW231758   1.393   0.831  15.397 -1.4335 -0.4651 -0.5923
 6767SOL     OW31759   4.227   0.026   3.837  0.2679 -0.0633 -0.1712
 6767SOL    HW131760   4.208   4.658   3.851  0.9845 -0.1912 -0.0260
 6767SOL    HW231761   4.237   0.058   3.927 -0.4871  0.9404 -0.4431
 6768SOL     OW31762   3.595   1.404   2.672 -0.1330 -0.3456 -0.2386
 6768SOL    HW131763   3.518   1.348   2.682 -1.1994  0.9275 -1.3227
 6768SOL    HW231764   3.560   1.478   2.622  2.1315  1.6163  1.0359
 6769SOL     OW31765   0.235   0.425   6.129  0.2032  0.3533 -0.8791
 6769SOL    HW131766   0.154   0.415   6.180  1.0050 -1.8316 -0.0480
 6769SOL    HW231767   0.278   0.344   6.157 -1.6005  0.6383  2.6921
 6770SOL     OW31768   2.823   3.713   9.102 -0.4063 -0.0742  0.3894
 6770SOL    HW131769   2.902   3.764   9.085  0.7441 -1.5977  1.1757
 6770SOL    HW231770   2.752   3.764   9.062 -1.7681 -2.3996 -0.1388
 6771SOL     OW31771   2.348   0.043   9.960 -0.4791 -0.8920  0.0863
 6771SOL    HW131772   2.412   4.712   9.916  0.2834 -1.0091  1.3224
 6771SOL    HW231773   2.403   0.121   9.968 -0.9190 -0.2915 -3.1052
 6772SOL     OW31774   0.235   4.190   2.404  0.1274 -0.5304  0.6376
 6772SOL    HW131775   0.310   4.167   2.460 -0.5102 -1.1991  1.2119
 6772SOL    HW231776   0.263   4.159   2.317 -2.4714  0.9227 -0.6993
 6773SOL     OW31777   0.301   0.883  11.777  0.2756  0.5090 -0.0225
 6773SOL    HW131778   0.284   0.973  11.805 -1.1672 -0.0511  0.9493
 6773SOL    HW231779   0.228   0.877  11.715 -1.4794 -1.8195  2.2335
 6774SOL     OW31780   4.134   2.179   4.775 -0.1994 -0.1094 -0.1288
 6774SOL    HW131781   4.174   2.155   4.691  0.5384 -0.7843  0.4144
 6774SOL    HW231782   4.043   2.201   4.753 -0.5615  1.0591  2.6161
 6775SOL     OW31783   1.015   0.583   8.492  0.0454  0.5120 -0.0116
 6775SOL    HW131784   0.976   0.668   8.513 -0.8805  0.2990 -0.8898
 6775SOL    HW231785   0.997   0.574   8.399 -0.1136 -1.4742  0.2235
 6776SOL     OW31786   2.874   1.735   8.177  0.1902 -0.3590 -0.6427
 6776SOL    HW131787   2.786   1.696   8.179 -0.5180  1.2275 -0.4539
 6776SOL    HW231788   2.929   1.665   8.141 -0.6470 -0.5130 -1.6478
 6777SOL     OW31789   1.991   1.006   6.531  0.1803 -0.3965 -0.7999
 6777SOL    HW131790   2.084   0.998   6.551 -0.1005  0.4675  0.8489
 6777SOL    HW231791   1.948   1.001   6.617  2.2907  1.9060  0.3695
 6778SOL     OW31792   0.895   4.136   0.154  0.2054 -0.2746 -0.0477
 6778SOL    HW131793   0.821   4.167   0.102 -0.7812 -0.3230  1.3176
 6778SOL    HW231794   0.849   4.111   0.235  1.2253 -0.9985  0.3118
 6779SOL     OW31795   2.716   3.149   8.841 -0.1558  0.0694 -0.5184
 6779SOL    HW131796   2.793   3.106   8.803  0.3282 -0.3700  0.9856
 6779SOL    HW231797   2.733   3.141   8.935 -0.7563  1.5943 -0.2817
 6780SOL     OW31798   1.038   0.510   8.223 -0.4237 -0.7713  0.2864
 6780SOL    HW131799   0.955   0.554   8.203 -0.1747  0.0042  0.9653
 6780SOL    HW231800   1.089   0.526   8.143 -1.1577  1.7214  0.3142
 6781SOL     OW31801   3.423   2.153  15.586  0.0664 -0.5884 -0.2039
 6781SOL    HW131802   3.409   2.245  15.609 -0.0934 -0.1302 -2.1512
 6781SOL    HW231803   3.369   2.108  15.652 -0.7188 -0.2409 -0.6074
 6782SOL     OW31804   1.764   1.667   2.724 -0.2444  0.3899  0.2462
 6782SOL    HW131805   1.672   1.693   2.719 -0.0533  0.9178 -0.6554
 6782SOL    HW231806   1.748   1.584   2.769  0.3898 -0.6082 -1.3882
 6783SOL     OW31807   0.058   3.636  16.889  0.0994 -0.6583 -0.1453
 6783SOL    HW131808   0.021   3.565  16.942 -0.9200  1.0364  1.4096
 6783SOL    HW231809   4.709   3.695  16.905  0.0742 -0.8089  0.3011
 6784SOL     OW31810   0.457   0.801   9.251 -0.3106 -0.0469 -0.4559
 6784SOL    HW131811   0.444   0.729   9.313 -0.0153  0.6247  0.3911
 6784SOL    HW231812   0.477   0.874   9.310 -0.6742  1.5540 -2.3231
 6785SOL     OW31813   3.552   0.112   9.314  0.5053 -0.5357 -0.0691
 6785SOL    HW131814   3.596   0.135   9.231 -0.0463 -2.8147 -1.0086
 6785SOL    HW231815   3.468   0.087   9.277 -0.0620  2.1725 -0.6214
 6786SOL     OW31816   0.996   0.435   3.967  0.5766 -0.2571  0.2155
 6786SOL    HW131817   1.006   0.447   3.873  1.2993  0.3403  0.3615
 6786SOL    HW231818   1.078   0.472   4.002  1.0599 -0.1671 -1.0242
 6787SOL     OW31819   0.243   4.084   2.740 -0.3025 -0.0340  0.0764
 6787SOL    HW131820   0.234   3.991   2.760  0.9520 -0.7379 -2.5734
 6787SOL    HW231821   0.162   4.103   2.691  0.5967  0.3431 -1.2779
 6788SOL     OW31822   1.792   4.355   0.922  0.1445  0.1266 -0.2479
 6788SOL    HW131823   1.723   4.316   0.870 -0.3159  1.3879 -0.5846
 6788SOL    HW231824   1.856   4.284   0.925 -0.8981 -0.7395  1.5753
 6789SOL     OW31825   2.161   0.441   6.844 -0.1239 -0.2273  0.6194
 6789SOL    HW131826   2.138   0.374   6.780 -3.2874  1.9617 -0.5154
 6789SOL    HW231827   2.255   0.424   6.847 -0.1099 -0.3083 -0.5328
 6790SOL     OW31828   4.157   1.727   5.509 -0.0092 -0.4048 -0.0233
 6790SOL    HW131829   4.226   1.747   5.445 -0.6124 -0.1718 -0.6014
 6790SOL    HW231830   4.093   1.793   5.484 -1.0651 -1.2832  0.3611
 6791SOL     OW31831   4.549   4.700   2.787  0.0719 -0.2631  0.0218
 6791SOL    HW131832   4.501   4.618   2.774 -1.0183  0.5215 -0.8398
 6791SOL    HW231833   4.638   4.664   2.781  0.4681  1.3178 -3.2579
 6792SOL     OW31834   1.152   4.049   5.462 -0.1517  0.3215 -0.0731
 6792SOL    HW131835   1.213   4.119   5.441 -0.2505  0.7045  0.9360
 6792SOL    HW231836   1.158   4.037   5.557 -4.1079  1.0025  0.2624
 6793SOL     OW31837   3.581   0.416   9.786 -0.3183 -0.0159  0.3318
 6793SOL    HW131838   3.649   0.462   9.834 -0.2192  0.9062 -0.6914
 6793SOL    HW231839   3.579   0.463   9.703 -0.2269 -2.2595 -0.9515
 6794SOL     OW31840   1.179   1.491  11.906  0.4348 -0.5517  0.2831
 6794SOL    HW131841   1.170   1.396  11.899  0.3501 -0.4630 -0.8430
 6794SOL    HW231842   1.214   1.497  11.995 -2.4145  0.5959  1.3390
 6795SOL     OW31843   1.865   0.097   2.618 -0.5714 -0.4635  0.0597
 6795SOL    HW131844   1.899   0.177   2.577  0.2573 -0.9146 -0.1495
 6795SOL    HW231845   1.933   0.034   2.591  1.7896  2.0870 -0.0165
 6796SOL     OW31846   4.075   2.528  14.120 -0.4131 -0.1663 -0.6078
 6796SOL    HW131847   4.087   2.511  14.027  1.2795 -1.1476 -0.2210
 6796SOL    HW231848   4.105   2.618  14.134  2.4302 -1.2885  0.6147
 6797SOL     OW31849   3.899   2.854   6.286 -0.1262  0.5994  0.4035
 6797SOL    HW131850   3.901   2.843   6.191  1.2399  2.1473  0.2437
 6797SOL    HW231851   3.992   2.868   6.303 -0.0369  1.3725 -0.7713
 6798SOL     OW31852   2.991   0.495   5.618  0.2856 -0.6874 -0.4386
 6798SOL    HW131853   2.962   0.530   5.702  2.0722  2.0684 -0.9736
 6798SOL    HW231854   2.968   0.570   5.563 -2.8370  0.3426  2.2723
 6799SOL     OW31855   3.186   1.650  15.157  0.7358  0.2493  0.5277
 6799SOL    HW131856   3.125   1.623  15.226  2.4752  0.2146  2.0559
 6799SOL    HW231857   3.135   1.714  15.107  0.4937 -0.5334 -0.2306
 6800SOL     OW31858   1.657   4.627   7.830  0.4444 -0.3512 -0.2490
 6800SOL    HW131859   1.654   4.654   7.739 -2.0805  2.0554  0.5525
 6800SOL    HW231860   1.570   4.591   7.847 -0.1008  1.4298  0.8167
 6801SOL     OW31861   2.480   3.500   7.034  0.0872 -0.4965  0.1339
 6801SOL    HW131862   2.398   3.532   6.996  0.5536 -1.3907 -1.6157
 6801SOL    HW231863   2.538   3.565   6.996 -0.2797 -0.0389  0.3472
 6802SOL     OW31864   2.775   3.673   7.149  0.4617  0.2616 -0.2808
 6802SOL    HW131865   2.791   3.764   7.173 -0.5858  0.1904  0.6367
 6802SOL    HW231866   2.714   3.676   7.075  1.1566  2.7122 -0.7798
 6803SOL     OW31867   2.025   1.723   3.367 -0.5369  0.3176 -0.1620
 6803SOL    HW131868   2.114   1.749   3.341 -0.0872 -1.8241 -0.7177
 6803SOL    HW231869   1.978   1.745   3.287 -1.4642 -0.4345  0.1839
 6804SOL     OW31870   3.820   3.920   0.239  0.1405 -0.1915  0.1642
 6804SOL    HW131871   3.898   3.907   0.186  2.1740  1.6668  2.6906
 6804SOL    HW231872   3.861   3.936   0.324  0.8304  0.7576 -0.3595
 6805SOL     OW31873   2.398   3.846   3.562 -0.0369  0.6737 -0.0155
 6805SOL    HW131874   2.434   3.814   3.479  2.9561 -0.8608  1.8642
 6805SOL    HW231875   2.472   3.886   3.607 -0.4532  0.1379  1.1645
 6806SOL     OW31876   1.298   4.558  14.241 -0.1786 -0.3065  0.0742
 6806SOL    HW131877   1.374   4.508  14.213  0.4269 -0.6250  2.3185
 6806SOL    HW231878   1.313   4.643  14.200 -4.5685  0.8296  0.8080
 6807SOL     OW31879   0.745   3.109   9.603  0.2017 -0.4084 -0.0557
 6807SOL    HW131880   0.816   3.163   9.639 -0.9480  0.0068  1.5799
 6807SOL    HW231881   0.692   3.092   9.681 -0.9198 -0.5141 -0.8418
 6808SOL     OW31882   3.296   4.554   8.251  0.1120  0.0453  0.4707
 6808SOL    HW131883   3.332   4.557   8.162 -1.1932 -0.9063 -0.0869
 6808SOL    HW231884   3.253   4.469   8.258 -0.2552  0.2477  0.6350
 6809SOL     OW31885   3.980   1.746   0.420 -0.3403 -0.5114  0.6541
 6809SOL    HW131886   3.997   1.833   0.457  1.1307  0.2044 -1.7198
 6809SOL    HW231887   4.001   1.678   0.484 -0.1442  0.0118  1.1380
 6810SOL     OW31888   4.021   4.213  14.001 -0.3723  0.5044  0.0758
 6810SOL    HW131889   4.091   4.168  13.955 -1.4760 -1.0386 -0.0666
 6810SOL    HW231890   4.053   4.198  14.090 -0.5433  1.6172  0.3329
 6811SOL     OW31891   2.813   1.778  14.812 -0.4648 -0.1035 -0.2638
 6811SOL    HW131892   2.813   1.728  14.731  0.5503 -0.4020 -0.0669
 6811SOL    HW231893   2.754   1.731  14.871 -0.1610  2.0285  1.7968
 6812SOL     OW31894   2.302   2.789   2.024 -0.1314 -0.3518  0.9845
 6812SOL    HW131895   2.365   2.720   2.044 -1.3586 -1.0140  2.5127
 6812SOL    HW231896   2.247   2.793   2.102 -1.7554 -0.3846 -0.1755
 6813SOL     OW31897   0.299   0.140  10.061  0.3728 -0.7080  0.0918
 6813SOL    HW131898   0.265   0.186  10.138  3.3025  0.2535  0.8079
 6813SOL    HW231899   0.224   0.084  10.041  0.0096 -0.4221  0.6699
 6814SOL     OW31900   0.829   4.411   2.651 -0.2748  0.5654  0.0304
 6814SOL    HW131901   0.871   4.325   2.649 -1.4378 -0.0889  3.7708
 6814SOL    HW231902   0.903   4.469   2.669 -0.1619 -0.4057  2.7550
 6815SOL     OW31903   4.598   0.343   1.711  0.4211 -0.1727 -0.2421
 6815SOL    HW131904   4.519   0.384   1.675 -1.0691 -0.1715  2.9996
 6815SOL    HW231905   4.611   0.275   1.645  1.4873  0.4814 -0.6927
 6816SOL     OW31906   4.379   2.624   9.232  0.5933  0.0556  0.2310
 6816SOL    HW131907   4.472   2.631   9.212  0.3109  0.0531 -1.0314
 6816SOL    HW231908   4.357   2.576   9.153  2.7147 -1.5818  0.6351
 6817SOL     OW31909   0.462   4.417   5.832 -0.2062 -0.5362  0.2263
 6817SOL    HW131910   0.555   4.396   5.838  0.0910 -0.1560 -2.8515
 6817SOL    HW231911   0.433   4.331   5.864 -2.4312  0.3796  0.6720
 6818SOL     OW31912   3.979   3.858   8.686  0.0728 -0.2316 -0.5867
 6818SOL    HW131913   3.929   3.865   8.767 -0.4055 -2.1075 -0.7228
 6818SOL    HW231914   3.944   3.918   8.621  1.0189  1.5033  0.5023
 6819SOL     OW31915   1.005   0.492   1.799 -1.0374  0.4338 -0.0506
 6819SOL    HW131916   0.969   0.419   1.749  0.6198 -0.0647 -0.5291
 6819SOL    HW231917   0.945   0.496   1.873 -1.5008 -0.6032 -0.3738
 6820SOL     OW31918   4.580   0.412   7.332 -0.2630  0.1095 -0.9455
 6820SOL    HW131919   4.646   0.377   7.392  0.5040  1.0614 -1.2371
 6820SOL    HW231920   4.497   0.369   7.349  1.0408 -2.0945 -0.1850
 6821SOL     OW31921   0.844   3.722   0.678 -0.1534 -0.9249 -0.4057
 6821SOL    HW131922   0.776   3.664   0.645 -0.1141 -0.0831 -1.9620
 6821SOL    HW231923   0.799   3.767   0.749 -0.1979 -1.1690 -0.2793
 6822SOL     OW31924   3.527   2.460  16.507 -0.0218 -0.5456 -0.0073
 6822SOL    HW131925   3.453   2.448  16.567  1.1023 -0.8704  1.3201
 6822SOL    HW231926   3.600   2.454  16.568  0.2088 -0.9583 -0.3216
 6823SOL     OW31927   2.889   2.120  17.134  0.0856 -0.6641  0.2737
 6823SOL    HW131928   2.864   2.199  17.183  3.1722  1.9342 -2.3014
 6823SOL    HW231929   2.881   2.142  17.041  0.8542 -1.3914  0.0412
 6824SOL     OW31930   1.264   1.121   9.001  0.6995 -0.2616 -0.0164
 6824SOL    HW131931   1.330   1.089   9.062 -0.8172  0.7803  2.1776
 6824SOL    HW231932   1.240   1.046   8.946 -3.0116  0.9420 -0.0839
 6825SOL     OW31933   0.856   4.534   6.360 -0.1291  0.1874  1.2723
 6825SOL    HW131934   0.939   4.520   6.406 -0.0166 -0.8136  0.7562
 6825SOL    HW231935   0.864   4.629   6.345 -1.9050  0.2110  0.4630
 6826SOL     OW31936   3.126   3.581   2.510 -0.1112  0.7255 -1.0129
 6826SOL    HW131937   3.145   3.625   2.593 -3.6470  2.0014 -0.8971
 6826SOL    HW231938   3.085   3.651   2.459 -1.8947  0.9998  0.8025
 6827SOL     OW31939   0.673   0.076   2.668  0.2011  0.7018 -0.1984
 6827SOL    HW131940   0.765   0.104   2.668  0.7053 -1.1157  4.1421
 6827SOL    HW231941   0.640   0.122   2.591 -3.2723 -2.5282 -0.6113
 6828SOL     OW31942   2.410   2.647   0.718  0.3430  0.7667 -0.6142
 6828SOL    HW131943   2.461   2.606   0.788  1.1027  1.0009 -1.0429
 6828SOL    HW231944   2.483   2.684   0.669 -1.1723  2.5376 -1.5310
 6829SOL     OW31945   0.681   0.156   7.037 -0.8038  0.0003  0.2233
 6829SOL    HW131946   0.708   0.064   7.032 -1.5391 -0.1033 -1.9538
 6829SOL    HW231947   0.620   0.155   7.111  0.6832  0.0237  1.4501
 6830SOL     OW31948   3.666   2.975   8.992 -0.0188 -0.4286 -0.0541
 6830SOL    HW131949   3.608   2.902   9.013 -2.1543  1.1874 -0.4339
 6830SOL    HW231950   3.609   3.051   9.005  0.0322 -0.0436 -2.1602
 6831SOL     OW31951   3.624   0.707   3.405  0.2215 -0.6240 -0.4462
 6831SOL    HW131952   3.692   0.755   3.357  1.6777 -2.2262  0.0482
 6831SOL    HW231953   3.572   0.671   3.333 -0.1480  0.4266 -0.7060
 6832SOL     OW31954   1.561   4.100   3.984 -0.3369  0.2674  0.0740
 6832SOL    HW131955   1.655   4.112   3.975 -0.3276  0.2112  0.0929
 6832SOL    HW231956   1.522   4.175   3.939 -0.7988  1.4636  2.4640
 6833SOL     OW31957   3.581   0.861  11.140  0.2437  0.0110 -0.4869
 6833SOL    HW131958   3.662   0.873  11.089  0.0319  0.0729 -0.8086
 6833SOL    HW231959   3.612   0.849  11.230  0.3751 -2.0399 -0.8014
 6834SOL     OW31960   2.385   0.387   9.951 -0.2666 -0.3449 -0.6769
 6834SOL    HW131961   2.302   0.371   9.905 -0.0817  0.2716 -1.2149
 6834SOL    HW231962   2.446   0.390   9.878 -0.0361  0.0044 -0.4694
 6835SOL     OW31963   2.869   4.601   2.735 -0.0613  0.1262  0.2772
 6835SOL    HW131964   2.865   4.678   2.792  0.9921 -0.0381  0.5682
 6835SOL    HW231965   2.950   4.566   2.773 -0.7178 -1.4651  0.2009
 6836SOL     OW31966   3.396   2.274  14.657 -0.5962  0.5530 -0.1035
 6836SOL    HW131967   3.449   2.197  14.636 -1.2767  0.5037 -1.5875
 6836SOL    HW231968   3.377   2.253  14.749  1.2883 -0.2102  0.1272
 6837SOL     OW31969   4.088   3.186   3.850  0.3554  0.2302 -0.5399
 6837SOL    HW131970   4.145   3.118   3.885 -0.8152 -0.8177 -0.6729
 6837SOL    HW231971   4.030   3.212   3.922  0.2123  1.9537 -1.2669
 6838SOL     OW31972   0.357   0.809  10.746  0.2155  0.3471  0.0904
 6838SOL    HW131973   0.330   0.742  10.683  0.4870 -1.1698  1.5659
 6838SOL    HW231974   0.272   0.852  10.751 -0.0189 -0.0537 -0.4478
 6839SOL     OW31975   3.839   2.322  14.955 -0.0958  0.2431  0.4116
 6839SOL    HW131976   3.763   2.264  14.950  1.2725 -1.5263  0.4563
 6839SOL    HW231977   3.809   2.391  14.895  1.9607 -0.9332 -1.9506
 6840SOL     OW31978   4.658   0.138  14.635 -0.3466  0.2737 -0.0706
 6840SOL    HW131979   4.669   0.058  14.584  0.0258 -0.2261  0.7817
 6840SOL    HW231980   4.609   0.195  14.575 -0.1394  0.5508  0.0248
 6841SOL     OW31981   0.579   2.637   7.438  0.0743 -0.5243 -0.2097
 6841SOL    HW131982   0.614   2.727   7.436 -3.2266  0.7761 -0.1657
 6841SOL    HW231983   0.653   2.595   7.482  1.7063  1.5647 -0.9340
 6842SOL     OW31984   4.221   3.671   7.789  0.0824 -0.4388 -0.3134
 6842SOL    HW131985   4.199   3.592   7.839 -1.1723 -0.3337 -0.6831
 6842SOL    HW231986   4.228   3.726   7.867 -0.2040  0.7033 -1.0967
 6843SOL     OW31987   3.833   3.217   2.790 -0.1074 -0.3626 -0.7453
 6843SOL    HW131988   3.752   3.226   2.840  1.0000  0.3949  0.9014
 6843SOL    HW231989   3.898   3.202   2.859  0.9482 -1.2217 -1.9230
 6844SOL     OW31990   0.484   4.442  13.332  0.1047  0.2312 -0.0492
 6844SOL    HW131991   0.416   4.484  13.383  0.2874  0.2600  0.1707
 6844SOL    HW231992   0.530   4.522  13.306  1.6163 -0.5627  0.1638
 6845SOL     OW31993   2.224   4.573   2.821  0.1657 -0.1436  0.9083
 6845SOL    HW131994   2.139   4.528   2.833 -1.1207  1.9424 -0.4396
 6845SOL    HW231995   2.260   4.529   2.745  1.7041  1.1084  0.9326
 6846SOL     OW31996   1.026   2.490  16.496  0.3479 -0.4504 -0.0522
 6846SOL    HW131997   0.962   2.421  16.479  0.8097 -0.5042 -1.5801
 6846SOL    HW231998   1.016   2.494  16.591 -1.8296 -0.9356 -0.2504
 6847SOL     OW31999   1.547   2.528   2.462 -0.1417  0.1427 -0.0913
 6847SOL    HW132000   1.589   2.594   2.407 -1.1174  2.0881  1.5103
 6847SOL    HW232001   1.453   2.549   2.459 -0.4289 -0.7968  2.0863
 6848SOL     OW32002   1.364   0.726   1.725 -0.3221  0.0418 -0.1932
 6848SOL    HW132003   1.387   0.760   1.812  0.4690 -0.8903 -0.0369
 6848SOL    HW232004   1.428   0.775   1.674  0.4019 -0.0691  0.6085
 6849SOL     OW32005   4.103   2.923  12.728  0.0242 -0.5351  0.3069
 6849SOL    HW132006   4.039   2.920  12.658  1.2784  0.1675 -0.8837
 6849SOL    HW232007   4.170   2.858  12.706  0.7552  0.3207 -0.0303
 6850SOL     OW32008   4.236   2.350   6.259 -0.3285 -0.0526  0.5048
 6850SOL    HW132009   4.253   2.345   6.165  0.1071  1.5397  0.5110
 6850SOL    HW232010   4.183   2.429   6.266 -1.1520 -0.4280 -1.5166
 6851SOL     OW32011   0.572   2.184  12.547  0.4000  0.1121  0.2004
 6851SOL    HW132012   0.632   2.123  12.591 -0.5529  0.4548  1.9684
 6851SOL    HW232013   0.554   2.248  12.615  1.0472  1.8492 -1.2541
 6852SOL     OW32014   1.187   0.777   5.339 -0.1973  0.0870 -0.1940
 6852SOL    HW132015   1.205   0.738   5.253 -0.0359  0.2977 -0.2562
 6852SOL    HW232016   1.107   0.826   5.316  0.8900  1.7840 -0.3948
 6853SOL     OW32017   1.302   1.522  10.568 -0.2046  0.5532 -0.4007
 6853SOL    HW132018   1.264   1.486  10.649  1.3948  1.6092  0.8154
 6853SOL    HW232019   1.248   1.475  10.504 -1.5162  1.1933  0.2304
 6854SOL     OW32020   0.420   4.525   4.158  0.0770 -0.2105  0.2180
 6854SOL    HW132021   0.422   4.452   4.221 -1.3692  1.2718  1.9525
 6854SOL    HW232022   0.365   4.485   4.091 -1.7597  2.8116 -0.0377
 6855SOL     OW32023   3.812   4.365   2.788 -0.2736  0.3602  0.7936
 6855SOL    HW132024   3.846   4.377   2.877  0.5114  1.6151  0.3351
 6855SOL    HW232025   3.862   4.426   2.733 -2.7973  0.6815 -1.1269
 6856SOL     OW32026   0.697   0.179   8.024  0.4100  0.6274  0.4780
 6856SOL    HW132027   0.672   0.263   8.061  0.1092  0.1243  1.4304
 6856SOL    HW232028   0.790   0.188   8.009  0.1916 -0.0102 -1.2322
 6857SOL     OW32029   3.366   0.170   3.834 -0.6237 -0.1128  0.0583
 6857SOL    HW132030   3.448   0.164   3.786 -1.9048  0.3838 -2.1982
 6857SOL    HW232031   3.364   0.265   3.847 -0.9995  0.0172 -0.9680
 6858SOL     OW32032   3.651   0.481   9.274  0.2862  0.8179 -0.1679
 6858SOL    HW132033   3.735   0.528   9.267  1.3531 -1.1454 -0.3636
 6858SOL    HW232034   3.633   0.488   9.180 -0.9048  1.8020  0.1314
 6859SOL     OW32035   1.286   3.052   4.459  0.0237  0.0578  0.8643
 6859SOL    HW132036   1.374   3.027   4.430  0.6868  1.4888  1.6711
 6859SOL    HW232037   1.247   3.065   4.372  0.2997 -0.0748  0.7209
 6860SOL     OW32038   0.178   2.686   4.412 -0.1889 -0.3984  0.5127
 6860SOL    HW132039   0.208   2.602   4.447  1.6173 -0.6567 -1.6689
 6860SOL    HW232040   0.128   2.642   4.343  1.3779 -0.9508 -0.2778
 6861SOL     OW32041   3.200   2.094   1.081 -0.5503  0.1351  0.9824
 6861SOL    HW132042   3.198   2.018   1.139  0.7276 -0.8821 -0.3009
 6861SOL    HW232043   3.108   2.111   1.060 -0.5019  0.0353  0.6921
 6862SOL     OW32044   2.632   2.168   3.038  0.1146  0.8584 -0.3474
 6862SOL    HW132045   2.662   2.077   3.041 -0.0283  0.7898 -1.0476
 6862SOL    HW232046   2.595   2.166   3.126 -2.1300  0.4344 -1.3043
 6863SOL     OW32047   3.597   2.795   6.328 -0.3955 -0.1520  0.4904
 6863SOL    HW132048   3.647   2.717   6.302 -1.0860 -0.6670  0.6923
 6863SOL    HW232049   3.647   2.865   6.286 -2.1763  0.6594 -0.2669
 6864SOL     OW32050   0.783   3.050  15.313  0.2467 -0.4731 -0.1793
 6864SOL    HW132051   0.773   3.000  15.232 -1.2045  0.9959 -0.8968
 6864SOL    HW232052   0.791   3.134  15.269 -0.2355  0.8209  2.2297
 6865SOL     OW32053   3.786   3.136  16.891  0.3890 -0.8610  0.7290
 6865SOL    HW132054   3.822   3.224  16.899 -0.3529 -0.6082  1.3008
 6865SOL    HW232055   3.828   3.101  16.812 -0.0537  1.6353 -0.6146
 6866SOL     OW32056   1.586   3.258  11.197  0.0671  0.3775  0.3170
 6866SOL    HW132057   1.649   3.187  11.178 -1.2870 -0.8202  0.3078
 6866SOL    HW232058   1.501   3.215  11.196  0.0728  0.3156  2.3354
 6867SOL     OW32059   3.567   3.680   7.773 -0.2775  0.3404  0.4005
 6867SOL    HW132060   3.636   3.667   7.838 -0.1970  2.4685  0.7612
 6867SOL    HW232061   3.575   3.773   7.752 -1.0017  0.0753 -1.0738
 6868SOL     OW32062   1.134   4.445   7.118 -0.0087 -0.3101 -0.2282
 6868SOL    HW132063   1.104   4.488   7.198  1.6500  0.5865 -0.0818
 6868SOL    HW232064   1.059   4.395   7.084  0.1627  0.0734 -1.1819
 6869SOL     OW32065   3.692   4.019   8.129  0.1727 -0.4938  0.0143
 6869SOL    HW132066   3.749   4.059   8.064  0.9891 -0.8059  0.5305
 6869SOL    HW232067   3.616   4.071   8.103  0.0415 -0.5097  0.3679
 6870SOL     OW32068   3.774   1.960   4.478  0.2795 -0.4048  0.4073
 6870SOL    HW132069   3.729   1.881   4.448  1.0977 -1.7218  2.6636
 6870SOL    HW232070   3.742   2.024   4.415  1.8806 -0.0701 -0.0667
 6871SOL     OW32071   0.180   0.188   0.562  0.4646 -0.3763 -0.2841
 6871SOL    HW132072   0.191   0.163   0.470 -1.4048 -1.7228 -0.1408
 6871SOL    HW232073   0.168   0.282   0.545 -1.7382 -0.3546  1.2463
 6872SOL     OW32074   0.606   3.927   4.848 -0.3445 -0.2539 -0.5798
 6872SOL    HW132075   0.652   3.975   4.917 -1.2435 -0.4867  0.1829
 6872SOL    HW232076   0.516   3.945   4.878  0.2781  0.3017  0.9814
 6873SOL     OW32077   1.824   2.158   9.147  0.5911 -0.6363  0.4251
 6873SOL    HW132078   1.914   2.136   9.121 -0.2338 -2.2573 -1.0102
 6873SOL    HW232079   1.797   2.097   9.215 -2.4499 -1.0266 -1.1791
 6874SOL     OW32080   3.340   2.323   1.115  0.0118  0.3150 -0.8296
 6874SOL    HW132081   3.325   2.341   1.022 -1.0678 -0.2984 -0.7786
 6874SOL    HW232082   3.309   2.232   1.114 -0.4012  0.4319  1.8880
 6875SOL     OW32083   0.947   0.726  15.334 -0.3142 -0.4053 -0.2176
 6875SOL    HW132084   0.926   0.717  15.427 -1.3208  1.0776 -0.3147
 6875SOL    HW232085   0.984   0.813  15.318 -2.5391  0.1628 -2.3002
 6876SOL     OW32086   0.461   0.543   7.959 -0.0372 -0.4832 -0.1729
 6876SOL    HW132087   0.534   0.503   8.007 -1.3922 -2.9635 -0.2147
 6876SOL    HW232088   0.505   0.579   7.882  1.0556  0.7497  1.0264
 6877SOL     OW32089   2.267   4.102   8.202 -0.0717  0.5260 -0.6372
 6877SOL    HW132090   2.318   4.129   8.126 -1.0032 -1.7047 -2.0624
 6877SOL    HW232091   2.219   4.180   8.228 -0.3343  0.1386  0.0597
 6878SOL     OW32092   0.383   3.438   6.066 -0.2856  0.1274  0.2134
 6878SOL    HW132093   0.477   3.448   6.052 -0.0645 -0.8937  0.9507
 6878SOL    HW232094   0.385   3.361   6.123  0.8196 -0.7829 -1.0670
 6879SOL     OW32095   4.533   3.828   8.795 -0.0466 -0.0831  0.2031
 6879SOL    HW132096   4.621   3.847   8.761 -0.0755  1.3491  0.9389
 6879SOL    HW232097   4.479   3.861   8.724  0.9847  1.9313  0.3555
 6880SOL     OW32098   3.541   2.270   8.423 -0.1660  0.6315 -0.1912
 6880SOL    HW132099   3.512   2.359   8.406 -1.4591  0.2036 -0.2503
 6880SOL    HW232100   3.465   2.233   8.379  1.4768  1.3466 -3.6712
 6881SOL     OW32101   2.050   2.181   6.102 -0.6012  0.6654 -0.3230
 6881SOL    HW132102   2.099   2.262   6.121 -0.0567  0.4116 -0.6426
 6881SOL    HW232103   2.088   2.118   6.163 -1.3486  0.8329  0.3128
 6882SOL     OW32104   1.532   4.499   4.482 -0.4362 -0.0205  0.9418
 6882SOL    HW132105   1.521   4.456   4.397 -1.8209  1.5439  0.3423
 6882SOL    HW232106   1.488   4.582   4.468 -0.2843 -0.1544 -0.3297
 6883SOL     OW32107   3.436   1.502   1.716  0.1162  0.2150  0.2176
 6883SOL    HW132108   3.483   1.525   1.796  0.4450  2.2346 -0.5496
 6883SOL    HW232109   3.364   1.451   1.753  0.3021 -0.8758 -0.9185
 6884SOL     OW32110   1.060   1.045   8.731 -0.0486  0.5141 -0.3123
 6884SOL    HW132111   1.040   1.123   8.679 -0.7630  0.0700 -0.7008
 6884SOL    HW232112   1.090   0.984   8.663  0.5189  1.7071 -1.1440
 6885SOL     OW32113   1.028   1.467   5.285 -0.0914  0.3158  0.1562
 6885SOL    HW132114   1.046   1.374   5.299  0.1396  0.3156 -0.1565
 6885SOL    HW232115   0.957   1.480   5.348 -1.3189 -0.6413 -1.0449
 6886SOL     OW32116   3.082   3.275  13.812 -0.2183  0.3334  0.3177
 6886SOL    HW132117   3.153   3.275  13.876  0.1641 -0.1971 -0.1043
 6886SOL    HW232118   3.102   3.349  13.754  0.3391 -0.6831 -0.7842
 6887SOL     OW32119   0.918   3.574   3.037  0.4274  0.2319  0.1543
 6887SOL    HW132120   0.844   3.544   3.090  0.2427  1.6824  0.7203
 6887SOL    HW232121   0.910   3.494   2.986 -1.0390  0.4497  0.0473
 6888SOL     OW32122   3.224   2.391  16.435 -0.0692  0.5666 -0.3828
 6888SOL    HW132123   3.258   2.477  16.457 -1.0797  1.2856 -1.6491
 6888SOL    HW232124   3.283   2.325  16.473  1.1775  1.6776 -0.4026
 6889SOL     OW32125   0.079   1.363  10.614  0.5068 -0.0634 -0.1131
 6889SOL    HW132126   0.110   1.284  10.569  0.0445 -0.7647  0.7823
 6889SOL    HW232127   0.011   1.323  10.669 -0.0771 -1.0417 -1.5563
 6890SOL     OW32128   1.364   4.281   2.976 -0.3849  0.6586 -0.8629
 6890SOL    HW132129   1.435   4.338   2.947 -0.0817 -0.7907 -2.9316
 6890SOL    HW232130   1.416   4.201   2.979 -0.3435  0.7031 -0.3704
 6891SOL     OW32131   4.710   3.094  10.193  0.4863 -0.2278 -0.6415
 6891SOL    HW132132   4.617   3.085  10.212  0.2175  0.9184 -1.4649
 6891SOL    HW232133   4.704   3.153  10.119 -0.6371  0.5229  0.0598
 6892SOL     OW32134   0.226   4.454   6.681 -0.5984  0.1889 -0.4624
 6892SOL    HW132135   0.238   4.513   6.756 -0.5833 -1.1806  0.6168
 6892SOL    HW232136   0.208   4.375   6.731 -1.5328  0.5361 -0.2520
 6893SOL     OW32137   3.351   2.234  16.873  0.0764  0.0398  0.4230
 6893SOL    HW132138   3.371   2.288  16.949  0.5174  1.1892 -0.5157
 6893SOL    HW232139   3.328   2.301  16.809  0.2681  0.8393  1.1943
 6894SOL     OW32140   1.357   1.931   8.564 -0.1769  0.0278 -0.2911
 6894SOL    HW132141   1.433   1.975   8.526  1.0950 -0.1343  2.0496
 6894SOL    HW232142   1.342   1.981   8.644 -1.3661  1.8252 -1.6352
 6895SOL     OW32143   0.196   1.407   1.385  0.0758 -0.4922 -0.0003
 6895SOL    HW132144   0.244   1.490   1.395 -1.5373  0.1926  2.0603
 6895SOL    HW232145   0.270   1.366   1.342  0.0915 -0.5411  0.0730
 6896SOL     OW32146   2.890   3.381   1.727  0.3451 -0.1886 -0.0058
 6896SOL    HW132147   2.869   3.432   1.805  1.9800 -1.5463  1.3164
 6896SOL    HW232148   2.976   3.417   1.703  0.3451  0.0874  0.4200
 6897SOL     OW32149   2.984   2.001   0.153 -0.1298  0.0460  0.0656
 6897SOL    HW132150   2.978   2.092   0.183 -0.1933  0.2921 -0.6790
 6897SOL    HW232151   3.060   1.969   0.201 -0.0458  1.9139  1.1742
 6898SOL     OW32152   2.398   1.599  17.496  0.4929  0.0833 -0.1185
 6898SOL    HW132153   2.470   1.597  17.433  0.6201  0.9491  0.0056
 6898SOL    HW232154   2.343   1.527  17.466  2.7640 -1.1556 -1.2604
 6899SOL     OW32155   1.758   3.088   1.548 -0.2405  0.2777  0.2146
 6899SOL    HW132156   1.731   2.997   1.562 -0.8802  0.1785 -1.6687
 6899SOL    HW232157   1.777   3.113   1.639 -1.6470  2.6849 -0.1478
 6900SOL     OW32158   3.290   2.978   2.562 -0.5000 -0.1794 -0.3750
 6900SOL    HW132159   3.196   2.984   2.576 -0.3731  1.0714 -0.0823
 6900SOL    HW232160   3.307   3.033   2.486  1.3803 -0.8722 -0.4750
 6901SOL     OW32161   3.077   4.105  10.118  0.3286  0.0025 -0.1771
 6901SOL    HW132162   3.065   4.176  10.181  1.3173 -1.4689  1.6768
 6901SOL    HW232163   3.054   4.031  10.175 -0.3953 -0.3354 -0.9064
 6902SOL     OW32164   3.429   3.589   5.275  0.0329  0.5355 -0.1511
 6902SOL    HW132165   3.393   3.554   5.356  0.2042  0.6060 -0.0443
 6902SOL    HW232166   3.433   3.514   5.216 -1.3383  0.7449 -0.4957
 6903SOL     OW32167   1.318   0.064   5.107 -0.2745  0.1491 -0.3154
 6903SOL    HW132168   1.260   0.125   5.063  1.2320  1.3682 -0.6303
 6903SOL    HW232169   1.381   0.039   5.039  0.5075 -1.0327  0.8268
 6904SOL     OW32170   4.292   4.293   7.771  0.4671 -0.1845 -0.0881
 6904SOL    HW132171   4.378   4.255   7.754  0.3683  0.1044 -1.2683
 6904SOL    HW232172   4.268   4.251   7.853  0.5109  2.5007  1.3245
 6905SOL     OW32173   2.621   2.141   5.478 -0.3970  0.0483  0.5921
 6905SOL    HW132174   2.526   2.138   5.494 -0.5915 -1.7976 -0.9952
 6905SOL    HW232175   2.636   2.052   5.446 -0.9136 -0.2106  1.0621
 6906SOL     OW32176   3.244   0.521   8.153 -0.3604 -0.5129  0.3534
 6906SOL    HW132177   3.314   0.461   8.127  0.2019  0.5462 -0.5817
 6906SOL    HW232178   3.166   0.467   8.165 -1.3950  0.7395 -0.6289
 6907SOL     OW32179   3.686   3.441   4.950 -0.2845  0.7209  0.0632
 6907SOL    HW132180   3.683   3.427   4.856 -0.9371 -1.0134  0.3637
 6907SOL    HW232181   3.780   3.458   4.960 -0.4641 -0.1987  3.6088
 6908SOL     OW32182   2.824   2.533  16.855 -0.7069 -0.3955 -0.5113
 6908SOL    HW132183   2.797   2.531  16.947 -1.8342  1.6411 -0.7879
 6908SOL    HW232184   2.903   2.478  16.855 -0.5529 -0.1763  0.8769
 6909SOL     OW32185   0.664   0.205   6.613 -0.0912  0.5514 -0.3110
 6909SOL    HW132186   0.636   0.115   6.630 -1.1779  0.4528 -2.6522
 6909SOL    HW232187   0.618   0.209   6.530  0.2345  1.0873 -0.4590
 6910SOL     OW32188   3.937   2.821   6.581 -0.3280 -0.0542  0.6043
 6910SOL    HW132189   3.992   2.743   6.588  0.5647  0.3870 -1.5388
 6910SOL    HW232190   3.907   2.806   6.491 -1.1357  0.5326  0.7782
 6911SOL     OW32191   2.383   1.050   4.646  0.3332  0.0510  0.0820
 6911SOL    HW132192   2.431   1.006   4.576  0.5390 -0.7478  0.7274
 6911SOL    HW232193   2.298   1.025   4.612 -0.6182  1.4491  1.4133
 6912SOL     OW32194   1.040   0.107  10.020  0.3333  0.1876  0.4929
 6912SOL    HW132195   1.119   0.112  10.074  1.1199 -0.1741 -0.6302
 6912SOL    HW232196   1.071   0.148   9.939  0.5313 -0.5569  0.1907
 6913SOL     OW32197   0.117   1.635  14.890 -0.4699  0.2079 -0.3699
 6913SOL    HW132198   0.166   1.693  14.832 -1.0025 -0.2279 -1.2552
 6913SOL    HW232199   0.174   1.558  14.895 -1.7684 -0.6919  0.5411
 6914SOL     OW32200   1.056   4.633   2.474 -0.2830 -0.5963 -0.4140
 6914SOL    HW132201   1.142   4.600   2.450 -0.2133 -1.3240  0.8411
 6914SOL    HW232202   1.064   4.635   2.569  0.7677 -2.1918 -0.4786
 6915SOL     OW32203   4.606   0.436  10.120 -0.3340  0.5619 -0.5008
 6915SOL    HW132204   4.553   0.376  10.067 -2.9077 -0.7720  3.5633
 6915SOL    HW232205   4.550   0.418  10.196 -2.0531 -0.4261 -1.9905
 6916SOL     OW32206   3.173   1.805  12.311 -0.0058 -0.4254  0.4789
 6916SOL    HW132207   3.229   1.871  12.353 -0.2095 -0.8712  1.4458
 6916SOL    HW232208   3.156   1.844  12.225 -1.0857 -0.7108  0.5606
 6917SOL     OW32209   0.177   0.759   9.678  0.4737 -0.2419  0.4583
 6917SOL    HW132210   0.193   0.675   9.636  0.5166  0.3955 -0.7915
 6917SOL    HW232211   0.093   0.735   9.718  0.8089 -0.0185  1.3011
 6918SOL     OW32212   4.121   1.397   9.963 -0.9874  0.1491 -0.0390
 6918SOL    HW132213   4.210   1.383   9.993 -0.8654 -0.5995 -0.7726
 6918SOL    HW232214   4.075   1.399  10.048  1.8547  0.0810  1.4909
 6919SOL     OW32215   2.751   4.272   5.059 -0.7695 -0.2797 -0.4843
 6919SOL    HW132216   2.787   4.337   5.119  2.5655 -1.1481 -1.4993
 6919SOL    HW232217   2.772   4.194   5.111 -0.1952 -0.8142 -1.4967
 6920SOL     OW32218   1.319   3.921  13.548 -0.0489 -0.5334  0.0235
 6920SOL    HW132219   1.276   3.974  13.615  2.6751 -0.0127  1.3562
 6920SOL    HW232220   1.305   3.831  13.577  4.0500 -1.3853 -0.7035
 6921SOL     OW32221   0.788   2.676   4.945 -0.7337 -0.4438  0.3730
 6921SOL    HW132222   0.758   2.729   5.019 -0.8987  2.8626 -2.0637
 6921SOL    HW232223   0.875   2.711   4.926 -0.7720  0.0580  1.0945
 6922SOL     OW32224   3.873   4.602   8.412  0.1837 -0.4639 -0.8567
 6922SOL    HW132225   3.874   4.556   8.328 -1.5328 -2.8036  0.3790
 6922SOL    HW232226   3.786   4.641   8.420  1.4951  2.3251 -0.3436
 6923SOL     OW32227   4.391   3.822   9.026 -0.8215 -0.0848  0.1063
 6923SOL    HW132228   4.440   3.828   8.944  1.1323 -1.6146  1.1613
 6923SOL    HW232229   4.312   3.869   8.999 -0.0895  1.7230  1.0960
 6924SOL     OW32230   2.641   1.941   6.172 -0.4239  0.2772  0.2693
 6924SOL    HW132231   2.596   1.976   6.096 -2.5147 -3.3572 -0.1505
 6924SOL    HW232232   2.627   2.003   6.244  0.9044  1.0810 -0.1679
 6925SOL     OW32233   0.626   1.535   9.755 -0.3081 -0.1149 -0.0357
 6925SOL    HW132234   0.552   1.516   9.698 -0.7738 -2.2555  1.2392
 6925SOL    HW232235   0.682   1.571   9.687  0.3203 -0.7890  0.1135
 6926SOL     OW32236   4.411   2.688   2.988  0.3801  0.1985 -0.2271
 6926SOL    HW132237   4.478   2.621   3.005  1.0300  0.1882 -2.8155
 6926SOL    HW232238   4.460   2.742   2.925  0.0663  1.8214  0.9244
 6927SOL     OW32239   0.311   1.247   7.704  0.0428 -0.3035 -0.2772
 6927SOL    HW132240   0.371   1.209   7.640  1.1504 -1.8541  1.6926
 6927SOL    HW232241   0.224   1.221   7.675  0.1526  0.5440 -1.3900
 6928SOL     OW32242   2.713   2.311   4.576  0.1737  0.1776  0.0492
 6928SOL    HW132243   2.777   2.260   4.526 -0.3376  1.0322 -1.4649
 6928SOL    HW232244   2.651   2.240   4.592  1.6002 -0.8171  1.2482
 6929SOL     OW32245   0.416   3.004  13.211  0.1849 -0.4545 -0.4338
 6929SOL    HW132246   0.490   3.052  13.246  0.1416  0.1534 -1.1695
 6929SOL    HW232247   0.386   3.077  13.156 -1.5586 -0.8907 -0.0776
 6930SOL     OW32248   0.013   1.420   6.633  0.3267  0.1781  0.0559
 6930SOL    HW132249   4.690   1.378   6.705 -1.0729 -0.0338 -0.9875
 6930SOL    HW232250   4.703   1.380   6.553 -1.8583  1.7751  0.2141
 6931SOL     OW32251   4.489   0.842  12.016 -0.0181 -0.6847 -0.3729
 6931SOL    HW132252   4.490   0.764  11.960  0.1305 -0.4942 -0.6338
 6931SOL    HW232253   4.579   0.869  12.029 -0.3647 -0.4709  1.5181
 6932SOL     OW32254   1.622   2.533   1.005  0.0864 -0.9549 -0.1261
 6932SOL    HW132255   1.670   2.518   0.923  0.2782 -2.1556  0.2029
 6932SOL    HW232256   1.599   2.625   1.001 -0.7636 -1.1867 -0.6958
 6933SOL     OW32257   0.742   0.813   5.129  0.3747  0.3633 -0.5005
 6933SOL    HW132258   0.791   0.868   5.068 -0.7697  0.3089 -1.4739
 6933SOL    HW232259   0.712   0.738   5.078  0.1061  1.0285 -1.3122
 6934SOL     OW32260   2.763   0.967   0.223  0.0458  0.0426 -0.0108
 6934SOL    HW132261   2.853   0.934   0.221 -0.9164 -2.5319 -1.4247
 6934SOL    HW232262   2.767   1.062   0.212  2.0758 -0.1186 -0.6891
 6935SOL     OW32263   4.326   3.822   5.183 -0.5851 -0.2050 -0.1212
 6935SOL    HW132264   4.362   3.872   5.257  1.4781  0.2074 -1.4047
 6935SOL    HW232265   4.400   3.782   5.138  2.0913  4.2637  0.2997
 6936SOL     OW32266   1.429   2.570   1.362  0.0950  0.5045  0.1264
 6936SOL    HW132267   1.466   2.502   1.306  0.0806  0.8505 -0.3039
 6936SOL    HW232268   1.415   2.515   1.439  0.0438 -0.5804 -0.6580
 6937SOL     OW32269   1.074   2.510   2.266  0.3322 -0.3340  0.1469
 6937SOL    HW132270   1.122   2.456   2.329 -0.0455 -0.1510  0.5953
 6937SOL    HW232271   0.992   2.461   2.256  1.5938 -1.8829 -2.3131
 6938SOL     OW32272   3.552   0.589   5.553  0.1619 -0.6586 -0.5024
 6938SOL    HW132273   3.559   0.682   5.531 -1.3990 -0.4769 -0.2563
 6938SOL    HW232274   3.463   0.572   5.521  0.3426 -0.3995 -1.1432
 6939SOL     OW32275   3.682   2.293   1.560  0.8110 -0.1162  0.2720
 6939SOL    HW132276   3.758   2.237   1.551  1.4040  0.5018  1.3620
 6939SOL    HW232277   3.726   2.371   1.526 -0.9638  1.2215  0.9564
 6940SOL     OW32278   0.701   3.422   0.448 -0.6803 -0.0510 -0.3737
 6940SOL    HW132279   0.653   3.357   0.396 -1.1574 -0.2171  0.2784
 6940SOL    HW232280   0.642   3.497   0.450 -0.4663  0.1309 -0.8229
 6941SOL     OW32281   1.732   2.944   3.907 -0.0168  0.7416 -0.2122
 6941SOL    HW132282   1.700   2.865   3.864  3.8696 -1.0713  0.2353
 6941SOL    HW232283   1.827   2.951   3.890  0.1460  0.4952  0.6248
 6942SOL     OW32284   0.358   0.127  14.453 -0.7495  0.1746  0.2460
 6942SOL    HW132285   0.440   0.110  14.500  0.0629 -1.9299 -1.9418
 6942SOL    HW232286   0.394   0.184  14.385  1.6036  0.0641  1.3851
 6943SOL     OW32287   3.644   1.192   3.177 -0.1748  0.4440  0.4409
 6943SOL    HW132288   3.608   1.164   3.093  3.4222  0.6551 -1.1891
 6943SOL    HW232289   3.593   1.269   3.199  0.6291  1.2477 -0.5586
 6944SOL     OW32290   0.830   0.008   5.453 -0.3723 -0.0739 -0.2046
 6944SOL    HW132291   0.781   4.724   5.535  0.7911 -1.1228  0.3683
 6944SOL    HW232292   0.889   0.079   5.477 -0.4030  0.4884 -1.8176
 6945SOL     OW32293   3.168   1.718  14.147 -0.1923 -0.2259  0.1597
 6945SOL    HW132294   3.218   1.656  14.093  0.3400 -0.9628  1.4989
 6945SOL    HW232295   3.215   1.798  14.125 -1.0385  0.2784  0.2053
 6946SOL     OW32296   4.311   0.169   4.075 -0.3451 -0.0175  0.0547
 6946SOL    HW132297   4.221   0.139   4.090  0.1170 -0.7533  1.3198
 6946SOL    HW232298   4.345   0.168   4.164 -1.7523 -0.0130  0.5924
 6947SOL     OW32299   4.550   4.025   0.310  0.1226  0.0169  0.5044
 6947SOL    HW132300   4.483   3.960   0.332 -2.6469  2.6627 -0.0319
 6947SOL    HW232301   4.533   4.068   0.394 -0.7506  0.2397  0.2230
 6948SOL     OW32302   1.749   1.209   0.828 -0.5545  0.4726 -0.2194
 6948SOL    HW132303   1.743   1.203   0.923  1.3358 -2.6926 -0.2976
 6948SOL    HW232304   1.697   1.289   0.819  0.2540  0.7994 -1.9495
 6949SOL     OW32305   4.189   1.243   5.995  0.0488  0.2459  0.2734
 6949SOL    HW132306   4.132   1.286   5.931  1.2826  0.9319 -0.3802
 6949SOL    HW232307   4.268   1.232   5.942 -0.4421  1.5808 -0.7473
 6950SOL     OW32308   4.070   0.179   2.424  0.0705 -0.2703 -0.1322
 6950SOL    HW132309   4.162   0.180   2.451 -0.2282  0.7435  0.8659
 6950SOL    HW232310   4.073   0.173   2.329 -2.2050  0.1762 -0.2370
 6951SOL     OW32311   1.615   3.709   8.493 -0.1774  0.3470  0.1098
 6951SOL    HW132312   1.649   3.622   8.474  2.5516  1.0685  1.8544
 6951SOL    HW232313   1.589   3.694   8.584 -2.4414  1.9649 -0.2519
 6952SOL     OW32314   2.708   2.809   9.462  0.1137  0.3852  0.0309
 6952SOL    HW132315   2.705   2.741   9.396 -0.4140  0.6743 -0.2376
 6952SOL    HW232316   2.800   2.811   9.490  0.2998 -0.2166 -0.5458
 6953SOL     OW32317   0.866   1.933  15.275 -0.5488 -0.2674  0.1413
 6953SOL    HW132318   0.876   1.945  15.369 -0.1210  2.6245 -0.2689
 6953SOL    HW232319   0.956   1.961  15.263 -1.0035  0.7745 -0.9333
 6954SOL     OW32320   1.964   1.354   2.951 -0.0888  0.2522  0.2029
 6954SOL    HW132321   1.936   1.282   3.006 -0.0474 -1.2152 -1.6849
 6954SOL    HW232322   1.991   1.307   2.872  1.0789  1.2676 -0.0075
 6955SOL     OW32323   2.408   3.805  11.512 -0.0006 -0.0147  0.3323
 6955SOL    HW132324   2.330   3.860  11.514 -0.0900 -0.1543  0.7868
 6955SOL    HW232325   2.382   3.730  11.460  0.7485 -1.5693  2.1729
 6956SOL     OW32326   1.183   0.640   8.948  0.2869  0.6107  0.1352
 6956SOL    HW132327   1.184   0.545   8.937  0.0467  0.5236  0.8722
 6956SOL    HW232328   1.204   0.657   9.040  0.6768 -1.0723  0.3599
 6957SOL     OW32329   3.891   3.973   4.902 -0.4262  0.2340 -0.5060
 6957SOL    HW132330   3.963   3.988   4.841  0.7132  0.0894  0.8199
 6957SOL    HW232331   3.819   4.006   4.848  1.2883  1.3981 -2.0778
 6958SOL     OW32332   2.045   3.349   2.804  0.0325  0.6225  1.2102
 6958SOL    HW132333   2.091   3.265   2.807 -3.1560 -1.1555  1.1431
 6958SOL    HW232334   2.029   3.364   2.711  0.0762 -1.5725  0.8426
 6959SOL     OW32335   2.761   1.719  13.927 -0.3991  0.0534 -0.1186
 6959SOL    HW132336   2.673   1.720  13.965 -1.1769 -1.6224 -1.8704
 6959SOL    HW232337   2.815   1.692  14.001 -0.3373  0.2705 -0.0865
 6960SOL     OW32338   0.804   3.576   6.547 -0.3946  0.1616 -0.2513
 6960SOL    HW132339   0.739   3.575   6.476  0.0519  0.4385 -0.6662
 6960SOL    HW232340   0.750   3.597   6.623 -0.5239  1.9705 -0.8426
 6961SOL     OW32341   0.599   4.653   6.671 -0.3513  0.3071  0.1312
 6961SOL    HW132342   0.576   4.565   6.640  1.9293 -0.1455 -0.3454
 6961SOL    HW232343   0.556   4.659   6.756  0.3923  1.4174  0.4313
 6962SOL     OW32344   1.141   3.337   5.527  0.2906 -0.3068  0.0496
 6962SOL    HW132345   1.064   3.285   5.547 -2.0840  3.1429 -0.0253
 6962SOL    HW232346   1.127   3.417   5.578 -2.2859  1.0665 -2.8250
 6963SOL     OW32347   3.563   1.672   8.349 -0.3257  0.5933  0.8799
 6963SOL    HW132348   3.476   1.650   8.315 -0.5193  0.8118  1.2322
 6963SOL    HW232349   3.622   1.642   8.279  1.7494  4.5243  0.9715
 6964SOL     OW32350   1.629   1.799   5.264 -0.3289  0.0075  0.1719
 6964SOL    HW132351   1.718   1.797   5.299 -0.8865 -1.2178  1.5106
 6964SOL    HW232352   1.589   1.770   5.346 -0.8824 -0.2450 -0.1897
 6965SOL     OW32353   0.461   4.369  10.176  0.3717 -0.7705  0.4958
 6965SOL    HW132354   0.529   4.412  10.124 -0.3736  1.3272  1.2825
 6965SOL    HW232355   0.453   4.286  10.128  0.4607 -0.2800 -0.3685
 6966SOL     OW32356   4.499   3.421   1.930  0.3553  0.5774 -0.1344
 6966SOL    HW132357   4.455   3.497   1.890  0.6409  0.0363 -1.4708
 6966SOL    HW232358   4.571   3.466   1.974  2.1761 -2.9177  0.3827
 6967SOL     OW32359   3.730   1.895   8.746  0.1986  0.2760 -0.0119
 6967SOL    HW132360   3.698   1.932   8.664  0.8175 -1.3348 -0.9985
 6967SOL    HW232361   3.824   1.891   8.731  0.3392 -0.1504  0.9495
 6968SOL     OW32362   2.086   0.116   2.173  0.6651  0.2554  0.5828
 6968SOL    HW132363   2.122   0.160   2.250  1.0905  1.9251 -0.5778
 6968SOL    HW232364   2.021   0.060   2.215  1.9807 -0.5655  1.5278
 6969SOL     OW32365   4.656   4.643   8.444  0.4634 -0.2768 -0.1362
 6969SOL    HW132366   4.578   4.649   8.499 -0.1594 -0.1630 -1.0269
 6969SOL    HW232367   4.625   4.689   8.366  0.5812 -0.8133 -0.4974
 6970SOL     OW32368   4.187   0.861   2.490  0.0335 -0.2958  0.4009
 6970SOL    HW132369   4.219   0.820   2.409  0.3835 -1.6744  1.2511
 6970SOL    HW232370   4.098   0.883   2.463  0.4412 -1.2801 -1.7884
 6971SOL     OW32371   2.088   0.036   9.505  0.1511 -0.0552  0.2865
 6971SOL    HW132372   1.996   0.060   9.506  0.2475  0.3104  0.5402
 6971SOL    HW232373   2.096   0.001   9.594 -0.3206  2.4008  1.2980
 6972SOL     OW32374   4.586   2.538  16.372 -0.2516 -0.7011  0.6873
 6972SOL    HW132375   4.507   2.583  16.401  0.6040  1.8838 -0.9627
 6972SOL    HW232376   4.557   2.484  16.298 -0.1349  2.4258 -1.6477
 6973SOL     OW32377   2.343   1.638  15.285  0.0901  0.0435  0.1115
 6973SOL    HW132378   2.328   1.720  15.237 -1.6414 -1.0775 -1.2679
 6973SOL    HW232379   2.381   1.591  15.210  0.3937  1.1372 -0.4346
 6974SOL     OW32380   1.339   1.981   2.232 -0.1162 -0.1182 -0.4990
 6974SOL    HW132381   1.258   1.936   2.260 -0.7161 -0.4406 -2.7669
 6974SOL    HW232382   1.363   2.023   2.315 -0.6484  1.5848 -1.2271
 6975SOL     OW32383   1.223   4.609   5.264 -0.1706 -0.0263 -0.7736
 6975SOL    HW132384   1.266   4.684   5.223 -0.9561  0.8242 -0.0675
 6975SOL    HW232385   1.133   4.610   5.230 -0.3890 -0.7977 -0.2282
 6976SOL     OW32386   1.688   0.271   4.547  0.2197 -0.1768  0.0452
 6976SOL    HW132387   1.668   0.232   4.462  0.8674  2.5368 -1.3412
 6976SOL    HW232388   1.617   0.331   4.568  1.0499  0.1747  1.8996
 6977SOL     OW32389   0.725   3.763   4.287  0.2780  0.3824 -0.2840
 6977SOL    HW132390   0.681   3.684   4.256  1.9705 -0.7723  0.2016
 6977SOL    HW232391   0.678   3.782   4.368  1.2157 -1.6605  0.7400
 6978SOL     OW32392   3.123   0.131   6.744  0.4317 -0.0796  0.2741
 6978SOL    HW132393   3.182   0.198   6.780  0.4651  0.1740 -0.2516
 6978SOL    HW232394   3.100   0.173   6.661 -1.2068  1.3071  1.4498
 6979SOL     OW32395   3.627   0.954   7.495 -0.0015  0.6396 -0.8552
 6979SOL    HW132396   3.692   0.890   7.524 -0.2583  1.1233  0.8055
 6979SOL    HW232397   3.574   0.961   7.574  0.2173 -0.7439 -0.5834
 6980SOL     OW32398   4.633   2.503   5.363 -0.4167  0.6948 -0.3507
 6980SOL    HW132399   4.614   2.596   5.373 -2.6608  0.0450  1.4860
 6980SOL    HW232400   4.546   2.477   5.331  0.1480 -0.4670 -0.9556
 6981SOL     OW32401   4.663   3.900   5.846  0.2004  0.0277  0.4748
 6981SOL    HW132402   4.647   3.911   5.940 -1.3485  0.3053  0.1641
 6981SOL    HW232403   4.694   3.988   5.823  0.2716 -0.2922 -0.6636
 6982SOL     OW32404   3.707   2.605   8.230 -0.4859  0.1260  0.0464
 6982SOL    HW132405   3.781   2.544   8.237  0.6399  1.5916  0.8641
 6982SOL    HW232406   3.761   2.683   8.242  0.5302 -0.2352 -2.0454
 6983SOL     OW32407   2.793   1.511  14.729 -0.4151 -0.2132 -0.1529
 6983SOL    HW132408   2.842   1.496  14.810  0.4814 -0.0471 -0.6601
 6983SOL    HW232409   2.705   1.503  14.767  0.4858 -1.5457  1.6554
 6984SOL     OW32410   3.313   4.008   7.559  0.0121  0.3729  0.5263
 6984SOL    HW132411   3.342   3.923   7.591 -0.0830  0.6887  1.4351
 6984SOL    HW232412   3.230   4.030   7.602  0.8193  0.7069  1.8764
 6985SOL     OW32413   3.337   2.041   0.850  0.6907  0.3549 -0.3627
 6985SOL    HW132414   3.287   1.966   0.819  0.2503  0.7963 -0.7213
 6985SOL    HW232415   3.279   2.081   0.915 -0.7812 -1.9474 -0.2613
 6986SOL     OW32416   0.025   2.925   6.399  0.1381 -0.4032 -0.2907
 6986SOL    HW132417   4.687   2.891   6.336 -0.4991 -1.0658  0.6944
 6986SOL    HW232418   4.701   2.996   6.440 -1.1175 -0.0315 -2.4355
 6987SOL     OW32419   4.331   1.933   1.852  0.4246 -0.3816  0.1862
 6987SOL    HW132420   4.421   1.963   1.838  0.0239  1.3473  1.2353
 6987SOL    HW232421   4.347   1.841   1.831  0.8084  0.3410 -2.5667
 6988SOL     OW32422   3.024   2.343   8.832 -0.2200  0.5530 -0.3895
 6988SOL    HW132423   3.023   2.249   8.813  1.1846  0.8770 -2.0915
 6988SOL    HW232424   3.044   2.353   8.925 -0.0893  0.1313 -0.3718
 6989SOL     OW32425   3.294   0.582   1.960 -0.0540 -0.5326 -0.0959
 6989SOL    HW132426   3.331   0.542   2.039 -1.0962  0.8850  1.1212
 6989SOL    HW232427   3.317   0.675   1.969 -1.2380 -0.5005  2.7867
 6990SOL     OW32428   4.517   3.246   5.165 -0.4089  0.0616 -0.4317
 6990SOL    HW132429   4.474   3.162   5.147  0.0856 -0.0625 -1.0480
 6990SOL    HW232430   4.520   3.230   5.259  0.3606 -1.3376 -0.6840
 6991SOL     OW32431   0.160   2.688   6.499 -0.2755  0.2066  0.7524
 6991SOL    HW132432   0.097   2.749   6.460 -1.7285 -1.8327 -0.0426
 6991SOL    HW232433   0.120   2.700   6.585 -0.5391  1.4366  0.4571
 6992SOL     OW32434   1.094   2.585   5.124 -0.1679  0.5302  0.4031
 6992SOL    HW132435   1.105   2.547   5.036  0.8230  0.5284  0.5287
 6992SOL    HW232436   1.002   2.590   5.149 -0.1052 -1.5688  1.0739
 6993SOL     OW32437   1.146   3.439  15.061 -0.6286 -1.0541  0.1972
 6993SOL    HW132438   1.129   3.405  14.973  2.4889 -0.3805 -0.6765
 6993SOL    HW232439   1.089   3.385  15.117  0.4183 -1.6731  0.6696
 6994SOL     OW32440   2.914   3.559   7.954  0.2231 -0.3318 -0.8186
 6994SOL    HW132441   2.903   3.512   8.036 -0.1847 -2.9339 -2.3629
 6994SOL    HW232442   2.901   3.649   7.984  1.2691  0.2673 -2.1438
 6995SOL     OW32443   2.516   1.584   5.801 -0.4596  0.0768  0.4128
 6995SOL    HW132444   2.599   1.541   5.782  0.8689  2.6816  0.3346
 6995SOL    HW232445   2.485   1.523   5.868 -1.4153 -1.6097 -1.5390
 6996SOL     OW32446   4.535   4.249   5.318 -0.5323 -0.0232 -0.1573
 6996SOL    HW132447   4.591   4.291   5.384  0.8958  3.2739 -3.5424
 6996SOL    HW232448   4.491   4.192   5.382  0.0992  0.8288  1.0275
 6997SOL     OW32449   2.751   3.664   3.534  0.0476  0.2246 -0.1868
 6997SOL    HW132450   2.711   3.708   3.609 -1.2570 -0.0427 -0.7269
 6997SOL    HW232451   2.729   3.571   3.535  2.5208 -0.3668  0.5591
 6998SOL     OW32452   4.656   1.851  12.512  0.7156 -0.2098 -0.2089
 6998SOL    HW132453   4.670   1.778  12.572 -1.0353 -1.2766 -1.1211
 6998SOL    HW232454   4.651   1.926  12.573 -0.3547  0.1721 -0.7755
 6999SOL     OW32455   1.134   2.993  11.908  0.2463 -0.4994  1.1062
 6999SOL    HW132456   1.196   2.970  11.977  1.3936 -1.0702 -0.1181
 6999SOL    HW232457   1.049   2.970  11.945  0.3030 -0.2967  1.3646
 7000SOL     OW32458   0.630   3.498   6.369  0.0380  0.1244  0.1598
 7000SOL    HW132459   0.625   3.417   6.317 -0.6764 -0.1253  0.6215
 7000SOL    HW232460   0.552   3.546   6.341 -0.6488 -1.5537 -0.8459
 7001SOL     OW32461   0.727   1.067   3.844  0.1149  0.0553 -0.1190
 7001SOL    HW132462   0.670   1.006   3.798  3.1094 -0.0988 -3.5915
 7001SOL    HW232463   0.760   1.113   3.767 -1.4807  0.2532 -0.6761
 7002SOL     OW32464   1.255   2.975   2.011  0.4211  0.2965  0.0216
 7002SOL    HW132465   1.336   3.022   1.993  0.3828  0.6082  0.6408
 7002SOL    HW232466   1.211   2.986   1.927 -1.4982 -0.3245  0.9489
 7003SOL     OW32467   1.664   1.776   3.223  0.0258  0.0642  0.3682
 7003SOL    HW132468   1.716   1.699   3.247 -0.0724 -1.1876 -3.3836
 7003SOL    HW232469   1.739   1.824   3.188  0.9304 -1.3679  0.3505
 7004SOL     OW32470   3.686   2.903  11.172  0.2721  0.1863 -0.7652
 7004SOL    HW132471   3.626   2.852  11.118  0.0621  1.4363 -1.6999
 7004SOL    HW232472   3.759   2.917  11.112  2.6373  2.3377  2.5496
 7005SOL     OW32473   3.109   0.394   0.932 -0.0374  0.3325  0.3051
 7005SOL    HW132474   3.086   0.338   0.857 -0.4346 -1.3282  1.6686
 7005SOL    HW232475   3.185   0.351   0.970  1.0197  1.5055 -0.4487
 7006SOL     OW32476   2.168   4.045   1.195 -0.0060 -0.1710 -0.2808
 7006SOL    HW132477   2.144   3.967   1.144  1.2261 -0.6923 -0.0723
 7006SOL    HW232478   2.086   4.090   1.215  0.1431 -0.1477  0.2731
 7007SOL     OW32479   0.520   4.349   8.861 -0.1373  0.5328 -0.2376
 7007SOL    HW132480   0.563   4.278   8.909  0.6205  1.0430 -0.1738
 7007SOL    HW232481   0.433   4.328   8.897 -0.1005 -0.8245 -0.9442
 7008SOL     OW32482   0.656   1.643  16.435 -0.3977 -0.3293  0.4336
 7008SOL    HW132483   0.720   1.578  16.405  0.1732 -0.1760  1.3328
 7008SOL    HW232484   0.590   1.588  16.478  0.3899 -0.0505  1.9861
 7009SOL     OW32485   1.904   0.473   5.018 -0.4632  0.4512 -0.2725
 7009SOL    HW132486   1.818   0.486   4.978 -1.6248 -1.6915  1.5036
 7009SOL    HW232487   1.903   0.548   5.077  0.3348 -1.4777  2.2220
 7010SOL     OW32488   0.309   1.513   7.040  0.5494 -0.0360  0.1889
 7010SOL    HW132489   0.240   1.576   7.063 -0.3985 -1.0165  0.0429
 7010SOL    HW232490   0.383   1.568   7.017  1.6882 -1.2697  0.9569
 7011SOL     OW32491   2.647   0.755   5.861 -0.1626 -0.1750 -0.5155
 7011SOL    HW132492   2.615   0.846   5.870  0.1522 -0.2197  0.9908
 7011SOL    HW232493   2.561   0.712   5.866  1.0274 -2.5739 -1.0827
 7012SOL     OW32494   1.618   0.123   8.011  0.2286  0.2657  0.0905
 7012SOL    HW132495   1.655   0.043   7.974  1.6550  0.6499  0.6809
 7012SOL    HW232496   1.636   0.116   8.104 -0.4662  0.7788  0.2644
 7013SOL     OW32497   1.699   2.609   8.720 -0.4699  0.0120  0.1004
 7013SOL    HW132498   1.762   2.588   8.651 -1.1014 -2.1823  0.1832
 7013SOL    HW232499   1.727   2.556   8.794  1.2802  0.7295 -0.0576
 7014SOL     OW32500   1.881   1.070  11.772  0.4473 -0.0229  0.1087
 7014SOL    HW132501   1.902   0.979  11.754  0.4600  0.4564 -2.2681
 7014SOL    HW232502   1.933   1.108  11.701 -1.4501  0.9215 -0.7912
 7015SOL     OW32503   0.072   3.726   3.197  0.6384 -0.5645 -0.2167
 7015SOL    HW132504   0.004   3.659   3.186 -0.1283  0.2801 -0.6180
 7015SOL    HW232505   0.016   3.803   3.201 -1.7369 -2.2422 -0.9173
 7016SOL     OW32506   3.542   0.133  12.646 -0.5729 -0.2074 -0.1406
 7016SOL    HW132507   3.630   0.170  12.639  0.8016 -2.8940  3.4500
 7016SOL    HW232508   3.509   0.162  12.560  1.9198  1.4869 -0.5047
 7017SOL     OW32509   0.018   1.929   1.934  0.3673  0.1408  0.6905
 7017SOL    HW132510   0.066   1.873   1.994  0.2022 -2.1316 -1.2828
 7017SOL    HW232511   0.030   1.879   1.853 -0.8209  0.4087  0.3491
 7018SOL     OW32512   1.717   1.256   1.346 -0.1635  0.3782  0.2655
 7018SOL    HW132513   1.708   1.323   1.413 -0.0980  1.0835 -0.4365
 7018SOL    HW232514   1.779   1.295   1.284 -0.6018  1.2258  0.3668
 7019SOL     OW32515   1.039   2.163  17.064 -0.4734 -0.4721  0.7450
 7019SOL    HW132516   1.047   2.068  17.065  0.0302 -0.4299  0.6444
 7019SOL    HW232517   1.089   2.188  16.986 -0.4882 -3.5488 -0.2585
 7020SOL     OW32518   0.730   2.185   7.390 -0.0676 -0.1595  0.4908
 7020SOL    HW132519   0.749   2.091   7.386 -2.8693 -0.7317  0.7254
 7020SOL    HW232520   0.634   2.189   7.383  0.1634  0.2285 -2.2938
 7021SOL     OW32521   3.853   0.163   1.869  0.3174  0.2673 -0.2203
 7021SOL    HW132522   3.814   0.096   1.812  1.3836  1.5602 -2.4815
 7021SOL    HW232523   3.783   0.208   1.915  0.7377 -3.2177  3.8947
 7022SOL     OW32524   4.292   0.513   2.652 -0.3547 -0.3857  1.1818
 7022SOL    HW132525   4.296   0.558   2.568  0.8251 -0.9859  0.9228
 7022SOL    HW232526   4.386   0.503   2.665 -0.6722 -1.9800  2.1961
 7023SOL     OW32527   3.782   0.654  12.294 -0.3916  0.3643 -0.3406
 7023SOL    HW132528   3.864   0.660  12.245  0.9458 -2.5660  1.5485
 7023SOL    HW232529   3.735   0.588  12.244 -0.9071  0.7013 -0.3054
 7024SOL     OW32530   4.300   2.407   0.117 -0.1292 -0.1787  0.5080
 7024SOL    HW132531   4.265   2.417   0.028 -0.3696 -0.7988  0.5283
 7024SOL    HW232532   4.386   2.366   0.106  0.3555  1.6728 -2.6025
 7025SOL     OW32533   2.154   3.316  15.019  0.1010  0.2508  0.1868
 7025SOL    HW132534   2.194   3.234  14.989  0.7058  0.2683  0.9490
 7025SOL    HW232535   2.102   3.338  14.941 -1.3482 -2.5860  0.3664
 7026SOL     OW32536   2.316   3.486  12.546  0.4502 -0.1967 -0.1194
 7026SOL    HW132537   2.322   3.455  12.456 -0.7216 -2.9344  0.7416
 7026SOL    HW232538   2.377   3.427  12.591 -0.3472 -0.9398 -0.0044
 7027SOL     OW32539   2.264   2.993  14.196 -0.1480 -0.1545 -0.2166
 7027SOL    HW132540   2.278   3.001  14.102  1.1537  2.2745  0.1756
 7027SOL    HW232541   2.176   2.957  14.195 -0.1075 -0.2400 -0.5991
 7028SOL     OW32542   3.926   1.210   3.274  0.5828 -0.1364 -0.1707
 7028SOL    HW132543   3.890   1.161   3.349  1.3395  0.6939  0.7397
 7028SOL    HW232544   3.845   1.211   3.223  0.3151 -1.5040  0.2043
 7029SOL     OW32545   2.930   1.617  14.131  0.0802 -0.3832 -0.3484
 7029SOL    HW132546   2.929   1.603  14.036 -0.0251  0.6213 -0.4906
 7029SOL    HW232547   2.994   1.688  14.135 -1.6187  1.0558  1.2517
 7030SOL     OW32548   1.860   4.558   7.385  0.0241  0.1832  0.0377
 7030SOL    HW132549   1.823   4.537   7.299  0.6524  1.6688 -0.5906
 7030SOL    HW232550   1.873   4.472   7.424 -2.9259  0.9934  2.8276
 7031SOL     OW32551   4.362   3.576   8.278 -0.2139 -0.4322  0.2457
 7031SOL    HW132552   4.419   3.653   8.282 -2.0968  0.9332  0.6705
 7031SOL    HW232553   4.281   3.612   8.241  0.0854 -0.8970 -0.8412
 7032SOL     OW32554   0.275   2.034   3.229  0.0659 -0.0635 -0.3921
 7032SOL    HW132555   0.213   2.095   3.267  1.1454  0.5692  0.3373
 7032SOL    HW232556   0.299   1.981   3.305 -1.0666 -0.0566 -0.0351
 7033SOL     OW32557   4.718   4.573  14.876  0.3586 -0.1959  0.1372
 7033SOL    HW132558   0.000   4.663  14.907  2.7089 -0.4947  0.5251
 7033SOL    HW232559   0.045   4.583  14.795 -0.4575  0.0254 -0.3506
 7034SOL     OW32560   2.394   2.507   5.238 -0.6991  0.0720  0.0641
 7034SOL    HW132561   2.454   2.537   5.170 -2.1340 -0.6574 -1.5622
 7034SOL    HW232562   2.315   2.558   5.219  0.3273  1.2819 -0.9205
 7035SOL     OW32563   0.874   0.732  17.626  0.0986 -0.1465  0.4461
 7035SOL    HW132564   0.842   0.801  17.569  0.5827  0.3629  0.7908
 7035SOL    HW232565   0.933   0.789  17.676 -2.8420  1.9533  1.4999
 7036SOL     OW32566   3.627   0.451  13.758  0.2932  0.4575 -0.8446
 7036SOL    HW132567   3.545   0.499  13.772 -0.8827 -1.0078 -2.7515
 7036SOL    HW232568   3.687   0.481  13.827  0.4865 -1.0884 -0.3514
 7037SOL     OW32569   1.406   1.554   5.321 -0.6422 -0.0175 -0.1658
 7037SOL    HW132570   1.416   1.568   5.415 -0.2054  0.9528 -0.3589
 7037SOL    HW232571   1.330   1.609   5.303 -2.3086 -1.5885  2.0059
 7038SOL     OW32572   3.206   3.230   5.998  0.0467 -0.9319 -0.0929
 7038SOL    HW132573   3.242   3.316   5.977 -0.0299 -0.4962  1.5266
 7038SOL    HW232574   3.197   3.190   5.912  2.3995 -1.3578 -0.1464
 7039SOL     OW32575   3.619   1.218   6.996 -0.2725  0.7334 -0.3808
 7039SOL    HW132576   3.571   1.236   6.915 -2.0814 -2.2315  0.0729
 7039SOL    HW232577   3.563   1.236   7.071  0.7032 -0.7419  0.6928
 7040SOL     OW32578   1.639   1.219   3.876  0.5143  0.8379 -0.4235
 7040SOL    HW132579   1.632   1.308   3.910  0.2465 -0.4302  2.8564
 7040SOL    HW232580   1.725   1.186   3.902  0.9869  2.6890  0.2959
 7041SOL     OW32581   4.599   0.987  14.811 -0.0971  0.1174 -0.1551
 7041SOL    HW132582   4.562   1.073  14.790 -1.0504 -0.5700 -1.2757
 7041SOL    HW232583   4.649   0.966  14.732  0.1625 -3.2721  0.9196
 7042SOL     OW32584   1.059   4.161   8.560 -0.3101  0.2616  0.5695
 7042SOL    HW132585   1.121   4.152   8.633 -0.7695 -0.8054  0.8279
 7042SOL    HW232586   1.041   4.068   8.549  1.0729  0.0876 -0.1593
 7043SOL     OW32587   1.950   2.073   4.897 -0.2127  0.3000 -0.1851
 7043SOL    HW132588   1.990   2.011   4.958  1.3861  1.2235 -0.2617
 7043SOL    HW232589   1.872   2.102   4.944  1.3535 -0.4256  2.8740
 7044SOL     OW32590   4.012   0.834   4.004  0.0330  0.2896  0.2206
 7044SOL    HW132591   4.107   0.839   4.013  0.0268 -0.9878  0.9973
 7044SOL    HW232592   4.002   0.914   3.952  1.5834 -0.6207 -1.4893
 7045SOL     OW32593   2.857   3.515   2.459 -0.5230  0.2046 -0.3281
 7045SOL    HW132594   2.870   3.598   2.413  0.6358 -0.9043 -2.0003
 7045SOL    HW232595   2.910   3.532   2.537 -1.3677  0.0959  0.2658
 7046SOL     OW32596   1.956   0.890   0.064  0.3063  0.4396 -0.1487
 7046SOL    HW132597   2.027   0.917   0.122  0.6993  0.9881 -0.8835
 7046SOL    HW232598   1.986   0.802   0.038  1.0232  0.2315  1.3644
 7047SOL     OW32599   3.844   2.158   3.896  0.5274 -0.1896  0.8165
 7047SOL    HW132600   3.829   2.252   3.897  0.3594 -0.1876 -1.6032
 7047SOL    HW232601   3.922   2.156   3.952 -0.9910  0.2028  2.9734
 7048SOL     OW32602   2.657   3.749  15.767 -0.6303 -0.1439  0.3051
 7048SOL    HW132603   2.668   3.733  15.673  0.1294 -2.9188  0.8700
 7048SOL    HW232604   2.690   3.662  15.792  0.0681 -0.3205 -1.2548
 7049SOL     OW32605   0.208   4.087   4.499  0.5837  0.4938 -0.3178
 7049SOL    HW132606   0.287   4.114   4.546 -0.5203  1.4819  0.9625
 7049SOL    HW232607   0.153   4.086   4.577  0.1230  0.6806 -0.6428
 7050SOL     OW32608   3.504   1.001   6.634 -0.4921 -0.2737  0.6057
 7050SOL    HW132609   3.452   1.019   6.712 -2.1202 -0.7931 -0.3563
 7050SOL    HW232610   3.482   1.070   6.571 -0.1514 -2.3034 -1.7535
 7051SOL     OW32611   3.618   3.768   3.409 -0.2330  0.4124  0.3876
 7051SOL    HW132612   3.538   3.795   3.365 -0.0789  2.4621  1.3674
 7051SOL    HW232613   3.668   3.850   3.412 -1.1569  0.9228  1.8290
 7052SOL     OW32614   4.198   0.450   9.398 -0.4109 -0.3235  0.2653
 7052SOL    HW132615   4.131   0.389   9.428 -1.2140  0.6701  0.4559
 7052SOL    HW232616   4.243   0.398   9.331  3.7842  1.7451  1.4816
 7053SOL     OW32617   0.909   0.543  17.237  0.3494  0.7096  0.3724
 7053SOL    HW132618   0.855   0.464  17.240 -2.4262  2.7018  2.8525
 7053SOL    HW232619   0.944   0.532  17.149 -0.0756 -1.8140  0.5083
 7054SOL     OW32620   0.848   1.757   1.406 -0.8289  0.0003  0.0967
 7054SOL    HW132621   0.836   1.829   1.469 -0.5946 -0.5545  0.7749
 7054SOL    HW232622   0.890   1.795   1.329  0.8068  0.4099  1.1901
 7055SOL     OW32623   1.031   2.615   0.423 -0.3035 -0.3278 -0.1772
 7055SOL    HW132624   0.946   2.572   0.423  0.7123 -2.3464 -1.0541
 7055SOL    HW232625   1.083   2.556   0.476 -1.0303 -1.8080 -1.1237
 7056SOL     OW32626   3.894   2.635   7.254 -0.3682  0.3485  0.3475
 7056SOL    HW132627   3.968   2.684   7.217  0.2826 -0.2577  0.8581
 7056SOL    HW232628   3.923   2.544   7.251  1.1464  0.8134  0.5528
 7057SOL     OW32629   1.714   4.123  15.954  0.2785 -0.1659  0.0447
 7057SOL    HW132630   1.663   4.177  15.893 -2.5440 -0.4942  2.0730
 7057SOL    HW232631   1.774   4.193  15.978  2.6724 -1.8822 -0.9233
 7058SOL     OW32632   0.507   1.491   9.509 -0.3549  0.3807  0.3167
 7058SOL    HW132633   0.594   1.476   9.472 -1.8230 -0.8662 -2.6406
 7058SOL    HW232634   0.495   1.576   9.465  2.0408 -1.2219 -3.5191
 7059SOL     OW32635   3.270   1.227  13.939  0.5053 -0.3697 -0.1340
 7059SOL    HW132636   3.197   1.202  13.995 -1.0549  3.2435 -0.5923
 7059SOL    HW232637   3.342   1.191  13.991 -1.0445 -3.4087 -0.0668
 7060SOL     OW32638   3.264   3.450  12.532 -0.2438  0.1638 -0.0118
 7060SOL    HW132639   3.337   3.506  12.559  1.0267 -0.8979 -1.2315
 7060SOL    HW232640   3.196   3.492  12.585 -0.6009 -1.0827  0.5147
 7061SOL     OW32641   0.522   1.721   0.737  0.3113  0.5786 -0.1255
 7061SOL    HW132642   0.606   1.761   0.714 -0.2820  1.5961 -0.4819
 7061SOL    HW232643   0.552   1.678   0.818 -0.8690  0.2617  0.1452
 7062SOL     OW32644   2.684   2.344   8.236 -0.6375 -0.0592 -0.1306
 7062SOL    HW132645   2.664   2.423   8.186 -1.8686 -0.7052 -0.6508
 7062SOL    HW232646   2.747   2.299   8.181 -0.4538  0.1537 -0.0985
 7063SOL     OW32647   1.362   1.935   0.269  0.0775 -0.0110 -0.2934
 7063SOL    HW132648   1.271   1.957   0.288  0.1181 -1.5226  1.5614
 7063SOL    HW232649   1.410   2.014   0.294  0.4684 -0.4033  0.1760
 7064SOL     OW32650   0.096   4.519   8.156 -0.5571 -0.3710 -0.3082
 7064SOL    HW132651   0.045   4.584   8.108 -0.0010 -1.1534 -1.9440
 7064SOL    HW232652   0.055   4.511   8.242 -0.7412  0.4185 -0.3233
 7065SOL     OW32653   1.922   0.288   5.988  0.7488 -0.2790 -0.3455
 7065SOL    HW132654   1.983   0.348   5.944 -1.0260  1.3981 -0.5034
 7065SOL    HW232655   1.888   0.236   5.915  0.9702 -0.8938 -0.0078
 7066SOL     OW32656   4.396   1.889   4.612 -0.1516  0.2436 -0.1466
 7066SOL    HW132657   4.484   1.925   4.601  0.6102 -2.1441 -1.8047
 7066SOL    HW232658   4.400   1.814   4.553  1.0746 -0.1814  0.4684
 7067SOL     OW32659   0.400   1.477   1.643  0.0253 -0.2330 -0.2226
 7067SOL    HW132660   0.320   1.456   1.690  1.5165 -3.2389  0.9596
 7067SOL    HW232661   0.419   1.405   1.583  1.0554  0.7280 -1.0617
 7068SOL     OW32662   0.211   0.110   2.250  0.0454 -0.0369 -0.7305
 7068SOL    HW132663   0.143   0.077   2.309 -1.3232  1.1994 -1.6125
 7068SOL    HW232664   0.204   0.203   2.268 -0.3505 -0.2664  0.2943
 7069SOL     OW32665   3.647   3.498  14.931 -0.1886  0.1175  0.2092
 7069SOL    HW132666   3.651   3.588  14.964 -4.3097 -0.2577  1.7540
 7069SOL    HW232667   3.612   3.524  14.846 -2.4914 -1.4880  0.6522
 7070SOL     OW32668   4.391   1.409   7.185 -0.0976  0.1520  0.2515
 7070SOL    HW132669   4.380   1.366   7.270 -3.2293  1.2755  0.4273
 7070SOL    HW232670   4.303   1.431   7.152 -0.2617 -1.4618 -0.3923
 7071SOL     OW32671   1.178   4.338   5.551  0.0607 -0.4413 -0.3061
 7071SOL    HW132672   1.103   4.344   5.492 -0.2698 -1.4973  0.0023
 7071SOL    HW232673   1.246   4.354   5.486  0.2895 -0.3762 -0.0540
 7072SOL     OW32674   1.716   0.512   8.802 -0.7331  0.0212  0.1987
 7072SOL    HW132675   1.644   0.555   8.756 -0.8200 -0.4465 -0.0966
 7072SOL    HW232676   1.765   0.490   8.724 -1.2517  0.2210 -0.1835
 7073SOL     OW32677   2.448   0.357   3.531 -0.2519 -0.3803  0.5745
 7073SOL    HW132678   2.524   0.333   3.584 -0.2249  0.7226  1.0379
 7073SOL    HW232679   2.430   0.268   3.502 -1.3150 -0.1923  0.6614
 7074SOL     OW32680   4.365   3.328   7.807 -0.1583  0.2616 -0.5939
 7074SOL    HW132681   4.326   3.360   7.888  2.3322  1.0570  0.2998
 7074SOL    HW232682   4.301   3.262   7.782 -0.7439  1.0004 -1.0818
 7075SOL     OW32683   4.557   3.234  13.705 -0.2343  0.0614 -0.2769
 7075SOL    HW132684   4.563   3.286  13.625 -0.2306  0.8060  0.2030
 7075SOL    HW232685   4.517   3.291  13.771  0.7918 -0.0364  0.4188
 7076SOL     OW32686   0.203   2.799   3.404 -0.0016  0.1215 -0.4351
 7076SOL    HW132687   0.182   2.740   3.332 -1.4635 -2.1362  1.8159
 7076SOL    HW232688   0.207   2.887   3.366  0.2495  0.8243  1.2242
 7077SOL     OW32689   1.013   0.217   5.521 -0.6843  0.1047  0.2432
 7077SOL    HW132690   1.083   0.236   5.459 -1.7369  0.0656 -0.9484
 7077SOL    HW232691   1.058   0.215   5.605  1.4487  0.5133 -0.8876
 7078SOL     OW32692   2.109   2.725   0.343 -0.0141 -0.2347  0.4370
 7078SOL    HW132693   2.063   2.752   0.264 -1.5031 -0.8674  1.0884
 7078SOL    HW232694   2.101   2.802   0.399  0.2792  0.0643  0.0695
 7079SOL     OW32695   0.826   0.817  17.174  0.0425  0.0975  0.2066
 7079SOL    HW132696   0.838   0.726  17.203  1.5035 -0.1737 -1.2356
 7079SOL    HW232697   0.733   0.826  17.196  0.1278 -1.2766  1.1800
 7080SOL     OW32698   0.041   3.137   0.881 -0.1686  0.3780 -0.0513
 7080SOL    HW132699   4.701   3.112   0.814  0.0199  1.7395 -0.7337
 7080SOL    HW232700   0.088   3.208   0.837 -1.9559  1.8812  0.4492
 7081SOL     OW32701   3.636   3.427   1.595  0.1065 -1.0544  0.1497
 7081SOL    HW132702   3.557   3.392   1.637  0.9733 -1.0751  1.7455
 7081SOL    HW232703   3.640   3.389   1.507  1.1568  0.2097 -0.3516
 7082SOL     OW32704   2.517   3.698   7.644 -0.1363 -0.3300  0.4048
 7082SOL    HW132705   2.433   3.725   7.605  0.9887  1.6985 -0.6475
 7082SOL    HW232706   2.509   3.764   7.713 -1.8020  0.3978 -0.4838
 7083SOL     OW32707   4.127   3.357   2.465 -0.2810 -0.0833  0.0650
 7083SOL    HW132708   4.088   3.376   2.551 -2.0140 -0.3762 -0.6604
 7083SOL    HW232709   4.070   3.291   2.427 -1.3433  0.9919 -0.1867
 7084SOL     OW32710   3.601   1.562   4.946 -0.0114 -0.1049 -0.0142
 7084SOL    HW132711   3.518   1.576   4.992  1.4944  0.4461  2.5559
 7084SOL    HW232712   3.619   1.654   4.926 -0.9493 -0.1187 -0.8823
 7085SOL     OW32713   2.630   0.370   9.824 -0.6025  0.2470  0.0124
 7085SOL    HW132714   2.708   0.372   9.880 -1.0369  0.9516  0.5907
 7085SOL    HW232715   2.656   0.341   9.736 -1.1116 -1.2670  0.3500
 7086SOL     OW32716   1.594   4.130  10.083  0.4675 -0.0171  0.0651
 7086SOL    HW132717   1.676   4.120  10.131 -0.6013 -1.1847  1.6534
 7086SOL    HW232718   1.587   4.224  10.066  1.6835 -0.0845 -0.8075
 7087SOL     OW32719   3.989   0.348   4.829 -0.0258  0.3012 -0.8170
 7087SOL    HW132720   3.915   0.403   4.856  0.2555 -0.6704  1.9192
 7087SOL    HW232721   3.932   0.280   4.794 -2.0185  0.5239  1.9900
 7088SOL     OW32722   3.464   3.215  15.420  0.2402  0.4050 -0.2830
 7088SOL    HW132723   3.398   3.245  15.482  0.5601  1.1582 -0.3094
 7088SOL    HW232724   3.454   3.283  15.354 -3.8020  0.9547  0.8765
 7089SOL     OW32725   4.599   2.397   7.381  0.1692 -0.0198  0.5610
 7089SOL    HW132726   4.604   2.329   7.314  2.3770 -0.6530  1.3530
 7089SOL    HW232727   4.645   2.354   7.454  0.7492  0.8136  0.6841
 7090SOL     OW32728   1.337   0.855  11.106  0.0131 -0.0256  0.1536
 7090SOL    HW132729   1.345   0.856  11.202 -0.0813  2.4115  0.1350
 7090SOL    HW232730   1.417   0.822  11.066  0.3654  1.5892 -0.4806
 7091SOL     OW32731   4.238   3.659   6.355 -0.0086 -0.1172  0.6133
 7091SOL    HW132732   4.256   3.577   6.307  0.3541  1.4230 -1.8674
 7091SOL    HW232733   4.143   3.664   6.347 -0.0422 -1.8839 -0.2821
 7092SOL     OW32734   1.758   1.666   7.988 -0.6780 -0.0527  0.9652
 7092SOL    HW132735   1.701   1.680   8.064 -2.6194 -0.6959 -0.4008
 7092SOL    HW232736   1.715   1.612   7.923 -1.2011  1.2983  0.1824
 7093SOL     OW32737   4.394   2.708  11.935  0.3278  0.0687 -0.6412
 7093SOL    HW132738   4.408   2.799  11.907  1.1808 -0.0634 -0.6512
 7093SOL    HW232739   4.312   2.694  11.887  1.3370  0.7424 -2.5618
 7094SOL     OW32740   0.249   1.199  16.748 -0.1671  0.1618 -0.2095
 7094SOL    HW132741   0.299   1.255  16.808 -1.4581  1.2556 -0.1546
 7094SOL    HW232742   0.167   1.176  16.791 -0.1218 -2.2435 -1.4007
 7095SOL     OW32743   2.035   3.239   3.481 -0.1788 -0.3274  0.3141
 7095SOL    HW132744   2.096   3.312   3.464 -0.1145  0.1417  2.5612
 7095SOL    HW232745   2.071   3.189   3.553 -3.2472  0.0391  2.0838
 7096SOL     OW32746   0.966   3.752   8.904  0.4333 -0.2850  0.0736
 7096SOL    HW132747   0.929   3.715   8.823  0.3850 -0.9686  0.4074
 7096SOL    HW232748   0.882   3.757   8.948 -0.1948  1.7881 -1.3668
 7097SOL     OW32749   4.294   2.970   2.294  0.3525  0.1225 -0.2742
 7097SOL    HW132750   4.282   3.064   2.304  3.9167  0.7171 -1.4008
 7097SOL    HW232751   4.212   2.944   2.252 -1.0374  2.5445  0.9104
 7098SOL     OW32752   2.774   4.266   4.624 -0.1304 -0.0536 -0.1031
 7098SOL    HW132753   2.720   4.323   4.568  1.4331  2.0876  0.5710
 7098SOL    HW232754   2.856   4.312   4.644  0.4589 -1.1528  0.0012
 7099SOL     OW32755   2.126   2.502  12.753 -0.4356 -0.3381  0.1708
 7099SOL    HW132756   2.193   2.480  12.688  1.8133  2.8395  1.3953
 7099SOL    HW232757   2.090   2.414  12.765 -0.9326 -0.0675  0.6606
 7100SOL     OW32758   3.821   3.875  13.894  0.4158 -0.2538  0.4700
 7100SOL    HW132759   3.877   3.917  13.960  0.8640 -0.9283  0.5095
 7100SOL    HW232760   3.739   3.919  13.918  0.2978  0.0269 -0.4623
 7101SOL     OW32761   2.061   0.648  11.853  0.3279  0.2767 -0.0962
 7101SOL    HW132762   2.117   0.573  11.872  0.7223  1.2134  2.4122
 7101SOL    HW232763   2.105   0.707  11.913  0.6541 -0.1896  0.1173
 7102SOL     OW32764   3.433   2.402   4.380  0.1819 -0.1155  0.0543
 7102SOL    HW132765   3.408   2.471   4.442  1.6083  0.3293  0.1389
 7102SOL    HW232766   3.356   2.347   4.391  0.6720 -0.6623  0.6988
 7103SOL     OW32767   1.511   2.736   6.996 -0.3742 -0.0718 -0.1722
 7103SOL    HW132768   1.589   2.789   7.013  1.3386 -2.2241 -1.2904
 7103SOL    HW232769   1.459   2.752   7.075  0.6292  1.0850  0.2647
 7104SOL     OW32770   2.871   1.686  10.697 -0.3346  0.3153 -0.1540
 7104SOL    HW132771   2.798   1.624  10.691 -1.2272  1.3799 -0.2187
 7104SOL    HW232772   2.859   1.744  10.622 -1.7855  1.1419  0.7285
 7105SOL     OW32773   2.844   1.653   2.367  0.0298 -0.0295 -0.1624
 7105SOL    HW132774   2.806   1.565   2.360  1.3196 -0.5697 -0.3930
 7105SOL    HW232775   2.898   1.651   2.289 -1.2098 -0.2214 -1.0162
 7106SOL     OW32776   3.511   4.608   7.121  0.7828  0.3343  0.6071
 7106SOL    HW132777   3.516   4.618   7.216  2.0427 -0.2096  0.5975
 7106SOL    HW232778   3.536   4.698   7.099 -2.6344  0.7727 -1.5113
 7107SOL     OW32779   0.985   4.482  10.095 -0.0646  0.1840 -0.0769
 7107SOL    HW132780   1.054   4.426  10.130  0.3293 -0.3860 -1.7559
 7107SOL    HW232781   1.033   4.508  10.016  1.9419  1.4101  1.5540
 7108SOL     OW32782   3.116   1.713   5.474 -0.3948  0.7689  0.0536
 7108SOL    HW132783   3.059   1.789   5.464 -0.1985  0.9301  0.1588
 7108SOL    HW232784   3.193   1.721   5.418 -1.0289  0.5188 -0.8430
 7109SOL     OW32785   0.031   4.277   8.639 -0.2726  0.1991  0.1026
 7109SOL    HW132786   0.075   4.197   8.666 -0.6501 -0.7185 -1.9770
 7109SOL    HW232787   0.049   4.338   8.710 -1.6849 -0.0267  0.6565
 7110SOL     OW32788   2.034   0.961   9.298 -0.5193  0.0134  0.2904
 7110SOL    HW132789   2.125   0.981   9.318 -0.8228  1.2491  0.4263
 7110SOL    HW232790   2.044   0.893   9.231 -2.8801  0.1705 -0.2272
 7111SOL     OW32791   2.856   3.023   6.272  0.2256  0.4254  0.1408
 7111SOL    HW132792   2.900   3.101   6.238  0.7594  0.7224  1.4923
 7111SOL    HW232793   2.769   3.027   6.233  1.3860 -0.7224 -2.5789
 7112SOL     OW32794   3.497   2.569  16.896 -0.6521 -0.2550 -0.3557
 7112SOL    HW132795   3.545   2.592  16.975 -2.6359  0.4331  0.6505
 7112SOL    HW232796   3.461   2.653  16.867  0.2490 -0.6055 -2.5019
 7113SOL     OW32797   2.912   0.631   3.796 -0.1531 -0.3190  0.5216
 7113SOL    HW132798   2.829   0.632   3.843  0.5447  0.3040  1.7303
 7113SOL    HW232799   2.971   0.590   3.858 -0.7573 -0.3262  1.0857
 7114SOL     OW32800   3.103   0.289   4.156  0.6860  0.1365 -0.6910
 7114SOL    HW132801   3.150   0.205   4.161 -0.1186 -0.1563  1.4931
 7114SOL    HW232802   3.175   0.348   4.179 -0.4526  1.9409 -1.8003
 7115SOL     OW32803   4.174   4.314   9.949 -0.3820 -0.3221  0.5382
 7115SOL    HW132804   4.081   4.329   9.966 -0.5674 -0.6543 -0.1643
 7115SOL    HW232805   4.205   4.403   9.932  1.3825 -1.3982 -1.9869
 7116SOL     OW32806   0.704   0.861   7.677 -0.8653  0.2336  0.1719
 7116SOL    HW132807   0.691   0.772   7.643 -0.3555 -0.8886  2.9239
 7116SOL    HW232808   0.736   0.839   7.764 -0.5400  2.6660  0.6534
 7117SOL     OW32809   0.900   2.429   0.982 -0.8722 -0.4566  0.2814
 7117SOL    HW132810   0.879   2.454   0.893  0.6245 -0.4426 -0.0698
 7117SOL    HW232811   0.912   2.511   1.029 -0.6352 -0.9308  1.0646
 7118SOL     OW32812   1.984   3.431   9.069  0.2295  0.0025  0.1819
 7118SOL    HW132813   1.988   3.511   9.017 -0.9645 -0.4272 -0.5935
 7118SOL    HW232814   2.071   3.392   9.060  0.4177  0.5702 -0.4634
 7119SOL     OW32815   1.436   4.493   7.897  0.2705 -0.3669  0.2309
 7119SOL    HW132816   1.357   4.530   7.937  0.9228 -0.8907  2.0377
 7119SOL    HW232817   1.497   4.470   7.967 -1.7967 -0.9223  1.8680
 7120SOL     OW32818   3.254   4.171   8.991 -0.7211  0.2230 -0.7847
 7120SOL    HW132819   3.234   4.265   9.001 -4.9521 -0.6206 -1.1038
 7120SOL    HW232820   3.172   4.124   9.002 -0.5147  0.5733  2.2898
 7121SOL     OW32821   3.110   2.802   4.767 -0.0136  0.4741  0.0917
 7121SOL    HW132822   3.171   2.847   4.708 -2.3500  2.4831 -0.7665
 7121SOL    HW232823   3.141   2.843   4.848 -1.9915 -0.9369  1.5333
 7122SOL     OW32824   3.032   1.106   6.586  0.5037 -0.6653  0.2166
 7122SOL    HW132825   3.004   1.018   6.562 -2.4367  0.9670 -2.4146
 7122SOL    HW232826   2.996   1.161   6.517  2.3499 -1.0325 -1.0683
 7123SOL     OW32827   0.661   2.717   6.952 -0.0733  0.4011 -0.5294
 7123SOL    HW132828   0.686   2.631   6.986 -0.3263  1.0263  1.2733
 7123SOL    HW232829   0.584   2.684   6.907 -0.7265 -0.8944  1.5320
 7124SOL     OW32830   4.658   3.088   6.790  0.4230  0.1451 -0.3166
 7124SOL    HW132831   4.702   3.144   6.854  2.5535 -1.3678 -0.4588
 7124SOL    HW232832   4.568   3.110   6.815  0.7405 -1.1712  2.0088
 7125SOL     OW32833   1.819   1.977  14.749  0.4365 -0.3976 -0.0638
 7125SOL    HW132834   1.898   2.014  14.789 -0.9915 -0.8037  3.1310
 7125SOL    HW232835   1.810   1.894  14.796  1.5274  0.6497  1.9824
 7126SOL     OW32836   1.736   3.921   6.803  0.2110  0.6849 -0.1841
 7126SOL    HW132837   1.640   3.918   6.799  0.1320  1.0189  1.4606
 7126SOL    HW232838   1.761   3.837   6.764 -0.9125 -0.1980  0.9943
 7127SOL     OW32839   3.145   4.134   3.137 -0.1724  0.2420  0.2077
 7127SOL    HW132840   3.104   4.049   3.150 -0.0657 -0.2433 -2.6417
 7127SOL    HW232841   3.079   4.163   3.075  0.4409 -0.5251 -0.8004
 7128SOL     OW32842   3.000   2.061  14.142  0.3941  0.5105 -0.2507
 7128SOL    HW132843   2.907   2.043  14.154  0.5987 -0.4093 -0.1194
 7128SOL    HW232844   3.036   2.022  14.221  0.2276  1.0976  0.1142
 7129SOL     OW32845   0.529   4.463   9.842 -0.0506 -0.7356 -0.2038
 7129SOL    HW132846   0.581   4.479   9.920  1.2090 -0.4152 -1.1121
 7129SOL    HW232847   0.439   4.476   9.872 -0.3567  2.9127 -2.7160
 7130SOL     OW32848   0.146   2.424   6.423  0.0090 -0.3142 -0.4114
 7130SOL    HW132849   0.187   2.510   6.438 -1.6349  0.7538 -2.0471
 7130SOL    HW232850   0.071   2.436   6.482  0.1790  0.6209 -0.3772
 7131SOL     OW32851   2.679   4.415   9.464 -0.4162  0.2301  0.0461
 7131SOL    HW132852   2.655   4.429   9.373 -0.7920 -1.4695 -0.1148
 7131SOL    HW232853   2.633   4.486   9.509 -0.8032  1.1769 -1.8747
 7132SOL     OW32854   1.231   2.682   0.696  0.1037  0.7140 -0.1852
 7132SOL    HW132855   1.149   2.664   0.742  0.4426 -1.6473 -0.5127
 7132SOL    HW232856   1.243   2.601   0.647  0.3186  1.5655 -1.5367
 7133SOL     OW32857   4.338   1.721  13.025 -0.1982  0.4270 -0.2399
 7133SOL    HW132858   4.342   1.667  13.104  0.4357  0.3351 -0.3343
 7133SOL    HW232859   4.411   1.781  13.042  0.9204 -1.3298  1.1607
 7134SOL     OW32860   2.465   0.941   4.414 -0.1582  0.1838  0.3824
 7134SOL    HW132861   2.420   0.955   4.330  0.0033 -1.8600 -0.0379
 7134SOL    HW232862   2.545   0.913   4.369  0.6575  1.2135  1.1857
 7135SOL     OW32863   2.419   3.266   2.732  0.2737 -0.4719  0.3710
 7135SOL    HW132864   2.465   3.282   2.814 -1.4710 -1.0820  1.4472
 7135SOL    HW232865   2.498   3.253   2.680  0.4003  0.9994  0.1893
 7136SOL     OW32866   1.836   3.772   0.446  0.1020 -0.5190 -0.0725
 7136SOL    HW132867   1.882   3.843   0.401 -1.2001  1.6083  1.9521
 7136SOL    HW232868   1.860   3.695   0.394  0.0573 -0.5476 -0.0501
 7137SOL     OW32869   4.613   4.129  15.555  0.5013  0.1284  0.2029
 7137SOL    HW132870   4.706   4.151  15.556  0.0242  2.0491  2.5871
 7137SOL    HW232871   4.581   4.218  15.569 -2.3008 -0.9698  0.7693
 7138SOL     OW32872   1.866   2.596   4.261  0.3380 -0.2843  0.2224
 7138SOL    HW132873   1.812   2.666   4.223 -0.2793 -2.5954 -3.1796
 7138SOL    HW232874   1.828   2.517   4.223  0.8678 -0.8313  0.8441
 7139SOL     OW32875   2.428   1.101   3.778  0.1331 -0.7046  0.6619
 7139SOL    HW132876   2.358   1.116   3.841  0.2620 -2.0405  1.1273
 7139SOL    HW232877   2.382   1.064   3.702 -1.0125  0.2066  0.9051
 7140SOL     OW32878   4.145   2.883   4.997 -0.4343 -0.0731  0.1977
 7140SOL    HW132879   4.081   2.931   5.051  0.0909  1.0191 -0.1415
 7140SOL    HW232880   4.199   2.954   4.962  0.2878 -1.0070 -0.5637
 7141SOL     OW32881   0.895   4.711  14.308 -0.2434  0.0216 -0.3103
 7141SOL    HW132882   0.901   0.038  14.228  1.1785  0.8563  0.3455
 7141SOL    HW232883   0.817   4.660  14.285  1.2379 -3.4474  2.4237
 7142SOL     OW32884   1.126   2.858  16.504  0.0612 -0.0488 -0.2875
 7142SOL    HW132885   1.140   2.951  16.489  0.6503 -0.2102 -0.7147
 7142SOL    HW232886   1.175   2.854  16.587  0.9914 -2.2720 -0.9413
 7143SOL     OW32887   4.110   1.398  16.789 -0.4956  0.3191  0.0117
 7143SOL    HW132888   4.117   1.437  16.702 -2.3087  1.0325  0.1732
 7143SOL    HW232889   4.174   1.452  16.835 -0.0611 -1.0411  1.0180
 7144SOL     OW32890   1.795   0.029   8.993 -0.2684  0.7012 -0.1840
 7144SOL    HW132891   1.829   4.672   9.029  0.5090 -0.2388 -3.0658
 7144SOL    HW232892   1.833   0.086   9.060 -0.2400 -0.8931  1.1454
 7145SOL     OW32893   0.317   3.742  14.906 -0.1342 -0.1896  0.5023
 7145SOL    HW132894   0.256   3.812  14.927  1.4113  1.3682 -0.2412
 7145SOL    HW232895   0.359   3.784  14.831  0.3182  0.6137  1.2055
 7146SOL     OW32896   4.216   0.520   0.072 -0.0704 -0.0577 -0.0876
 7146SOL    HW132897   4.199   0.524   0.166 -1.1490 -0.4164 -0.2732
 7146SOL    HW232898   4.298   0.570   0.063 -1.0396  1.8816  1.9327
 7147SOL     OW32899   0.705   3.841   0.862 -0.0691 -0.2633 -0.1190
 7147SOL    HW132900   0.690   3.844   0.956 -2.3381 -0.5009 -0.4716
 7147SOL    HW232901   0.623   3.877   0.828 -0.9284 -1.7338  0.4217
 7148SOL     OW32902   3.028   3.059   5.052 -0.0198  0.4460  0.6860
 7148SOL    HW132903   2.947   3.057   5.001  0.4070  2.1102 -0.0678
 7148SOL    HW232904   3.005   3.131   5.111  0.8310 -0.2200  1.8368
 7149SOL     OW32905   3.858   2.019   2.106 -0.3362  0.0430 -0.0328
 7149SOL    HW132906   3.951   2.030   2.123  0.5798 -0.5779 -4.5358
 7149SOL    HW232907   3.863   1.951   2.039 -0.2687  0.0261 -0.0097
 7150SOL     OW32908   0.630   3.286   3.954  0.4286  0.3181  0.0552
 7150SOL    HW132909   0.700   3.231   3.917  1.3822 -0.1152  2.5205
 7150SOL    HW232910   0.672   3.357   4.003  1.1841  0.4004 -0.6999
 7151SOL     OW32911   3.652   3.761   0.740  0.6194  0.0377 -0.0192
 7151SOL    HW132912   3.573   3.717   0.772 -0.0893  1.5273  0.3036
 7151SOL    HW232913   3.620   3.830   0.681 -2.3768 -2.3768 -1.2019
 7152SOL     OW32914   0.707   1.996  17.466 -0.2285  0.0322 -0.1027
 7152SOL    HW132915   0.781   2.008  17.526 -1.3044 -2.0728  1.6330
 7152SOL    HW232916   0.745   2.010  17.379  0.7474  1.8913  0.6099
 7153SOL     OW32917   2.356   3.926   9.634  0.4106 -0.4541 -0.3096
 7153SOL    HW132918   2.358   3.948   9.541  1.8508 -3.3693 -0.9419
 7153SOL    HW232919   2.293   3.854   9.635 -1.3147  1.0286  0.5350
 7154SOL     OW32920   3.330   0.466   3.025 -0.0758 -1.0534 -0.1105
 7154SOL    HW132921   3.278   0.454   2.946 -0.1647  2.4080 -0.6009
 7154SOL    HW232922   3.256   0.484   3.084  1.3546  0.9512  1.0631
 7155SOL     OW32923   0.339   1.134   2.261 -0.0624  0.3142 -0.1815
 7155SOL    HW132924   0.306   1.212   2.304 -3.0877 -2.0377  1.7818
 7155SOL    HW232925   0.314   1.063   2.320  0.5200  0.0227 -0.2760
 7156SOL     OW32926   3.506   3.166  16.967 -0.1710  0.4855 -0.0278
 7156SOL    HW132927   3.487   3.250  17.007 -0.1956  0.4261  0.0857
 7156SOL    HW232928   3.600   3.173  16.953 -0.5268  1.7569 -1.7937
 7157SOL     OW32929   2.822   2.343   5.544 -0.2155  0.3766 -0.1110
 7157SOL    HW132930   2.810   2.392   5.625  2.0065 -1.2289  1.1667
 7157SOL    HW232931   2.752   2.278   5.543 -1.0295  1.1998  1.8957
 7158SOL     OW32932   3.583   1.242   9.936 -0.1741 -0.0165 -0.2303
 7158SOL    HW132933   3.611   1.163   9.982  1.9653 -0.1714 -1.7837
 7158SOL    HW232934   3.488   1.234   9.926 -0.2647  0.1457  0.5414
 7159SOL     OW32935   0.964   4.267   7.029 -0.1286  0.1369 -0.0101
 7159SOL    HW132936   0.871   4.247   7.030  0.3361 -2.1219  0.1335
 7159SOL    HW232937   0.967   4.289   6.936  1.6250 -0.6164 -0.1498
 7160SOL     OW32938   2.020   1.000   0.955 -0.0989 -0.1289  0.4274
 7160SOL    HW132939   1.957   1.035   1.018 -0.0506 -0.7087  0.7978
 7160SOL    HW232940   2.003   1.046   0.873 -1.9310 -0.1958  0.7693
 7161SOL     OW32941   2.432   3.623   5.334  0.2154  0.0402  0.1877
 7161SOL    HW132942   2.407   3.707   5.295  1.1952  0.5498  0.6626
 7161SOL    HW232943   2.385   3.566   5.272 -0.7330 -0.3832  1.3094
 7162SOL     OW32944   1.314   3.899   8.500 -0.0194  0.7799  0.1747
 7162SOL    HW132945   1.290   3.952   8.576 -0.4667 -0.3415  0.8252
 7162SOL    HW232946   1.249   3.829   8.505  1.8012 -1.1338 -3.0407
 7163SOL     OW32947   0.147   3.507   7.219  0.1749  0.1344 -0.0669
 7163SOL    HW132948   0.146   3.532   7.311 -3.6396  0.5848 -0.2195
 7163SOL    HW232949   0.211   3.436   7.213  1.3173  1.3439 -2.4397
 7164SOL     OW32950   4.259   1.854   4.841  0.5661  0.0861  0.1132
 7164SOL    HW132951   4.310   1.863   4.761 -2.0750 -0.5145 -1.6612
 7164SOL    HW232952   4.184   1.798   4.819  0.1231  0.3293  0.9898
 7165SOL     OW32953   3.626   2.362   2.420 -0.5093 -0.5723  0.4181
 7165SOL    HW132954   3.542   2.385   2.381 -0.1191  0.5097  0.2047
 7165SOL    HW232955   3.635   2.268   2.400  0.9418 -0.7531  1.9368
 7166SOL     OW32956   1.585   1.039  12.853  0.7090  0.0743  0.1843
 7166SOL    HW132957   1.619   0.954  12.883  0.1671 -0.8588 -1.8862
 7166SOL    HW232958   1.661   1.086  12.820 -0.4191 -1.2741 -4.3416
 7167SOL     OW32959   4.607   3.653   0.335  0.1112  0.7356  0.4650
 7167SOL    HW132960   4.666   3.653   0.411 -0.5553  0.6951  0.9844
 7167SOL    HW232961   4.534   3.703   0.372 -2.5902 -2.4968 -0.5191
 7168SOL     OW32962   1.375   3.257   4.633  0.3236 -0.3170 -0.0448
 7168SOL    HW132963   1.331   3.193   4.577  2.1817  1.9404 -4.1134
 7168SOL    HW232964   1.303   3.309   4.669 -0.6315 -0.8312 -1.1896
 7169SOL     OW32965   1.794   1.456   8.339 -0.1423 -0.7863  0.0769
 7169SOL    HW132966   1.860   1.410   8.287  0.0590 -0.0420 -0.3164
 7169SOL    HW232967   1.808   1.419   8.427 -0.0440 -1.1012 -0.0725
 7170SOL     OW32968   1.196   3.571   3.125  0.2843 -0.2121  0.3161
 7170SOL    HW132969   1.228   3.594   3.038 -1.2377 -1.3330 -0.5511
 7170SOL    HW232970   1.103   3.564   3.104  0.7923 -2.8494 -1.1298
 7171SOL     OW32971   0.585   1.859   8.627  0.3628 -0.2156 -0.8727
 7171SOL    HW132972   0.630   1.929   8.674  0.0296 -1.3431  1.1449
 7171SOL    HW232973   0.614   1.781   8.675  0.5380  0.6359  0.4118
 7172SOL     OW32974   0.161   0.178   8.884 -0.4637  0.2676 -0.5750
 7172SOL    HW132975   0.147   0.128   8.803  0.1562  1.5738 -1.4740
 7172SOL    HW232976   0.239   0.227   8.860 -0.9772  0.6372 -1.5085
 7173SOL     OW32977   1.963   1.881   8.152  0.2004  0.0716 -0.1352
 7173SOL    HW132978   2.053   1.847   8.154  1.0747  2.3767 -0.4267
 7173SOL    HW232979   1.904   1.822   8.199  1.5827 -1.1186  0.1261
 7174SOL     OW32980   4.696   1.796   7.058  0.0764 -0.6375 -0.2446
 7174SOL    HW132981   4.639   1.865   7.091 -1.6109 -1.4695 -1.3979
 7174SOL    HW232982   4.695   1.808   6.963 -1.0049  0.3689 -0.1064
 7175SOL     OW32983   0.136   1.161   5.884  0.1310 -0.0230  0.0371
 7175SOL    HW132984   0.197   1.097   5.921  2.4906  2.1710 -0.0396
 7175SOL    HW232985   0.189   1.180   5.806  1.6240  2.1647  1.5899
 7176SOL     OW32986   3.949   0.726   3.192 -0.0124 -0.3520 -0.0476
 7176SOL    HW132987   4.017   0.666   3.219 -0.2624 -0.7589 -0.3222
 7176SOL    HW232988   3.989   0.780   3.125  0.4156  1.2837  1.5218
 7177SOL     OW32989   2.201   1.773   3.814 -0.2483 -0.1456 -0.4533
 7177SOL    HW132990   2.276   1.736   3.861 -1.0432  0.3463  1.2414
 7177SOL    HW232991   2.142   1.699   3.829 -0.5119  0.1866  0.1540
 7178SOL     OW32992   2.608   4.593   3.542  0.3613  0.3899  0.4532
 7178SOL    HW132993   2.656   4.561   3.466 -1.6201  2.7139 -1.7785
 7178SOL    HW232994   2.624   4.533   3.614  3.4921 -0.4688 -0.9656
 7179SOL     OW32995   0.739   1.854   3.336  0.0112  0.1671 -0.2450
 7179SOL    HW132996   0.763   1.799   3.411  0.0797 -0.2342 -0.5643
 7179SOL    HW232997   0.782   1.829   3.255  0.2500 -0.7822  0.1833
 7180SOL     OW32998   2.265   4.432   2.572 -0.1127 -0.4532  0.2392
 7180SOL    HW132999   2.252   4.341   2.599  1.0491 -0.1817  1.7117
 7180SOL    HW233000   2.241   4.410   2.482 -0.1727  0.4091  0.0416
 7181SOL     OW33001   1.640   1.142   6.362 -0.0492  0.2722  0.1474
 7181SOL    HW133002   1.608   1.052   6.358 -1.4059  0.7011  1.5686
 7181SOL    HW233003   1.572   1.190   6.409  1.6903  1.1769  1.7487
 7182SOL     OW33004   3.904   1.469   1.338  0.0003 -0.1495  0.1480
 7182SOL    HW133005   3.872   1.431   1.420 -0.9217 -0.8911 -0.5674
 7182SOL    HW233006   3.999   1.482   1.350 -0.3551 -1.6883  4.6637
 7183SOL     OW33007   1.505   2.365   1.172 -0.4907 -0.3996 -0.2135
 7183SOL    HW133008   1.538   2.278   1.149  2.4763  0.8850 -0.6913
 7183SOL    HW233009   1.559   2.418   1.115 -0.5959  0.4782  0.5030
 7184SOL     OW33010   1.958   3.664   9.453  0.3613  0.1696 -0.3768
 7184SOL    HW133011   1.967   3.754   9.485 -1.8858  0.9166 -1.8041
 7184SOL    HW233012   1.959   3.602   9.526  1.7317  0.9705  0.2867
 7185SOL     OW33013   3.213   4.265   6.401  0.1674  0.2997  0.1511
 7185SOL    HW133014   3.231   4.356   6.381 -0.7070  0.3753 -0.2959
 7185SOL    HW233015   3.255   4.219   6.328 -2.3804  0.0956 -1.2040
 7186SOL     OW33016   1.972   4.530  11.587 -0.0114 -0.2871  0.1279
 7186SOL    HW133017   2.041   4.484  11.634 -0.2948 -2.2527 -1.3677
 7186SOL    HW233018   2.024   4.606  11.559  1.0234 -1.2537 -0.5986
 7187SOL     OW33019   1.728   0.922  15.838 -0.2753  0.1442 -0.3667
 7187SOL    HW133020   1.764   0.896  15.754  0.1033  1.1423 -0.5070
 7187SOL    HW233021   1.770   0.855  15.892 -2.2282  0.3628  1.4061
 7188SOL     OW33022   2.760   4.236   5.850 -0.2439 -0.2742  0.2519
 7188SOL    HW133023   2.792   4.269   5.935  2.0227 -1.3186 -0.1905
 7188SOL    HW233024   2.666   4.219   5.851 -0.0704 -1.2949 -2.0450
 7189SOL     OW33025   2.188   0.182  13.954  0.2854  0.2742  0.2271
 7189SOL    HW133026   2.170   0.256  13.896 -0.3869 -0.3532 -0.3725
 7189SOL    HW233027   2.110   0.173  14.008 -0.0557 -0.2323 -0.3495
 7190SOL     OW33028   2.010   0.062   3.510  0.0011  0.4420  0.0856
 7190SOL    HW133029   1.929   0.019   3.535  0.6311 -0.6634  0.2130
 7190SOL    HW233030   2.059   0.066   3.592 -1.1496  0.6062  0.7625
 7191SOL     OW33031   3.206   0.453   2.788 -0.0994  0.0005  0.3042
 7191SOL    HW133032   3.216   0.412   2.702 -1.7980  1.5414 -0.6159
 7191SOL    HW233033   3.119   0.429   2.820 -1.5532  0.6954 -3.0951
 7192SOL     OW33034   1.268   0.905   6.810  0.5272 -0.5136 -0.5619
 7192SOL    HW133035   1.219   0.845   6.866 -0.3918  0.2348 -0.5623
 7192SOL    HW233036   1.350   0.922   6.857 -1.0651 -1.2417  2.5256
 7193SOL     OW33037   0.896   0.613  16.005  0.0873 -0.3663 -0.2888
 7193SOL    HW133038   0.906   0.538  15.946 -0.3976  0.1038 -0.9756
 7193SOL    HW233039   0.811   0.592  16.043  0.7985 -1.0659  0.9042
 7194SOL     OW33040   2.162   2.717  10.949 -0.2443 -0.1702  0.3000
 7194SOL    HW133041   2.174   2.804  10.987 -1.3990  1.1286 -2.3673
 7194SOL    HW233042   2.206   2.654  11.006  2.3934  2.1415  0.8279
 7195SOL     OW33043   2.646   3.676   5.712 -0.8032 -0.0512  0.7551
 7195SOL    HW133044   2.711   3.720   5.656  0.2663 -2.4503  0.1328
 7195SOL    HW233045   2.561   3.696   5.673 -0.5606 -0.5159  0.0143
 7196SOL     OW33046   1.906   4.288   7.485 -0.8432  0.2853 -0.1623
 7196SOL    HW133047   1.900   4.283   7.581  1.0103 -0.5239 -0.1027
 7196SOL    HW233048   1.933   4.200   7.459 -3.4927 -0.5482 -0.1051
 7197SOL     OW33049   1.050   1.469   2.130 -0.1609  0.1565  0.6495
 7197SOL    HW133050   1.119   1.535   2.136 -0.2393  0.2133  0.8946
 7197SOL    HW233051   1.062   1.447   2.037  0.9721  3.2690  0.0630
 7198SOL     OW33052   1.125   0.952  17.123  0.2653 -0.3486  0.2786
 7198SOL    HW133053   1.116   1.046  17.139 -2.1574 -0.6010  0.2691
 7198SOL    HW233054   1.033   0.933  17.106  0.8050 -0.7008 -2.3399
 7199SOL     OW33055   3.550   2.391  17.208  0.0241 -0.0154 -0.4513
 7199SOL    HW133056   3.574   2.314  17.156  2.5955  1.1108 -0.9583
 7199SOL    HW233057   3.603   2.460  17.168 -0.9535  1.2016  0.3587
 7200SOL     OW33058   2.482   0.684   2.531 -0.4743 -0.0515 -0.5042
 7200SOL    HW133059   2.538   0.719   2.461 -0.5558  3.6996  1.2694
 7200SOL    HW233060   2.400   0.734   2.522 -0.4532 -0.0734 -0.8120
 7201SOL     OW33061   1.238   3.320   3.236 -0.2409 -0.2091 -0.0072
 7201SOL    HW133062   1.210   3.365   3.315 -1.8683  2.3095 -2.0176
 7201SOL    HW233063   1.232   3.395   3.177 -0.4722  0.6237  1.0840
 7202SOL     OW33064   2.969   0.096   6.326  0.3606  0.1178 -0.1630
 7202SOL    HW133065   3.046   0.101   6.270  0.6864  0.1892  0.2878
 7202SOL    HW233066   2.986   0.010   6.364 -0.7541 -0.8792 -1.9326
 7203SOL     OW33067   4.122   2.077   2.011 -0.2802  0.5100 -0.6199
 7203SOL    HW133068   4.070   2.067   1.931  0.4065  2.0942 -1.2540
 7203SOL    HW233069   4.184   2.005   1.997 -1.0205 -0.5946  1.7319
 7204SOL     OW33070   2.145   4.609   8.235 -0.4258 -0.2493 -0.2498
 7204SOL    HW133071   2.196   4.557   8.172  0.8672  1.8579 -0.9341
 7204SOL    HW233072   2.124   4.684   8.180  0.2760 -0.3127 -0.6088
 7205SOL     OW33073   1.285   1.130   4.714 -0.1165 -0.6598  0.3130
 7205SOL    HW133074   1.216   1.094   4.658 -0.0396 -0.7419  0.2717
 7205SOL    HW233075   1.243   1.201   4.763 -0.1077  0.5208 -1.3580
 7206SOL     OW33076   3.398   3.028   3.724 -0.2934  0.3879 -0.1174
 7206SOL    HW133077   3.318   3.078   3.706  0.2923  0.3786 -2.7861
 7206SOL    HW233078   3.464   3.063   3.664  1.4048  0.6213  1.8939
 7207SOL     OW33079   2.439   1.495  11.132  0.2013 -0.9163  0.9598
 7207SOL    HW133080   2.386   1.571  11.108  1.8583 -0.2439 -0.6444
 7207SOL    HW233081   2.517   1.545  11.156 -1.2831  0.1461  3.5964
 7208SOL     OW33082   0.766   0.461   3.096 -0.0869  0.5732 -0.2985
 7208SOL    HW133083   0.824   0.483   3.169  0.1171 -0.0872 -0.2603
 7208SOL    HW233084   0.736   0.550   3.079 -0.6142  0.3975 -0.2960
 7209SOL     OW33085   1.387   0.756   6.597 -1.2608  0.2761  0.5944
 7209SOL    HW133086   1.349   0.811   6.665 -0.5504  0.2568  0.9962
 7209SOL    HW233087   1.413   0.679   6.647  4.6027  0.3939 -2.2750
 7210SOL     OW33088   0.036   2.155  17.260  0.3915 -0.5913  0.2699
 7210SOL    HW133089   0.101   2.211  17.218 -1.5006 -0.6372 -2.6531
 7210SOL    HW233090   0.090   2.083  17.294  1.7472 -0.4997 -1.7187
 7211SOL     OW33091   2.497   1.997  14.524 -0.0656  0.1203 -0.3077
 7211SOL    HW133092   2.515   2.056  14.598 -0.8347  0.4095 -0.3576
 7211SOL    HW233093   2.404   1.988  14.542 -0.4728 -0.0424 -2.4901
 7212SOL     OW33094   1.683   4.088   4.376  0.0972 -0.5566 -0.2231
 7212SOL    HW133095   1.626   4.120   4.306 -1.0877  1.3551  1.6062
 7212SOL    HW233096   1.616   4.024   4.403  0.0610 -0.8741 -1.0710
 7213SOL     OW33097   2.263   2.711   2.416 -0.3255 -0.4172  0.0287
 7213SOL    HW133098   2.341   2.656   2.413 -0.1818 -0.2574  0.8166
 7213SOL    HW233099   2.192   2.647   2.411 -1.5289  0.8936  0.5090
 7214SOL     OW33100   0.125   0.052   3.143  0.4277 -0.1302 -0.0275
 7214SOL    HW133101   0.174   0.131   3.122 -0.6779  0.7715  0.7920
 7214SOL    HW233102   0.175   4.711   3.094  0.5903  0.8831 -1.1974
 7215SOL     OW33103   2.789   3.764   6.473 -0.1256  0.4184  0.1508
 7215SOL    HW133104   2.861   3.825   6.485  0.5442 -0.4042  0.2726
 7215SOL    HW233105   2.719   3.819   6.438 -0.4644  0.5035  0.9520
 7216SOL     OW33106   1.940   2.129   6.444  0.3129 -0.4121  0.0049
 7216SOL    HW133107   1.879   2.068   6.486  1.4832  0.5200  3.0795
 7216SOL    HW233108   2.022   2.107   6.490  0.6708  1.3808  0.2166
 7217SOL     OW33109   0.614   1.020   5.836  0.5960  0.2751 -0.1018
 7217SOL    HW133110   0.560   0.942   5.826  2.0045 -0.9781  1.9656
 7217SOL    HW233111   0.682   0.984   5.894 -0.4800  1.4303  1.8898
 7218SOL     OW33112   1.206   0.064   2.827  0.8311  0.5482  0.0416
 7218SOL    HW133113   1.254   0.052   2.909 -1.9820 -1.9784  1.3648
 7218SOL    HW233114   1.277   0.052   2.764 -1.1758  1.9647 -2.4929
 7219SOL     OW33115   4.507   4.083   3.735 -0.0957  1.0094  0.4700
 7219SOL    HW133116   4.424   4.041   3.757  1.8855 -3.3461 -0.3714
 7219SOL    HW233117   4.517   4.146   3.806  0.7890  0.4952  0.8079
 7220SOL     OW33118   4.088   1.588  11.609 -0.6745 -0.1260  0.0800
 7220SOL    HW133119   4.035   1.510  11.591 -1.7454  0.0896  2.3962
 7220SOL    HW233120   4.132   1.588  11.524 -0.4611  0.1743  0.1911
 7221SOL     OW33121   0.121   1.578  15.486  1.0015  0.2504  0.5004
 7221SOL    HW133122   0.089   1.488  15.494  1.5149  0.2036  2.0139
 7221SOL    HW233123   0.202   1.581  15.537  2.1819  3.8850 -1.6342
 7222SOL     OW33124   4.192   1.021  14.592 -0.1515  0.4561  0.1617
 7222SOL    HW133125   4.113   1.006  14.645 -1.2738 -2.0409 -2.2195
 7222SOL    HW233126   4.166   0.970  14.515 -1.7126 -1.0382  1.6566
 7223SOL     OW33127   4.685   3.371   9.044  0.6762  0.1943 -0.1530
 7223SOL    HW133128   4.718   3.457   9.070 -0.2393 -0.2927  2.7188
 7223SOL    HW233129   4.628   3.347   9.118  0.4002  0.1625 -0.3782
 7224SOL     OW33130   3.293   4.244  15.534 -0.6776  0.3016 -1.0205
 7224SOL    HW133131   3.206   4.264  15.502 -0.6504  2.5126  0.2487
 7224SOL    HW233132   3.283   4.152  15.561  0.0167 -0.3926 -3.0858
 7225SOL     OW33133   4.663   0.491   5.419  0.2535  0.0994  0.1616
 7225SOL    HW133134   4.581   0.522   5.382  1.3329  1.6114 -0.9659
 7225SOL    HW233135   4.626   0.411   5.457  2.4829  0.2087  2.6121
 7226SOL     OW33136   2.682   1.825   7.149  0.1541 -0.7378  0.2080
 7226SOL    HW133137   2.591   1.854   7.140 -0.1428 -1.1930  1.7098
 7226SOL    HW233138   2.693   1.837   7.243  1.6445  1.0433 -0.1808
 7227SOL     OW33139   3.375   4.350   4.694  0.2291 -0.0957 -0.5154
 7227SOL    HW133140   3.330   4.348   4.609  2.0482  2.0113 -1.5286
 7227SOL    HW233141   3.365   4.259   4.720  2.6595  0.1817  1.3838
 7228SOL     OW33142   2.763   2.424   6.142 -0.1737 -0.3447 -0.3909
 7228SOL    HW133143   2.769   2.330   6.129  5.1726  0.1050 -1.0136
 7228SOL    HW233144   2.717   2.464   6.067  0.3064  2.0449  0.5739
 7229SOL     OW33145   2.388   3.569  11.173 -0.0552 -0.3413 -0.0200
 7229SOL    HW133146   2.372   3.538  11.262 -1.5717  2.0605  0.5491
 7229SOL    HW233147   2.314   3.627  11.156 -1.6552 -2.5626 -0.7630
 7230SOL     OW33148   0.861   1.612   3.918  0.1039  0.0900 -0.0335
 7230SOL    HW133149   0.846   1.702   3.889  3.3684  0.2802 -1.1628
 7230SOL    HW233150   0.799   1.554   3.873  0.5105  1.3054 -2.1691
 7231SOL     OW33151   0.821   3.232   3.196 -0.3524  0.0647  0.1163
 7231SOL    HW133152   0.793   3.321   3.174  0.1696  0.5154  1.2676
 7231SOL    HW233153   0.742   3.180   3.178 -0.6973  0.0185  1.7410
 7232SOL     OW33154   2.515   2.841   4.388  0.1460 -0.1291 -0.5213
 7232SOL    HW133155   2.425   2.871   4.381 -0.0700 -0.4436  0.9713
 7232SOL    HW233156   2.531   2.787   4.311  3.2934  0.7763 -0.5353
 7233SOL     OW33157   2.005   1.415   6.538 -0.4814 -0.2528  0.1848
 7233SOL    HW133158   1.954   1.348   6.493  0.1313 -0.9159  0.4866
 7233SOL    HW233159   1.947   1.490   6.525  0.6523  0.6055  0.1253
 7234SOL     OW33160   4.342   0.549   3.536 -0.4625  0.4229 -0.5238
 7234SOL    HW133161   4.434   0.525   3.545 -0.4628 -0.5234 -2.9421
 7234SOL    HW233162   4.331   0.517   3.446  2.3877  1.8266 -1.3966
 7235SOL     OW33163   4.145   0.843  17.660 -0.3649 -0.3990 -0.7752
 7235SOL    HW133164   4.157   0.769  17.600  3.1907  0.8387 -1.6370
 7235SOL    HW233165   4.237   0.860  17.682 -1.0250  0.4322  1.3228
 7236SOL     OW33166   2.681   1.103   8.412 -0.8813  0.9779  0.1238
 7236SOL    HW133167   2.702   1.171   8.475  0.3634  2.8463 -2.3343
 7236SOL    HW233168   2.664   1.029   8.470  2.7700  0.1978  0.1896
 7237SOL     OW33169   1.966   4.040   0.777 -0.4584  0.2512  0.0838
 7237SOL    HW133170   1.913   4.080   0.708  0.7077  1.8885  0.1115
 7237SOL    HW233171   2.036   4.101   0.803  0.0144 -0.4422  0.4315
 7238SOL     OW33172   0.137   3.422   3.589 -0.1701 -0.5439 -0.0084
 7238SOL    HW133173   0.111   3.330   3.585 -0.7013 -0.4697  1.8676
 7238SOL    HW233174   0.206   3.432   3.523  1.0523 -1.1003  1.1838
 7239SOL     OW33175   1.999   1.087   4.782 -0.2277  0.2609  0.2994
 7239SOL    HW133176   1.995   1.135   4.865  0.9204  1.0160 -0.0813
 7239SOL    HW233177   2.002   1.163   4.725  1.2195  1.7323  2.3213
 7240SOL     OW33178   0.138   2.001   7.776 -0.4468 -0.1816 -0.0134
 7240SOL    HW133179   0.211   1.975   7.720 -0.2524  0.2058  0.0633
 7240SOL    HW233180   0.159   2.094   7.789 -0.4030 -0.1890 -0.0331
 7241SOL     OW33181   1.337   0.154   4.737 -0.0800  0.5232  0.5357
 7241SOL    HW133182   1.373   0.080   4.786 -0.3231  0.6963  0.9738
 7241SOL    HW233183   1.362   0.131   4.648 -2.0390 -0.7823  0.3202
 7242SOL     OW33184   1.095   0.434  15.252 -0.2294 -0.0715 -0.9518
 7242SOL    HW133185   1.139   0.506  15.297 -0.1373 -1.1654  0.6965
 7242SOL    HW233186   1.159   0.364  15.245 -1.9144 -1.5736 -1.3467
 7243SOL     OW33187   4.028   4.145  10.351  0.2201 -0.4216  0.0058
 7243SOL    HW133188   3.958   4.162  10.288  0.5433  1.1940  0.0960
 7243SOL    HW233189   4.104   4.163  10.296  0.7357 -1.1749  0.4603
 7244SOL     OW33190   3.602   0.855   5.450 -0.1807  0.6704 -0.2179
 7244SOL    HW133191   3.666   0.897   5.508 -0.3196 -0.7550  0.9731
 7244SOL    HW233192   3.543   0.929   5.434 -1.2760  0.0919  1.1303
 7245SOL     OW33193   2.037   3.385  12.603 -0.0584 -0.2815  0.5725
 7245SOL    HW133194   1.975   3.413  12.536  0.0262  0.0034  0.6100
 7245SOL    HW233195   2.120   3.369  12.559  0.1483 -1.6601  1.4667
 7246SOL     OW33196   0.573   1.845  12.307 -0.0810 -0.0524  0.0749
 7246SOL    HW133197   0.645   1.896  12.270  0.1828 -0.4641  0.0213
 7246SOL    HW233198   0.623   1.767  12.330  1.3165  0.4079 -1.3484
 7247SOL     OW33199   0.378   0.476  15.429 -0.2871  0.0642 -0.1488
 7247SOL    HW133200   0.447   0.416  15.400 -2.2313 -1.5390 -1.4448
 7247SOL    HW233201   0.423   0.560  15.416 -0.1411  0.4108  2.7026
 7248SOL     OW33202   2.000   2.651   7.501 -0.3468  0.2445 -0.2233
 7248SOL    HW133203   2.089   2.677   7.479  0.2998 -0.1148  1.9563
 7248SOL    HW233204   1.956   2.705   7.436  0.4646  2.2321  0.8620
 7249SOL     OW33205   0.771   1.858  12.544  0.1680 -0.4459  0.0131
 7249SOL    HW133206   0.768   1.944  12.587 -1.0752 -0.2736 -0.4285
 7249SOL    HW233207   0.798   1.882  12.455  3.5154 -0.5867  0.9722
 7250SOL     OW33208   3.841   4.325   5.751  0.9604 -0.6647  0.1495
 7250SOL    HW133209   3.814   4.265   5.682 -0.8837 -0.2857  0.5401
 7250SOL    HW233210   3.764   4.324   5.809  0.9402  1.2137  0.1493
 7251SOL     OW33211   1.871   2.275   7.236 -0.6816 -0.2206 -0.1213
 7251SOL    HW133212   1.960   2.302   7.257 -0.2499  0.0898 -2.3325
 7251SOL    HW233213   1.831   2.294   7.320 -0.6036 -1.9216  0.3019
 7252SOL     OW33214   4.653   3.760   2.889 -0.2738 -0.5414  0.2754
 7252SOL    HW133215   4.701   3.762   2.806  2.4090 -2.1823  1.7875
 7252SOL    HW233216   4.700   3.705   2.952 -1.4563 -1.1335  0.6342
 7253SOL     OW33217   3.688   0.620  11.903 -0.4091 -0.2279  0.4547
 7253SOL    HW133218   3.634   0.646  11.978 -0.0737  1.2244  0.1911
 7253SOL    HW233219   3.776   0.617  11.940 -0.4521 -0.9134  0.4906
 7254SOL     OW33220   3.947   3.067   7.879 -0.0348  0.2283  0.0475
 7254SOL    HW133221   3.990   3.008   7.942 -1.6700 -0.6740  0.3191
 7254SOL    HW233222   3.957   3.022   7.795  0.3699 -0.2725  0.3596
 7255SOL     OW33223   4.037   1.971   4.393 -0.2191  0.6773  0.8301
 7255SOL    HW133224   3.974   1.921   4.445  0.2958  0.9982  1.7511
 7255SOL    HW233225   4.081   1.912   4.332 -0.8952 -0.3130  1.2884
 7256SOL     OW33226   3.025   0.893   4.002 -0.2806  0.0667 -0.6476
 7256SOL    HW133227   2.951   0.844   4.038 -0.5368  0.4834 -0.6016
 7256SOL    HW233228   3.011   0.981   4.039  0.2365 -0.6688  1.2552
 7257SOL     OW33229   3.335   3.996   3.307 -0.0035  0.1790  0.1263
 7257SOL    HW133230   3.305   4.056   3.238 -0.3225  1.8328  1.6881
 7257SOL    HW233231   3.339   3.918   3.252 -1.1545  1.2989 -1.5707
 7258SOL     OW33232   3.781   0.828   9.597  0.5757 -0.6379 -0.3717
 7258SOL    HW133233   3.799   0.840   9.504  1.5566  1.5949  0.1072
 7258SOL    HW233234   3.845   0.892   9.626  0.5129 -0.6226 -0.2645
 7259SOL     OW33235   0.852   2.162  11.812  0.4392  0.0971 -0.9002
 7259SOL    HW133236   0.915   2.178  11.882  0.1264 -0.9988 -0.3587
 7259SOL    HW233237   0.908   2.177  11.736 -0.4325  2.0468 -1.1748
 7260SOL     OW33238   3.309   0.217   1.066  0.0282 -0.1449 -0.0676
 7260SOL    HW133239   3.266   0.139   1.102  1.3977 -0.7122  0.3362
 7260SOL    HW233240   3.349   0.241   1.149  0.4817 -0.4009 -0.2125
 7261SOL     OW33241   2.338   1.679   2.720  0.3271  0.2795  0.2507
 7261SOL    HW133242   2.303   1.723   2.643 -0.2891  0.8015  0.8265
 7261SOL    HW233243   2.294   1.723   2.793 -1.1738 -0.1060 -0.4466
 7262SOL     OW33244   0.007   3.605   5.054 -0.6858  0.3611  0.0104
 7262SOL    HW133245   0.012   3.511   5.073 -0.1069  0.1287 -1.2798
 7262SOL    HW233246   4.709   3.588   4.962  0.7983 -0.8124 -0.1404
 7263SOL     OW33247   2.020   1.949  10.501 -0.1762  0.1955  0.4532
 7263SOL    HW133248   2.037   1.855  10.494  2.0610  0.4267  3.1303
 7263SOL    HW233249   2.097   1.990  10.462 -0.2297 -2.3677 -2.3179
 7264SOL     OW33250   3.491   2.850   7.627  0.3895 -0.0960 -0.7733
 7264SOL    HW133251   3.441   2.930   7.641  0.0735 -0.4461  0.1349
 7264SOL    HW233252   3.532   2.830   7.711 -3.0935  0.5957  1.0944
 7265SOL     OW33253   2.252   2.327   2.433 -0.3755 -0.1222 -0.3580
 7265SOL    HW133254   2.347   2.334   2.437 -0.2202 -1.1556 -2.2639
 7265SOL    HW233255   2.246   2.231   2.438 -1.1047 -0.0662 -0.0798
 7266SOL     OW33256   4.017   0.845   5.675 -0.2810  0.1420  0.3596
 7266SOL    HW133257   3.999   0.939   5.678 -1.4197 -0.0749  0.4488
 7266SOL    HW233258   3.965   0.830   5.596 -1.2606  0.1463  0.9947
 7267SOL     OW33259   2.231   1.591  13.536 -0.6817 -0.2872 -0.1238
 7267SOL    HW133260   2.245   1.497  13.540  0.8201  0.0074  1.6226
 7267SOL    HW233261   2.176   1.606  13.613  0.3975  1.6686  0.2874
 7268SOL     OW33262   2.064   2.133   5.237  0.5733 -0.2907  0.0651
 7268SOL    HW133263   2.100   2.199   5.177  2.1442 -0.5279  0.7497
 7268SOL    HW233264   1.972   2.151   5.216  0.3378 -0.7503  0.7078
 7269SOL     OW33265   3.281   0.970   8.560 -0.2384 -0.7840  0.2018
 7269SOL    HW133266   3.316   1.015   8.484  1.0366 -0.5760  0.9083
 7269SOL    HW233267   3.188   0.991   8.551 -0.1240  0.0021  0.8451
 7270SOL     OW33268   2.086   3.899  14.769 -0.0903  0.5400 -0.0980
 7270SOL    HW133269   2.046   3.973  14.724 -3.1341 -0.0733  1.6130
 7270SOL    HW233270   2.035   3.824  14.738 -0.2900  1.3476 -1.7442
 7271SOL     OW33271   0.811   3.218   5.386  0.3063 -0.1373  0.6327
 7271SOL    HW133272   0.864   3.157   5.437  2.6013  1.1876 -0.1832
 7271SOL    HW233273   0.865   3.240   5.311  2.2082 -1.3199  1.6633
 7272SOL     OW33274   3.085   2.112   7.745  0.6492 -0.1635  0.5701
 7272SOL    HW133275   3.172   2.129   7.782  0.6008  2.1285 -0.3695
 7272SOL    HW233276   3.097   2.150   7.658  1.6143  2.4046  1.8186
 7273SOL     OW33277   4.556   0.555   9.015 -0.6837 -0.0327  0.3603
 7273SOL    HW133278   4.565   0.463   9.043  1.0490  0.7216  2.2996
 7273SOL    HW233279   4.628   0.591   9.067 -0.7351  1.4173 -0.5857
 7274SOL     OW33280   2.642   4.488   9.210 -0.1373  0.1388  0.3234
 7274SOL    HW133281   2.677   4.568   9.169 -0.8984  1.2784  1.8852
 7274SOL    HW233282   2.553   4.499   9.177 -0.2173 -0.6927  0.2694
 7275SOL     OW33283   0.589   2.129   9.227 -0.0468 -0.5679  0.2179
 7275SOL    HW133284   0.594   2.207   9.172 -0.2214 -0.9288 -0.3107
 7275SOL    HW233285   0.628   2.171   9.304 -0.4467  0.1636  0.0254
 7276SOL     OW33286   2.677   1.501   4.542  0.4463  0.4022 -0.6150
 7276SOL    HW133287   2.750   1.562   4.557  0.8507 -0.3786  0.6076
 7276SOL    HW233288   2.646   1.493   4.632  2.1581 -4.0887 -0.4322
 7277SOL     OW33289   4.708   0.133   4.491  0.2486  0.3950 -0.1126
 7277SOL    HW133290   4.696   0.217   4.536 -2.4562 -0.3908  0.6125
 7277SOL    HW233291   0.045   0.091   4.551  1.2180  0.5485 -1.0076
 7278SOL     OW33292   4.431   1.243   4.753 -0.1601 -0.3616 -0.5156
 7278SOL    HW133293   4.441   1.157   4.793  0.6026 -0.2233 -0.3938
 7278SOL    HW233294   4.369   1.291   4.808  2.1507  1.4833  0.5231
 7279SOL     OW33295   3.540   1.855   1.875  0.1113  0.2958  0.5086
 7279SOL    HW133296   3.590   1.774   1.878  0.3889  0.5526  2.7063
 7279SOL    HW233297   3.551   1.878   1.783  2.5434 -1.8935  0.2298
 7280SOL     OW33298   3.527   1.446  13.904 -0.8836 -0.3051 -0.1530
 7280SOL    HW133299   3.564   1.358  13.900  0.3809  0.2378 -0.2113
 7280SOL    HW233300   3.484   1.431  13.820 -0.0706 -3.1140 -0.0653
 7281SOL     OW33301   3.714   3.428   8.491 -0.0510 -0.0713 -0.6443
 7281SOL    HW133302   3.755   3.376   8.421 -0.0909 -0.0835 -0.6590
 7281SOL    HW233303   3.634   3.461   8.449  0.8003  1.7056 -0.8526
 7282SOL     OW33304   0.825   0.160   8.973 -0.5979  0.1148 -0.2168
 7282SOL    HW133305   0.919   0.163   8.955 -0.2914 -1.5745  1.1549
 7282SOL    HW233306   0.828   0.248   9.009  0.9539  0.2405 -0.6607
 7283SOL     OW33307   4.392   4.532   6.868  0.5032  0.2741 -0.1781
 7283SOL    HW133308   4.455   4.554   6.800 -0.2903  2.3503 -0.2241
 7283SOL    HW233309   4.307   4.568   6.842  1.2791  1.5980 -0.8596
 7284SOL     OW33310   4.035   0.865   8.588  0.4695  0.4572  0.0782
 7284SOL    HW133311   4.076   0.881   8.673 -0.3314  1.8317  0.2034
 7284SOL    HW233312   3.986   0.948   8.586  0.2031  0.3380  1.3376
 7285SOL     OW33313   3.522   0.484   7.710 -0.4847 -0.8206 -0.5050
 7285SOL    HW133314   3.547   0.409   7.764 -0.2647 -0.3532  0.0412
 7285SOL    HW233315   3.477   0.537   7.776 -1.6878 -2.7858  0.2491
 7286SOL     OW33316   1.509   2.405   7.532 -0.7724  0.4828 -0.3886
 7286SOL    HW133317   1.598   2.374   7.512 -0.7891  1.1369 -1.4374
 7286SOL    HW233318   1.488   2.461   7.458  0.6968 -0.8354 -1.8019
 7287SOL     OW33319   2.107   0.911   7.305 -0.0156  0.2720 -0.0720
 7287SOL    HW133320   2.109   0.983   7.243 -0.0481  0.5701  0.2756
 7287SOL    HW233321   2.076   0.959   7.381  0.1627  0.6506 -0.2391
 7288SOL     OW33322   4.081   0.826   7.082  0.0192  0.3780  0.9066
 7288SOL    HW133323   4.027   0.809   7.005  0.9941 -1.5726  0.6599
 7288SOL    HW233324   4.039   0.905   7.116 -1.5443  0.4774 -1.2710
 7289SOL     OW33325   3.507   3.875   8.722 -0.0621 -0.6175  1.0591
 7289SOL    HW133326   3.521   3.807   8.788 -1.2014 -1.2321  0.6644
 7289SOL    HW233327   3.529   3.955   8.770 -1.2340 -0.0379  0.6282
 7290SOL     OW33328   3.769   0.846   4.681  0.5060 -0.2397  0.4228
 7290SOL    HW133329   3.768   0.760   4.640 -0.6016 -0.5642  1.1188
 7290SOL    HW233330   3.834   0.882   4.621  1.2212 -1.6282  0.3673
 7291SOL     OW33331   3.443   0.726   4.456 -0.0018 -0.0083 -0.7182
 7291SOL    HW133332   3.466   0.659   4.392  1.4447  0.4861 -0.7104
 7291SOL    HW233333   3.479   0.805   4.417 -1.6340  1.5119  0.8595
 7292SOL     OW33334   3.731   2.336  14.161  0.4729  0.1795  0.4905
 7292SOL    HW133335   3.679   2.266  14.122  1.5429  0.2438 -1.0699
 7292SOL    HW233336   3.820   2.311  14.137  0.9227 -1.0119  3.4466
 7293SOL     OW33337   0.672   3.677   7.636  0.5697 -0.5421 -0.4905
 7293SOL    HW133338   0.630   3.602   7.678 -0.0134 -0.4604 -0.9345
 7293SOL    HW233339   0.597   3.734   7.619  1.0506 -0.3376 -1.8867
 7294SOL     OW33340   2.973   2.876   9.890 -0.6289  0.1997 -0.8278
 7294SOL    HW133341   2.974   2.927   9.972 -0.1095 -0.2805 -0.5340
 7294SOL    HW233342   3.066   2.854   9.889 -0.1711  2.1023 -0.3492
 7295SOL     OW33343   1.198   0.685   6.380 -0.1800 -0.4162  0.2631
 7295SOL    HW133344   1.251   0.699   6.458  1.4992 -0.0330 -0.9597
 7295SOL    HW233345   1.113   0.725   6.398  0.1887  0.1287  0.7447
 7296SOL     OW33346   3.127   0.080   8.252 -0.4998 -0.1532 -0.5664
 7296SOL    HW133347   3.114   4.716   8.285 -2.1868  1.1097  2.1061
 7296SOL    HW233348   3.157   0.062   8.163  3.4836 -0.7180  0.9106
 7297SOL     OW33349   4.351   4.436   0.902 -0.1774  0.0150  0.2198
 7297SOL    HW133350   4.406   4.514   0.902 -0.6038  0.2998 -2.1471
 7297SOL    HW233351   4.274   4.464   0.853 -0.0110  0.4060  0.1831
 7298SOL     OW33352   4.426   1.389   4.006 -0.1957  0.4308 -0.8871
 7298SOL    HW133353   4.406   1.305   3.963  2.0102 -0.2178 -0.6464
 7298SOL    HW233354   4.381   1.452   3.949 -0.7071  1.1284  0.2822
 7299SOL     OW33355   2.967   2.416   6.542  0.5647 -0.5371  0.2271
 7299SOL    HW133356   2.942   2.344   6.484  1.0881 -0.6477  0.1455
 7299SOL    HW233357   2.988   2.491   6.485 -0.0495 -0.9017 -0.4813
 7300SOL     OW33358   4.416   0.856   5.374  0.4650  0.2557  0.1637
 7300SOL    HW133359   4.466   0.776   5.390 -0.1505  0.1210  1.3793
 7300SOL    HW233360   4.464   0.923   5.423  0.4286  1.1183 -0.9761
 7301SOL     OW33361   4.033   1.087  15.417  0.4697  0.5994  0.9184
 7301SOL    HW133362   3.954   1.047  15.453  0.0228  3.1789  2.7750
 7301SOL    HW233363   4.086   1.107  15.494  0.7905 -0.5258  0.9942
 7302SOL     OW33364   1.606   3.278   7.816  0.2850 -0.3251  0.6345
 7302SOL    HW133365   1.603   3.184   7.835  1.5160 -0.6950 -0.9985
 7302SOL    HW233366   1.628   3.318   7.900  1.3073  2.1947 -0.8338
 7303SOL     OW33367   2.499   3.051   3.050  0.9603 -0.3562 -0.0725
 7303SOL    HW133368   2.525   2.973   3.000  0.1817  0.4397 -1.7000
 7303SOL    HW233369   2.538   3.034   3.136  2.1127 -3.3786 -1.1589
 7304SOL     OW33370   1.747   4.694   6.172  0.0705 -0.0133  0.3919
 7304SOL    HW133371   1.745   0.063   6.190 -2.1870  0.1537 -0.6959
 7304SOL    HW233372   1.835   4.687   6.134 -0.2624 -0.4248 -0.3049
 7305SOL     OW33373   2.303   1.283   2.380 -0.0687  0.1459  0.0583
 7305SOL    HW133374   2.303   1.377   2.402 -1.8557 -0.2113  1.6339
 7305SOL    HW233375   2.214   1.259   2.405  0.4923 -0.2880  1.6256
 7306SOL     OW33376   1.478   3.950   4.491  0.2048 -0.5440 -0.3840
 7306SOL    HW133377   1.418   3.994   4.431  1.9122  2.8208  0.4089
 7306SOL    HW233378   1.434   3.954   4.576  0.9622  1.1109 -0.0718
 7307SOL     OW33379   0.983   0.182   7.930  0.3480 -0.4446 -0.0037
 7307SOL    HW133380   1.034   0.223   7.860  0.2615  0.4514  0.4642
 7307SOL    HW233381   1.057   0.165   7.989  2.5475  3.1093 -1.7432
 7308SOL     OW33382   2.929   0.535   1.085 -0.1570 -0.2201 -0.1711
 7308SOL    HW133383   3.005   0.484   1.055 -1.0331 -3.2876  2.8836
 7308SOL    HW233384   2.900   0.567   1.000  0.1124  1.4903  0.3857
 7309SOL     OW33385   4.353   4.238   9.163  0.1091 -0.8700  0.5324
 7309SOL    HW133386   4.273   4.291   9.157 -0.1555 -1.3188  0.0744
 7309SOL    HW233387   4.417   4.276   9.103 -0.4669  0.2532  0.6185
 7310SOL     OW33388   2.935   0.801   7.529  0.1325  0.0844  0.6677
 7310SOL    HW133389   2.864   0.859   7.500  0.9148  0.8323  0.2272
 7310SOL    HW233390   2.885   0.733   7.573 -0.5262 -0.7937 -1.4324
 7311SOL     OW33391   2.246   1.386  17.390  0.3674 -0.5647 -0.0659
 7311SOL    HW133392   2.156   1.400  17.421  1.3453 -0.1279  2.5142
 7311SOL    HW233393   2.240   1.313  17.329  0.5413 -1.7388  1.3404
 7312SOL     OW33394   1.197   1.700   4.316 -0.0369 -0.0624  0.2229
 7312SOL    HW133395   1.124   1.685   4.256 -0.1155  0.1424  0.2673
 7312SOL    HW233396   1.241   1.781   4.289 -0.6505  0.5330  0.9928
 7313SOL     OW33397   2.433   0.079   5.584 -0.1729 -0.0727  0.3801
 7313SOL    HW133398   2.457   0.001   5.635 -1.0023 -0.9072 -0.5081
 7313SOL    HW233399   2.518   0.099   5.545  0.5906 -0.9592  1.5775
 7314SOL     OW33400   2.971   1.931   2.350  0.1776  0.0611  0.0340
 7314SOL    HW133401   2.907   1.981   2.299 -0.6703  0.1808  1.2007
 7314SOL    HW233402   2.914   1.874   2.402 -1.5699  0.8941 -0.9680
 7315SOL     OW33403   2.205   1.418  11.324  0.2739 -0.2384 -0.8609
 7315SOL    HW133404   2.166   1.443  11.240 -1.9660  0.0830  0.2823
 7315SOL    HW233405   2.293   1.393  11.296  0.5456  0.8298 -0.9746
 7316SOL     OW33406   4.031   0.248  15.436 -0.3933  0.1583  0.2525
 7316SOL    HW133407   4.043   0.154  15.443 -0.9725  0.1235  0.7228
 7316SOL    HW233408   3.995   0.253  15.347  0.9263  2.0435 -0.1921
 7317SOL     OW33409   0.955   2.942   3.917  0.9174  0.3358  0.0323
 7317SOL    HW133410   1.039   2.989   3.919  0.4409  1.1984 -0.3154
 7317SOL    HW233411   0.932   2.955   3.826 -0.3394  0.6162  0.3921
 7318SOL     OW33412   4.717   2.626   5.941  0.1682  0.4799 -0.0318
 7318SOL    HW133413   0.002   2.539   5.979 -0.0556  0.5392  0.1622
 7318SOL    HW233414   0.078   2.669   5.945  0.4207  0.0594 -0.8166
 7319SOL     OW33415   0.878   3.644  17.396 -0.2671  0.2088  0.3057
 7319SOL    HW133416   0.791   3.659  17.435  0.0963  0.4777  1.0127
 7319SOL    HW233417   0.860   3.617  17.306 -1.7280  0.2971  0.5607
 7320SOL     OW33418   4.215   4.184   2.325  0.7711 -0.0663  0.0385
 7320SOL    HW133419   4.210   4.094   2.293  2.1337 -0.3542  0.6380
 7320SOL    HW233420   4.126   4.218   2.314  0.5053 -0.9688 -0.6021
 7321SOL     OW33421   0.929   3.776  17.000 -0.3653 -0.1891 -0.4694
 7321SOL    HW133422   0.972   3.719  16.936  0.3589 -0.5530  0.3506
 7321SOL    HW233423   0.985   3.851  16.978  2.0620 -2.8791 -3.4372
 7322SOL     OW33424   3.998   2.616   3.891  0.4243  0.1029  0.1435
 7322SOL    HW133425   3.974   2.670   3.967 -3.6632 -0.7386 -0.5603
 7322SOL    HW233426   3.918   2.565   3.877 -0.6571  1.6364  0.6432
 7323SOL     OW33427   2.870   3.274   5.324  0.0103 -0.3350 -0.8491
 7323SOL    HW133428   2.918   3.352   5.295  0.9134 -0.9309 -0.9672
 7323SOL    HW233429   2.787   3.316   5.345  2.2508  3.3286  0.8286
 7324SOL     OW33430   3.404   0.266   9.061  0.2352 -0.1072  0.2409
 7324SOL    HW133431   3.313   0.262   9.089 -0.2874 -1.1361 -1.6660
 7324SOL    HW233432   3.403   0.202   8.990  1.5395  0.5953 -0.4072
 7325SOL     OW33433   2.582   0.358   8.081  0.4643 -0.1298  0.2682
 7325SOL    HW133434   2.570   0.422   8.151 -1.4645 -0.6844  0.4674
 7325SOL    HW233435   2.560   0.413   8.006 -1.3612 -0.2938  0.6637
 7326SOL     OW33436   0.701   3.911  16.900 -0.5694  0.5520 -0.2826
 7326SOL    HW133437   0.669   3.862  16.824  1.9349 -1.7110  0.1206
 7326SOL    HW233438   0.781   3.865  16.923  0.0310  0.7799 -1.8806
 7327SOL     OW33439   0.909   3.506   2.374 -0.2685 -0.0006  0.2252
 7327SOL    HW133440   0.845   3.463   2.318  1.2389  1.1778 -2.4107
 7327SOL    HW233441   0.973   3.440   2.400  1.3648  2.3545  2.2340
 7328SOL     OW33442   4.177   0.727   7.563  0.2062  0.3783 -0.9993
 7328SOL    HW133443   4.234   0.653   7.585 -0.8263  0.1939  1.0464
 7328SOL    HW233444   4.099   0.678   7.588  1.0461 -0.7375 -0.5481
 7329SOL     OW33445   3.811   3.646  13.514  0.1815 -0.4128  0.2358
 7329SOL    HW133446   3.875   3.709  13.482  2.3617 -2.5435  0.3796
 7329SOL    HW233447   3.778   3.611  13.431  0.7107 -0.4523  0.0388
 7330SOL     OW33448   0.199   2.706   3.107  0.2965 -0.1113  0.0537
 7330SOL    HW133449   0.148   2.655   3.045  2.0229 -2.0179  0.2244
 7330SOL    HW233450   0.165   2.792   3.081  2.1352  1.3242  2.3554
 7331SOL     OW33451   2.254   3.318   9.076  0.2822 -0.7955  0.5570
 7331SOL    HW133452   2.333   3.288   9.032  0.6517 -0.1957  0.8149
 7331SOL    HW233453   2.300   3.365   9.145  0.0151 -0.6387  0.6294
 7332SOL     OW33454   1.651   1.987   5.802 -0.5957 -0.0465 -0.0080
 7332SOL    HW133455   1.686   1.999   5.714 -0.9996 -0.5477 -0.2377
 7332SOL    HW233456   1.734   1.987   5.851 -1.0661 -0.1604  0.7997
 7333SOL     OW33457   4.370   4.358   4.618 -0.5521  0.0989 -0.1864
 7333SOL    HW133458   4.444   4.364   4.679 -1.7626 -2.8780  1.5974
 7333SOL    HW233459   4.295   4.402   4.659  0.2458  0.2428  1.0990
 7334SOL     OW33460   3.182   0.398   8.509 -0.0872 -0.6100 -0.0483
 7334SOL    HW133461   3.123   0.453   8.561  1.3868  1.1924 -0.2733
 7334SOL    HW233462   3.135   0.370   8.430 -1.0112  1.3109 -0.1918
 7335SOL     OW33463   2.522   0.550  12.202  0.0652  0.0827 -0.0312
 7335SOL    HW133464   2.606   0.575  12.239  0.8045 -0.3963 -1.4131
 7335SOL    HW233465   2.459   0.569  12.272 -0.6603  0.2714 -0.7403
 7336SOL     OW33466   1.055   0.655   2.735 -0.5295 -0.4543 -0.2619
 7336SOL    HW133467   1.068   0.639   2.641  0.5334 -1.6132  0.0874
 7336SOL    HW233468   1.044   0.566   2.769 -0.3088 -1.2172 -2.1809
 7337SOL     OW33469   0.734   1.130  10.970  0.3684 -0.6614 -0.1026
 7337SOL    HW133470   0.670   1.129  11.040  2.0256  0.4244  1.4164
 7337SOL    HW233471   0.708   1.060  10.910  0.7361 -0.6863 -0.2373
 7338SOL     OW33472   0.105   2.535  13.575 -0.3952  0.2162 -0.0237
 7338SOL    HW133473   0.134   2.518  13.665 -3.6368  1.4885  1.2775
 7338SOL    HW233474   0.010   2.540  13.585 -0.4513 -0.1752 -0.3730
 7339SOL     OW33475   2.067   1.474   0.385  0.5842 -0.1880  0.2556
 7339SOL    HW133476   1.987   1.479   0.331 -0.6037 -5.0206  1.5565
 7339SOL    HW233477   2.125   1.455   0.311 -1.5859 -3.5798 -0.5620
 7340SOL     OW33478   1.364   1.390   3.271  0.1142 -0.4562 -0.2278
 7340SOL    HW133479   1.297   1.372   3.337 -0.8572 -1.0125 -1.3712
 7340SOL    HW233480   1.433   1.430   3.324  2.3776 -3.3179 -1.0260
 7341SOL     OW33481   3.668   1.462  12.292  0.6659  0.1442  0.0217
 7341SOL    HW133482   3.723   1.511  12.352  0.8693 -0.4456  0.3227
 7341SOL    HW233483   3.720   1.383  12.277 -0.2145  0.0059 -2.3725
 7342SOL     OW33484   1.437   3.812   2.371 -0.4776 -0.2494  0.0371
 7342SOL    HW133485   1.346   3.844   2.372 -1.2786 -2.5612  2.3538
 7342SOL    HW233486   1.464   3.816   2.279  1.7348 -0.2644  0.6881
 7343SOL     OW33487   3.818   3.499   8.729  0.4603  0.3784 -0.2037
 7343SOL    HW133488   3.907   3.494   8.695  0.2820  0.3024 -0.6590
 7343SOL    HW233489   3.781   3.459   8.651  1.3913 -0.8634 -0.0122
 7344SOL     OW33490   4.431   3.309   9.477  0.1408 -0.1539 -0.7093
 7344SOL    HW133491   4.444   3.401   9.498  0.8842 -0.2638 -0.7061
 7344SOL    HW233492   4.398   3.273   9.559 -1.8960  1.5232 -0.7741
 7345SOL     OW33493   1.361   2.621   8.707 -0.0057 -0.5232  0.2098
 7345SOL    HW133494   1.283   2.660   8.667 -0.2829 -1.8303 -0.5181
 7345SOL    HW233495   1.345   2.601   8.799  0.6524  3.3451  1.1620
 7346SOL     OW33496   0.441   3.945   4.269 -0.0171  0.5523 -0.2072
 7346SOL    HW133497   0.534   3.970   4.266  0.4765 -0.8273  3.0990
 7346SOL    HW233498   0.394   4.028   4.271  0.2636  0.7014  0.2856
 7347SOL     OW33499   3.264   2.165   5.090  0.1410 -0.5438  0.1608
 7347SOL    HW133500   3.229   2.099   5.150  1.6560 -1.6339 -0.1684
 7347SOL    HW233501   3.210   2.238   5.119  0.5626 -0.6529  1.2408
 7348SOL     OW33502   2.558   4.347   1.387 -0.2821  0.3863  0.5267
 7348SOL    HW133503   2.501   4.419   1.360 -1.9818 -0.9511  0.5778
 7348SOL    HW233504   2.498   4.275   1.402 -0.0355 -0.0982 -0.7855
 7349SOL     OW33505   1.244   2.080   9.517  0.3809  0.1916  0.0840
 7349SOL    HW133506   1.205   2.059   9.432 -0.6791  1.4449  0.2693
 7349SOL    HW233507   1.229   1.994   9.556 -1.6983  0.0812 -0.9675
 7350SOL     OW33508   1.273   2.844  12.112  0.2785  0.2529  0.0444
 7350SOL    HW133509   1.354   2.860  12.162  0.5659 -1.0585 -0.0115
 7350SOL    HW233510   1.209   2.852  12.182  0.7281  0.6360  0.4168
 7351SOL     OW33511   1.847   0.901   4.349 -0.1873 -0.2477 -0.2183
 7351SOL    HW133512   1.801   0.834   4.399 -0.1844  0.2061  0.3889
 7351SOL    HW233513   1.771   0.937   4.304 -0.2803 -1.0694 -0.7151
 7352SOL     OW33514   2.643   1.502   4.262  0.0722  0.1385  0.7492
 7352SOL    HW133515   2.619   1.414   4.233  0.7737 -0.7438  2.8555
 7352SOL    HW233516   2.676   1.492   4.351  0.7790 -0.4285  0.4314
 7353SOL     OW33517   0.337   2.911   5.905 -0.2246  0.1455 -0.5518
 7353SOL    HW133518   0.369   2.821   5.897  2.6309  0.7949  3.6999
 7353SOL    HW233519   0.303   2.920   5.816  2.9543 -0.8956 -1.8567
 7354SOL     OW33520   3.546   0.303   0.666 -0.0666  0.4711 -0.2785
 7354SOL    HW133521   3.639   0.325   0.672  0.0196  0.4364 -1.4700
 7354SOL    HW233522   3.535   0.308   0.571 -0.9552  2.6492 -0.0659
 7355SOL     OW33523   2.420   3.875   7.880  0.1868  0.1542  0.3742
 7355SOL    HW133524   2.402   3.969   7.877  1.3772  0.3807  0.1690
 7355SOL    HW233525   2.332   3.838   7.881  0.6962 -1.0987 -0.8464
 7356SOL     OW33526   2.088   2.309   6.913 -0.7590 -0.1886  0.3765
 7356SOL    HW133527   2.052   2.355   6.836  1.9880  2.2343  0.5117
 7356SOL    HW233528   2.013   2.271   6.957 -0.7087 -1.5812 -0.7236
 7357SOL     OW33529   4.620   3.911   9.924  0.1295  0.5128 -0.2132
 7357SOL    HW133530   4.588   3.877   9.841 -0.2994 -0.5829  0.3998
 7357SOL    HW233531   4.549   3.974   9.940 -0.2605  0.5714 -2.2669
 7358SOL     OW33532   1.736   2.550   3.325  0.3272  0.1121  0.1917
 7358SOL    HW133533   1.663   2.606   3.298 -0.7753 -1.8196 -0.7583
 7358SOL    HW233534   1.747   2.496   3.247 -0.7911 -0.1607  0.2218
 7359SOL     OW33535   0.950   2.199   1.490  0.2059 -0.3774  0.1838
 7359SOL    HW133536   0.941   2.220   1.397 -0.3821  0.2931  0.3921
 7359SOL    HW233537   1.038   2.161   1.500 -0.6270 -2.8107 -1.7092
 7360SOL     OW33538   2.700   4.352  13.293 -0.6603  0.5009 -0.7245
 7360SOL    HW133539   2.640   4.418  13.329  0.9015  0.1569  2.5637
 7360SOL    HW233540   2.658   4.328  13.211  0.9146 -2.9703 -0.5388
 7361SOL     OW33541   3.516   3.694   5.860  0.1573  0.4001  0.1088
 7361SOL    HW133542   3.530   3.762   5.926  1.0681 -0.5610  0.9009
 7361SOL    HW233543   3.576   3.626   5.891  0.4247  0.7194  0.2951
 7362SOL     OW33544   2.046   3.580   8.076  0.1761  0.0132  0.1532
 7362SOL    HW133545   1.985   3.627   8.134  0.4831 -0.4247  0.8271
 7362SOL    HW233546   1.990   3.550   8.004  0.3884  0.2042 -0.0922
 7363SOL     OW33547   0.125   0.900  11.545 -0.4831  0.5806 -0.3463
 7363SOL    HW133548   0.046   0.885  11.494 -2.7513  2.4742  2.6558
 7363SOL    HW233549   0.191   0.943  11.490  0.3177 -0.2571 -0.0416
 7364SOL     OW33550   0.594   0.262   1.353  0.2015 -0.4774  0.0717
 7364SOL    HW133551   0.584   0.248   1.447  0.8126 -1.9151 -0.0742
 7364SOL    HW233552   0.512   0.224   1.324  0.1037 -0.2538  0.0528
 7365SOL     OW33553   2.851   0.615   8.232  0.9038 -0.0811 -0.1924
 7365SOL    HW133554   2.785   0.683   8.223  1.5551  0.3877 -1.4434
 7365SOL    HW233555   2.935   0.653   8.207  1.6572 -1.6876 -0.1166
 7366SOL     OW33556   0.288   0.531  11.854  0.0519  0.4583 -0.2357
 7366SOL    HW133557   0.252   0.475  11.923 -0.5212 -1.1199 -1.8304
 7366SOL    HW233558   0.256   0.621  11.862 -1.0528 -0.3345  3.8765
 7367SOL     OW33559   3.845   0.667   9.257 -0.0393 -0.0130 -0.5050
 7367SOL    HW133560   3.852   0.762   9.269 -1.8734 -0.3701  3.2484
 7367SOL    HW233561   3.936   0.641   9.274  0.5406  1.2336 -1.6813
 7368SOL     OW33562   4.109   2.984   2.871  0.5985  0.5656 -0.2477
 7368SOL    HW133563   4.157   3.033   2.804 -0.7758  0.5944 -1.2218
 7368SOL    HW233564   4.046   2.946   2.810  0.0843  0.0772  0.5977
 7369SOL     OW33565   1.093   0.512   4.809 -0.0887 -0.5726 -0.9855
 7369SOL    HW133566   1.027   0.531   4.743  1.2243  3.1137 -1.2187
 7369SOL    HW233567   1.175   0.498   4.763 -0.4074  1.2060 -2.0770
 7370SOL     OW33568   4.419   0.229   1.907  0.1313 -0.1605 -0.1819
 7370SOL    HW133569   4.329   0.252   1.884 -0.9624 -1.4111  2.8038
 7370SOL    HW233570   4.427   0.157   1.845 -2.8081 -1.6807  1.1669
 7371SOL     OW33571   4.198   1.781   4.244  0.1747  0.0006  0.3425
 7371SOL    HW133572   4.187   1.706   4.302 -0.6058 -1.3894 -1.5943
 7371SOL    HW233573   4.206   1.736   4.160  1.2843 -0.2687  0.5820
 7372SOL     OW33574   1.401   1.613  11.779  0.5446 -0.2679 -0.4190
 7372SOL    HW133575   1.330   1.557  11.809  1.5375 -1.0690  0.4642
 7372SOL    HW233576   1.467   1.549  11.754  0.9203 -0.4835  1.0714
 7373SOL     OW33577   4.342   2.733   5.085  0.0843 -0.3864  0.1962
 7373SOL    HW133578   4.303   2.646   5.076 -2.0435  0.6035 -0.1916
 7373SOL    HW233579   4.266   2.787   5.060 -0.0656 -0.9755 -0.5964
 7374SOL     OW33580   4.443   3.688  11.423 -0.1073  0.3518  0.1519
 7374SOL    HW133581   4.369   3.683  11.363  0.1214 -1.3771  0.0331
 7374SOL    HW233582   4.418   3.759  11.483 -0.0495 -0.4068  1.0709
 7375SOL     OW33583   2.357   4.316   9.908  0.4177 -0.3441  0.4483
 7375SOL    HW133584   2.308   4.362   9.975 -1.0537 -0.5035 -0.5068
 7375SOL    HW233585   2.283   4.265   9.875 -0.9101  2.3271 -0.6425
 7376SOL     OW33586   2.455   0.821  16.891  0.1876  0.3271  0.3814
 7376SOL    HW133587   2.368   0.785  16.871 -0.8823  2.1799  1.6264
 7376SOL    HW233588   2.491   0.809  16.803  1.2615 -3.2227  1.3393
 7377SOL     OW33589   3.469   1.823   3.496  0.1424 -0.0188 -0.0481
 7377SOL    HW133590   3.521   1.896   3.529 -0.5449  0.0726  0.8410
 7377SOL    HW233591   3.417   1.807   3.575 -1.2783 -0.1057 -1.0008
 7378SOL     OW33592   0.590   2.763   8.862 -0.1918 -0.3239  0.3697
 7378SOL    HW133593   0.682   2.768   8.837  0.2702 -0.9757  1.9289
 7378SOL    HW233594   0.610   2.757   8.956 -1.3931  0.0737  0.6494
 7379SOL     OW33595   1.894   0.962   6.006  0.0512 -0.4140  0.5976
 7379SOL    HW133596   1.924   1.013   6.082 -0.1241  1.9958 -0.9299
 7379SOL    HW233597   1.816   1.016   5.989  0.5038  0.5454  1.5224
 7380SOL     OW33598   2.793   1.729   6.479  0.4706 -0.4118  0.3725
 7380SOL    HW133599   2.874   1.753   6.524 -0.2165  0.9354  0.8838
 7380SOL    HW233600   2.729   1.727   6.549  0.3909  1.5745  0.3545
 7381SOL     OW33601   3.321   2.545   7.839 -0.3910 -0.1685 -0.2942
 7381SOL    HW133602   3.372   2.500   7.907  0.4081  0.0593 -0.7350
 7381SOL    HW233603   3.329   2.640   7.850  1.1316 -0.0830 -2.0813
 7382SOL     OW33604   2.064   4.391   5.633 -0.1848 -0.2507  0.0620
 7382SOL    HW133605   2.003   4.423   5.700 -0.3127  0.4993 -0.4076
 7382SOL    HW233606   2.018   4.425   5.556  0.9088  1.2978  0.0968
 7383SOL     OW33607   4.545   0.205   6.292  0.6404  0.5844 -0.0315
 7383SOL    HW133608   4.535   0.300   6.295 -0.3930  0.4719  0.1335
 7383SOL    HW233609   4.450   0.189   6.290  0.8198 -0.5703  0.5321
 7384SOL     OW33610   3.931   2.610   7.828 -0.2634  0.7278 -0.0323
 7384SOL    HW133611   3.910   2.587   7.738 -1.1147  0.9172  0.1110
 7384SOL    HW233612   3.842   2.613   7.863 -0.9519 -0.1132 -1.7242
 7385SOL     OW33613   2.763   2.588  10.084  0.0865 -0.5381 -0.2216
 7385SOL    HW133614   2.766   2.533  10.162 -0.5509 -0.1201  0.1046
 7385SOL    HW233615   2.724   2.671  10.112 -0.7328  0.1161 -3.2696
 7386SOL     OW33616   2.701   2.177   0.189 -0.2286  0.1280  0.6140
 7386SOL    HW133617   2.681   2.251   0.246  0.2034  1.3572 -0.8359
 7386SOL    HW233618   2.794   2.192   0.175  0.4010 -2.8987  1.5431
 7387SOL     OW33619   3.699   0.430   2.403  0.3575  0.3073  0.1319
 7387SOL    HW133620   3.682   0.365   2.471 -1.5720  2.3240  1.5728
 7387SOL    HW233621   3.614   0.472   2.406 -0.1550 -0.8772  1.9451
 7388SOL     OW33622   1.533   1.434   3.475  0.4413 -0.6988 -0.3118
 7388SOL    HW133623   1.469   1.391   3.532 -0.3686 -0.2382 -0.8920
 7388SOL    HW233624   1.599   1.464   3.538  0.2030 -0.0593 -0.3662
 7389SOL     OW33625   3.355   4.091   4.792  0.0379  0.4231  0.5327
 7389SOL    HW133626   3.396   4.005   4.790  0.2973  0.5663 -0.1558
 7389SOL    HW233627   3.289   4.094   4.861 -1.0215 -0.9341 -0.4315
 7390SOL     OW33628   3.909   2.744   5.664  0.2002 -0.5042  0.5147
 7390SOL    HW133629   3.929   2.703   5.580 -0.8246 -1.2398  0.6382
 7390SOL    HW233630   3.950   2.680   5.722 -0.9856 -0.1624  1.7338
 7391SOL     OW33631   1.566   3.791   2.116  0.0383  0.2791  0.0412
 7391SOL    HW133632   1.518   3.714   2.085  0.9994  0.1337 -1.1233
 7391SOL    HW233633   1.624   3.797   2.039 -0.7941  0.1105 -0.6036
 7392SOL     OW33634   2.249   1.292  13.273 -0.2305  0.3708 -0.2594
 7392SOL    HW133635   2.280   1.296  13.363  0.0171 -1.3806 -0.2779
 7392SOL    HW233636   2.156   1.314  13.274  0.1586  1.8846  2.5920
 7393SOL     OW33637   1.796   2.720   5.082 -0.2075 -0.2590 -0.0157
 7393SOL    HW133638   1.767   2.751   5.167  1.8797  1.4448  0.0569
 7393SOL    HW233639   1.746   2.779   5.026 -0.0799  0.1623  0.3199
 7394SOL     OW33640   1.834   4.541   5.757  0.0510 -0.2896 -0.3901
 7394SOL    HW133641   1.819   4.622   5.709  1.1027  1.1894  1.7787
 7394SOL    HW233642   1.748   4.499   5.750 -0.2149 -0.0737  1.5172
 7395SOL     OW33643   2.475   0.181   5.027  0.1843  0.4119  0.0909
 7395SOL    HW133644   2.385   0.165   4.998  0.8105 -2.0186 -0.5443
 7395SOL    HW233645   2.518   0.127   4.960  0.2753  3.9217 -2.6539
 7396SOL     OW33646   1.662   0.510  13.422 -0.1378 -0.6822  0.0098
 7396SOL    HW133647   1.756   0.529  13.430  0.1663 -1.8827 -0.6863
 7396SOL    HW233648   1.655   0.453  13.498  0.4909 -2.2559 -1.1034
 7397SOL     OW33649   1.069   2.094   5.024 -0.0670  0.0148  0.4147
 7397SOL    HW133650   1.107   2.094   4.936 -2.6258 -0.4714 -0.7058
 7397SOL    HW233651   1.044   2.186   5.031 -0.8488 -0.2085  0.5342
 7398SOL     OW33652   0.329   4.324   9.356  0.3592  0.3863  0.3609
 7398SOL    HW133653   0.394   4.339   9.425 -0.1867  2.9613  0.3410
 7398SOL    HW233654   0.349   4.395   9.295  2.4467  0.1871  0.8081
 7399SOL     OW33655   2.000   2.840   9.001 -0.4366  0.1371 -0.1927
 7399SOL    HW133656   2.054   2.871   9.073 -0.4325 -1.1860  0.3706
 7399SOL    HW233657   2.034   2.755   8.974  1.8397 -0.2903  4.1215
 7400SOL     OW33658   2.125   2.467   3.870 -0.2303 -0.7595 -0.2067
 7400SOL    HW133659   2.201   2.419   3.838 -0.4582 -1.0758 -0.2745
 7400SOL    HW233660   2.106   2.524   3.796  0.4397  2.2822  1.9666
 7401SOL     OW33661   3.468   2.823  17.065  0.1867 -0.3332  0.0007
 7401SOL    HW133662   3.550   2.836  17.016 -1.4044 -2.0542 -3.1287
 7401SOL    HW233663   3.492   2.770  17.141  0.3445 -0.3460 -0.0576
 7402SOL     OW33664   4.377   4.509   1.981 -0.5274  0.6137  0.0876
 7402SOL    HW133665   4.334   4.487   2.063 -1.0390 -1.8353 -0.8383
 7402SOL    HW233666   4.442   4.442   1.960 -0.1795  1.1433 -0.5377
 7403SOL     OW33667   4.563   1.618  15.438 -0.4813 -0.3531  0.0906
 7403SOL    HW133668   4.594   1.690  15.382  2.4909 -1.4074  0.4008
 7403SOL    HW233669   4.641   1.572  15.466 -0.2738 -0.5907 -0.8777
 7404SOL     OW33670   1.837   3.046   1.972 -0.0066  0.4296  0.0921
 7404SOL    HW133671   1.915   3.009   1.930 -0.6592 -0.7409 -0.0622
 7404SOL    HW233672   1.810   3.116   1.912 -1.2294  0.5138  0.7374
 7405SOL     OW33673   0.526   2.299   6.034 -0.0769 -0.2504 -0.0262
 7405SOL    HW133674   0.448   2.288   6.089  0.5549 -0.6990  0.7730
 7405SOL    HW233675   0.493   2.280   5.946 -1.7587  0.2207  0.5033
 7406SOL     OW33676   1.169   0.232  11.649  0.4063  0.0633 -0.1614
 7406SOL    HW133677   1.127   0.247  11.564  0.4335 -0.2282 -0.2251
 7406SOL    HW233678   1.109   0.165  11.681  1.6175  0.1150  2.2014
 7407SOL     OW33679   2.999   1.245   7.908 -0.3994  0.2644 -0.0378
 7407SOL    HW133680   3.024   1.170   7.963 -0.1292 -1.4898 -2.5303
 7407SOL    HW233681   3.075   1.303   7.901 -1.6912  2.1495  1.5193
 7408SOL     OW33682   1.316   1.136  16.662 -0.7995  0.0215  0.0584
 7408SOL    HW133683   1.367   1.105  16.587 -0.6783  0.7927 -0.1803
 7408SOL    HW233684   1.393   1.159  16.716 -1.0540  1.1537 -0.0528
 7409SOL     OW33685   4.039   2.706   4.542 -0.1041  0.7163 -0.3436
 7409SOL    HW133686   4.044   2.618   4.581 -1.9870  0.8673  0.2259
 7409SOL    HW233687   4.120   2.741   4.580 -0.2364 -0.9403  1.5048
 7410SOL     OW33688   0.772   1.659   9.561 -0.3281 -0.3414 -0.4969
 7410SOL    HW133689   0.808   1.697   9.481  2.2990 -2.8060 -0.4758
 7410SOL    HW233690   0.720   1.735   9.588  3.0252  1.4232  0.8848
 7411SOL     OW33691   4.184   0.341  10.155 -0.0251 -0.2882  0.5740
 7411SOL    HW133692   4.249   0.403  10.188  2.7682 -2.3237 -1.1162
 7411SOL    HW233693   4.110   0.399  10.140  0.8975  0.9228  0.7493
 7412SOL     OW33694   4.423   4.345   2.298 -0.0276 -0.1659 -0.5207
 7412SOL    HW133695   4.344   4.292   2.306  1.8800 -2.9081  0.3775
 7412SOL    HW233696   4.393   4.434   2.312 -1.4001 -0.8278  0.8028
 7413SOL     OW33697   3.912   1.343   7.431 -0.2459 -0.3698 -0.7000
 7413SOL    HW133698   4.004   1.350   7.456 -0.8709 -0.8530  1.6773
 7413SOL    HW233699   3.869   1.359   7.515 -1.5541 -0.1563 -1.4068
 7414SOL     OW33700   0.726   4.152  17.014  0.1863  0.0357 -0.3890
 7414SOL    HW133701   0.715   4.066  16.974  1.4868 -0.4458  0.3203
 7414SOL    HW233702   0.703   4.198  16.933 -2.0474  0.2999  0.3710
 7415SOL     OW33703   3.612   2.515   4.209 -0.5619  0.4095 -0.0009
 7415SOL    HW133704   3.551   2.478   4.272 -0.4790  0.8104  0.3144
 7415SOL    HW233705   3.558   2.582   4.167 -2.0011 -0.8490 -0.1440
 7416SOL     OW33706   1.552   3.661  17.414 -0.0032  0.5539  0.3880
 7416SOL    HW133707   1.576   3.662  17.507 -0.5148 -1.7638  0.5525
 7416SOL    HW233708   1.470   3.612  17.420 -0.4895  1.3572  0.3329
 7417SOL     OW33709   4.042   2.261   0.161  0.3070  0.3138  0.2342
 7417SOL    HW133710   4.136   2.272   0.143  0.1470 -0.4366 -1.0752
 7417SOL    HW233711   4.037   2.257   0.256 -0.6033  0.4175  0.1920
 7418SOL     OW33712   1.395   4.564   3.555 -0.2153  0.1719 -0.3514
 7418SOL    HW133713   1.469   4.520   3.513  1.0290  2.7430 -0.8780
 7418SOL    HW233714   1.387   4.522   3.640  1.4499  2.4635  0.9352
 7419SOL     OW33715   0.058   3.435   5.548  0.5320 -0.7321 -0.2409
 7419SOL    HW133716   0.038   3.515   5.596  0.6863  0.5536 -2.3089
 7419SOL    HW233717   0.073   3.377   5.623 -1.8504 -1.8254 -0.6233
 7420SOL     OW33718   4.319   3.223   2.301 -0.3178  0.0278  0.1543
 7420SOL    HW133719   4.319   3.289   2.232 -0.2464  0.0313  0.1570
 7420SOL    HW233720   4.272   3.273   2.367 -3.7283 -1.3607 -1.2480
 7421SOL     OW33721   3.444   0.646  10.322 -0.1157 -0.2390 -0.3346
 7421SOL    HW133722   3.434   0.660  10.228  1.0319 -1.3957 -0.6340
 7421SOL    HW233723   3.499   0.711  10.365 -0.9670 -0.3564  0.9349
 7422SOL     OW33724   4.639   4.370   4.178 -0.1288 -0.1380  0.2466
 7422SOL    HW133725   4.659   4.312   4.251  0.2444  2.0907  1.9118
 7422SOL    HW233726   4.637   4.454   4.224  0.5648  0.2583 -0.4402
 7423SOL     OW33727   3.403   2.090   4.460  0.3042 -0.3942  0.1461
 7423SOL    HW133728   3.390   2.066   4.369  3.0934  1.1343 -0.6432
 7423SOL    HW233729   3.314   2.102   4.494  1.4828 -0.0790  3.1202
 7424SOL     OW33730   3.394   4.321   0.025  0.0443 -0.3055 -0.8305
 7424SOL    HW133731   3.406   4.239  17.676  0.9220  0.0351 -1.1864
 7424SOL    HW233732   3.318   4.285   0.071 -0.3842 -1.2401 -2.2852
 7425SOL     OW33733   4.037   1.476  15.783 -0.7208 -0.4856 -0.2877
 7425SOL    HW133734   3.941   1.479  15.784 -0.7395 -0.5258 -1.7367
 7425SOL    HW233735   4.057   1.385  15.805 -1.3553 -0.5810 -0.1094
 7426SOL     OW33736   0.467   1.321   3.772 -0.4746 -0.2078 -0.3347
 7426SOL    HW133737   0.439   1.250   3.714  0.8330 -1.5602  0.6763
 7426SOL    HW233738   0.393   1.329   3.832 -1.8877  1.9588 -2.3679
 7427SOL     OW33739   0.636   3.773   4.560 -0.4492  0.4397 -0.1067
 7427SOL    HW133740   0.575   3.839   4.591 -0.6168  0.1194  0.2393
 7427SOL    HW233741   0.697   3.775   4.634  1.1823 -0.0870 -1.4159
 7428SOL     OW33742   2.877   3.006  17.015  0.2428 -0.1424 -0.3607
 7428SOL    HW133743   2.960   2.969  16.984  0.5807  1.1213 -0.9613
 7428SOL    HW233744   2.874   2.983  17.108 -2.1501  1.7562  0.0207
 7429SOL     OW33745   1.004   2.991   1.188 -0.2843  0.2494 -0.2723
 7429SOL    HW133746   0.966   2.930   1.124 -0.8699 -0.2504  0.5573
 7429SOL    HW233747   0.929   3.010   1.245  0.8769  2.2101  0.6019
 7430SOL     OW33748   2.007   4.269   4.962 -0.5784 -0.0392  0.2485
 7430SOL    HW133749   2.002   4.177   4.986 -2.8012  0.0200 -0.0066
 7430SOL    HW233750   2.063   4.267   4.884 -2.8353  1.1746 -1.4314
 7431SOL     OW33751   1.575   3.502  15.966 -0.1503 -0.0011 -0.2584
 7431SOL    HW133752   1.656   3.453  15.953 -1.3744 -2.5393  1.6277
 7431SOL    HW233753   1.514   3.428  15.962  0.7396 -0.9239  2.7994
 7432SOL     OW33754   3.562   2.027   7.515  0.2498  0.2513 -0.2095
 7432SOL    HW133755   3.530   2.114   7.538 -0.1639  0.3157 -1.0471
 7432SOL    HW233756   3.567   1.982   7.600  0.5191  0.8880  0.1133
 7433SOL     OW33757   4.066   1.202   7.000  0.0549  0.4651 -0.2500
 7433SOL    HW133758   4.017   1.156   7.068  2.2524 -1.6183 -0.0663
 7433SOL    HW233759   4.064   1.142   6.926 -1.8340 -0.7355  0.7967
 7434SOL     OW33760   0.058   4.561   0.990  0.7221 -1.0054  0.6168
 7434SOL    HW133761   0.110   4.639   1.012 -1.0926  0.6923 -1.1359
 7434SOL    HW233762   0.039   4.539   1.081  1.8526  1.5581  1.4886
 7435SOL     OW33763   3.854   3.230   4.457  0.8507  0.2751 -0.1392
 7435SOL    HW133764   3.937   3.273   4.435  1.2405 -0.0209  0.7432
 7435SOL    HW233765   3.861   3.211   4.551 -0.4954 -1.3314 -0.3695
 7436SOL     OW33766   4.344   2.377  14.192  0.2838  0.0188  0.3783
 7436SOL    HW133767   4.408   2.359  14.123 -0.6229 -0.7532 -0.2608
 7436SOL    HW233768   4.380   2.335  14.270 -1.6112 -1.9481  0.1704
 7437SOL     OW33769   3.561   1.648  14.376 -0.1589 -0.8062 -0.3853
 7437SOL    HW133770   3.562   1.685  14.288  0.5160 -1.4820 -0.6645
 7437SOL    HW233771   3.500   1.575  14.363  0.4619 -1.4416  0.2409
 7438SOL     OW33772   0.346   1.105   7.439 -0.4490  0.2533 -0.6283
 7438SOL    HW133773   0.309   1.165   7.374 -0.0091  0.9841 -0.2162
 7438SOL    HW233774   0.289   1.031   7.419  0.3194 -0.4455 -0.2222
 7439SOL     OW33775   1.637   3.816  17.207  0.1338 -0.4575 -0.1966
 7439SOL    HW133776   1.638   3.759  17.131 -1.4000 -2.6059  1.4150
 7439SOL    HW233777   1.628   3.756  17.281 -2.8028  1.0999  0.7092
 7440SOL     OW33778   0.116   4.400  13.350  0.0654  0.3604 -0.8698
 7440SOL    HW133779   0.155   4.472  13.399  1.3471  0.3680 -1.8938
 7440SOL    HW233780   0.195   4.365  13.309 -0.6347 -2.9473  0.6379
 7441SOL     OW33781   1.732   4.393  16.138  0.0836  0.3209 -0.1897
 7441SOL    HW133782   1.747   4.381  16.232 -1.3850  3.0090  0.3842
 7441SOL    HW233783   1.645   4.356  16.130 -0.9959  2.6654  0.6895
 7442SOL     OW33784   4.287   0.560   4.879  0.0227 -0.2051  0.0035
 7442SOL    HW133785   4.254   0.526   4.962 -1.5390 -1.0018 -0.9356
 7442SOL    HW233786   4.348   0.491   4.854 -0.2210  0.5092 -2.5807
 7443SOL     OW33787   2.943   3.429   4.535  0.2257 -0.3638  0.2452
 7443SOL    HW133788   3.002   3.353   4.534  0.1691 -0.3931 -1.7379
 7443SOL    HW233789   2.928   3.454   4.443  0.2685  1.7389  0.8124
 7444SOL     OW33790   0.548   3.244   8.965  0.0382  0.6116 -0.3226
 7444SOL    HW133791   0.514   3.183   9.031  1.8449 -1.4057 -1.2912
 7444SOL    HW233792   0.542   3.197   8.882  0.9267  0.5484 -0.3515
 7445SOL     OW33793   3.595   2.996   7.088 -0.1392 -0.3934 -0.4249
 7445SOL    HW133794   3.575   3.015   7.180  0.8930  2.3493 -0.7623
 7445SOL    HW233795   3.542   2.920   7.065 -0.1037  0.2481 -2.5600
 7446SOL     OW33796   1.269   2.780   7.287 -0.4972  0.2103 -0.2488
 7446SOL    HW133797   1.220   2.834   7.349  0.9612 -3.0436  3.7509
 7446SOL    HW233798   1.243   2.694   7.321  0.3056  0.0130 -0.1291
 7447SOL     OW33799   3.788   3.863   2.073 -0.1075  0.1047  0.0935
 7447SOL    HW133800   3.755   3.942   2.030 -0.2230 -1.7365 -3.1952
 7447SOL    HW233801   3.880   3.878   2.051 -0.2615  1.4113  0.3137
 7448SOL     OW33802   3.866   2.322   5.713  0.1710  0.2447 -0.0973
 7448SOL    HW133803   3.920   2.401   5.715  0.9987 -0.2943 -1.3491
 7448SOL    HW233804   3.829   2.319   5.801 -2.5522  0.0173 -1.2471
 7449SOL     OW33805   1.307   4.339   2.003 -0.1262 -0.1731 -0.9925
 7449SOL    HW133806   1.355   4.276   1.950 -0.9443 -2.7115  1.3142
 7449SOL    HW233807   1.266   4.394   1.936  0.0549 -0.3005 -1.2088
 7450SOL     OW33808   0.372   0.300  10.924 -0.0365 -0.6802  0.3326
 7450SOL    HW133809   0.309   0.339  10.984  1.0182 -0.1498  1.0787
 7450SOL    HW233810   0.451   0.336  10.963  0.4107 -1.8096  0.4639
 7451SOL     OW33811   1.906   0.660   8.400  0.0273  0.3437 -0.0983
 7451SOL    HW133812   1.950   0.592   8.349 -3.0190 -1.4335 -0.3163
 7451SOL    HW233813   1.963   0.668   8.477  0.7381 -0.7232 -0.5148
 7452SOL     OW33814   4.632   0.426   5.774  0.0828  0.3348  0.0641
 7452SOL    HW133815   4.542   0.424   5.741  0.9778  1.2360 -2.4317
 7452SOL    HW233816   4.635   0.360   5.843  1.3180 -2.2246 -2.4253
 7453SOL     OW33817   3.334   2.087   7.873  0.4039  0.3129 -0.4791
 7453SOL    HW133818   3.311   2.136   7.952  2.5282  1.1926 -0.4183
 7453SOL    HW233819   3.409   2.141   7.847  0.3410 -0.7656 -2.8815
 7454SOL     OW33820   2.465   2.837   8.951  0.4498 -0.3184 -0.5958
 7454SOL    HW133821   2.453   2.926   8.920  0.9309 -0.1321 -0.2520
 7454SOL    HW233822   2.556   2.824   8.925  0.4780 -0.7832 -0.2832
 7455SOL     OW33823   3.235   0.937   9.107  0.8750  0.4992  0.2378
 7455SOL    HW133824   3.235   0.940   9.203  1.2007  2.9417  0.1524
 7455SOL    HW233825   3.192   1.020   9.087  1.5595  0.9589  0.7025
 7456SOL     OW33826   1.827   2.834   2.534 -0.2115 -0.1099 -0.1085
 7456SOL    HW133827   1.886   2.908   2.550  1.0780 -1.0141 -0.6200
 7456SOL    HW233828   1.746   2.855   2.579 -1.2423 -0.5540 -1.7449
 7457SOL     OW33829   3.688   2.118  11.791 -0.1313 -0.0583 -0.5369
 7457SOL    HW133830   3.628   2.112  11.716  0.6088 -1.1713 -1.0378
 7457SOL    HW233831   3.630   2.154  11.858 -0.2870  0.4584 -0.9415
 7458SOL     OW33832   4.092   2.855   2.469  0.5592  0.0138  0.4882
 7458SOL    HW133833   4.186   2.841   2.463  0.3434 -1.1993 -0.1488
 7458SOL    HW233834   4.073   2.887   2.380  1.0963  0.2493  0.4606
 7459SOL     OW33835   1.305   3.428   9.020 -0.2609 -0.4323  0.3384
 7459SOL    HW133836   1.246   3.373   8.969 -0.1325  0.2569 -0.5623
 7459SOL    HW233837   1.265   3.439   9.106 -0.1811 -1.2104  0.4729
 7460SOL     OW33838   0.323   1.303   8.779  0.0586 -0.5445  0.0040
 7460SOL    HW133839   0.291   1.350   8.856  0.9464  0.2974 -0.1421
 7460SOL    HW233840   0.411   1.267   8.791  1.3568  2.5409 -0.1294
 7461SOL     OW33841   1.333   1.491   0.871  0.1612  0.3185  0.5525
 7461SOL    HW133842   1.349   1.539   0.789 -0.5155 -0.4375 -0.0212
 7461SOL    HW233843   1.282   1.554   0.921 -0.9851  0.8935 -1.3103
 7462SOL     OW33844   3.645   3.862   7.184  0.4868 -0.3595  0.0144
 7462SOL    HW133845   3.585   3.936   7.189  1.6738  0.6147  0.1013
 7462SOL    HW233846   3.579   3.794   7.194 -0.8965  0.9909  0.0189
 7463SOL     OW33847   4.592   1.865   4.876  0.2237 -0.4872  0.7299
 7463SOL    HW133848   4.539   1.834   4.802  1.6419  0.2762 -0.6147
 7463SOL    HW233849   4.610   1.785   4.924 -0.1183 -1.8064 -1.3355
 7464SOL     OW33850   3.001   4.466   7.677  0.2207  0.0096  0.4227
 7464SOL    HW133851   2.962   4.379   7.686  1.4715 -0.6237 -0.3755
 7464SOL    HW233852   3.037   4.467   7.588 -2.3048 -2.4646 -0.6308
 7465SOL     OW33853   2.742   0.741  10.502  0.0021  0.5062  0.4998
 7465SOL    HW133854   2.721   0.834  10.502 -1.3228  0.2206  1.6363
 7465SOL    HW233855   2.742   0.727  10.597  0.4446 -0.4045  0.3675
 7466SOL     OW33856   0.148   3.793   5.208  0.3783 -0.4046 -0.0943
 7466SOL    HW133857   0.158   3.742   5.128  0.3766 -1.1586  0.3845
 7466SOL    HW233858   0.212   3.750   5.266 -0.2853 -1.2768 -0.0018
 7467SOL     OW33859   3.828   3.705   9.650 -0.1497  0.2334  0.6114
 7467SOL    HW133860   3.846   3.798   9.636 -2.4066  0.6515  0.4826
 7467SOL    HW233861   3.869   3.668   9.572 -1.9581 -1.0447  0.2670
 7468SOL     OW33862   4.173   3.045   6.904  0.4009  0.3620 -0.0423
 7468SOL    HW133863   4.101   3.084   6.853 -0.5690  1.0894  1.8893
 7468SOL    HW233864   4.161   2.952   6.885  0.9357  0.5221 -1.1665
 7469SOL     OW33865   4.645   1.493   2.538  0.3123 -0.2182 -0.1773
 7469SOL    HW133866   0.001   1.530   2.502 -0.7483  2.2433 -0.0425
 7469SOL    HW233867   4.588   1.538   2.476 -1.0415 -0.2489  1.0622
 7470SOL     OW33868   2.076   3.758  11.455 -0.2784  0.5342 -0.4749
 7470SOL    HW133869   1.983   3.744  11.434 -0.1919  1.2654 -1.3214
 7470SOL    HW233870   2.071   3.854  11.457 -2.0731  0.4219  0.7631
 7471SOL     OW33871   0.867   0.956   4.931 -0.1305  0.0393  0.1387
 7471SOL    HW133872   0.940   0.915   4.884 -0.9761 -0.0394 -1.0907
 7471SOL    HW233873   0.912   1.036   4.958  1.8689 -1.5832  1.5563
 7472SOL     OW33874   4.321   2.361  16.429  0.2128 -0.6726 -0.4522
 7472SOL    HW133875   4.252   2.418  16.393  1.5499  0.3047 -1.4761
 7472SOL    HW233876   4.373   2.355  16.349  1.4348 -4.2741  0.6184
 7473SOL     OW33877   0.136   0.508   3.821  0.1492 -0.3386 -0.4779
 7473SOL    HW133878   0.140   0.487   3.728  0.1726 -1.2001 -0.2809
 7473SOL    HW233879   0.182   0.437   3.866 -1.3549 -1.9540 -1.5239
 7474SOL     OW33880   1.407   0.427   9.042  0.7427 -0.4486 -0.0063
 7474SOL    HW133881   1.446   0.512   9.060 -0.1409 -0.0961  0.2537
 7474SOL    HW233882   1.484   0.377   9.017  1.9437  1.0470  0.7129
 7475SOL     OW33883   4.710   4.053  16.569 -0.0552 -0.2059 -1.0204
 7475SOL    HW133884   4.678   3.963  16.571  0.6652 -0.4438  0.0065
 7475SOL    HW233885   0.027   4.053  16.655 -1.6214  1.6268 -0.2643
 7476SOL     OW33886   0.905   1.919   7.686  0.0551 -0.0175  0.3187
 7476SOL    HW133887   0.905   1.835   7.732 -3.8825  0.4116  1.1750
 7476SOL    HW233888   0.905   1.984   7.757  0.2268 -1.3732  1.5643
 7477SOL     OW33889   1.069   4.475  14.344  0.0131  0.7401  0.5521
 7477SOL    HW133890   1.016   4.555  14.338 -2.2544 -0.7358  0.9839
 7477SOL    HW233891   1.153   4.502  14.307  0.0454  0.1869  0.2329
 7478SOL     OW33892   0.295   4.227   8.928 -1.0235 -0.1544  0.0705
 7478SOL    HW133893   0.267   4.166   8.861 -2.2341 -1.6719  1.9524
 7478SOL    HW233894   0.297   4.172   9.007 -2.9372  1.0455  0.9692
 7479SOL     OW33895   0.875   0.095   4.317  0.4198 -0.3651 -0.5959
 7479SOL    HW133896   0.908   0.006   4.305  0.0338 -0.2698 -2.3885
 7479SOL    HW233897   0.928   0.145   4.254  0.3794  0.3869 -0.0384
 7480SOL     OW33898   3.195   1.392  14.579  0.2295 -0.0033 -0.1796
 7480SOL    HW133899   3.207   1.487  14.583  1.8428 -0.2030 -0.1352
 7480SOL    HW233900   3.272   1.360  14.627  0.5320  0.6514 -0.2231
 7481SOL     OW33901   0.350   3.848  15.763 -0.1154 -0.1550 -0.0661
 7481SOL    HW133902   0.297   3.883  15.835 -0.8328 -0.0027 -0.6721
 7481SOL    HW233903   0.431   3.899  15.765  0.6979 -1.5383  2.1290
 7482SOL     OW33904   2.413   2.030   3.750  0.3052  0.0654 -0.1029
 7482SOL    HW133905   2.460   1.950   3.773 -0.9952 -1.0449 -1.3152
 7482SOL    HW233906   2.318   2.019   3.748  0.5416 -1.5366 -1.9379
 7483SOL     OW33907   1.029   3.459   4.065  0.5646 -0.4401 -0.1696
 7483SOL    HW133908   1.070   3.451   4.151 -0.0184  1.0392  0.2407
 7483SOL    HW233909   0.977   3.382   4.042 -1.5315  0.7674  0.5247
 7484SOL     OW33910   3.441   1.085   1.327  0.1229 -0.1578  0.1303
 7484SOL    HW133911   3.430   1.151   1.258  0.6985  0.9692  1.1031
 7484SOL    HW233912   3.507   1.134   1.376 -0.7272  0.4511  0.6749
 7485SOL     OW33913   1.668   3.928  17.515  0.0016  0.7072 -0.4088
 7485SOL    HW133914   1.642   3.879  17.437  0.4866 -0.5799  0.2610
 7485SOL    HW233915   1.618   3.881  17.581  0.9836 -0.0896 -0.2439
 7486SOL     OW33916   2.601   0.857   0.958 -0.4583  0.2721 -0.2593
 7486SOL    HW133917   2.624   0.888   1.045 -2.0805 -0.8103  0.5582
 7486SOL    HW233918   2.609   0.936   0.905  0.5880  0.3785  0.0570
 7487SOL     OW33919   2.821   1.439  10.954 -0.6244 -0.1396  0.0476
 7487SOL    HW133920   2.778   1.363  10.993  0.5067 -0.4764  0.6348
 7487SOL    HW233921   2.745   1.475  10.908 -0.9593  0.2906  0.9238
 7488SOL     OW33922   1.512   0.248   2.319  0.1861 -0.7350  0.0941
 7488SOL    HW133923   1.433   0.205   2.285  0.3854 -1.4408  0.5148
 7488SOL    HW233924   1.518   0.201   2.403 -1.7284 -0.1090  0.5954
 7489SOL     OW33925   1.519   3.532   7.770  0.0066 -0.5609  0.3029
 7489SOL    HW133926   1.521   3.437   7.773 -2.3003 -0.6072  0.4458
 7489SOL    HW233927   1.520   3.548   7.864  0.3510  3.3753 -0.3597
 7490SOL     OW33928   3.069   0.764   2.054  0.1049 -0.0796  0.5009
 7490SOL    HW133929   2.975   0.775   2.039 -0.1574 -0.6652  1.6542
 7490SOL    HW233930   3.071   0.673   2.084  1.0839  0.5077  2.2321
 7491SOL     OW33931   0.527   1.269   5.721 -0.4947  0.2806 -0.5630
 7491SOL    HW133932   0.486   1.311   5.796 -1.5549 -0.2075 -0.8816
 7491SOL    HW233933   0.567   1.191   5.759 -2.7742 -1.0742 -0.9632
 7492SOL     OW33934   2.472   3.400   8.716  0.6856  0.2852 -0.4998
 7492SOL    HW133935   2.529   3.460   8.765  0.2637  0.0004  0.3429
 7492SOL    HW233936   2.533   3.336   8.680 -0.0986 -1.2980  0.9793
 7493SOL     OW33937   1.181   0.650  17.326 -0.4242  0.2043 -0.1377
 7493SOL    HW133938   1.205   0.569  17.371  0.5829  1.4492  1.6013
 7493SOL    HW233939   1.090   0.637  17.299 -0.4437  0.0865 -0.0171
 7494SOL     OW33940   2.139   4.197   9.799 -0.2447  0.0714  0.2062
 7494SOL    HW133941   2.072   4.201   9.867 -3.0938 -0.5647 -2.5253
 7494SOL    HW233942   2.085   4.198   9.719  2.6913  1.4258 -1.7532
 7495SOL     OW33943   0.851   3.697   2.094 -0.3002  0.3611  0.1860
 7495SOL    HW133944   0.784   3.733   2.153  0.4220  1.7210  0.1960
 7495SOL    HW233945   0.822   3.609   2.072 -3.0995  0.7876  2.1892
 7496SOL     OW33946   3.205   4.106   4.313 -0.3461 -0.1152  0.6261
 7496SOL    HW133947   3.293   4.069   4.318  0.3045  1.4126  0.2213
 7496SOL    HW233948   3.210   4.192   4.354 -4.2459 -0.4170  1.7315
 7497SOL     OW33949   3.799   2.688  14.152  0.3920  0.2579 -0.4378
 7497SOL    HW133950   3.825   2.722  14.238 -1.8817 -0.2856  0.4589
 7497SOL    HW233951   3.862   2.617  14.142  1.9830  1.5778  0.2560
 7498SOL     OW33952   3.953   4.224   9.496 -0.0742 -1.0397  0.4418
 7498SOL    HW133953   3.998   4.299   9.532  1.1142 -1.6553  0.2315
 7498SOL    HW233954   4.027   4.169   9.471  2.2102  0.5648  3.7562
 7499SOL     OW33955   1.251   0.317  17.285  0.5951  0.0176  0.2211
 7499SOL    HW133956   1.171   0.337  17.236  0.7223 -1.2974 -0.5186
 7499SOL    HW233957   1.300   0.268  17.219 -1.1087  0.2379 -1.2199
 7500SOL     OW33958   1.194   2.146   4.776  0.0131 -0.4999  0.4467
 7500SOL    HW133959   1.222   2.107   4.693  1.1593  0.0891  0.5603
 7500SOL    HW233960   1.124   2.206   4.752  0.3746  0.3717  1.6062
 7501SOL     OW33961   4.511   4.437   8.777  0.4144 -0.1327 -0.0781
 7501SOL    HW133962   4.577   4.387   8.729  2.5584  0.9639  1.7430
 7501SOL    HW233963   4.535   4.408   8.865 -1.0397  1.4770  0.8389
 7502SOL     OW33964   2.290   2.620   8.865  0.6544 -0.3259 -0.0122
 7502SOL    HW133965   2.339   2.630   8.784  1.6299  0.3752  0.6635
 7502SOL    HW233966   2.341   2.680   8.919  1.9528 -1.1371 -0.3393
 7503SOL     OW33967   1.795   3.485   9.267  0.2752 -0.4503  0.3205
 7503SOL    HW133968   1.837   3.520   9.345 -0.2679  1.9144 -0.4479
 7503SOL    HW233969   1.863   3.448   9.211 -1.5607 -3.1035 -0.2013
 7504SOL     OW33970   0.678   4.609  11.637 -0.3650 -0.9559  0.0229
 7504SOL    HW133971   0.674   4.514  11.629  1.0398 -1.0256  0.0562
 7504SOL    HW233972   0.765   4.630  11.604  0.4696 -1.8212  1.6421
 7505SOL     OW33973   1.062   3.564   5.309  0.7145  0.4321  0.1992
 7505SOL    HW133974   1.067   3.639   5.249  1.4042 -0.5435 -0.9635
 7505SOL    HW233975   1.136   3.587   5.364  2.9063 -0.2580 -2.4508
 7506SOL     OW33976   3.938   0.395  16.458 -0.2006  0.5788  0.4077
 7506SOL    HW133977   3.877   0.469  16.455 -0.8519  0.0880  1.2174
 7506SOL    HW233978   3.942   0.367  16.367  0.3597  0.4376  0.4751
 7507SOL     OW33979   3.353   2.720   2.541  0.3002  0.2487 -0.5470
 7507SOL    HW133980   3.287   2.658   2.508 -0.2137  0.7518 -0.4734
 7507SOL    HW233981   3.314   2.807   2.530 -1.5949 -0.2649  2.1162
 7508SOL     OW33982   3.293   2.785   8.373  0.5684 -0.6068  0.1545
 7508SOL    HW133983   3.276   2.853   8.308 -0.6807 -0.5490  0.5278
 7508SOL    HW233984   3.358   2.828   8.429 -0.3367  0.1215  0.6607
 7509SOL     OW33985   0.585   2.189   7.011  0.1961  0.1142  0.0945
 7509SOL    HW133986   0.629   2.105   7.021  2.3418  1.3131  0.8094
 7509SOL    HW233987   0.524   2.195   7.084  1.6021  1.4635  1.1763
 7510SOL     OW33988   0.240   4.555   6.951 -0.1247  0.0376 -0.0572
 7510SOL    HW133989   0.146   4.560   6.937  0.0622 -0.7288 -1.5718
 7510SOL    HW233990   0.243   4.492   7.023 -3.1253 -0.1146 -0.0882
 7511SOL     OW33991   3.434   0.265   3.251 -0.0733 -0.5477  0.3464
 7511SOL    HW133992   3.522   0.297   3.269  1.3642 -3.8273 -1.0266
 7511SOL    HW233993   3.380   0.345   3.250  0.9398  0.1249 -0.7453
 7512SOL     OW33994   1.667   1.859  10.174  0.1962  0.0132  0.7226
 7512SOL    HW133995   1.727   1.934  10.176  0.6772 -0.3759  0.8644
 7512SOL    HW233996   1.684   1.820  10.260  1.6259  1.8812  1.2954
 7513SOL     OW33997   4.108   2.373   3.433  0.0603 -0.3057 -0.4806
 7513SOL    HW133998   4.139   2.457   3.467 -0.5259 -1.1144  1.9693
 7513SOL    HW233999   4.017   2.386   3.405 -0.4660  0.5116  1.6650
 7514SOL     OW34000   1.150   0.519  16.091 -0.7751 -0.2821 -0.1462
 7514SOL    HW134001   1.072   0.555  16.050 -0.9239 -1.7237 -1.1431
 7514SOL    HW234002   1.185   0.602  16.123 -1.6512 -0.1676  0.5056
 7515SOL     OW34003   2.027   1.287   0.575 -0.2070 -0.4927  0.4171
 7515SOL    HW134004   2.036   1.335   0.493 -0.7979 -0.6174  0.2834
 7515SOL    HW234005   1.951   1.330   0.613 -0.0059  1.5209 -1.5194
 7516SOL     OW34006   4.275   1.840  13.965  0.0941  0.8316  0.1472
 7516SOL    HW134007   4.230   1.843  13.881 -1.4949 -0.6011  0.9474
 7516SOL    HW234008   4.345   1.897  13.932  0.4972  0.0199 -0.4210
 7517SOL     OW34009   4.222   0.030   4.378  0.1138  0.6093 -0.4507
 7517SOL    HW134010   4.211   0.025   4.473 -0.0733 -0.9470 -0.5617
 7517SOL    HW234011   4.308   0.072   4.377  0.3098  0.2001 -0.6131
 7518SOL     OW34012   1.256   1.931   6.170 -0.0028  0.0949  0.5074
 7518SOL    HW134013   1.333   1.936   6.226  0.5025  0.4638 -0.2228
 7518SOL    HW234014   1.211   2.012   6.194 -0.2202 -0.2618  1.2867
 7519SOL     OW34015   3.301   1.255   1.697  0.4682 -0.7989 -0.6661
 7519SOL    HW134016   3.341   1.286   1.616  0.8056  2.0874  0.6042
 7519SOL    HW234017   3.278   1.165   1.677 -1.7069 -0.5238  0.5653
 7520SOL     OW34018   0.345   1.111   5.155 -0.3521 -0.4397  0.9294
 7520SOL    HW134019   0.424   1.119   5.208  1.0699  0.2373 -1.2970
 7520SOL    HW234020   0.356   1.188   5.099 -0.7889 -0.9777  0.1115
 7521SOL     OW34021   0.616   4.146   9.038 -0.0539  0.3884  0.5910
 7521SOL    HW134022   0.677   4.162   9.110  1.1264  2.8014 -0.9751
 7521SOL    HW234023   0.545   4.110   9.091  0.3704  1.1746  1.6962
 7522SOL     OW34024   2.928   1.631  11.117 -0.7024  0.0098 -0.1078
 7522SOL    HW134025   2.893   1.562  11.061 -0.5387 -0.6954  0.6417
 7522SOL    HW234026   3.022   1.632  11.100 -1.1333 -0.2298 -2.4032
 7523SOL     OW34027   4.186   1.732   7.081 -0.2531 -0.1618  0.5114
 7523SOL    HW134028   4.169   1.644   7.046 -0.0517 -0.4220  1.0726
 7523SOL    HW234029   4.219   1.712   7.168  0.4436  0.9061  0.4889
 7524SOL     OW34030   1.666   3.912  11.775 -0.1910  0.3160 -0.1303
 7524SOL    HW134031   1.711   3.843  11.727  0.2694  1.0103 -0.7053
 7524SOL    HW234032   1.599   3.948  11.715 -1.5974 -1.4348  0.3896
 7525SOL     OW34033   1.362   3.124   5.779  0.2551 -0.1217 -0.1332
 7525SOL    HW134034   1.362   3.126   5.683  0.8792  2.7634 -0.0688
 7525SOL    HW234035   1.289   3.064   5.790  0.3316 -0.3346 -0.7699
 7526SOL     OW34036   2.725   2.653   3.693  0.1556 -0.0396 -0.0673
 7526SOL    HW134037   2.755   2.724   3.748  1.4358 -1.7181  1.4080
 7526SOL    HW234038   2.790   2.650   3.623  1.0537 -1.0208  0.7946
 7527SOL     OW34039   4.282   2.898   7.983  0.2115  0.4440 -0.0785
 7527SOL    HW134040   4.261   2.937   8.068 -1.1592  2.2394 -1.2203
 7527SOL    HW234041   4.199   2.901   7.935  1.1258 -1.3090 -1.7456
 7528SOL     OW34042   3.199   1.220   2.128 -0.6031  0.1372  0.6612
 7528SOL    HW134043   3.118   1.269   2.113  0.8948  2.2869 -0.3240
 7528SOL    HW234044   3.179   1.142   2.077  0.2363 -0.4467  1.2264
 7529SOL     OW34045   1.991   1.419   7.894 -0.3897  0.5899  0.3273
 7529SOL    HW134046   1.904   1.417   7.854 -0.3046 -1.2698  0.2446
 7529SOL    HW234047   2.012   1.509   7.868 -0.9924  0.4889 -0.4840
 7530SOL     OW34048   2.247   3.042   4.044  0.4339 -0.5335  0.0297
 7530SOL    HW134049   2.234   3.124   4.093 -2.7525 -0.1502 -1.4196
 7530SOL    HW234050   2.297   3.074   3.969 -1.2004  3.9389  0.8129
 7531SOL     OW34051   4.320   2.121   3.968 -0.3779  0.4273 -0.2779
 7531SOL    HW134052   4.250   2.058   3.950  0.9437 -0.6561 -1.5576
 7531SOL    HW234053   4.366   2.089   4.045  0.2658 -0.8509 -1.2156
 7532SOL     OW34054   0.247   4.295  10.564 -0.0186 -0.1565 -0.1143
 7532SOL    HW134055   0.169   4.296  10.620 -1.0309 -2.8312 -1.4451
 7532SOL    HW234056   0.293   4.216  10.592  0.3267 -0.8287 -2.6086
 7533SOL     OW34057   4.415   4.616   5.309 -0.7932  0.1669 -0.3286
 7533SOL    HW134058   4.397   4.540   5.254  1.0731 -0.7389  0.3145
 7533SOL    HW234059   4.438   4.567   5.388  0.8785  0.7742 -0.4269
 7534SOL     OW34060   1.331   4.338   9.508 -0.1661  0.0680  0.1840
 7534SOL    HW134061   1.275   4.411   9.483  1.9038  2.0345  1.2390
 7534SOL    HW234062   1.267   4.272   9.537 -0.0055 -0.4654 -0.6823
 7535SOL     OW34063   0.100   0.426  11.557 -0.0327 -0.0531  0.0659
 7535SOL    HW134064   0.029   0.490  11.559 -0.2078 -0.2542  0.2810
 7535SOL    HW234065   0.183   0.472  11.566  0.1821 -0.0247 -1.9101
 7536SOL     OW34066   3.159   0.770   7.898 -0.4732  0.1324  0.1203
 7536SOL    HW134067   3.105   0.698   7.866  0.5499  0.0864 -1.5467
 7536SOL    HW234068   3.172   0.816   7.815 -0.0016 -0.1020  0.0613
 7537SOL     OW34069   4.489   0.164   3.080  0.0288  0.2845 -0.1392
 7537SOL    HW134070   4.427   0.132   3.015 -0.1058  0.0313  0.1144
 7537SOL    HW234071   4.488   0.083   3.131  0.5540 -1.2437 -2.5927
 7538SOL     OW34072   2.261   2.805  17.581  0.1921  0.2657  0.1552
 7538SOL    HW134073   2.189   2.785  17.641 -1.2650 -0.0083 -1.7035
 7538SOL    HW234074   2.300   2.874  17.635  0.6889  1.3474 -1.5890
 7539SOL     OW34075   3.731   1.419   4.233  0.6145  0.5997  0.0563
 7539SOL    HW134076   3.652   1.452   4.192 -1.0176 -1.3902  1.5974
 7539SOL    HW234077   3.715   1.325   4.242  1.6047  0.5066  0.9043
 7540SOL     OW34078   2.481   4.514   3.948  0.0258  0.0433  0.1534
 7540SOL    HW134079   2.460   4.606   3.959  0.3131  0.1171  0.0846
 7540SOL    HW234080   2.425   4.466   4.010  0.4931 -1.2005 -0.3915
 7541SOL     OW34081   1.156   0.586   2.010  0.1548 -0.4229  0.1966
 7541SOL    HW134082   1.178   0.493   2.019 -0.4324 -0.5567  0.2466
 7541SOL    HW234083   1.104   0.588   1.930  1.6802 -1.6105 -0.8131
 7542SOL     OW34084   2.940   1.922   6.714  0.6970 -0.1125  0.6581
 7542SOL    HW134085   2.909   1.906   6.803  0.5791  0.7677  0.7713
 7542SOL    HW234086   2.954   2.017   6.721 -1.0954  0.0777  1.6703
 7543SOL     OW34087   1.178   1.654   3.116 -0.2656 -0.2800  0.0300
 7543SOL    HW134088   1.256   1.637   3.064 -0.6679 -4.0099  0.6240
 7543SOL    HW234089   1.170   1.574   3.168 -0.1126  0.2793  0.9235
 7544SOL     OW34090   1.914   4.317   3.051  0.3700  0.3075  0.1818
 7544SOL    HW134091   1.847   4.378   3.020 -0.6335 -1.0016 -0.2124
 7544SOL    HW234092   1.958   4.370   3.117 -0.6570  0.1094  1.0260
 7545SOL     OW34093   4.304   0.943   2.233 -0.3691  0.3929 -0.1545
 7545SOL    HW134094   4.349   0.964   2.316  0.3802 -0.8767 -0.2366
 7545SOL    HW234095   4.376   0.943   2.169  2.3305  2.2550  2.8527
 7546SOL     OW34096   3.554   4.503  14.464  0.0294 -0.0201  0.3603
 7546SOL    HW134097   3.481   4.445  14.441  0.2465 -1.1785  2.6434
 7546SOL    HW234098   3.612   4.506  14.388  1.4542 -0.4062  1.4301
 7547SOL     OW34099   1.723   0.872   8.708 -0.8294  0.4440 -0.3794
 7547SOL    HW134100   1.733   0.789   8.661 -0.5602 -0.2658  0.9327
 7547SOL    HW234101   1.804   0.917   8.682 -0.9088 -0.0885 -1.5411
 7548SOL     OW34102   2.528   4.722   8.548 -0.0136  0.3977 -0.4217
 7548SOL    HW134103   2.600   4.719   8.611 -0.9824  1.2175  0.7268
 7548SOL    HW234104   2.569   0.022   8.465  0.0892 -0.9400 -0.7637
 7549SOL     OW34105   4.531   1.934  12.255 -0.2200 -0.7320 -0.1780
 7549SOL    HW134106   4.508   1.890  12.173  0.8838 -2.2082  0.3062
 7549SOL    HW234107   4.555   1.865  12.317 -0.2542 -1.6627 -1.2013
 7550SOL     OW34108   0.596   3.791   3.967 -0.0811  0.1177  0.0101
 7550SOL    HW134109   0.539   3.764   4.039 -0.3250  0.9986  0.1523
 7550SOL    HW234110   0.538   3.857   3.928 -2.1739 -3.4846 -2.9866
 7551SOL     OW34111   2.582   0.610   9.448 -0.1180  0.1631  0.0645
 7551SOL    HW134112   2.553   0.558   9.523  1.0464 -0.7247 -0.1138
 7551SOL    HW234113   2.620   0.684   9.494  0.7044 -1.4608  1.9652
 7552SOL     OW34114   0.499   0.568  12.755 -0.7358 -0.5150 -0.2449
 7552SOL    HW134115   0.490   0.555  12.849  1.0281  5.4792  0.7867
 7552SOL    HW234116   0.567   0.503  12.739 -0.0447  0.2079 -0.2864
 7553SOL     OW34117   3.694   0.320   0.969 -0.2080  0.8101 -0.1905
 7553SOL    HW134118   3.642   0.329   1.049  0.2961 -0.3016  0.2557
 7553SOL    HW234119   3.767   0.383   0.973 -0.4088  0.9530  1.3420
 7554SOL     OW34120   1.366   1.382   8.945 -0.1118 -0.0243  0.4571
 7554SOL    HW134121   1.333   1.293   8.934 -1.0656  0.2242  1.2393
 7554SOL    HW234122   1.355   1.402   8.852  0.2133 -2.4184 -0.0951
 7555SOL     OW34123   4.011   2.216   6.655 -0.2262 -0.2030 -0.3838
 7555SOL    HW134124   4.030   2.218   6.561  2.9482 -0.3432  0.2606
 7555SOL    HW234125   3.917   2.229   6.652 -0.2078 -0.0875 -0.4548
 7556SOL     OW34126   0.601   2.217  16.522 -0.2664  0.4538 -0.5240
 7556SOL    HW134127   0.681   2.261  16.492  1.2711 -2.1507 -0.2412
 7556SOL    HW234128   0.536   2.247  16.459  0.7478  1.5930 -1.0334
 7557SOL     OW34129   2.139   4.224   3.448  0.0947 -0.0950 -0.1757
 7557SOL    HW134130   2.114   4.141   3.408  1.7853 -0.1185 -1.1705
 7557SOL    HW234131   2.094   4.218   3.532 -3.3515 -1.0730 -2.1338
 7558SOL     OW34132   2.499   2.626  16.211 -0.2210 -0.3401 -0.1686
 7558SOL    HW134133   2.538   2.708  16.180  0.1232 -0.1173  0.8628
 7558SOL    HW234134   2.573   2.586  16.256  0.8959  1.6628 -0.1828
 7559SOL     OW34135   1.779   4.676   9.513  0.3386  0.3272  0.5280
 7559SOL    HW134136   1.810   4.656   9.425 -1.3589  0.9416 -0.2020
 7559SOL    HW234137   1.685   4.688   9.496  0.5409  1.4335  0.1897
 7560SOL     OW34138   2.577   1.415   4.801  0.4289 -0.3838  0.3052
 7560SOL    HW134139   2.602   1.454   4.885  0.0247  1.9435 -0.6537
 7560SOL    HW234140   2.603   1.323   4.808 -0.1279 -0.5240  0.5766
 7561SOL     OW34141   4.440   1.057  12.393 -0.1104 -0.0543 -0.8091
 7561SOL    HW134142   4.523   1.062  12.345 -0.7230 -0.1393 -1.8799
 7561SOL    HW234143   4.372   1.060  12.326 -0.5765  2.0784 -0.2289
 7562SOL     OW34144   2.738   0.582   9.211  0.4228  0.7870 -0.5300
 7562SOL    HW134145   2.679   0.611   9.280  1.1690  2.3769 -0.5518
 7562SOL    HW234146   2.733   0.664   9.161 -1.0380  0.4813 -0.9007
 7563SOL     OW34147   0.045   1.929   0.763  0.1657  0.0049  0.4953
 7563SOL    HW134148   0.122   1.874   0.775 -0.3231 -0.8558 -0.3553
 7563SOL    HW234149   0.062   1.996   0.830  0.0861 -0.4383  0.9530
 7564SOL     OW34150   4.593   4.395   5.093 -0.1194  0.1728 -0.0714
 7564SOL    HW134151   4.677   4.428   5.125 -0.7326 -0.1968  1.9121
 7564SOL    HW234152   4.573   4.333   5.163 -0.5023 -1.1427 -1.3668
 7565SOL     OW34153   0.125   0.583   9.327  0.4555 -0.0927 -0.0120
 7565SOL    HW134154   0.119   0.665   9.277  0.9840  0.3631  0.6703
 7565SOL    HW234155   0.195   0.600   9.389 -1.0554  0.0496  1.6691
 7566SOL     OW34156   3.904   2.634  16.933  0.4212  0.3657 -0.6137
 7566SOL    HW134157   3.935   2.717  16.898  0.9510  0.7263  0.7329
 7566SOL    HW234158   3.988   2.603  16.968  0.7758  0.0424 -1.7394
 7567SOL     OW34159   3.940   1.041   5.379 -0.9150 -0.4099  0.6234
 7567SOL    HW134160   3.902   0.966   5.424 -1.4929  0.0374  0.8827
 7567SOL    HW234161   3.861   1.095   5.371 -0.2474  0.3189 -1.2137
 7568SOL     OW34162   3.296   1.439   3.056 -0.3901 -0.1917  0.2494
 7568SOL    HW134163   3.335   1.518   3.017  0.4688 -0.5217  0.4345
 7568SOL    HW234164   3.332   1.371   2.999  2.7595  0.2115  1.7361
 7569SOL     OW34165   1.692   0.219  16.893  0.4539 -0.1894 -0.2773
 7569SOL    HW134166   1.744   0.287  16.935 -0.5097 -0.2299  1.0091
 7569SOL    HW234167   1.684   0.153  16.962  0.1418  1.9999  1.7805
 7570SOL     OW34168   0.798   2.142   1.691 -0.1711  0.5623  0.5540
 7570SOL    HW134169   0.865   2.160   1.626  0.1391  0.5226  0.8648
 7570SOL    HW234170   0.792   2.226   1.738 -0.8078  0.0792  1.3436
 7571SOL     OW34171   1.372   3.703  10.368  0.0688  0.3002  0.0999
 7571SOL    HW134172   1.344   3.760  10.440  1.4322  0.8869  0.1770
 7571SOL    HW234173   1.388   3.765  10.297 -0.4295  0.7431  0.3702
 7572SOL     OW34174   2.734   0.966   4.316 -0.2699  0.1789  0.2044
 7572SOL    HW134175   2.773   0.901   4.374 -0.7201 -0.5124 -0.2574
 7572SOL    HW234176   2.786   1.042   4.340  1.5958 -0.4878 -1.7354
 7573SOL     OW34177   1.070   0.797   6.591  0.4077  0.0561  0.4290
 7573SOL    HW134178   1.139   0.837   6.643 -0.1455 -1.5834  2.4211
 7573SOL    HW234179   1.032   0.882   6.568 -0.4052 -1.3557 -3.4780
 7574SOL     OW34180   1.711   4.084   6.279  0.1337 -0.3348  0.3068
 7574SOL    HW134181   1.626   4.092   6.236  0.0510 -2.3110  0.0870
 7574SOL    HW234182   1.695   4.123   6.365  0.5925 -2.1573  1.2254
 7575SOL     OW34183   3.381   0.809  10.796 -0.6116  0.7050 -0.0579
 7575SOL    HW134184   3.312   0.746  10.816  0.5266  0.0445  1.7960
 7575SOL    HW234185   3.336   0.892  10.813 -0.5095  0.1515  2.9046
 7576SOL     OW34186   1.996   2.683   2.059 -0.1220 -0.5225  0.5103
 7576SOL    HW134187   1.922   2.625   2.045 -0.9540  0.3750  1.1801
 7576SOL    HW234188   2.069   2.623   2.043  0.8808  0.6108  0.7668
 7577SOL     OW34189   3.496   1.477  11.772 -0.2412 -0.4153 -0.6008
 7577SOL    HW134190   3.519   1.565  11.801  1.9693 -0.5858 -1.7876
 7577SOL    HW234191   3.474   1.427  11.850 -1.1025  3.4799  1.6377
 7578SOL     OW34192   1.355   0.525   4.052 -0.1847  0.4045 -0.2296
 7578SOL    HW134193   1.309   0.514   3.968  0.2965 -0.1540 -0.4186
 7578SOL    HW234194   1.435   0.479   4.027  0.2171 -0.6734  3.0968
 7579SOL     OW34195   1.277   3.730  13.894 -0.3162  0.2233 -0.0470
 7579SOL    HW134196   1.243   3.818  13.911 -0.2131  0.5396 -1.5327
 7579SOL    HW234197   1.278   3.724  13.799 -0.5614  0.9545 -0.0900
 7580SOL     OW34198   1.813   2.687   5.714  0.1001  0.1336 -0.2738
 7580SOL    HW134199   1.768   2.708   5.632  0.1986 -0.5763 -0.5119
 7580SOL    HW234200   1.905   2.672   5.693  0.4134  1.0991  0.4294
 7581SOL     OW34201   4.407   0.544   5.352  0.3994  0.2440  0.7995
 7581SOL    HW134202   4.328   0.596   5.337  0.6582  0.1414 -0.9133
 7581SOL    HW234203   4.395   0.481   5.280  0.9140 -0.6285  1.4723
 7582SOL     OW34204   1.330   4.559   2.410  0.2936 -0.2546  0.5302
 7582SOL    HW134205   1.310   4.468   2.389  1.5681 -1.0588  2.7382
 7582SOL    HW234206   1.384   4.578   2.333 -0.2010 -0.2035  0.2013
 7583SOL     OW34207   3.430   3.255   1.497 -0.1890  0.1165  0.2892
 7583SOL    HW134208   3.511   3.240   1.450 -0.2832 -1.0598  0.4745
 7583SOL    HW234209   3.435   3.180   1.558 -1.9925 -0.7221 -0.5930
 7584SOL     OW34210   4.152   1.046  11.149  0.0961  0.3326 -0.3273
 7584SOL    HW134211   4.161   1.117  11.211  0.7653 -0.3926  0.4022
 7584SOL    HW234212   4.063   1.020  11.172 -0.5211 -1.6778 -4.8589
 7585SOL     OW34213   0.391   3.890   9.355  0.3862 -0.2624 -0.3113
 7585SOL    HW134214   0.478   3.880   9.393  0.3709 -2.5622 -0.8808
 7585SOL    HW234215   0.375   3.798   9.332  0.9567  0.1417 -2.3052
 7586SOL     OW34216   3.602   0.042   9.585  0.1745 -0.7609  0.4221
 7586SOL    HW134217   3.567   0.043   9.495  0.3433 -1.8295  0.3379
 7586SOL    HW234218   3.621   0.134   9.600 -0.9462 -1.0354  3.4887
 7587SOL     OW34219   3.906   2.746  15.726  0.0689  0.8057 -0.4383
 7587SOL    HW134220   3.951   2.734  15.809  1.3418  1.7337 -1.0057
 7587SOL    HW234221   3.821   2.760  15.767 -0.1364  2.9355 -1.6183
 7588SOL     OW34222   0.119   0.772   3.095  0.8586 -0.5379 -0.2934
 7588SOL    HW134223   0.199   0.750   3.143  0.6231 -0.9380 -0.0823
 7588SOL    HW234224   0.137   0.741   3.006 -1.9938  1.2445 -1.4968
 7589SOL     OW34225   0.042   3.631   7.766 -0.2369 -0.1530  0.1251
 7589SOL    HW134226   4.674   3.646   7.786 -0.4823 -0.5637 -0.6868
 7589SOL    HW234227   0.083   3.597   7.846 -0.5084 -1.5235 -0.3119
 7590SOL     OW34228   3.389   2.848  16.307 -0.0577 -0.2376  0.0454
 7590SOL    HW134229   3.343   2.785  16.362 -1.1175 -0.1498 -0.7444
 7590SOL    HW234230   3.422   2.906  16.376 -1.9693  3.6299 -2.2571
 7591SOL     OW34231   2.420   2.203   7.493 -0.5804 -0.7656  0.6418
 7591SOL    HW134232   2.427   2.209   7.588 -0.3755  0.7953  0.5320
 7591SOL    HW234233   2.483   2.272   7.468 -2.4557  0.1048 -1.6962
 7592SOL     OW34234   0.670   3.141  10.341 -0.4012  0.4500  0.0570
 7592SOL    HW134235   0.757   3.128  10.380  0.4439  2.7990 -1.0472
 7592SOL    HW234236   0.664   3.233  10.366 -0.3501 -0.0294  1.8518
 7593SOL     OW34237   0.409   1.463   6.584 -0.2121 -0.0120  0.3632
 7593SOL    HW134238   0.502   1.487   6.581 -0.5434  1.5192  1.8211
 7593SOL    HW234239   0.388   1.481   6.493 -0.2999  0.4613  0.4753
 7594SOL     OW34240   0.505   3.473   5.392 -0.3355  0.0208  0.0052
 7594SOL    HW134241   0.545   3.387   5.406  1.9986  0.9171 -1.2715
 7594SOL    HW234242   0.582   3.512   5.352 -0.2989 -0.2507 -0.1929
 7595SOL     OW34243   1.662   3.697   4.412 -0.5435  0.6026 -0.0160
 7595SOL    HW134244   1.591   3.635   4.428  0.2030 -0.3239 -0.3282
 7595SOL    HW234245   1.637   3.759   4.480 -1.7800  0.8262 -0.6655
 7596SOL     OW34246   1.680   4.109  11.488  0.4349  0.0466  0.3490
 7596SOL    HW134247   1.620   4.043  11.455  1.3914 -1.6311  1.9522
 7596SOL    HW234248   1.683   4.172  11.416  1.5995 -2.2743 -1.6310
 7597SOL     OW34249   1.930   1.202  10.511 -0.1470 -0.5510 -0.1765
 7597SOL    HW134250   2.013   1.171  10.545 -0.5559  0.6942  1.9136
 7597SOL    HW234251   1.909   1.273  10.571 -1.6382 -1.4664  0.3938
 7598SOL     OW34252   2.554   0.171   6.469 -0.2450 -0.1165  0.0217
 7598SOL    HW134253   2.623   0.125   6.422  0.6100  0.6069  0.5873
 7598SOL    HW234254   2.483   0.177   6.405  0.5756 -1.6835 -1.0351
 7599SOL     OW34255   4.588   4.324  13.051  0.0169  0.4782 -0.1169
 7599SOL    HW134256   4.673   4.366  13.067 -0.7073  1.5190  1.0080
 7599SOL    HW234257   4.537   4.376  13.113 -0.8288 -1.0427  0.4776
 7600SOL     OW34258   4.258   1.339   7.812  0.1030  0.7259 -0.5259
 7600SOL    HW134259   4.231   1.280   7.883  0.0890 -0.8595 -1.8482
 7600SOL    HW234260   4.288   1.276   7.748 -1.8026 -0.2452 -0.4757
 7601SOL     OW34261   0.954   4.349   5.395  0.2857  0.4628 -0.4759
 7601SOL    HW134262   0.867   4.310   5.407  0.7335 -0.4335 -0.1529
 7601SOL    HW234263   0.964   4.375   5.304 -1.3807  1.0236 -0.5053
 7602SOL     OW34264   2.638   1.904   8.761 -0.1886  0.2173 -0.1969
 7602SOL    HW134265   2.665   1.959   8.834  0.3313  0.4099 -0.5277
 7602SOL    HW234266   2.545   1.923   8.767 -0.8639 -3.5667  1.5414
 7603SOL     OW34267   4.167   0.862   8.820 -0.1837 -0.1553 -0.0745
 7603SOL    HW134268   4.247   0.835   8.866  1.9172  0.7533 -3.2409
 7603SOL    HW234269   4.155   0.945   8.867 -0.7368 -1.0263  1.3089
 7604SOL     OW34270   4.516   3.282  14.574  0.0094  0.2253  0.3444
 7604SOL    HW134271   4.605   3.289  14.538 -0.0064 -0.1932  0.2253
 7604SOL    HW234272   4.527   3.231  14.654  3.4707 -0.7421 -0.7451
 7605SOL     OW34273   0.916   3.325  13.058  0.1048  0.4704  0.0904
 7605SOL    HW134274   0.953   3.412  13.043 -0.2417  0.6036  0.0077
 7605SOL    HW234275   0.986   3.273  13.096  0.5787  0.9457 -0.1205
 7606SOL     OW34276   1.629   0.034  10.593  0.1323  0.2779  0.3813
 7606SOL    HW134277   1.677   0.074  10.520  1.4680 -0.1609  1.0140
 7606SOL    HW234278   1.706   0.020  10.648 -0.9566 -1.0296  1.5682
 7607SOL     OW34279   1.117   1.893   2.328 -0.1125  0.1103  0.1522
 7607SOL    HW134280   1.073   1.849   2.401 -0.2420 -1.6846 -1.0128
 7607SOL    HW234281   1.061   1.970   2.329 -1.2893 -0.7528  1.2096
 7608SOL     OW34282   3.243   1.894   8.091 -0.3560  0.1154  0.3559
 7608SOL    HW134283   3.325   1.940   8.072 -0.3964 -0.0377 -0.1927
 7608SOL    HW234284   3.189   1.960   8.133 -1.5208 -0.5527 -0.0920
 7609SOL     OW34285   4.067   2.307   6.898  0.8572  0.4847  0.1760
 7609SOL    HW134286   4.048   2.283   6.807  0.5253  0.5087  0.2379
 7609SOL    HW234287   4.022   2.234   6.940  1.1973  0.0191 -0.2632
 7610SOL     OW34288   1.055   1.546  11.091  0.3441  0.0838 -0.1467
 7610SOL    HW134289   1.135   1.498  11.072 -0.3638 -0.8128 -0.8735
 7610SOL    HW234290   1.040   1.515  11.180  0.3754  1.8184  0.4679
 7611SOL     OW34291   1.551   2.576   7.330 -0.4951 -0.1938  0.0421
 7611SOL    HW134292   1.633   2.625   7.333 -1.7156  1.6214  3.6568
 7611SOL    HW234293   1.554   2.546   7.239 -0.3517 -0.1583  0.0354
 7612SOL     OW34294   1.929   3.128   2.243 -0.3264  0.1983 -0.2995
 7612SOL    HW134295   1.926   3.110   2.149 -1.4511  1.4516 -0.5062
 7612SOL    HW234296   2.003   3.082   2.283 -0.1385  0.8903  0.1319
 7613SOL     OW34297   1.953   3.972   8.315  0.4013  0.1243  0.5572
 7613SOL    HW134298   2.043   3.954   8.341  0.9346  1.4585 -0.3371
 7613SOL    HW234299   1.896   3.934   8.381 -0.3048 -0.9890 -0.7033
 7614SOL     OW34300   2.331   2.509   8.043 -0.0543  0.1679 -0.1430
 7614SOL    HW134301   2.353   2.529   7.952  1.4079 -3.3585 -0.5715
 7614SOL    HW234302   2.273   2.435   8.027  0.7211 -0.5810  0.4933
 7615SOL     OW34303   0.828   2.894   8.015 -0.5579  0.0707 -0.1504
 7615SOL    HW134304   0.811   2.814   8.064  0.0234  1.0697  1.7085
 7615SOL    HW234305   0.870   2.870   7.933 -1.4034  1.0281 -0.8624
 7616SOL     OW34306   2.932   4.451   4.103 -0.3068  0.4808 -0.9007
 7616SOL    HW134307   2.854   4.505   4.117 -0.2230  0.5063 -0.5440
 7616SOL    HW234308   2.915   4.415   4.016 -2.7431  0.5775 -0.4639
 7617SOL     OW34309   2.483   0.929   6.914 -0.0037  0.2653  0.1384
 7617SOL    HW134310   2.544   0.858   6.890  1.5693  0.7802  2.6250
 7617SOL    HW234311   2.529   0.991   6.970 -0.3170  0.8395 -0.2464
 7618SOL     OW34312   1.116   2.920   6.476 -0.2932  0.3637  0.2551
 7618SOL    HW134313   1.105   2.928   6.381  3.5294  1.4550 -0.0842
 7618SOL    HW234314   1.184   2.984   6.499  1.4996 -1.0872 -1.0311
 7619SOL     OW34315   2.846   0.425   0.547 -0.1474  0.2701  0.7876
 7619SOL    HW134316   2.839   0.456   0.637 -1.0901  1.1080  0.4300
 7619SOL    HW234317   2.766   0.464   0.511  0.5321  1.1543  0.2349
 7620SOL     OW34318   2.619   1.919   2.672 -0.0186 -0.6706 -0.3709
 7620SOL    HW134319   2.575   2.002   2.656  0.4044 -0.2788  0.5084
 7620SOL    HW234320   2.641   1.884   2.585  1.4845  4.3618 -1.9995
 7621SOL     OW34321   1.006   0.980   1.605 -0.1053 -0.3261  0.1431
 7621SOL    HW134322   0.917   0.982   1.642 -1.0943 -1.1236 -2.2386
 7621SOL    HW234323   1.045   0.897   1.632 -1.2026 -0.3878  1.6069
 7622SOL     OW34324   0.114   2.222  16.324  0.5116  0.4126 -0.0259
 7622SOL    HW134325   0.081   2.163  16.257 -0.2563 -0.2162  0.9195
 7622SOL    HW234326   0.069   2.306  16.315 -0.0709 -0.1582 -2.6188
 7623SOL     OW34327   4.308   1.716   7.327  0.3040  0.3230 -0.6886
 7623SOL    HW134328   4.336   1.781   7.392 -1.8761 -0.1590  0.7488
 7623SOL    HW234329   4.379   1.654   7.314  0.5562  0.4337  0.1210
 7624SOL     OW34330   0.483   1.888   2.792  0.0898  0.3393 -0.5563
 7624SOL    HW134331   0.515   1.827   2.725 -0.0834  0.7378 -1.0008
 7624SOL    HW234332   0.538   1.882   2.870 -2.5985 -1.7980  1.1946
 7625SOL     OW34333   0.487   2.888   4.590  0.0458 -0.3023 -0.2774
 7625SOL    HW134334   0.580   2.885   4.568  0.2430  2.2687  0.1928
 7625SOL    HW234335   0.467   2.975   4.556 -0.1591  1.0008  3.2156
 7626SOL     OW34336   3.084   1.537   8.910  0.0192 -0.2318 -0.4843
 7626SOL    HW134337   3.029   1.599   8.863 -0.4010  1.4262  2.1815
 7626SOL    HW234338   3.025   1.462   8.914  1.4996 -1.4229 -0.5836
 7627SOL     OW34339   1.746   3.185   0.597 -0.4675  0.3635  0.3272
 7627SOL    HW134340   1.795   3.106   0.622 -0.9074  0.2772  0.9132
 7627SOL    HW234341   1.728   3.217   0.685 -0.6814 -0.3717  0.5502
 7628SOL     OW34342   0.548   0.830  10.499  0.1128 -0.5287 -0.2779
 7628SOL    HW134343   0.570   0.746  10.539  1.1801  0.0673  0.3730
 7628SOL    HW234344   0.496   0.805  10.422 -0.1869 -1.0522  0.0927
 7629SOL     OW34345   0.036   3.360   8.428  0.5237 -0.0425  0.6708
 7629SOL    HW134346   0.020   3.450   8.397 -2.3831 -0.4069  1.0942
 7629SOL    HW234347   0.084   3.382   8.508 -2.4360  0.3831  2.3110
 7630SOL     OW34348   1.310   4.580  17.671 -0.1998 -0.0665 -0.3085
 7630SOL    HW134349   1.305   4.651  17.607 -0.5789 -1.6203 -2.0261
 7630SOL    HW234350   1.262   4.512  17.624 -1.4278  1.3181 -1.0776
 7631SOL     OW34351   3.684   3.218  10.353  0.7596  0.2213 -0.5737
 7631SOL    HW134352   3.682   3.254  10.442  1.1290 -0.0006 -0.4756
 7631SOL    HW234353   3.629   3.140  10.364 -0.3989  0.9350 -1.3111
 7632SOL     OW34354   2.525   4.120  12.875  0.4387  0.5235  0.4803
 7632SOL    HW134355   2.532   4.058  12.948 -0.6454  0.3975  0.4711
 7632SOL    HW234356   2.572   4.191  12.919  0.1159 -1.1892  3.6402
 7633SOL     OW34357   4.310   0.179   8.082 -0.0546 -0.5200 -0.2405
 7633SOL    HW134358   4.257   0.194   8.003  2.6095 -1.9917 -2.3358
 7633SOL    HW234359   4.269   0.245   8.137  0.3358 -1.3351  1.0205
 7634SOL     OW34360   0.138   0.273  17.608 -0.0665  0.3276  0.5121
 7634SOL    HW134361   0.204   0.208  17.634  0.3058  0.2186 -0.6728
 7634SOL    HW234362   0.185   0.356  17.611  0.6541 -0.0428 -0.4315
 7635SOL     OW34363   0.350   0.177  14.135  0.2717  0.0296  0.3515
 7635SOL    HW134364   0.410   0.234  14.182  2.5010 -0.3816 -2.0100
 7635SOL    HW234365   0.296   0.235  14.081  0.0815 -0.2261  0.2672
 7636SOL     OW34366   0.091   1.713   3.454 -0.2771 -0.1120 -0.1662
 7636SOL    HW134367   0.085   1.788   3.513  0.2531 -0.5349  0.4287
 7636SOL    HW234368   4.722   1.697   3.441 -0.2708  0.9424 -1.5183
 7637SOL     OW34369   1.137   0.399   1.526 -0.2248  0.0790 -0.3973
 7637SOL    HW134370   1.144   0.305   1.515  1.0846 -0.1573  2.2760
 7637SOL    HW234371   1.102   0.405   1.615 -3.2323 -0.3205 -1.5689
 7638SOL     OW34372   2.115   0.929  10.326  0.1683 -0.6950  0.2197
 7638SOL    HW134373   2.150   0.941  10.414  0.5721 -2.7274  0.3320
 7638SOL    HW234374   2.198   0.936  10.279  0.5380 -0.4244  0.9095
 7639SOL     OW34375   1.361   0.545  15.420 -0.2168  0.0362  0.0806
 7639SOL    HW134376   1.449   0.507  15.421 -0.0034  0.5165 -0.7349
 7639SOL    HW234377   1.335   0.507  15.504  0.2746 -1.4475 -0.4565
 7640SOL     OW34378   4.192   1.037  16.214  0.2830  0.2233 -0.2806
 7640SOL    HW134379   4.262   1.086  16.170 -0.6583  1.0773 -0.8268
 7640SOL    HW234380   4.237   0.955  16.231  0.6655  0.3065 -0.8989
 7641SOL     OW34381   2.734   4.164   9.588 -0.2822  0.0542 -0.2757
 7641SOL    HW134382   2.666   4.226   9.562  1.1344  2.3245  1.4187
 7641SOL    HW234383   2.683   4.110   9.648 -0.3426  1.0139  0.5296
 7642SOL     OW34384   1.513   2.561   6.093  0.2232  0.2223  0.6187
 7642SOL    HW134385   1.426   2.522   6.085  2.2148 -4.0323 -0.4705
 7642SOL    HW234386   1.534   2.552   6.186  2.0534  0.7531  0.2460
 7643SOL     OW34387   2.532   1.032   5.891  0.6158  0.0275  0.2539
 7643SOL    HW134388   2.615   1.079   5.892  0.8186 -0.3023 -1.1782
 7643SOL    HW234389   2.467   1.095   5.860  2.8355  2.3145  0.2808
 7644SOL     OW34390   3.221   3.162  15.956 -0.2568  0.1817  0.0768
 7644SOL    HW134391   3.211   3.097  15.887 -0.2792 -0.4506  0.6743
 7644SOL    HW234392   3.309   3.146  15.989  0.2898  0.5130 -1.2435
 7645SOL     OW34393   4.150   1.403   8.278  0.2202  0.2868 -0.0126
 7645SOL    HW134394   4.104   1.486   8.294 -1.2447 -0.3784 -0.6977
 7645SOL    HW234395   4.197   1.405   8.360  1.1904  0.5662 -0.5758
 7646SOL     OW34396   3.546   0.410   8.446 -0.8044  0.3666  0.3926
 7646SOL    HW134397   3.522   0.495   8.409  2.5554  1.8177  1.4925
 7646SOL    HW234398   3.486   0.401   8.520 -1.0423 -2.5632 -0.1695
 7647SOL     OW34399   0.312   2.049   2.472  0.0058  0.1927 -0.1729
 7647SOL    HW134400   0.217   2.046   2.462  0.1093  0.8274 -1.3849
 7647SOL    HW234401   0.320   2.056   2.567  0.0901  0.5862 -0.2076
 7648SOL     OW34402   2.532   0.832   3.999 -1.3183  0.0353  0.3068
 7648SOL    HW134403   2.486   0.809   3.918 -0.2150  0.6959 -0.5084
 7648SOL    HW234404   2.493   0.772   4.062  0.6402 -1.9226 -0.3496
 7649SOL     OW34405   0.437   1.803   1.082  0.2852 -0.1276 -0.1260
 7649SOL    HW134406   0.398   1.887   1.059  3.6708  0.9457 -1.9954
 7649SOL    HW234407   0.526   1.838   1.092 -1.2499  3.5925  0.6180
 7650SOL     OW34408   2.560   1.038   5.468  0.0350 -0.4893 -0.0929
 7650SOL    HW134409   2.477   1.065   5.431 -0.0796  1.0997  1.2935
 7650SOL    HW234410   2.615   1.066   5.395  0.2450  0.8313  0.5714
 7651SOL     OW34411   2.819   1.037   5.671  0.5400  0.6739 -0.0707
 7651SOL    HW134412   2.831   1.064   5.762 -1.1522  0.7148  0.1533
 7651SOL    HW234413   2.736   1.083   5.658  0.8571  1.0597 -0.7185
 7652SOL     OW34414   0.351   3.865   4.637  0.5189  0.1224 -0.7556
 7652SOL    HW134415   0.294   3.789   4.652  1.9852 -0.6732  0.8396
 7652SOL    HW234416   0.305   3.904   4.563 -0.9532 -1.0432 -0.4421
 7653SOL     OW34417   4.492   1.656  13.264 -0.1755  0.4474 -0.2313
 7653SOL    HW134418   4.577   1.631  13.227 -0.1713  0.0842  0.0246
 7653SOL    HW234419   4.493   1.751  13.256  3.8110  0.2963 -1.5005
 7654SOL     OW34420   4.299   2.952   7.213 -1.3106 -0.6607 -0.0999
 7654SOL    HW134421   4.323   2.929   7.123  0.1261  0.6284 -0.0580
 7654SOL    HW234422   4.361   3.025   7.221 -2.3211  0.2817 -0.7331
 7655SOL     OW34423   3.689   0.176  15.061 -0.5469  0.0774  0.3112
 7655SOL    HW134424   3.685   0.271  15.061 -1.3244  0.0471 -2.6586
 7655SOL    HW234425   3.767   0.174  15.117 -0.7218 -0.8992  0.5188
 7656SOL     OW34426   1.448   1.782   7.689 -0.2133 -0.4828  0.5556
 7656SOL    HW134427   1.479   1.762   7.778  2.4468  0.0656 -0.2548
 7656SOL    HW234428   1.357   1.760   7.711 -0.2174 -1.3828 -0.3532
 7657SOL     OW34429   2.280   2.341   4.734  0.0208 -0.4442  0.3353
 7657SOL    HW134430   2.258   2.248   4.733 -2.2662  0.0879  2.6351
 7657SOL    HW234431   2.353   2.336   4.672  0.1535 -0.6580  0.5085
 7658SOL     OW34432   3.963   2.648  14.388 -0.1177 -0.2810 -0.2023
 7658SOL    HW134433   4.015   2.568  14.391  0.4672  0.1238  0.5395
 7658SOL    HW234434   4.019   2.707  14.439 -1.3061  0.2495  0.4817
 7659SOL     OW34435   1.807   1.466   4.820  0.5827  0.4422 -0.4495
 7659SOL    HW134436   1.844   1.553   4.834  1.2001 -0.1673  1.7722
 7659SOL    HW234437   1.724   1.486   4.865  0.2827 -2.1081  0.1251
 7660SOL     OW34438   1.098   3.476   9.237  0.1583 -0.2011  0.0748
 7660SOL    HW134439   1.075   3.395   9.191  1.5800 -0.2632 -0.5144
 7660SOL    HW234440   1.022   3.506   9.287 -1.5057  1.2096 -3.3692
 7661SOL     OW34441   1.817   2.222   7.779  0.0435  0.3643 -0.1270
 7661SOL    HW134442   1.763   2.143   7.782  0.6193 -0.0520 -0.9311
 7661SOL    HW234443   1.761   2.290   7.816 -0.1291 -1.1543  2.4618
 7662SOL     OW34444   3.790   1.758   3.759 -0.0559  0.0136 -0.2603
 7662SOL    HW134445   3.833   1.812   3.692 -2.3572 -0.0479 -1.7823
 7662SOL    HW234446   3.811   1.670   3.728 -0.8568 -0.3769  0.3185
 7663SOL     OW34447   2.291   1.639   4.858 -0.0486 -0.2990 -0.3416
 7663SOL    HW134448   2.376   1.672   4.888 -1.3784  0.9537  2.0320
 7663SOL    HW234449   2.246   1.624   4.942  0.8133 -1.5427 -0.0961
 7664SOL     OW34450   4.006   1.380   5.842  0.3143 -0.0250 -0.1222
 7664SOL    HW134451   3.977   1.421   5.923 -3.5252 -1.3148 -0.8291
 7664SOL    HW234452   4.001   1.455   5.783 -2.4842  2.9587  3.9075
 7665SOL     OW34453   1.656   2.132  10.911  0.3213  0.0352 -0.0874
 7665SOL    HW134454   1.724   2.137  10.843  1.2525 -2.1282  0.6871
 7665SOL    HW234455   1.701   2.085  10.981  2.1299  0.2386 -1.1046
 7666SOL     OW34456   0.971   3.585   3.851  0.4946 -0.3896 -0.0206
 7666SOL    HW134457   1.015   3.660   3.891  0.5126 -0.4108 -0.0006
 7666SOL    HW234458   0.979   3.526   3.926 -1.4254  1.2424  1.4722
 7667SOL     OW34459   3.065   4.369   8.779 -0.4407  0.0848 -0.1157
 7667SOL    HW134460   3.152   4.391   8.745 -0.3215 -0.6594 -0.2877
 7667SOL    HW234461   3.082   4.312   8.855  2.0578  0.5755 -0.3120
 7668SOL     OW34462   2.111   1.358  10.823 -0.1572  0.3899  0.1469
 7668SOL    HW134463   2.145   1.286  10.770 -0.6516 -2.0508  3.1801
 7668SOL    HW234464   2.033   1.377  10.771  0.9529  0.9473 -1.3292
 7669SOL     OW34465   0.818   2.460   6.392  0.5454  0.1826 -0.2040
 7669SOL    HW134466   0.833   2.385   6.449  0.4067  0.1915 -0.1550
 7669SOL    HW234467   0.893   2.515   6.413 -0.9055  2.0604  0.1125
 7670SOL     OW34468   0.764   2.879   9.464 -0.0800  0.0127 -0.5938
 7670SOL    HW134469   0.779   2.955   9.520 -1.4366 -0.4994  0.4784
 7670SOL    HW234470   0.794   2.806   9.519 -0.4420  0.7247  0.5456
 7671SOL     OW34471   3.516   1.149   8.603 -0.2908  0.0818 -0.3237
 7671SOL    HW134472   3.467   1.139   8.521  1.1191  1.4126 -1.3462
 7671SOL    HW234473   3.559   1.233   8.586  0.9476 -0.8746 -1.8911
 7672SOL     OW34474   0.707   2.767   6.462 -0.4015 -0.1575  1.4301
 7672SOL    HW134475   0.714   2.863   6.466 -0.2636 -0.1869  1.8930
 7672SOL    HW234476   0.613   2.751   6.450 -0.3953  0.9486 -0.0875
 7673SOL     OW34477   1.504   3.999   1.264 -0.3867  0.2997  0.0043
 7673SOL    HW134478   1.478   4.037   1.180  0.5791  1.5808  0.2946
 7673SOL    HW234479   1.489   3.905   1.253 -0.2622  0.4028 -1.0957
 7674SOL     OW34480   2.570   2.418   8.470 -0.1789  0.9164  0.3128
 7674SOL    HW134481   2.594   2.390   8.381 -0.6961  0.5321  0.2968
 7674SOL    HW234482   2.508   2.349   8.494  0.0152  0.3413 -0.8384
 7675SOL     OW34483   2.058   0.301   7.155  0.1341  0.0992  0.1363
 7675SOL    HW134484   1.968   0.330   7.166 -0.3162 -0.6759 -1.6017
 7675SOL    HW234485   2.105   0.365   7.209  1.5509  0.9564 -2.1221
 7676SOL     OW34486   2.446   4.047  12.631  0.3550  0.3897  0.1779
 7676SOL    HW134487   2.353   4.031  12.642  0.7114 -0.5980  1.7729
 7676SOL    HW234488   2.480   4.056  12.720  1.7686 -0.8998 -0.2250
 7677SOL     OW34489   0.021   2.339   5.555  0.0742 -0.0321  0.4737
 7677SOL    HW134490   4.672   2.277   5.559 -0.0430  0.0123 -1.1105
 7677SOL    HW234491   4.690   2.408   5.518 -1.2904 -0.1023  2.4024
 7678SOL     OW34492   3.032   4.380   4.632 -0.6500  0.1854  0.5706
 7678SOL    HW134493   3.018   4.439   4.557 -1.5265  0.2075  0.7512
 7678SOL    HW234494   3.054   4.450   4.693 -0.7076 -0.6964  1.5997
 7679SOL     OW34495   4.390   2.964   2.544  0.6136  0.4756  0.4973
 7679SOL    HW134496   4.473   3.010   2.527  1.7775 -1.2867  1.3868
 7679SOL    HW234497   4.364   2.955   2.452  0.0635  0.0085  0.6993
 7680SOL     OW34498   2.085   4.597   9.254 -0.7645  0.3047  0.2349
 7680SOL    HW134499   2.162   4.541   9.264  0.2693  1.6382 -0.4924
 7680SOL    HW234500   2.100   4.671   9.313 -1.2484  1.0852 -0.6313
 7681SOL     OW34501   1.245   2.345   7.940  0.4079 -0.0724  0.2321
 7681SOL    HW134502   1.272   2.299   7.861  0.9699  2.7966 -1.2456
 7681SOL    HW234503   1.244   2.272   8.002  0.4321  0.6457  1.0907
 7682SOL     OW34504   0.481   1.920  12.575 -0.7047  0.3032  0.2731
 7682SOL    HW134505   0.485   1.909  12.480 -2.2742  2.1073  0.0114
 7682SOL    HW234506   0.474   2.015  12.581  0.5420  0.4224 -0.1738
 7683SOL     OW34507   1.643   2.100   4.940  0.4117  0.6182  0.6109
 7683SOL    HW134508   1.598   2.017   4.957 -0.9700  1.3299  0.3719
 7683SOL    HW234509   1.610   2.126   4.854 -0.2499 -1.0849  0.3463
 7684SOL     OW34510   0.403   1.769  16.536 -0.2743  0.1394  0.3415
 7684SOL    HW134511   0.363   1.727  16.460 -0.3151  0.2688  0.2907
 7684SOL    HW234512   0.366   1.857  16.532 -1.1570 -0.1893  1.5354
 7685SOL     OW34513   1.539   4.504   5.693 -0.2021 -0.1966 -0.2548
 7685SOL    HW134514   1.549   4.587   5.738 -0.3784 -0.7008  0.7079
 7685SOL    HW234515   1.492   4.525   5.612 -2.2069  0.0712  0.9989
 7686SOL     OW34516   3.306   1.102   5.583 -0.2179 -0.0689  0.3382
 7686SOL    HW134517   3.219   1.087   5.547 -0.9415 -0.3284  2.1566
 7686SOL    HW234518   3.362   1.116   5.507 -0.4760  0.4767  0.2525
 7687SOL     OW34519   0.929   2.396   6.825 -0.0160 -0.2878 -0.0429
 7687SOL    HW134520   0.863   2.336   6.789 -0.4497  0.5547 -0.6713
 7687SOL    HW234521   0.901   2.478   6.783  0.3938 -0.4483 -0.6247
 7688SOL     OW34522   1.146   1.098   1.019 -0.0011 -0.3424  0.1771
 7688SOL    HW134523   1.199   1.152   0.961  1.7046 -1.5327  0.6431
 7688SOL    HW234524   1.187   1.123   1.102 -1.5651  1.3991  0.4302
 7689SOL     OW34525   2.176   2.336  16.770  0.2265 -0.1953  0.2618
 7689SOL    HW134526   2.196   2.429  16.783  1.5247 -0.2969 -0.9901
 7689SOL    HW234527   2.226   2.319  16.690 -1.1329  2.4580 -1.1545
 7690SOL     OW34528   2.925   2.232   5.189 -0.3715  0.4476 -0.0496
 7690SOL    HW134529   2.832   2.227   5.210 -0.3203  0.7481  0.2460
 7690SOL    HW234530   2.922   2.156   5.131  2.4055  1.0150 -0.9382
 7691SOL     OW34531   0.878   2.248   6.558  0.2308  0.3056 -0.1027
 7691SOL    HW134532   0.867   2.154   6.572 -0.9452  0.0945 -2.5076
 7691SOL    HW234533   0.973   2.249   6.570  0.1425  0.3100  0.6271
 7692SOL     OW34534   4.218   0.902   3.353  0.1176 -0.1067  0.0929
 7692SOL    HW134535   4.288   0.862   3.301 -0.6941  1.8344 -2.4712
 7692SOL    HW234536   4.261   0.877   3.434  1.8892 -0.8558 -1.0626
 7693SOL     OW34537   3.636   2.880   4.223 -0.1502 -0.2018 -0.5848
 7693SOL    HW134538   3.656   2.864   4.131  1.5398 -0.2071 -0.2204
 7693SOL    HW234539   3.640   2.976   4.228  2.8054 -0.3090 -1.1484
 7694SOL     OW34540   2.547   4.399   8.310 -0.1753  0.0777  0.2689
 7694SOL    HW134541   2.454   4.400   8.332  0.0615 -0.5697  1.3120
 7694SOL    HW234542   2.578   4.421   8.398  0.0635 -0.0076  0.2050
 7695SOL     OW34543   0.090   4.214  12.953  0.3637  0.1712 -0.1725
 7695SOL    HW134544   0.089   4.240  12.860 -1.6020 -0.6485 -0.3936
 7695SOL    HW234545   0.000   4.223  12.985  0.4083  0.2450 -0.0662
 7696SOL     OW34546   0.890   0.850   4.336 -0.0298  0.4359 -0.1722
 7696SOL    HW134547   0.882   0.866   4.430 -1.9226  2.2373 -0.6446
 7696SOL    HW234548   0.927   0.930   4.299 -2.5852  1.8059  0.2017
 7697SOL     OW34549   0.527   1.311   5.456  1.0708  0.0224  0.2012
 7697SOL    HW134550   0.539   1.292   5.549 -0.8192  5.1083  1.5067
 7697SOL    HW234551   0.513   1.404   5.472  0.4485 -0.3386  1.7459
 7698SOL     OW34552   2.835   0.051   2.916 -0.1682 -0.0836  0.2555
 7698SOL    HW134553   2.855   0.139   2.947  1.3141 -0.1829 -0.4129
 7698SOL    HW234554   2.779   0.014   2.984  0.9740 -1.3411  0.4989
 7699SOL     OW34555   0.501   3.871   7.300  0.5329 -0.4741  0.4808
 7699SOL    HW134556   0.566   3.920   7.350 -0.1322  0.5384  0.3518
 7699SOL    HW234557   0.443   3.855   7.374 -1.1712  0.8901 -0.5718
 7700SOL     OW34558   3.520   4.248  15.335  0.0603 -0.4130  0.3042
 7700SOL    HW134559   3.484   4.293  15.259 -0.2483  0.6909  1.1043
 7700SOL    HW234560   3.441   4.207  15.372 -0.2280 -3.6213 -3.9109
 7701SOL     OW34561   2.095   2.019   3.145 -0.3747  0.5696  0.4625
 7701SOL    HW134562   2.160   1.981   3.204 -1.8208 -0.9737  1.0738
 7701SOL    HW234563   2.134   2.106   3.142 -0.1796  0.4393 -0.7924
 7702SOL     OW34564   4.139   2.776  15.343  0.3649 -0.2979  0.3999
 7702SOL    HW134565   4.156   2.787  15.249  0.0838  1.5496  0.5503
 7702SOL    HW234566   4.190   2.850  15.375 -0.6820  0.7168 -0.2612
 7703SOL     OW34567   1.560   2.836   8.915 -0.0693 -0.1714  0.0808
 7703SOL    HW134568   1.625   2.806   8.977 -0.3019  0.3027  0.5528
 7703SOL    HW234569   1.513   2.903   8.965  2.3268  0.9088  0.8453
 7704SOL     OW34570   3.623   0.240   4.979 -0.0440  0.1178  0.8457
 7704SOL    HW134571   3.534   0.276   4.984  0.0636  0.5785 -0.3777
 7704SOL    HW234572   3.673   0.318   4.954 -1.1583  0.6855  0.3938
 7705SOL     OW34573   2.387   0.888   7.853 -0.1584 -0.1320 -0.2681
 7705SOL    HW134574   2.451   0.842   7.797 -1.2214 -2.3292  0.3075
 7705SOL    HW234575   2.370   0.814   7.912 -0.3528  0.6578  0.6665
 7706SOL     OW34576   2.665   0.007   1.602  0.4667  0.6302 -0.3086
 7706SOL    HW134577   2.590   0.055   1.639  2.1234  1.7932  1.5697
 7706SOL    HW234578   2.645   4.643   1.632 -0.0256  0.3941 -1.3445
 7707SOL     OW34579   1.425   2.081   2.473 -0.2576 -0.4087  0.2601
 7707SOL    HW134580   1.473   1.999   2.488  1.3896  1.0064  2.6821
 7707SOL    HW234581   1.427   2.125   2.558  1.5751  0.5003 -0.2607
 7708SOL     OW34582   1.947   4.176   6.613 -0.3961 -0.8247  0.9053
 7708SOL    HW134583   1.997   4.258   6.606  1.5560 -2.3057 -2.6978
 7708SOL    HW234584   1.972   4.127   6.534  1.3286  1.8582 -0.2201
 7709SOL     OW34585   0.551   2.773   2.952 -0.0821  0.0510  0.1565
 7709SOL    HW134586   0.536   2.700   3.012  0.0352  1.1817  1.5681
 7709SOL    HW234587   0.471   2.760   2.901  0.3636 -2.2948  0.0328
 7710SOL     OW34588   3.622   4.705   5.055  0.2086 -0.0279  0.9374
 7710SOL    HW134589   3.541   4.707   5.107  0.8324  1.9486  1.8420
 7710SOL    HW234590   3.630   0.072   5.029  0.3867 -0.0817  0.8065
 7711SOL     OW34591   4.275   0.415   8.242 -0.6630 -0.5702  0.4206
 7711SOL    HW134592   4.341   0.480   8.266 -1.5118  0.6474 -0.5482
 7711SOL    HW234593   4.247   0.398   8.331 -3.9394  1.3641 -0.2808
 7712SOL     OW34594   1.624   3.414   1.689 -0.0214  0.4488  0.4445
 7712SOL    HW134595   1.559   3.484   1.687  0.6596  1.1086  1.6313
 7712SOL    HW234596   1.604   3.377   1.603  0.5255  0.2425  0.4061
 7713SOL     OW34597   0.790   0.426  11.714 -0.0672 -0.1821 -0.1211
 7713SOL    HW134598   0.734   0.363  11.759  1.0497 -0.1058  1.3773
 7713SOL    HW234599   0.860   0.443  11.776 -0.3174  0.6654 -0.0613
 7714SOL     OW34600   2.604   4.434   6.726 -0.1522 -0.4062  0.0779
 7714SOL    HW134601   2.551   4.481   6.662  1.1545 -0.1194 -0.7968
 7714SOL    HW234602   2.696   4.449   6.702  0.2735 -1.0671  1.2514
 7715SOL     OW34603   4.460   3.140   1.887  1.2489  0.3307  0.2332
 7715SOL    HW134604   4.508   3.178   1.814 -1.4449  4.7522  0.8080
 7715SOL    HW234605   4.435   3.220   1.932  0.8850  1.6245 -2.2582
 7716SOL     OW34606   3.371   1.606  12.234 -0.2687 -0.3303  0.2664
 7716SOL    HW134607   3.283   1.569  12.235 -1.0047  1.4782  3.0808
 7716SOL    HW234608   3.362   1.657  12.315  1.0701 -0.3702  0.4451
 7717SOL     OW34609   2.590   1.505   1.091  0.0621  0.0456  0.3667
 7717SOL    HW134610   2.496   1.494   1.109  0.2394 -0.9327  0.6974
 7717SOL    HW234611   2.627   1.514   1.179 -1.6685  4.4517  0.6451
 7718SOL     OW34612   2.846   0.139   9.254  0.1314 -0.7909  0.2137
 7718SOL    HW134613   2.842   0.228   9.220  0.6062 -1.4259 -1.4690
 7718SOL    HW234614   2.784   0.149   9.326 -1.8183 -0.4283 -1.5251
 7719SOL     OW34615   1.077   1.305   4.269  0.2323  0.3111 -0.8628
 7719SOL    HW134616   1.039   1.379   4.220 -0.5233  1.5122  1.4879
 7719SOL    HW234617   1.124   1.353   4.338 -0.1126 -1.5940  0.7136
 7720SOL     OW34618   2.917   0.235  10.342 -0.2095  0.1998 -0.6620
 7720SOL    HW134619   2.913   0.141  10.358  1.3302  0.0919 -0.9462
 7720SOL    HW234620   2.998   0.269  10.379 -1.2676 -0.1385  1.9319
 7721SOL     OW34621   3.751   1.452  15.762  0.1046 -0.1273  0.0597
 7721SOL    HW134622   3.762   1.500  15.844  2.9521 -1.3701  0.4164
 7721SOL    HW234623   3.666   1.484  15.731  1.0730  2.3231 -0.0723
 7722SOL     OW34624   3.672   2.967   1.275  0.0844  0.4866  0.5345
 7722SOL    HW134625   3.677   3.039   1.338  2.7423  0.5088  0.2844
 7722SOL    HW234626   3.593   2.922   1.306  1.8636 -2.6175  0.4972
 7723SOL     OW34627   3.350   1.525  13.359  0.2633 -0.0308 -0.5554
 7723SOL    HW134628   3.336   1.432  13.339  1.0402 -0.0923 -0.8339
 7723SOL    HW234629   3.321   1.573  13.281 -0.5348  2.0290  1.0214
 7724SOL     OW34630   3.454   1.300  17.322  0.3193  0.6416 -0.2502
 7724SOL    HW134631   3.427   1.298  17.230 -0.1572  0.2231 -0.0978
 7724SOL    HW234632   3.401   1.376  17.348  1.5279  1.2542  0.4134
 7725SOL     OW34633   1.196   2.072   1.533  0.1834 -0.5435 -0.4650
 7725SOL    HW134634   1.280   2.064   1.489  0.8825 -0.4324  0.8536
 7725SOL    HW234635   1.187   1.997   1.592 -4.1384  0.2149 -0.1559
 7726SOL     OW34636   1.352   2.276   7.125  0.4016  0.6522 -0.4065
 7726SOL    HW134637   1.276   2.333   7.139  1.3934  1.2172  2.7669
 7726SOL    HW234638   1.427   2.336   7.116  1.8150 -0.9525  0.7594
 7727SOL     OW34639   3.123   2.206  15.891  0.1006 -0.1091  0.3296
 7727SOL    HW134640   3.189   2.138  15.882  0.0073 -0.1974  0.3162
 7727SOL    HW234641   3.086   2.185  15.977  0.2485 -0.5342  0.2844
 7728SOL     OW34642   3.639   4.391  14.784  0.0879  0.2940  0.4744
 7728SOL    HW134643   3.721   4.438  14.764 -0.2995  1.5286  1.7883
 7728SOL    HW234644   3.578   4.464  14.788  0.1147  0.4079 -0.9720
 7729SOL     OW34645   3.505   4.248   8.350 -0.0291  0.5833  0.0228
 7729SOL    HW134646   3.532   4.158   8.369  0.2973  0.3816 -1.4086
 7729SOL    HW234647   3.502   4.287   8.438 -1.7263 -1.7599  1.0212
 7730SOL     OW34648   2.446   2.123   7.771 -0.0407  0.2427  0.8074
 7730SOL    HW134649   2.534   2.146   7.801 -0.4432  2.1478  0.4890
 7730SOL    HW234650   2.416   2.065   7.841 -3.6456  0.8634 -0.2328
 7731SOL     OW34651   3.035   0.671   6.802 -0.4065  0.4387 -0.5449
 7731SOL    HW134652   3.111   0.669   6.744 -0.8997 -0.0686 -1.1835
 7731SOL    HW234653   2.981   0.600   6.766 -0.5696  0.5748 -0.5675
 7732SOL     OW34654   3.478   4.134   3.820  0.0303  0.8035  0.2648
 7732SOL    HW134655   3.436   4.169   3.742  0.3772  3.9625  1.5034
 7732SOL    HW234656   3.520   4.214   3.853  1.6522  0.0151  0.1344
 7733SOL     OW34657   2.049   1.258   4.107  0.4914 -0.3072  0.2407
 7733SOL    HW134658   1.999   1.199   4.164  0.0821 -0.2441 -0.0563
 7733SOL    HW234659   2.019   1.345   4.133 -0.0869 -1.1635  2.4598
 7734SOL     OW34660   1.157   2.380  11.075  0.3088 -0.4550  0.1187
 7734SOL    HW134661   1.241   2.334  11.082  0.7266  0.4168  0.7835
 7734SOL    HW234662   1.192   2.470  11.076  2.1794 -1.1939  0.9362
 7735SOL     OW34663   4.558   4.240  17.241  0.4974  0.0239  0.3097
 7735SOL    HW134664   4.541   4.146  17.242 -1.3816  0.3580 -2.5660
 7735SOL    HW234665   4.609   4.260  17.163 -1.1952 -1.2215 -1.1181
 7736SOL     OW34666   3.619   0.147   3.723  0.5012 -0.4241 -0.3846
 7736SOL    HW134667   3.698   0.200   3.734 -0.9061  1.5815  0.0949
 7736SOL    HW234668   3.625   0.122   3.631 -0.2173 -0.9357 -0.2948
 7737SOL     OW34669   4.201   1.269   8.991  0.4046 -0.6902 -0.3744
 7737SOL    HW134670   4.157   1.250   8.908 -1.2563 -2.0391  0.8205
 7737SOL    HW234671   4.156   1.349   9.019 -1.2048 -2.0307  0.8771
 7738SOL     OW34672   0.150   1.574   7.490 -0.0002  0.4038 -0.6671
 7738SOL    HW134673   0.112   1.491   7.463  1.1168 -0.7179  1.2192
 7738SOL    HW234674   0.099   1.596   7.568 -0.1558  1.6819 -1.1217
 7739SOL     OW34675   0.805   3.592   9.651  0.2744  0.7440 -0.0236
 7739SOL    HW134676   0.870   3.642   9.602 -1.2033  2.0581 -0.6591
 7739SOL    HW234677   0.847   3.563   9.732 -0.4380 -2.2141 -0.7358
 7740SOL     OW34678   2.278   1.835   1.667  0.4093 -0.0710  0.1184
 7740SOL    HW134679   2.350   1.842   1.605  0.9100  0.8568  0.8030
 7740SOL    HW234680   2.232   1.915   1.643 -0.0498  0.3173  2.2548
 7741SOL     OW34681   4.008   1.723  11.842 -0.1559 -0.7530  0.3319
 7741SOL    HW134682   4.055   1.804  11.824  0.0555 -0.6638  1.2833
 7741SOL    HW234683   4.020   1.681  11.757 -0.2859 -0.7998  0.3365
 7742SOL     OW34684   0.590   3.518   4.509  0.2640 -0.1947  0.1259
 7742SOL    HW134685   0.598   3.612   4.524 -0.3794 -0.2778  1.0394
 7742SOL    HW234686   0.561   3.527   4.418  0.0108 -0.6155  0.1644
 7743SOL     OW34687   1.707   0.481   7.496  0.4582  0.4815 -0.3405
 7743SOL    HW134688   1.652   0.429   7.438  1.1155 -0.4315 -0.1364
 7743SOL    HW234689   1.794   0.443   7.491 -0.3362 -1.2772 -0.8377
 7744SOL     OW34690   2.009   1.580   3.874  0.0759 -0.8640  0.1234
 7744SOL    HW134691   1.984   1.499   3.829  3.4076 -1.4295 -0.7035
 7744SOL    HW234692   2.038   1.539   3.955 -1.1727 -2.1051 -0.0612
 7745SOL     OW34693   1.948   3.460  13.150 -0.4676  0.1981 -0.7250
 7745SOL    HW134694   1.936   3.427  13.061  2.5085  0.2930 -1.1900
 7745SOL    HW234695   2.042   3.477  13.140 -0.0366 -1.7626 -0.1740
 7746SOL     OW34696   4.048   2.170   6.373 -0.1953  0.2178  0.1155
 7746SOL    HW134697   4.078   2.082   6.350 -0.4662 -0.7102  3.2579
 7746SOL    HW234698   4.120   2.218   6.333  0.7337  2.3262  4.3621
 7747SOL     OW34699   4.620   0.014   8.824  0.4162  0.1622  0.6083
 7747SOL    HW134700   4.560   0.013   8.750  0.2638 -1.0616  0.7485
 7747SOL    HW234701   4.698   4.709   8.777 -0.5011 -0.1603 -0.6985
 7748SOL     OW34702   3.536   3.744   7.455 -0.1728 -0.3747 -0.7542
 7748SOL    HW134703   3.487   3.711   7.379 -0.3222  1.9028 -1.6337
 7748SOL    HW234704   3.607   3.793   7.414 -1.7976  2.3775 -0.2474
 7749SOL     OW34705   0.578   3.924   8.433  0.2625 -0.0016 -0.0319
 7749SOL    HW134706   0.655   3.964   8.394 -0.6432  0.7411 -1.0577
 7749SOL    HW234707   0.610   3.859   8.495 -0.8753  1.3005  1.9326
 7750SOL     OW34708   2.072   1.644   7.393  0.2293 -0.1057 -0.0825
 7750SOL    HW134709   2.132   1.616   7.462 -0.5311 -2.8799 -0.5320
 7750SOL    HW234710   2.094   1.737   7.387 -0.5843 -0.0001 -1.4539
 7751SOL     OW34711   1.285   1.395   5.150  0.1753 -0.1550 -0.2823
 7751SOL    HW134712   1.227   1.430   5.217 -0.9392  0.0025 -1.3295
 7751SOL    HW234713   1.364   1.435   5.185 -1.2098  1.5276  0.9239
 7752SOL     OW34714   2.911   0.706   2.932  0.8004 -0.4133 -0.7024
 7752SOL    HW134715   2.934   0.799   2.923  2.2455 -0.5836  1.2421
 7752SOL    HW234716   2.926   0.671   2.844 -1.1402 -1.4099 -0.6140
 7753SOL     OW34717   3.171   0.253   9.459  0.1827  0.1397  0.3377
 7753SOL    HW134718   3.155   0.244   9.553 -0.3177 -0.0278  0.2387
 7753SOL    HW234719   3.251   0.306   9.458  0.0576  0.3298  1.0094
 7754SOL     OW34720   2.047   4.019  13.082 -0.1374 -0.0557 -0.2528
 7754SOL    HW134721   1.963   3.979  13.061 -0.7046  0.3605  1.2160
 7754SOL    HW234722   2.105   4.014  13.006  0.3900  0.1628  0.1379
 7755SOL     OW34723   4.669   0.378   4.600 -0.2086 -0.1672  0.2195
 7755SOL    HW134724   4.723   0.456   4.587 -1.8534  0.7603 -0.9001
 7755SOL    HW234725   4.585   0.411   4.630  1.1318  1.7935  1.7987
 7756SOL     OW34726   1.693   2.336   6.468 -0.1461 -0.8425 -0.1538
 7756SOL    HW134727   1.738   2.252   6.480 -0.1752 -0.8310  0.0383
 7756SOL    HW234728   1.645   2.338   6.551 -0.6551 -1.8845 -0.4183
 7757SOL     OW34729   3.913   0.633   8.473 -0.3508  0.1129 -0.1940
 7757SOL    HW134730   3.986   0.692   8.487 -1.6896  2.0490 -1.4717
 7757SOL    HW234731   3.931   0.570   8.544 -0.1541 -1.0823 -1.3044
 7758SOL     OW34732   0.564   0.279   4.636 -0.5052  0.3404  0.3354
 7758SOL    HW134733   0.502   0.230   4.582 -0.0053  1.1597 -1.0032
 7758SOL    HW234734   0.547   0.371   4.616 -2.5447 -0.0875  0.1156
 7759SOL     OW34735   1.464   3.008   9.475 -0.1426  0.3577  0.2666
 7759SOL    HW134736   1.414   3.029   9.396  1.3085 -0.3078 -0.8215
 7759SOL    HW234737   1.419   2.935   9.518  1.2206 -1.2993 -1.1138
 7760SOL     OW34738   0.145   1.765  15.256  0.2169 -0.2920 -0.2386
 7760SOL    HW134739   0.055   1.794  15.265 -0.0189 -0.3883 -2.3784
 7760SOL    HW234740   0.167   1.737  15.345 -0.6779  2.5800  0.8627
 7761SOL     OW34741   3.708   4.646   3.836  0.3720 -0.2915  0.6327
 7761SOL    HW134742   3.676   4.723   3.788 -0.9630 -0.2137  1.6293
 7761SOL    HW234743   3.798   4.641   3.805  0.7743  0.3893  1.6793
 7762SOL     OW34744   3.163   0.852   3.256  0.3965 -0.4682  0.6657
 7762SOL    HW134745   3.171   0.800   3.175  0.8046  0.1761  0.2964
 7762SOL    HW234746   3.193   0.783   3.315  1.4930 -0.8604 -0.3593
 7763SOL     OW34747   1.364   4.355   2.644 -0.0862  0.3093  0.3795
 7763SOL    HW134748   1.373   4.438   2.691 -0.5029  0.4588  0.1949
 7763SOL    HW234749   1.431   4.359   2.575 -1.3022 -1.7691 -0.9107
 7764SOL     OW34750   4.453   1.216  14.744 -0.3955 -0.0481 -0.2841
 7764SOL    HW134751   4.361   1.232  14.766 -0.9712  0.1838 -2.9317
 7764SOL    HW234752   4.448   1.163  14.665 -0.2289 -1.2996  0.5608
 7765SOL     OW34753   3.341   2.439  16.709  0.2733  0.0397  0.4445
 7765SOL    HW134754   3.251   2.471  16.715 -0.1100 -0.9053 -0.4187
 7765SOL    HW234755   3.385   2.497  16.771 -0.1794  0.6062  0.2306
 7766SOL     OW34756   3.960   4.112   2.924 -0.4262  0.1210 -0.2008
 7766SOL    HW134757   4.041   4.068   2.898 -0.4839 -0.0741 -0.0590
 7766SOL    HW234758   3.907   4.087   2.848 -0.5416  1.7513 -0.6378
 7767SOL     OW34759   1.448   4.721   5.843  0.8336 -0.3980 -0.1518
 7767SOL    HW134760   1.439   0.079   5.891  2.3520 -1.0053  1.1816
 7767SOL    HW234761   1.456   4.655   5.911  1.3487 -1.3619 -1.1532
 7768SOL     OW34762   0.200   4.282   1.191  0.2732  0.0473 -0.1634
 7768SOL    HW134763   0.227   4.312   1.104 -2.0058  0.8539 -0.5937
 7768SOL    HW234764   0.126   4.227   1.165 -1.1148  1.4970  0.7503
 7769SOL     OW34765   2.919   4.446   7.159  0.0904  0.1581  0.0522
 7769SOL    HW134766   2.966   4.417   7.081  2.3387 -1.0437  1.8484
 7769SOL    HW234767   2.830   4.466   7.130 -0.4416 -1.4663  0.5549
 7770SOL     OW34768   0.254   3.412  15.489  0.9254  0.1216  0.3161
 7770SOL    HW134769   0.226   3.350  15.422  0.2184  0.7968 -0.0209
 7770SOL    HW234770   0.215   3.492  15.452 -0.9575 -0.8876  0.1199
 7771SOL     OW34771   1.962   0.637   8.910 -0.5163  0.0165  0.7252
 7771SOL    HW134772   2.018   0.564   8.936 -0.0391 -0.0770 -0.5722
 7771SOL    HW234773   1.897   0.583   8.865 -1.3485  1.1632  0.5173
 7772SOL     OW34774   0.951   3.642   8.015  0.0266 -0.1465  0.0531
 7772SOL    HW134775   0.948   3.685   7.929 -1.1394 -0.2265  0.0625
 7772SOL    HW234776   0.864   3.663   8.048  0.1254 -1.3369  1.0363
 7773SOL     OW34777   1.669   0.110  15.982 -0.6018  0.5831 -0.2992
 7773SOL    HW134778   1.741   0.109  16.045 -0.9555 -0.2785  0.0853
 7773SOL    HW234779   1.642   0.202  15.990 -0.3467  0.5161  1.3645
 7774SOL     OW34780   3.656   0.675   6.274  0.2212  0.5160  0.2869
 7774SOL    HW134781   3.681   0.582   6.280 -0.3858  0.3246 -0.2178
 7774SOL    HW234782   3.744   0.710   6.260  1.1394 -1.6991  0.4393
 7775SOL     OW34783   1.406   1.879   5.789 -0.6105  0.4387 -0.2620
 7775SOL    HW134784   1.397   1.941   5.716 -0.2619  0.9733  0.1416
 7775SOL    HW234785   1.501   1.886   5.797 -0.7002 -1.6607  2.7816
 7776SOL     OW34786   4.570   2.131  17.584 -0.1254 -0.1693 -0.3751
 7776SOL    HW134787   4.517   2.151  17.507  0.7728  2.0758 -0.4167
 7776SOL    HW234788   4.554   2.037  17.595 -2.5402  0.2735 -0.1571
 7777SOL     OW34789   0.412   2.560   7.148 -0.0443  0.4033 -0.2077
 7777SOL    HW134790   0.459   2.534   7.228 -1.0058 -0.2235  0.1424
 7777SOL    HW234791   0.397   2.653   7.164 -1.3129  0.1855 -0.2050
 7778SOL     OW34792   2.556   2.230   8.835 -0.9555  0.3990 -0.7129
 7778SOL    HW134793   2.617   2.181   8.890 -3.0684 -1.5946 -0.1584
 7778SOL    HW234794   2.500   2.258   8.908 -0.6763 -3.5519  1.0378
 7779SOL     OW34795   3.395   2.184   1.631  0.5001  0.4307  0.0444
 7779SOL    HW134796   3.427   2.270   1.603  0.5505 -0.1495 -1.6365
 7779SOL    HW234797   3.466   2.151   1.686 -0.7256 -0.0316  1.3499
 7780SOL     OW34798   4.186   3.950   8.875  0.2079 -0.2269  0.1446
 7780SOL    HW134799   4.154   3.896   8.802 -1.9118 -1.2324  1.7882
 7780SOL    HW234800   4.112   4.011   8.876 -0.2969 -0.7865 -3.1633
 7781SOL     OW34801   3.284   1.346   4.411 -0.1330 -0.3851 -0.4490
 7781SOL    HW134802   3.317   1.417   4.356 -2.6081  0.2657 -1.1184
 7781SOL    HW234803   3.190   1.350   4.395 -0.1243 -0.6791 -0.5787
 7782SOL     OW34804   3.452   2.638   6.862  0.5201 -0.8784  0.1864
 7782SOL    HW134805   3.408   2.710   6.817  3.4474  1.5391  1.2392
 7782SOL    HW234806   3.542   2.661   6.840  0.1911 -0.7872 -1.0687
 7783SOL     OW34807   0.236   0.033  15.894  0.2041 -0.0482 -0.0623
 7783SOL    HW134808   0.208   0.071  15.810 -2.0641  0.4557  0.9246
 7783SOL    HW234809   0.168   4.695  15.919 -1.2527  1.4765 -0.1769
 7784SOL     OW34810   2.489   3.662   4.076 -0.0723  0.4123  0.6471
 7784SOL    HW134811   2.572   3.662   4.122 -0.1780  1.1291  0.8452
 7784SOL    HW234812   2.503   3.583   4.024 -0.2789  0.9495 -0.2243
 7785SOL     OW34813   2.728   3.968   2.984  0.2386  0.4746  0.0857
 7785SOL    HW134814   2.682   3.925   2.912 -1.6845  1.2109  0.8618
 7785SOL    HW234815   2.653   3.986   3.040 -0.8643  0.2369 -1.3009
 7786SOL     OW34816   1.496   4.186   0.555 -0.2938 -0.0088 -0.3950
 7786SOL    HW134817   1.419   4.213   0.504 -0.2804  1.0689  0.1557
 7786SOL    HW234818   1.496   4.242   0.633  0.0142  0.4514 -0.7236
 7787SOL     OW34819   2.170   1.845  11.476  0.6231 -0.3367 -0.2335
 7787SOL    HW134820   2.136   1.850  11.387 -0.0303  3.5085  0.1945
 7787SOL    HW234821   2.242   1.908  11.479  1.3402 -1.2656  2.3426
 7788SOL     OW34822   0.964   0.206   7.453  0.1607  0.1117 -0.7226
 7788SOL    HW134823   0.928   0.276   7.399  0.8670 -0.3933 -1.8498
 7788SOL    HW234824   0.996   0.253   7.529  0.4344  0.1800 -0.8805
 7789SOL     OW34825   2.980   3.198   8.364 -0.5612  0.2203  0.1361
 7789SOL    HW134826   3.047   3.224   8.300  1.4163  0.1216  2.1465
 7789SOL    HW234827   3.008   3.235   8.448  3.5121  2.5541 -2.2480
 7790SOL     OW34828   1.462   2.041   5.569  0.3891  0.0372  0.2064
 7790SOL    HW134829   1.427   2.129   5.584  1.9623  0.4008  1.7033
 7790SOL    HW234830   1.551   2.055   5.600  1.4520 -1.9891 -1.9037
 7791SOL     OW34831   2.338   2.596  17.155  0.0271  0.0689  1.0670
 7791SOL    HW134832   2.397   2.652  17.105  0.8975 -1.4438  0.4056
 7791SOL    HW234833   2.269   2.661  17.164  0.9262  1.5026 -2.6342
 7792SOL     OW34834   4.497   4.162   5.979  0.0305 -0.5669  0.1505
 7792SOL    HW134835   4.509   4.082   6.030 -2.3201 -1.1727 -0.2341
 7792SOL    HW234836   4.581   4.170   5.933 -0.5554 -1.3308 -1.0410
 7793SOL     OW34837   0.002   4.692   4.000  0.1157  0.4499 -0.6205
 7793SOL    HW134838   4.675   4.621   4.039  1.2444  1.1192  2.0456
 7793SOL    HW234839   0.019   0.006   4.086 -0.3117 -1.9933  0.5677
 7794SOL     OW34840   2.923   1.151   4.053  0.5687  0.7453  0.1500
 7794SOL    HW134841   2.895   1.166   3.963 -0.6135  1.6425  0.6576
 7794SOL    HW234842   2.837   1.123   4.084 -0.1102  0.7810 -1.6900
 7795SOL     OW34843   2.898   3.119   3.214 -0.2152  0.7636 -0.1263
 7795SOL    HW134844   2.930   3.083   3.297  0.3164  0.2913 -0.5388
 7795SOL    HW234845   2.939   3.205   3.222  0.4660  0.3799  0.4832
 7796SOL     OW34846   0.019   0.560   8.140 -0.2834 -0.0121  0.3666
 7796SOL    HW134847   0.034   0.502   8.065 -0.4116  0.6566 -0.1688
 7796SOL    HW234848   0.094   0.616   8.120 -1.6493  1.5914 -0.2358
 7797SOL     OW34849   2.488   4.269   5.889 -0.1036 -0.0911  0.0322
 7797SOL    HW134850   2.434   4.227   5.957  0.3194  0.8629  0.9617
 7797SOL    HW234851   2.514   4.350   5.932  1.2287 -0.0144 -0.9334
 7798SOL     OW34852   0.480   0.816  12.971  0.4488 -0.3014  0.0871
 7798SOL    HW134853   0.571   0.833  12.947  0.4978  0.5917  0.9037
 7798SOL    HW234854   0.476   0.720  12.964 -0.3614 -0.0481 -3.1017
 7799SOL     OW34855   2.161   0.431   9.667  0.2733  0.4754 -0.3625
 7799SOL    HW134856   2.079   0.470   9.639 -0.4610 -0.0871  1.0069
 7799SOL    HW234857   2.132   0.375   9.739  0.7551  0.0159 -0.5206
 7800SOL     OW34858   3.913   1.117   8.571 -0.2371  0.2756 -0.0075
 7800SOL    HW134859   3.878   1.205   8.554 -1.4903 -0.4617 -1.1975
 7800SOL    HW234860   3.929   1.086   8.482  1.3574  2.0636 -0.3692
 7801SOL     OW34861   0.510   2.154   4.361  0.2567 -0.0522 -0.5101
 7801SOL    HW134862   0.513   2.121   4.450  0.5140 -1.3707 -1.0051
 7801SOL    HW234863   0.517   2.249   4.370  1.3093 -0.1962  0.1324
 7802SOL     OW34864   3.565   4.691   1.776 -0.3887 -0.2876 -0.2476
 7802SOL    HW134865   3.646   4.641   1.783 -0.1281  0.0585 -0.7421
 7802SOL    HW234866   3.521   4.679   1.860 -1.3149  2.2002 -0.3792
 7803SOL     OW34867   4.569   4.063   6.356  0.0813 -0.0934 -0.1633
 7803SOL    HW134868   4.553   4.010   6.433  0.8175 -0.0829  0.0034
 7803SOL    HW234869   4.554   4.145   6.402  0.5515 -0.3348  0.4248
 7804SOL     OW34870   3.547   1.734  14.637 -0.1293  0.6090  0.2639
 7804SOL    HW134871   3.452   1.730  14.642  0.0598 -4.4476  0.1846
 7804SOL    HW234872   3.558   1.710  14.545  1.7922  0.5045  0.5122
 7805SOL     OW34873   1.106   3.006  15.067 -0.2169  0.4567 -0.1340
 7805SOL    HW134874   1.143   2.922  15.042 -0.7365  0.1728  0.0554
 7805SOL    HW234875   1.012   3.004  15.046 -0.0668  1.1667 -0.8797
 7806SOL     OW34876   1.507   1.054  13.203  0.3785 -0.4000 -0.6496
 7806SOL    HW134877   1.510   0.967  13.243  0.8557 -0.6579 -1.2479
 7806SOL    HW234878   1.501   1.032  13.110  0.2593  0.7311 -0.9064
 7807SOL     OW34879   2.990   1.710  11.374 -0.0005  0.0873  0.3384
 7807SOL    HW134880   2.956   1.711  11.284 -1.5555  0.6321  0.9377
 7807SOL    HW234881   2.987   1.615  11.384  1.4340 -0.3573 -3.1671
 7808SOL     OW34882   4.495   0.684   4.673 -0.0231 -0.1311 -0.1461
 7808SOL    HW134883   4.436   0.721   4.739  1.2929  1.0512  0.3906
 7808SOL    HW234884   4.575   0.655   4.717  0.0333 -1.4662 -1.1178
 7809SOL     OW34885   2.636   0.381   4.944 -0.7926 -0.4224  0.1420
 7809SOL    HW134886   2.587   0.310   4.985 -2.4995  1.0204  0.5850
 7809SOL    HW234887   2.574   0.412   4.878  0.4853 -0.2932 -0.9947
 7810SOL     OW34888   0.230   1.389   2.386 -0.0249 -0.2403  0.5625
 7810SOL    HW134889   0.320   1.418   2.400 -0.7977  1.9860  0.9102
 7810SOL    HW234890   0.186   1.471   2.411 -1.1321 -0.6353 -0.0649
 7811SOL     OW34891   2.055   3.652   1.781  0.4271  0.5924 -0.0889
 7811SOL    HW134892   2.042   3.723   1.843 -0.6605  0.4668 -0.1738
 7811SOL    HW234893   2.095   3.579   1.829  1.1087  1.5614  0.8152
 7812SOL     OW34894   2.747   0.162  10.977 -0.5830  0.5924 -0.0033
 7812SOL    HW134895   2.707   0.248  10.990  1.3829  1.9028 -2.6904
 7812SOL    HW234896   2.838   0.178  10.953 -0.1085 -0.9780  0.7823
 7813SOL     OW34897   0.168   0.463   0.613  0.3136  0.1295 -0.4554
 7813SOL    HW134898   0.219   0.531   0.570 -0.9277  1.3047 -0.0588
 7813SOL    HW234899   0.119   0.516   0.676  1.0113 -0.3659  0.5135
 7814SOL     OW34900   3.598   0.937  17.507  0.4584 -0.1370 -0.1270
 7814SOL    HW134901   3.560   0.916  17.592  1.0502 -0.4703  0.0577
 7814SOL    HW234902   3.644   0.858  17.479  2.2184  2.0761 -3.4889
 7815SOL     OW34903   0.634   3.770   8.649  0.6548  0.1852 -0.3113
 7815SOL    HW134904   0.723   3.747   8.678 -0.2508 -1.2821  1.3087
 7815SOL    HW234905   0.613   3.849   8.700  0.2447  0.7523 -1.3574
 7816SOL     OW34906   2.362   3.396  11.828  0.4963  0.7743  0.0458
 7816SOL    HW134907   2.377   3.490  11.817 -0.5932  1.0333  0.7484
 7816SOL    HW234908   2.391   3.356  11.746  1.1083 -2.4086  1.8286
 7817SOL     OW34909   3.718   0.655  17.499  0.1321 -0.4317 -0.0341
 7817SOL    HW134910   3.737   0.684  17.588 -1.8769 -1.7105  0.7965
 7817SOL    HW234911   3.792   0.595  17.485  0.3223 -0.1204 -0.3741
 7818SOL     OW34912   0.410   2.175   0.926  0.7696 -0.1378  0.3441
 7818SOL    HW134913   0.492   2.130   0.905 -0.1101 -1.9339  0.6998
 7818SOL    HW234914   0.361   2.101   0.962  0.8077 -0.4743 -0.2985
 7819SOL     OW34915   2.610   1.400   2.729  0.2939  0.1587 -0.6876
 7819SOL    HW134916   2.607   1.494   2.747  0.9556 -0.3734  2.2457
 7819SOL    HW234917   2.516   1.384   2.731 -0.1366  2.7857 -0.2102
 7820SOL     OW34918   2.916   1.125   3.654  0.3109  0.1680 -0.3732
 7820SOL    HW134919   2.824   1.109   3.635  1.0296 -0.6339 -3.0770
 7820SOL    HW234920   2.944   1.034   3.657  1.2886  0.4894  0.2888
 7821SOL     OW34921   3.435   4.546   8.997 -0.1423 -0.1512 -0.1418
 7821SOL    HW134922   3.478   4.505   9.072  1.3111  0.0847 -0.8554
 7821SOL    HW234923   3.490   4.512   8.926 -0.1860  0.0163 -0.2566
 7822SOL     OW34924   2.866   0.945   5.192 -0.1977 -0.5022  0.8879
 7822SOL    HW134925   2.862   0.971   5.100 -1.1238  1.7039  1.5581
 7822SOL    HW234926   2.818   1.021   5.225 -1.0128  0.4283 -2.4249
 7823SOL     OW34927   0.946   3.047   5.079 -0.2546  0.4411  0.0666
 7823SOL    HW134928   0.977   3.135   5.097  2.8329 -0.7733  0.7071
 7823SOL    HW234929   0.936   3.001   5.162  2.7308  0.4076  0.4099
 7824SOL     OW34930   2.686   3.440   4.984  0.8053  0.4743 -0.3064
 7824SOL    HW134931   2.679   3.447   5.079 -1.1870  1.5608 -0.5503
 7824SOL    HW234932   2.628   3.508   4.951 -1.2994  0.5657  3.5998
 7825SOL     OW34933   1.452   2.975   3.956  0.2218  0.2897  0.9140
 7825SOL    HW134934   1.541   3.001   3.935 -0.4045  0.3781 -1.6757
 7825SOL    HW234935   1.469   2.893   4.003 -0.3797  0.5116  1.5356
 7826SOL     OW34936   0.331   0.656   7.550 -0.4189  0.4377 -0.4658
 7826SOL    HW134937   0.280   0.671   7.629  1.6679 -1.1645  1.1914
 7826SOL    HW234938   0.260   0.616   7.498  0.0221 -0.5037 -0.3471
 7827SOL     OW34939   1.752   4.105   7.216  0.3941  0.2713  0.3914
 7827SOL    HW134940   1.788   4.113   7.304 -1.0743  1.7000  0.8739
 7827SOL    HW234941   1.807   4.165   7.165 -1.8705 -0.7301 -3.2831
 7828SOL     OW34942   2.175   3.203   2.025  0.6263 -0.4389 -1.1246
 7828SOL    HW134943   2.223   3.204   1.942  2.1159 -0.7776 -0.2596
 7828SOL    HW234944   2.174   3.108   2.031 -1.2598 -0.2292  1.5661
 7829SOL     OW34945   0.705   2.109   3.001  0.0796 -0.0059 -0.1628
 7829SOL    HW134946   0.625   2.160   2.990 -0.7422 -1.1264  0.6850
 7829SOL    HW234947   0.762   2.175   2.959  0.5204 -0.1235  0.2505
 7830SOL     OW34948   0.443   4.173   6.912  0.4985 -0.6921 -0.4876
 7830SOL    HW134949   0.398   4.095   6.942 -2.8369  1.3537 -0.2031
 7830SOL    HW234950   0.455   4.151   6.819 -0.2862  0.1241 -0.7781
 7831SOL     OW34951   2.825   3.434   8.164  0.4482  0.3376  0.3843
 7831SOL    HW134952   2.860   3.345   8.154  3.5607  1.5168  0.7981
 7831SOL    HW234953   2.773   3.424   8.244 -0.6980 -1.1436 -0.5546
 7832SOL     OW34954   2.967   1.629   7.312  0.7134  0.2187  0.1069
 7832SOL    HW134955   2.909   1.561   7.345  0.3932 -0.3249 -1.5564
 7832SOL    HW234956   3.007   1.582   7.238  0.2422 -3.2678  2.0499
 7833SOL     OW34957   3.905   0.009  14.783  0.3871  0.1523 -0.0060
 7833SOL    HW134958   3.810   0.014  14.781  0.3068 -0.2903  2.7982
 7833SOL    HW234959   3.913   4.650  14.737 -0.1397  0.7435 -1.1935
 7834SOL     OW34960   0.896   2.170   7.925  0.4407 -0.4279 -0.2765
 7834SOL    HW134961   0.920   2.239   7.986 -1.0167 -0.7031  0.6133
 7834SOL    HW234962   0.888   2.218   7.843  1.3394 -4.6790 -2.8400
 7835SOL     OW34963   2.053   0.782   5.876 -0.4611 -0.0886 -0.1556
 7835SOL    HW134964   2.008   0.844   5.934  1.4841  0.9082  0.2764
 7835SOL    HW234965   2.006   0.797   5.795 -2.2697  0.9245  1.0698
 7836SOL     OW34966   4.510   3.209   9.241  0.0687  0.0391 -0.0818
 7836SOL    HW134967   4.593   3.204   9.288  1.4664  2.3237 -2.2600
 7836SOL    HW234968   4.461   3.262   9.304 -0.3738 -0.3000 -0.1390
 7837SOL     OW34969   0.338   1.291   2.673 -0.2088 -0.4385 -0.4840
 7837SOL    HW134970   0.309   1.221   2.615  0.5786 -0.3609 -0.9825
 7837SOL    HW234971   0.328   1.249   2.758  0.2250 -0.3814 -0.4026
 7838SOL     OW34972   0.614   1.788   5.191  0.4119  0.0958 -0.4336
 7838SOL    HW134973   0.641   1.838   5.114 -1.4940  0.2547 -1.0108
 7838SOL    HW234974   0.674   1.823   5.256  0.1267  1.8080 -1.0959
 7839SOL     OW34975   1.283   1.635   1.723 -0.6707 -0.3281 -0.1195
 7839SOL    HW134976   1.300   1.620   1.630  1.9695  0.0239  0.3144
 7839SOL    HW234977   1.368   1.618   1.763  0.2638  1.6231 -1.2426
 7840SOL     OW34978   0.328   2.646   2.821  0.3371  0.2959 -0.1177
 7840SOL    HW134979   0.251   2.659   2.766  0.4140  2.2766  0.2522
 7840SOL    HW234980   0.276   2.652   2.900  2.2113  1.1619  1.0478
 7841SOL     OW34981   2.140   2.865   2.754 -0.1863  0.5834 -0.2631
 7841SOL    HW134982   2.171   2.900   2.837 -1.2139  1.9545 -0.4702
 7841SOL    HW234983   2.190   2.784   2.744 -2.3685 -0.5703 -1.8145
 7842SOL     OW34984   0.367   0.181   4.466 -0.0474  0.2560  0.0106
 7842SOL    HW134985   0.413   0.124   4.404 -0.3404 -0.8160  0.7875
 7842SOL    HW234986   0.314   0.226   4.401 -1.8955 -1.8468  0.0613
 7843SOL     OW34987   0.442   2.198   3.020  0.2137 -0.0356  0.0588
 7843SOL    HW134988   0.348   2.215   3.016  0.2524 -0.2643 -1.7211
 7843SOL    HW234989   0.452   2.189   3.114 -1.0297  0.1330  0.2077
 7844SOL     OW34990   1.156   2.192   6.192 -0.8220 -0.0570  0.2657
 7844SOL    HW134991   1.148   2.199   6.097  2.1926 -0.6404 -0.0382
 7844SOL    HW234992   1.065   2.175   6.219 -0.6301 -0.3668  0.7163
 7845SOL     OW34993   1.246   1.668   5.807 -0.1034  0.2501 -0.3219
 7845SOL    HW134994   1.173   1.697   5.861  0.9355  0.8248  0.7802
 7845SOL    HW234995   1.295   1.750   5.816  2.5588 -1.4594  0.7941
 7846SOL     OW34996   1.870   2.559   2.598 -0.5427 -0.0699  0.3841
 7846SOL    HW134997   1.955   2.561   2.641 -0.2124  2.0058 -0.3745
 7846SOL    HW234998   1.869   2.648   2.562  1.4997  0.2470  1.1170
 7847SOL     OW34999   3.667   3.486   5.618 -0.4411  0.0942  0.1598
 7847SOL    HW135000   3.686   3.499   5.711 -0.3028 -0.0360  0.1489
 7847SOL    HW235001   3.753   3.481   5.577 -1.1941  0.5887 -1.4801
 7848SOL     OW35002   0.855   4.444   6.835  0.0953 -0.0427  0.3423
 7848SOL    HW135003   0.829   4.533   6.813  0.0629 -0.1215  0.0632
 7848SOL    HW235004   0.822   4.399   6.758 -0.8454 -1.3520  1.5154
 7849SOL     OW35005   1.971   4.123   9.077  0.4149  0.1816  0.0483
 7849SOL    HW135006   1.979   4.028   9.077 -0.8154  0.0760  2.2739
 7849SOL    HW235007   2.053   4.153   9.117 -0.5337  2.4201  0.3171
 7850SOL     OW35008   4.613   3.810   3.809  0.1589  0.5022 -0.0901
 7850SOL    HW135009   4.564   3.782   3.731  1.1777  0.3971 -0.6867
 7850SOL    HW235010   4.630   3.903   3.796  0.6644  0.5890  1.1877
 7851SOL     OW35011   1.856   3.749  16.985 -0.1231 -0.3037  0.5139
 7851SOL    HW135012   1.811   3.807  16.924 -0.1707 -0.9250 -0.0413
 7851SOL    HW235013   1.838   3.673  16.930 -3.2424 -0.1484  1.3211
 7852SOL     OW35014   4.239   4.338   6.668  0.2504  0.0771 -0.7119
 7852SOL    HW135015   4.272   4.411   6.615 -2.1839  0.5480 -1.6207
 7852SOL    HW235016   4.318   4.287   6.681 -0.1122 -0.5278 -0.8814
 7853SOL     OW35017   2.510   0.317  10.493  0.7262 -0.0483 -0.1883
 7853SOL    HW135018   2.490   0.318  10.399 -0.4184 -0.4404  0.0391
 7853SOL    HW235019   2.500   0.411  10.507  0.1288 -0.0760 -0.4169
 7854SOL     OW35020   4.495   1.540   2.301 -0.4658  0.2592 -0.7473
 7854SOL    HW135021   4.503   1.445   2.305 -2.8099  0.0740 -0.1287
 7854SOL    HW235022   4.493   1.562   2.208 -1.1151 -1.3668 -1.1109
 7855SOL     OW35023   4.301   2.247   2.173 -0.5804 -0.2390 -0.2213
 7855SOL    HW135024   4.346   2.166   2.199  1.2431  0.9308  0.2584
 7855SOL    HW235025   4.222   2.212   2.133 -0.5410  0.6290 -1.0566
 7856SOL     OW35026   4.426   3.115  14.353  0.8684 -0.6760 -0.1495
 7856SOL    HW135027   4.501   3.078  14.306  0.6177 -0.0193 -1.0742
 7856SOL    HW235028   4.451   3.188  14.410  1.0617 -1.8220  1.2208
 7857SOL     OW35029   2.061   2.877   2.255 -0.1363  0.0075  0.2216
 7857SOL    HW135030   2.116   2.822   2.311  0.2618  2.0969  1.8570
 7857SOL    HW235031   1.998   2.813   2.221 -0.9250  0.6463  0.4803
 7858SOL     OW35032   2.104   2.716   6.744  0.1005  0.0826 -0.8266
 7858SOL    HW135033   2.177   2.761   6.701 -0.9014 -0.2157 -2.8481
 7858SOL    HW235034   2.031   2.735   6.684  0.5274  0.0253 -1.3694
 7859SOL     OW35035   0.331   0.961  13.138  0.1019 -0.0114  0.0420
 7859SOL    HW135036   0.378   0.890  13.094  1.5253 -0.0105  1.5525
 7859SOL    HW235037   0.368   1.041  13.102 -1.3587 -0.0612 -1.5843
 7860SOL     OW35038   4.237   0.724   5.817 -0.3135  0.4732  0.3674
 7860SOL    HW135039   4.295   0.793   5.785  0.2663 -0.3371 -0.3081
 7860SOL    HW235040   4.156   0.773   5.800 -1.4522 -2.0806 -1.5209
 7861SOL     OW35041   3.321   3.642   9.053  0.1530 -0.2449  0.0881
 7861SOL    HW135042   3.365   3.642   9.138 -2.0153 -2.4420  1.2252
 7861SOL    HW235043   3.259   3.569   9.063 -1.5636  1.4506  1.8726
 7862SOL     OW35044   1.882   3.513   7.886 -0.5946 -0.6326 -0.5645
 7862SOL    HW135045   1.813   3.545   7.829 -0.1975  2.1424  0.4915
 7862SOL    HW235046   1.828   3.456   7.940  0.9926 -0.4469  1.2120
 7863SOL     OW35047   1.301   2.196   3.611 -0.4147  0.0998  0.7130
 7863SOL    HW135048   1.253   2.257   3.556  0.6835  0.3405  0.0202
 7863SOL    HW235049   1.393   2.216   3.591  0.4573 -5.0083 -0.4433
 7864SOL     OW35050   0.624   4.619   7.642  0.4407 -0.1027 -0.2198
 7864SOL    HW135051   0.648   4.699   7.688 -0.0901 -0.3364  0.4691
 7864SOL    HW235052   0.712   4.609   7.608  0.8087 -0.4160  0.8356
 7865SOL     OW35053   3.925   2.183   1.184 -0.0002 -0.3728 -0.3528
 7865SOL    HW135054   3.860   2.184   1.255  0.6372  1.7174  0.2034
 7865SOL    HW235055   4.014   2.185   1.218 -0.5428 -1.6298  1.1943
 7866SOL     OW35056   3.297   2.161   8.377 -0.1152  0.6036 -0.2664
 7866SOL    HW135057   3.281   2.071   8.407  0.1177  1.4686  2.4441
 7866SOL    HW235058   3.237   2.209   8.433  1.7958  0.7368  1.6419
 7867SOL     OW35059   4.571   2.447  13.807 -0.8247 -0.7892  0.5094
 7867SOL    HW135060   4.534   2.478  13.724  2.2941 -1.0981 -0.9588
 7867SOL    HW235061   4.649   2.501  13.812  0.8862 -3.2704  0.5681
 7868SOL     OW35062   0.769   1.055   3.353  0.5639 -0.2896 -0.0113
 7868SOL    HW135063   0.810   1.098   3.278  1.5524 -0.9246  0.1603
 7868SOL    HW235064   0.677   1.045   3.329  0.5065 -1.4140  0.6660
 7869SOL     OW35065   0.868   1.435   7.215 -0.1084 -0.0383  0.1397
 7869SOL    HW135066   0.795   1.431   7.153  0.6471  1.9156 -0.8923
 7869SOL    HW235067   0.845   1.357   7.265 -2.3544 -0.6393 -1.8458
 7870SOL     OW35068   3.764   1.918   1.166  0.1076 -0.4711 -0.0412
 7870SOL    HW135069   3.734   2.000   1.204  2.2909  0.8998 -1.2624
 7870SOL    HW235070   3.689   1.906   1.108 -1.5338  2.7593  1.4250
 7871SOL     OW35071   4.168   0.824  13.365 -0.2213  0.0947 -0.0195
 7871SOL    HW135072   4.072   0.814  13.368 -0.4707  2.1706 -1.8963
 7871SOL    HW235073   4.194   0.733  13.380 -0.0673 -0.2292 -2.3908
 7872SOL     OW35074   4.064   1.403   0.991 -0.2013  0.4239  0.1530
 7872SOL    HW135075   3.978   1.422   1.030 -1.2712 -1.6634 -1.2217
 7872SOL    HW235076   4.077   1.490   0.954 -2.8717  0.4082 -0.8712
 7873SOL     OW35077   3.908   0.471   2.921 -0.3807  0.7449 -0.0592
 7873SOL    HW135078   3.886   0.557   2.886  0.2573  1.1947  0.6403
 7873SOL    HW235079   3.958   0.431   2.850 -0.8379 -1.1836  0.6882
 7874SOL     OW35080   2.595   3.545   8.906  0.3965 -0.2553  0.4292
 7874SOL    HW135081   2.558   3.604   8.971 -1.1518  1.3548 -1.9308
 7874SOL    HW235082   2.631   3.610   8.845 -0.3064 -0.7711 -0.5326
 7875SOL     OW35083   2.570   2.385   5.930  0.6605 -0.0785 -0.4714
 7875SOL    HW135084   2.534   2.299   5.953 -3.4309  2.0782  1.3486
 7875SOL    HW235085   2.498   2.425   5.881  0.0032 -0.0677  0.4999
 7876SOL     OW35086   3.920   4.034   8.520 -0.0064 -0.9470 -0.4640
 7876SOL    HW135087   3.917   4.094   8.594  0.5242 -0.8485 -0.5214
 7876SOL    HW235088   3.945   4.091   8.448 -2.3599  0.6036 -0.0460
 7877SOL     OW35089   4.324   0.312   9.201 -0.1357  0.3293 -0.8652
 7877SOL    HW135090   4.266   0.372   9.153 -1.0393  0.7090  0.6759
 7877SOL    HW235091   4.342   0.241   9.140 -2.3163 -1.1103  0.1375
 7878SOL     OW35092   1.511   0.681   3.465 -0.0913  0.1448 -0.1597
 7878SOL    HW135093   1.527   0.750   3.529  0.6921  0.1286 -0.3414
 7878SOL    HW235094   1.589   0.628   3.485  0.1448  0.7008  0.4102
 7879SOL     OW35095   4.317   4.286   5.575 -0.2079  0.3247  0.4229
 7879SOL    HW135096   4.230   4.273   5.538 -0.2034 -0.4555  0.6909
 7879SOL    HW235097   4.314   4.246   5.661  1.1745  4.7053  2.4877
 7880SOL     OW35098   2.809   4.472  10.642  0.2013 -0.3231 -0.0375
 7880SOL    HW135099   2.756   4.404  10.684 -0.9548  0.8620  0.4322
 7880SOL    HW235100   2.784   4.473  10.549 -1.1327  0.4871  0.3280
 7881SOL     OW35101   4.668   3.636   6.469  0.0549  0.0986  0.1178
 7881SOL    HW135102   4.701   3.614   6.556 -0.3928 -1.9075 -0.2110
 7881SOL    HW235103   4.679   3.555   6.420 -1.6795 -0.3169  0.3906
 7882SOL     OW35104   3.401   0.091   2.396  0.5628  0.1619 -0.2370
 7882SOL    HW135105   3.464   0.040   2.345  2.6743  2.7159 -0.1866
 7882SOL    HW235106   3.321   0.055   2.358 -1.6562  4.0736  0.7187
 7883SOL     OW35107   3.118   3.240   3.319  0.8626 -0.0143  0.0608
 7883SOL    HW135108   3.146   3.203   3.403  0.4329 -1.1251 -0.2901
 7883SOL    HW235109   3.148   3.331   3.323  0.6765  0.0752 -0.6556
 7884SOL     OW35110   3.786   2.174   8.320  0.0249 -0.4963  0.1723
 7884SOL    HW135111   3.713   2.222   8.360  0.1092  1.0957 -1.5649
 7884SOL    HW235112   3.780   2.220   8.236 -0.8309  1.0453  1.0812
 7885SOL     OW35113   2.608   0.663  17.475  0.5437  0.0248 -0.0061
 7885SOL    HW135114   2.624   0.686  17.566  0.4656  2.1887 -0.5215
 7885SOL    HW235115   2.629   0.743  17.426  2.2845 -1.6953 -2.0390
 7886SOL     OW35116   3.554   1.788   8.010  0.1193  0.6215 -0.6924
 7886SOL    HW135117   3.601   1.822   8.086 -1.1217  0.5924  0.0756
 7886SOL    HW235118   3.465   1.768   8.039  1.5991  0.6156  3.8631
 7887SOL     OW35119   4.684   2.256   7.134  0.1931  0.0179 -0.3814
 7887SOL    HW135120   0.039   2.308   7.134 -0.5698  1.1895  0.2472
 7887SOL    HW235121   4.641   2.293   7.057  2.3065 -1.4959 -2.2673
 7888SOL     OW35122   4.075   4.611   2.491 -0.0520 -0.0981 -0.0983
 7888SOL    HW135123   4.014   4.681   2.469 -0.5468  0.6156  3.4912
 7888SOL    HW235124   4.053   4.600   2.584  2.1753 -1.0104  0.3216
 7889SOL     OW35125   1.151   3.606   5.721 -0.2682  0.1214  0.8711
 7889SOL    HW135126   1.133   3.524   5.767 -1.1341 -0.5617 -0.6876
 7889SOL    HW235127   1.158   3.673   5.789  0.2783  0.0595  0.8757
 7890SOL     OW35128   3.017   0.420   3.606  0.6651  0.0778 -0.8212
 7890SOL    HW135129   2.971   0.491   3.651 -2.6350 -2.0787 -0.7865
 7890SOL    HW235130   2.942   0.370   3.574  0.4913  0.3806 -0.8858
 7891SOL     OW35131   1.850   1.271   3.413  0.2573 -0.2471 -0.7994
 7891SOL    HW135132   1.784   1.208   3.384 -0.6614 -0.1663  1.1167
 7891SOL    HW235133   1.805   1.321   3.482  2.8754 -0.0575  0.7698
 7892SOL     OW35134   4.518   0.009  12.951  0.3117 -0.1574  0.1209
 7892SOL    HW135135   4.602   0.046  12.979  0.8268  0.5572 -2.4029
 7892SOL    HW235136   4.506   4.678  13.028  2.3657 -0.7682  0.0143
 7893SOL     OW35137   4.299   1.295   1.421  0.7833  0.0420  0.5334
 7893SOL    HW135138   4.330   1.213   1.459 -1.9023 -0.7637  0.9770
 7893SOL    HW235139   4.258   1.271   1.338 -1.5768  0.5479  1.5368
 7894SOL     OW35140   4.196   1.486  13.228  0.4141 -0.4689  0.3062
 7894SOL    HW135141   4.109   1.446  13.225  1.0848 -1.8710 -0.7044
 7894SOL    HW235142   4.226   1.469  13.139 -0.1058  2.5613 -0.4302
 7895SOL     OW35143   1.428   1.763  16.340 -0.3856  0.4657 -0.3825
 7895SOL    HW135144   1.346   1.784  16.385 -0.1042 -1.8252  1.1810
 7895SOL    HW235145   1.409   1.775  16.246  0.7028  1.9033 -0.4228
 7896SOL     OW35146   2.267   0.847   2.475  0.6945 -0.1359  0.6979
 7896SOL    HW135147   2.297   0.928   2.514 -0.5037  1.4292 -1.6176
 7896SOL    HW235148   2.178   0.874   2.453  0.6099 -2.2583 -1.6893
 7897SOL     OW35149   0.038   0.609   5.957  0.3078  0.5013 -0.8764
 7897SOL    HW135150   4.716   0.534   5.921  2.4757 -1.4012  0.3022
 7897SOL    HW235151   0.121   0.565   5.973  0.3383  0.7173 -0.4355
 7898SOL     OW35152   0.864   4.438   8.193  0.4185  0.3153  0.0450
 7898SOL    HW135153   0.851   4.440   8.098 -3.0098 -0.4381  0.5187
 7898SOL    HW235154   0.804   4.365   8.210  0.9361 -0.5148 -1.6921
 7899SOL     OW35155   0.692   4.299   7.696  0.3661  0.1847 -0.5809
 7899SOL    HW135156   0.688   4.349   7.777 -3.1855  0.3317 -0.8887
 7899SOL    HW235157   0.614   4.330   7.651 -0.2940  0.1664  0.5859
 7900SOL     OW35158   4.468   1.929   0.755  0.4296 -0.7972 -0.4819
 7900SOL    HW135159   4.468   1.973   0.840 -0.1975 -0.5514 -0.6066
 7900SOL    HW235160   4.561   1.917   0.735  0.8278  2.2331 -0.4868
 7901SOL     OW35161   3.524   3.153  11.243 -0.3279 -0.5380  0.0281
 7901SOL    HW135162   3.483   3.074  11.205  0.6969 -0.8987 -0.3419
 7901SOL    HW235163   3.596   3.175  11.184  0.0930  2.1424  1.5817
 7902SOL     OW35164   1.219   2.014   1.201  0.8199  0.0839  0.4410
 7902SOL    HW135165   1.279   1.957   1.249 -1.4209 -2.0085  0.7652
 7902SOL    HW235166   1.268   2.039   1.123 -0.9815 -2.7440 -1.6210
 7903SOL     OW35167   3.185   1.446   0.065  0.1220  0.9315  0.3820
 7903SOL    HW135168   3.184   1.536   0.099 -1.7530  1.3004 -0.6640
 7903SOL    HW235169   3.118   1.420   0.128  0.7941 -1.9229 -0.0986
 7904SOL     OW35170   1.002   1.474  11.389 -0.8181  0.2164 -0.4605
 7904SOL    HW135171   1.011   1.395  11.336 -0.6659  1.3160 -2.0742
 7904SOL    HW235172   1.080   1.461  11.442 -0.4004 -0.0520 -1.1392
 7905SOL     OW35173   3.452   3.789   6.191 -0.2602  0.1725  1.0021
 7905SOL    HW135174   3.391   3.839   6.137 -0.9619 -0.8352  0.8650
 7905SOL    HW235175   3.387   3.721   6.206  0.6584 -1.3205 -1.7623
 7906SOL     OW35176   4.012   3.054   5.200 -0.6741  0.4250  0.1850
 7906SOL    HW135177   4.026   3.149   5.207  1.2621  0.0985  0.7536
 7906SOL    HW235178   3.923   3.070   5.168 -0.4021 -1.0132 -1.2431
 7907SOL     OW35179   3.605   0.920   8.736 -0.3147  0.1030 -0.0866
 7907SOL    HW135180   3.536   0.889   8.795  0.1725  0.7838  0.8589
 7907SOL    HW235181   3.545   0.982   8.693 -1.6319  0.0570  1.6371
 7908SOL     OW35182   2.972   3.529   5.239 -0.3463 -0.1282 -0.3015
 7908SOL    HW135183   3.049   3.553   5.291  0.5954  1.1411 -2.3208
 7908SOL    HW235184   2.977   3.589   5.166  0.6112 -0.7441 -0.7559
 7909SOL     OW35185   3.773   1.273   2.474  0.3434 -0.0611  0.3835
 7909SOL    HW135186   3.754   1.342   2.538  0.8200 -0.4871  0.9948
 7909SOL    HW235187   3.844   1.229   2.521 -0.5085 -1.6401  0.2106
 7910SOL     OW35188   1.832   1.127   5.559 -0.3684 -0.1148  0.5102
 7910SOL    HW135189   1.756   1.185   5.566  0.9705  2.0112 -2.4330
 7910SOL    HW235190   1.802   1.054   5.505 -0.8207 -0.7352  1.5940
 7911SOL     OW35191   2.940   0.951   8.865 -0.3953  0.0782  0.2787
 7911SOL    HW135192   2.974   1.004   8.937 -0.4059 -0.6384  0.8108
 7911SOL    HW235193   2.992   0.875   8.890 -0.2477  0.3317  0.7456
 7912SOL     OW35194   4.081   4.718   4.823  0.9330  0.1261  0.0135
 7912SOL    HW135195   4.118   4.721   4.911 -2.9240  2.4128  1.5908
 7912SOL    HW235196   3.992   0.028   4.836 -0.0235 -2.1762 -0.5620
 7913SOL     OW35197   2.534   1.225   4.276  0.2976  0.3228  0.0559
 7913SOL    HW135198   2.509   1.158   4.212 -1.1798  2.0207 -1.1368
 7913SOL    HW235199   2.575   1.167   4.340 -0.3024  0.5807  0.6829
 7914SOL     OW35200   3.263   2.683  16.487  0.7694  0.3142 -0.2957
 7914SOL    HW135201   3.190   2.642  16.534  0.1663  0.3942 -1.1706
 7914SOL    HW235202   3.321   2.714  16.557  3.2932 -1.2148 -1.7230
 7915SOL     OW35203   4.004   3.164   7.567  0.3101 -0.0162  0.1075
 7915SOL    HW135204   4.032   3.109   7.494  0.5377  1.4629 -0.9223
 7915SOL    HW235205   4.094   3.176   7.597 -0.1228 -0.7003  1.6787
 7916SOL     OW35206   0.633   2.806  11.602  0.1612 -0.0770  0.0237
 7916SOL    HW135207   0.677   2.777  11.522 -1.6427  0.7550 -1.2613
 7916SOL    HW235208   0.717   2.794  11.647  0.2562  0.1742 -0.0846
 7917SOL     OW35209   1.082   4.133   9.962  0.5747 -0.4009 -0.9060
 7917SOL    HW135210   1.153   4.192   9.986  1.3248  0.0896 -4.3276
 7917SOL    HW235211   1.078   4.081  10.042  3.2295  0.5242 -0.2060
 7918SOL     OW35212   2.222   4.229  16.150 -0.7321 -0.1117  0.9096
 7918SOL    HW135213   2.207   4.307  16.204  1.8149  0.1255  1.2899
 7918SOL    HW235214   2.144   4.228  16.095 -0.5353  3.3978  0.5913
 7919SOL     OW35215   2.017   4.190   5.464  0.7637 -0.1360 -0.9386
 7919SOL    HW135216   1.924   4.170   5.480  1.5563 -1.3031  2.0457
 7919SOL    HW235217   2.044   4.253   5.530 -1.1163  0.2434 -0.5068
 7920SOL     OW35218   3.012   0.533   4.642  0.5667  0.0827 -0.9161
 7920SOL    HW135219   2.992   0.529   4.736  2.3312 -0.2574 -0.5467
 7920SOL    HW235220   3.107   0.540   4.649  0.5056  0.6198 -0.5803
 7921SOL     OW35221   0.607   2.397   8.819  0.4064  0.0776 -0.0132
 7921SOL    HW135222   0.586   2.428   8.731 -1.4724  0.5941  0.6151
 7921SOL    HW235223   0.523   2.357   8.838  0.5989  0.3044  1.3210
 7922SOL     OW35224   0.223   0.329   1.714 -0.1700  0.1961 -0.2442
 7922SOL    HW135225   0.209   0.391   1.643 -0.0389 -1.0048 -1.3296
 7922SOL    HW235226   0.205   0.245   1.672 -1.8817  0.7794 -0.6551
 7923SOL     OW35227   2.158   2.700   8.104 -0.0586  0.3191 -0.3677
 7923SOL    HW135228   2.233   2.658   8.145 -0.2159  2.6749  2.3280
 7923SOL    HW235229   2.125   2.648   8.031  1.6923 -1.8593  0.3924
 7924SOL     OW35230   1.860   1.219   6.111 -0.3821 -0.4669  1.1434
 7924SOL    HW135231   1.834   1.239   6.201 -0.2328  0.4969  0.9783
 7924SOL    HW235232   1.802   1.266   6.051 -1.4295 -0.7332  1.9596
 7925SOL     OW35233   1.541   2.137   7.915 -0.1319 -0.7422  0.1071
 7925SOL    HW135234   1.528   2.158   7.823  0.7701 -1.6528 -0.2267
 7925SOL    HW235235   1.455   2.155   7.955 -0.2568  1.4071 -1.1265
 7926SOL     OW35236   3.493   0.579  10.654 -0.0080  0.5069  0.2379
 7926SOL    HW135237   3.423   0.551  10.595 -2.2690  2.3130  2.0643
 7926SOL    HW235238   3.443   0.648  10.697 -0.2327  0.3334  0.2539
 7927SOL     OW35239   0.700   1.782   5.687  0.5716 -0.2686  0.5414
 7927SOL    HW135240   0.694   1.789   5.782 -2.1603  1.0784  0.2746
 7927SOL    HW235241   0.662   1.866   5.663  1.0933 -0.1638  0.0897
 7928SOL     OW35242   4.330   3.608   7.295 -0.2563 -0.1291 -0.8131
 7928SOL    HW135243   4.375   3.620   7.379  0.2588 -3.6743 -0.5974
 7928SOL    HW235244   4.401   3.651   7.248 -1.3607  3.6682  0.9299
 7929SOL     OW35245   3.581   3.235  14.452 -0.2004  0.0992 -0.6558
 7929SOL    HW135246   3.652   3.244  14.515 -0.5474  0.2977 -0.2930
 7929SOL    HW235247   3.510   3.275  14.501  0.5481  1.0058 -0.3206
 7930SOL     OW35248   3.820   2.437   7.571 -0.3456  0.3638  0.6083
 7930SOL    HW135249   3.770   2.512   7.539  1.2233  0.8940 -0.5708
 7930SOL    HW235250   3.863   2.415   7.489  1.5427 -0.0612  1.7239
 7931SOL     OW35251   4.373   1.991   8.263 -0.2223 -0.8709  0.7030
 7931SOL    HW135252   4.432   1.991   8.188 -0.7219 -0.9746  0.3116
 7931SOL    HW235253   4.373   1.896   8.269 -1.1467 -0.9027  0.1022
 7932SOL     OW35254   3.042   3.855   6.791  0.2583  0.2481  0.0952
 7932SOL    HW135255   3.035   3.761   6.808 -0.6544  0.2120 -0.5201
 7932SOL    HW235256   3.093   3.887   6.865 -1.8529  0.6854  1.3460
 7933SOL     OW35257   1.856   0.321  10.022 -0.2572 -0.0282 -0.1819
 7933SOL    HW135258   1.897   0.398  10.063  1.1731 -0.8745 -0.0344
 7933SOL    HW235259   1.834   0.263  10.094  3.3853  1.4930  2.1521
 7934SOL     OW35260   3.653   0.285   4.323  0.1506 -0.1740 -0.3241
 7934SOL    HW135261   3.589   0.251   4.260 -0.9570  0.0955  0.6724
 7934SOL    HW235262   3.664   0.204   4.372  2.4105 -0.0880 -0.6844
 7935SOL     OW35263   3.149   0.299   4.576 -0.6207 -0.4794 -0.0742
 7935SOL    HW135264   3.126   0.239   4.505  0.7711  1.1707 -1.9372
 7935SOL    HW235265   3.075   0.359   4.573 -2.1381 -2.2529  1.4021
 7936SOL     OW35266   0.481   0.639  10.923 -0.3333 -0.4291 -0.0396
 7936SOL    HW135267   0.457   0.703  10.989  0.5705  0.3645 -0.4748
 7936SOL    HW235268   0.448   0.694  10.852 -0.5948  1.0086  1.2110
 7937SOL     OW35269   4.476   0.153   5.293  0.0477 -0.1330 -0.0420
 7937SOL    HW135270   4.466   0.182   5.384  2.6457 -2.2468  0.8989
 7937SOL    HW235271   4.446   0.063   5.305 -2.3312  0.6132 -0.3035
 7938SOL     OW35272   1.211   0.764   1.307  0.2230 -0.3720 -0.1796
 7938SOL    HW135273   1.279   0.749   1.373  1.1327  0.5679 -0.9031
 7938SOL    HW235274   1.180   0.675   1.291 -1.3997  0.2553 -0.5097
 7939SOL     OW35275   3.287   2.685  17.305 -0.4131 -0.7444 -0.0017
 7939SOL    HW135276   3.227   2.651  17.372 -0.4719 -0.3235  0.1591
 7939SOL    HW235277   3.370   2.685  17.353 -0.3787 -0.0825 -0.0672
 7940SOL     OW35278   3.566   2.267   2.721 -0.0063 -0.6223  0.2237
 7940SOL    HW135279   3.611   2.326   2.660 -2.5185  1.4620  0.3949
 7940SOL    HW235280   3.506   2.230   2.657 -0.6360 -0.9069  0.9899
 7941SOL     OW35281   2.317   4.192  10.863  0.4655 -0.3267  0.3896
 7941SOL    HW135282   2.307   4.288  10.864  1.1083 -0.2596  0.2988
 7941SOL    HW235283   2.368   4.185  10.783 -0.3670  2.7366 -0.4262
 7942SOL     OW35284   4.293   2.177   3.337 -0.0092  0.0149 -0.1209
 7942SOL    HW135285   4.266   2.213   3.252  2.6185 -1.8789 -1.7421
 7942SOL    HW235286   4.254   2.245   3.392  2.6881  2.3272 -1.0877
 7943SOL     OW35287   3.028   4.682  10.161 -0.1710 -0.2715 -0.4088
 7943SOL    HW135288   3.043   4.601  10.112  0.9348  0.1850 -0.8321
 7943SOL    HW235289   3.045   4.657  10.251 -0.8865 -0.2374 -0.2626
 7944SOL     OW35290   4.390   0.389   3.242  0.5567 -0.3263 -0.1108
 7944SOL    HW135291   4.297   0.387   3.221 -0.0811 -0.9122  2.7672
 7944SOL    HW235292   4.426   0.307   3.207  0.4287 -0.5427  0.2642
 7945SOL     OW35293   2.564   1.865   4.807 -0.0363 -0.1560  0.6521
 7945SOL    HW135294   2.627   1.796   4.830  1.1830  0.8623  0.3611
 7945SOL    HW235295   2.505   1.859   4.883  2.8100  3.9052  3.1445
 7946SOL     OW35296   4.579   1.144   3.655  0.1888 -0.4426 -0.1247
 7946SOL    HW135297   4.527   1.108   3.583  0.4495 -0.8071 -0.1295
 7946SOL    HW235298   4.508   1.187   3.702  2.1911  0.7141  1.8120
 7947SOL     OW35299   2.813   1.938   1.960  0.2115 -0.3283 -0.5925
 7947SOL    HW135300   2.728   1.895   1.963  0.7424 -1.4392 -1.5863
 7947SOL    HW235301   2.874   1.879   1.916 -0.4494 -1.4414 -0.0206
 7948SOL     OW35302   3.048   2.491   2.621  0.1733  0.1345  0.1774
 7948SOL    HW135303   3.060   2.530   2.535  1.1178  2.0084  1.1451
 7948SOL    HW235304   3.052   2.398   2.599  1.0256  0.1954  0.0590
 7949SOL     OW35305   1.780   2.694  17.376 -0.0767 -0.1124  0.1966
 7949SOL    HW135306   1.720   2.650  17.317  0.5974 -1.0149  0.1966
 7949SOL    HW235307   1.830   2.753  17.319 -2.3671 -0.5720 -2.2446
 7950SOL     OW35308   2.359   1.438   4.648 -0.2880  0.2097 -0.0801
 7950SOL    HW135309   2.341   1.491   4.725 -0.7104 -2.0198  1.3473
 7950SOL    HW235310   2.438   1.387   4.668 -1.2828 -1.3485 -0.1355
 7951SOL     OW35311   2.642   4.355   5.572 -0.4720  0.3737  0.5100
 7951SOL    HW135312   2.669   4.400   5.492  1.9515 -0.6720  0.7285
 7951SOL    HW235313   2.720   4.345   5.627  1.0642 -0.2761 -1.7657
 7952SOL     OW35314   2.475   4.530   4.881  0.6522 -0.3319  0.2109
 7952SOL    HW135315   2.379   4.533   4.876  0.7130 -0.0406 -0.8099
 7952SOL    HW235316   2.483   4.434   4.880  1.3394 -0.2656 -0.3869
 7953SOL     OW35317   0.422   0.461   6.365 -0.1135 -0.8247  0.1650
 7953SOL    HW135318   0.463   0.375   6.353 -0.5833 -0.9801 -0.3099
 7953SOL    HW235319   0.383   0.478   6.280  0.7953 -1.5711 -0.3958
 7954SOL     OW35320   4.704   3.303   3.917  0.4003 -0.3492  0.2637
 7954SOL    HW135321   4.705   3.219   3.871  0.8753  0.2721 -0.8567
 7954SOL    HW235322   4.682   3.364   3.846 -1.6985 -0.9562  0.3969
 7955SOL     OW35323   4.023   3.717   2.935  0.0298 -0.3537 -0.1577
 7955SOL    HW135324   4.004   3.811   2.936  0.6067 -0.2400  1.7926
 7955SOL    HW235325   3.941   3.677   2.963  0.1939 -0.8422 -0.3803
 7956SOL     OW35326   0.611   3.949   8.846 -0.7273 -0.6285  0.1159
 7956SOL    HW135327   0.585   4.019   8.906  0.3285 -0.5295  0.4540
 7956SOL    HW235328   0.638   3.881   8.908  0.5233 -0.2661 -0.0421
 7957SOL     OW35329   0.217   1.107   6.811 -0.2738 -0.0070 -0.4941
 7957SOL    HW135330   0.251   1.102   6.721  0.0699  1.9520 -0.4823
 7957SOL    HW235331   0.124   1.126   6.800 -0.0862  0.8101 -0.7241
 7958SOL     OW35332   1.416   2.747   0.480 -0.0215 -0.2403  0.1692
 7958SOL    HW135333   1.346   2.723   0.541 -0.2321  0.5956  0.2490
 7958SOL    HW235334   1.487   2.684   0.496  1.5670  0.7826 -2.9078
 7959SOL     OW35335   2.073   4.516   3.140  0.0147 -0.0291 -0.8115
 7959SOL    HW135336   2.113   4.510   3.227 -0.4404  0.3311 -0.5744
 7959SOL    HW235337   2.155   4.554   3.109  1.5866 -0.5242  2.6510
 7960SOL     OW35338   1.266   0.889   5.762 -0.5782  0.2828  0.0332
 7960SOL    HW135339   1.180   0.850   5.746  0.2899 -1.5060 -0.3657
 7960SOL    HW235340   1.288   0.839   5.841 -1.2823 -0.9097 -0.5118
 7961SOL     OW35341   0.200   1.095   8.326  0.1213  0.4373  0.2371
 7961SOL    HW135342   0.182   1.024   8.264  2.1610 -2.4377  2.9327
 7961SOL    HW235343   0.176   1.044   8.404  1.0178  0.1674  0.3345
 7962SOL     OW35344   0.228   3.708  16.706  0.1226 -0.0413  0.5610
 7962SOL    HW135345   0.308   3.722  16.756  0.4512  0.2071 -0.0360
 7962SOL    HW235346   0.165   3.684  16.775 -1.2666 -1.2331 -1.1213
 7963SOL     OW35347   4.112   0.779   9.148 -0.2913  0.9217 -1.3389
 7963SOL    HW135348   4.119   0.784   9.243 -0.5257 -0.3535 -1.2559
 7963SOL    HW235349   4.098   0.874   9.141  1.1001  1.2390  0.2422
 7964SOL     OW35350   2.794   4.185   6.492 -0.0654  0.2743  0.0727
 7964SOL    HW135351   2.883   4.170   6.524 -0.0199 -0.9303 -0.6518
 7964SOL    HW235352   2.798   4.151   6.403 -1.5256 -3.0136  1.2788
 7965SOL     OW35353   2.418   2.619   3.740  0.0973  0.4198  0.1304
 7965SOL    HW135354   2.423   2.663   3.825 -1.0782  0.8727 -0.0270
 7965SOL    HW235355   2.479   2.546   3.748 -2.6390 -2.0087 -1.0517
 7966SOL     OW35356   2.258   1.212   3.347  0.1655  0.6991 -0.3659
 7966SOL    HW135357   2.288   1.137   3.399  1.0735  1.9074  0.8818
 7966SOL    HW235358   2.252   1.170   3.262 -1.1374 -1.3532  0.7456
 7967SOL     OW35359   4.303   4.350  11.775  0.3467  0.5424  0.2687
 7967SOL    HW135360   4.254   4.370  11.696  0.2025 -1.5083 -0.1548
 7967SOL    HW235361   4.377   4.403  11.747 -0.4891 -0.4796 -3.8300
 7968SOL     OW35362   4.553   3.932   2.060  0.0923  0.0872 -0.5057
 7968SOL    HW135363   4.593   3.905   1.977  0.7575  0.0452 -0.1643
 7968SOL    HW235364   4.625   3.939   2.122  0.7570  0.1158 -1.2916
 7969SOL     OW35365   4.165   3.664   3.380 -1.4223  0.1464  0.5158
 7969SOL    HW135366   4.118   3.679   3.298  0.6713  2.2602 -0.2906
 7969SOL    HW235367   4.135   3.731   3.442 -1.5317 -0.4469  1.1056
 7970SOL     OW35368   3.037   1.440   4.275  0.3608  0.5618 -0.2789
 7970SOL    HW135369   2.990   1.460   4.193 -0.3534 -0.8225 -0.2041
 7970SOL    HW235370   3.073   1.526   4.297  0.9176  0.7837 -2.0317
 7971SOL     OW35371   0.908   2.822  11.686  0.0684 -0.3304 -0.0450
 7971SOL    HW135372   0.965   2.751  11.717 -1.3417 -1.5393 -0.2393
 7971SOL    HW235373   0.967   2.872  11.630  1.8437 -0.9119  1.2906
 7972SOL     OW35374   0.616   2.435   0.231 -0.9872 -0.4923  0.0358
 7972SOL    HW135375   0.522   2.451   0.234 -0.9491 -0.3040  0.2409
 7972SOL    HW235376   0.617   2.355   0.178  2.9720 -0.4522  0.0354
 7973SOL     OW35377   3.293   0.963   3.909  0.1766  0.1901  0.1931
 7973SOL    HW135378   3.268   0.878   3.874 -0.5677  1.1329 -1.5889
 7973SOL    HW235379   3.246   1.029   3.858 -0.4293 -0.5495 -0.2024
 7974SOL     OW35380   0.996   4.276   2.339 -0.1953  0.1085  0.1396
 7974SOL    HW135381   0.996   4.338   2.412 -1.2752  1.5383 -1.0878
 7974SOL    HW235382   0.941   4.210   2.383 -0.0197 -0.1730 -0.0619
 7975SOL     OW35383   0.683   1.824   2.971  0.5750 -0.0456  0.0552
 7975SOL    HW135384   0.710   1.914   2.983 -0.7484  0.4422 -0.6132
 7975SOL    HW235385   0.760   1.777   3.003  1.0260  0.2152 -0.6664
 7976SOL     OW35386   2.339   0.429  13.043  0.1089 -0.0439  0.2277
 7976SOL    HW135387   2.298   0.427  12.956 -0.2650 -0.6895  0.4204
 7976SOL    HW235388   2.345   0.335  13.058  0.1502 -0.0831 -0.0335
 7977SOL     OW35389   2.043   0.334  16.744 -0.0891 -0.0905  0.0298
 7977SOL    HW135390   1.986   0.260  16.726  0.3988 -0.0110 -1.8083
 7977SOL    HW235391   2.029   0.331  16.839 -3.2423  0.1254 -0.4214
 7978SOL     OW35392   1.187   3.311  12.118  0.4619  0.0059  0.4014
 7978SOL    HW135393   1.143   3.325  12.202 -1.0638  0.7198 -0.5080
 7978SOL    HW235394   1.131   3.353  12.053  2.6195  3.6062  0.8996
 7979SOL     OW35395   4.371   4.508   9.638 -0.0875 -0.4648  0.0731
 7979SOL    HW135396   4.421   4.433   9.670  0.3613 -0.4292 -0.5540
 7979SOL    HW235397   4.420   4.576   9.686 -1.6127  1.3995 -1.0156
 7980SOL     OW35398   1.161   1.937   3.634  1.0873  0.5737  0.5294
 7980SOL    HW135399   1.212   2.015   3.656  0.7554  0.3338  2.1964
 7980SOL    HW235400   1.167   1.888   3.716  0.9065 -0.9449 -0.3612
 7981SOL     OW35401   2.807   1.241  17.092  0.1293 -0.3782  0.3160
 7981SOL    HW135402   2.853   1.316  17.128  1.0952  0.4551 -2.6145
 7981SOL    HW235403   2.715   1.264  17.082  0.5456  1.2542  0.2535
 7982SOL     OW35404   1.935   4.480   0.150 -1.0733 -0.1311 -0.4092
 7982SOL    HW135405   1.981   4.398   0.164 -1.6571 -0.1284  1.6441
 7982SOL    HW235406   1.990   4.538   0.203  0.2192 -1.1339 -0.6497
 7983SOL     OW35407   3.532   0.398  15.331 -0.5739 -0.0401 -0.0705
 7983SOL    HW135408   3.470   0.422  15.400 -1.2340  1.8806 -1.3103
 7983SOL    HW235409   3.549   0.486  15.297  1.2486  0.1119  1.2627
 7984SOL     OW35410   0.933   1.139  10.049 -0.3655  0.2957  0.1073
 7984SOL    HW135411   1.002   1.193  10.011 -0.4146  0.1225 -0.2267
 7984SOL    HW235412   0.933   1.148  10.145 -1.0390 -0.0858  0.1493
 7985SOL     OW35413   3.724   2.232   5.328  0.8310  0.3386  0.2834
 7985SOL    HW135414   3.704   2.255   5.419  0.8751 -1.7717  0.8155
 7985SOL    HW235415   3.637   2.210   5.294  0.8016  4.0207 -2.0762
 7986SOL     OW35416   2.265   0.603   1.469 -0.1567  0.2530  0.7288
 7986SOL    HW135417   2.234   0.517   1.497 -1.2035  0.6196  0.6935
 7986SOL    HW235418   2.263   0.600   1.373 -2.3936  0.0153  0.7905
 7987SOL     OW35419   1.880   3.349   0.416  0.4865  0.5393 -0.2384
 7987SOL    HW135420   1.812   3.300   0.463  1.5294  0.8749  1.6462
 7987SOL    HW235421   1.825   3.420   0.384  0.4252  0.0041 -1.3162
 7988SOL     OW35422   1.846   1.792   3.555 -0.0481 -0.0748 -0.0586
 7988SOL    HW135423   1.915   1.770   3.493 -0.2484  0.1035 -0.3450
 7988SOL    HW235424   1.799   1.852   3.498  1.3349 -0.7256 -1.8815
 7989SOL     OW35425   0.356   4.097   9.186 -0.1772  0.6735  0.1716
 7989SOL    HW135426   0.323   4.155   9.254 -0.6861  0.8868 -0.2570
 7989SOL    HW235427   0.361   4.016   9.237 -0.0297  1.0039  0.6839
 7990SOL     OW35428   0.124   0.003   8.666 -0.2569 -0.6537  0.1187
 7990SOL    HW135429   0.080   4.722   8.581  1.3122 -5.5221 -0.3546
 7990SOL    HW235430   0.199   4.669   8.661  1.4097  1.3873  0.8388
 7991SOL     OW35431   2.108   2.435   7.353  0.4448 -0.2696 -0.1530
 7991SOL    HW135432   2.168   2.499   7.315  1.9808 -1.8312 -0.3438
 7991SOL    HW235433   2.068   2.496   7.415 -0.3788  2.0968 -3.0319
 7992SOL     OW35434   3.226   3.163   6.295 -0.3219 -0.0781 -0.1159
 7992SOL    HW135435   3.137   3.187   6.270 -0.3454 -0.4009 -0.3461
 7992SOL    HW235436   3.218   3.129   6.384 -0.9351 -0.4420 -0.3140
 7993SOL     OW35437   2.336   2.520   7.246  0.0153 -0.1710  0.0493
 7993SOL    HW135438   2.392   2.469   7.188  0.2634 -1.6724  1.6134
 7993SOL    HW235439   2.382   2.519   7.330  2.0958  1.2942 -1.0993
 7994SOL     OW35440   1.991   3.462   7.063  0.1201 -0.4753  0.0586
 7994SOL    HW135441   1.945   3.545   7.072  1.9849  0.5236  0.4741
 7994SOL    HW235442   1.957   3.409   7.134 -0.7713 -0.7591 -0.5852
 7995SOL     OW35443   3.283   0.695   3.869 -0.2694  0.1038 -0.2151
 7995SOL    HW135444   3.201   0.662   3.907 -0.3569 -1.9743 -2.2142
 7995SOL    HW235445   3.261   0.692   3.776  0.5663  0.3644 -0.4173
 7996SOL     OW35446   2.715   1.166   2.907  0.5180 -0.7234  0.3837
 7996SOL    HW135447   2.705   1.101   2.838 -1.5985  0.4072 -0.3650
 7996SOL    HW235448   2.697   1.240   2.850  1.3637 -0.4920  0.4111
 7997SOL     OW35449   0.194   0.370   4.773  0.0122  0.1304  0.0726
 7997SOL    HW135450   0.249   0.350   4.697 -2.4123 -2.8154 -0.8813
 7997SOL    HW235451   0.156   0.455   4.752 -1.5647 -0.8936 -1.1482
 7998SOL     OW35452   3.227   1.927  17.576 -0.1239  0.2389  0.0555
 7998SOL    HW135453   3.234   1.981  17.497 -1.0758 -0.7693 -0.7189
 7998SOL    HW235454   3.237   1.998  17.641  1.4726 -1.2776  1.4758
 7999SOL     OW35455   1.657   4.290   8.001  0.6247 -0.0398 -0.2908
 7999SOL    HW135456   1.591   4.283   8.070  1.1144 -2.1006 -0.0428
 7999SOL    HW235457   1.699   4.373   8.024  0.8865 -0.2661  0.0379
 8000SOL     OW35458   1.110   0.999   1.354 -0.5831 -0.0437 -0.4302
 8000SOL    HW135459   1.063   0.967   1.431  0.7113  1.1782  0.8695
 8000SOL    HW235460   1.156   0.921   1.325  0.2118  0.8725 -1.6336
 8001SOL     OW35461   1.755   1.278  11.916  0.0028 -0.6697 -0.0275
 8001SOL    HW135462   1.825   1.291  11.980  0.9291 -0.6389 -1.0432
 8001SOL    HW235463   1.787   1.195  11.879 -0.6594 -0.4578 -1.0847
 8002SOL     OW35464   3.658   3.421   4.667 -0.2474 -0.5329  0.1556
 8002SOL    HW135465   3.579   3.394   4.620 -0.2314  0.7581 -0.6093
 8002SOL    HW235466   3.673   3.512   4.640 -0.4843 -0.4721  0.2301
 8003SOL     OW35467   1.530   0.686   6.999 -0.2925 -0.2062  0.5292
 8003SOL    HW135468   1.548   0.778   6.981  0.5193 -0.4575  0.0431
 8003SOL    HW235469   1.435   0.687   7.011 -0.4728 -1.2972 -0.8064
 8004SOL     OW35470   2.971   1.345  13.061 -0.1757  0.2876  0.2737
 8004SOL    HW135471   3.042   1.295  13.021 -0.9349 -0.1482 -0.5304
 8004SOL    HW235472   2.915   1.273  13.092 -2.6865  2.2221  0.2691
 8005SOL     OW35473   4.266   3.937   4.442  0.1374 -0.1220  0.5745
 8005SOL    HW135474   4.265   3.952   4.348 -0.4744 -0.8791  0.4579
 8005SOL    HW235475   4.216   4.009   4.480 -0.7548  0.1015 -1.0407
 8006SOL     OW35476   1.917   3.800   1.277 -0.2861  0.2299  0.4153
 8006SOL    HW135477   1.905   3.784   1.370  0.2977 -3.3582 -0.1208
 8006SOL    HW235478   1.830   3.796   1.238 -0.2393 -2.9859  0.6752
 8007SOL     OW35479   3.359   3.588   4.836  0.2274 -0.4770  0.4141
 8007SOL    HW135480   3.401   3.503   4.844  0.0499 -0.5439  0.6240
 8007SOL    HW235481   3.333   3.602   4.927 -3.1150  0.2193 -0.6438
 8008SOL     OW35482   4.497   1.801   2.084 -0.3111  0.1922 -0.2776
 8008SOL    HW135483   4.467   1.817   1.994  0.3539 -0.3047 -0.5931
 8008SOL    HW235484   4.581   1.754   2.079  0.9920  2.2989  1.8418
 8009SOL     OW35485   3.159   2.590   5.473  0.5954 -0.1182 -0.1430
 8009SOL    HW135486   3.157   2.618   5.565 -1.1587 -0.0186 -0.2068
 8009SOL    HW235487   3.147   2.675   5.431 -3.0490 -0.1043  0.8632
 8010SOL     OW35488   0.203   2.020   1.291  0.2072 -0.2056  1.0016
 8010SOL    HW135489   0.255   2.054   1.363  2.7586 -2.2441  0.0905
 8010SOL    HW235490   0.119   2.042   1.334 -0.4825 -1.3998  0.2403
 8011SOL     OW35491   2.114   2.484   3.570 -0.1340  0.5679  0.1371
 8011SOL    HW135492   2.056   2.418   3.534 -1.2593  2.0874 -0.8455
 8011SOL    HW235493   2.056   2.559   3.579 -0.1040  0.9977 -3.6014
 8012SOL     OW35494   2.503   1.599  16.183 -0.0239 -0.1517  0.3900
 8012SOL    HW135495   2.582   1.584  16.131 -1.5855  1.4421 -2.4474
 8012SOL    HW235496   2.435   1.552  16.135 -0.1916  1.6357 -1.1278
 8013SOL     OW35497   2.291   0.186   3.852 -0.0910 -0.0248  0.3946
 8013SOL    HW135498   2.202   0.176   3.817  1.2707 -0.3616 -2.9836
 8013SOL    HW235499   2.343   0.146   3.783  1.9895 -0.7693  2.3968
 8014SOL     OW35500   2.547   0.726  11.108  0.2984  0.1291  0.6446
 8014SOL    HW135501   2.499   0.655  11.065  0.6128  1.6319 -2.1718
 8014SOL    HW235502   2.506   0.802  11.066 -0.0011  0.0303  0.7566
 8015SOL     OW35503   3.449   4.168   5.286  0.0326  0.3020  0.1953
 8015SOL    HW135504   3.535   4.164   5.244 -0.0754  0.0848 -0.0103
 8015SOL    HW235505   3.421   4.082   5.253 -0.9286  1.1098 -1.1061
 8016SOL     OW35506   3.768   0.457   5.372 -0.1351  0.2131  0.1213
 8016SOL    HW135507   3.837   0.392   5.354  0.2548  0.9645 -1.1799
 8016SOL    HW235508   3.760   0.453   5.467  3.5517 -0.7887  0.3769
 8017SOL     OW35509   3.994   2.392   9.353  0.1347  0.2970  0.2443
 8017SOL    HW135510   3.918   2.372   9.297  0.5801 -0.3757 -0.1198
 8017SOL    HW235511   4.007   2.309   9.398  1.0852  0.8845  1.0374
 8018SOL     OW35512   3.880   0.087   2.908  0.0750 -0.0545  0.0302
 8018SOL    HW135513   3.785   0.100   2.913  0.6601  4.6440 -0.8616
 8018SOL    HW235514   3.903   0.119   2.995  1.5617  1.3820 -0.8807
 8019SOL     OW35515   3.094   0.954  17.308 -0.2216 -0.5860 -0.2391
 8019SOL    HW135516   3.046   0.954  17.225  0.4618  0.0209 -0.6369
 8019SOL    HW235517   3.093   1.044  17.342  0.9344 -1.7754  2.9925
 8020SOL     OW35518   1.115   1.810   4.933  0.0999 -0.0074  0.2411
 8020SOL    HW135519   1.066   1.793   4.853  0.4867  1.1012 -0.2353
 8020SOL    HW235520   1.065   1.878   4.979 -2.5806 -0.1835 -2.3833
 8021SOL     OW35521   3.034   1.184   1.484 -0.1352 -0.8446  0.2844
 8021SOL    HW135522   3.080   1.237   1.418 -0.7877  1.2784  1.5302
 8021SOL    HW235523   3.102   1.120   1.507  1.5718  1.1693  0.9039
 8022SOL     OW35524   3.794   3.470   8.103  0.1675  0.4169  0.2952
 8022SOL    HW135525   3.703   3.460   8.077  0.8353 -0.3520 -1.8036
 8022SOL    HW235526   3.838   3.445   8.021 -0.6235 -3.1675  0.9591
 8023SOL     OW35527   0.001   3.914   9.369  0.1153 -0.4460 -0.7643
 8023SOL    HW135528   4.632   3.895   9.357 -0.1163  1.4805 -2.0001
 8023SOL    HW235529   0.041   3.835   9.333  0.6367 -0.3547 -0.3770
 8024SOL     OW35530   2.226   2.542   4.908  0.1093  0.3231  0.4550
 8024SOL    HW135531   2.139   2.579   4.893  0.5771  0.4461 -1.9804
 8024SOL    HW235532   2.225   2.475   4.841  1.6438  1.8130 -1.0494
 8025SOL     OW35533   4.031   3.546   9.454 -0.0699  0.1965 -0.2509
 8025SOL    HW135534   3.992   3.468   9.414  0.7571 -0.5915  0.4954
 8025SOL    HW235535   4.072   3.498   9.525 -3.1816 -2.5661 -0.3122
 8026SOL     OW35536   3.827   4.611   5.231  0.0117  0.1618 -0.3572
 8026SOL    HW135537   3.791   4.652   5.152  0.2701  1.9208  0.4435
 8026SOL    HW235538   3.752   4.604   5.291 -0.6995  1.9673 -1.0420
 8027SOL     OW35539   1.628   0.479  15.430  0.7258  0.5663 -0.0947
 8027SOL    HW135540   1.643   0.565  15.391  0.0292  1.2562  1.1889
 8027SOL    HW235541   1.693   0.484  15.500  0.4859  1.1820  0.0860
 8028SOL     OW35542   4.705   0.344   5.999  0.2119  0.0929 -0.8092
 8028SOL    HW135543   4.692   0.423   6.051  1.6033 -0.3057  0.1785
 8028SOL    HW235544   0.047   0.308   6.058  0.9683  0.9379 -1.1523
 8029SOL     OW35545   2.159   2.226   0.461  0.3725 -0.6841 -0.3083
 8029SOL    HW135546   2.172   2.310   0.505  0.7697 -0.6185 -0.5577
 8029SOL    HW235547   2.223   2.242   0.392  1.2091  0.0522  0.6282
 8030SOL     OW35548   2.003   0.370   8.094 -0.6818 -0.0707  0.0611
 8030SOL    HW135549   2.098   0.377   8.094 -0.8285  2.0268 -2.6238
 8030SOL    HW235550   1.999   0.348   8.000  0.8404  2.9456 -0.7026
 8031SOL     OW35551   0.742   4.416  14.106  0.5597  0.2437 -0.2992
 8031SOL    HW135552   0.682   4.350  14.072  0.5166 -0.4716  1.1601
 8031SOL    HW235553   0.805   4.364  14.156 -0.8679  0.3739  1.6453
 8032SOL     OW35554   0.925   3.112  10.479  0.0020  0.0011 -0.2706
 8032SOL    HW135555   0.945   3.204  10.494 -1.8929  0.2409  0.7206
 8032SOL    HW235556   0.960   3.085  10.564 -0.5276 -0.2388 -0.1259
 8033SOL     OW35557   0.825   0.897   4.586 -0.0985 -0.2699 -0.7165
 8033SOL    HW135558   0.898   0.888   4.648 -0.5661 -2.0688 -0.4073
 8033SOL    HW235559   0.791   0.983   4.607  0.9312  0.2493 -1.1994
 8034SOL     OW35560   4.439   0.281   6.582  0.1579 -0.1586 -0.1781
 8034SOL    HW135561   4.483   0.353   6.538 -0.3657  0.0115 -0.4325
 8034SOL    HW235562   4.398   0.244   6.504 -1.1219 -0.1180  0.4612
 8035SOL     OW35563   0.457   0.753   8.985  0.1105 -0.1229 -0.4850
 8035SOL    HW135564   0.369   0.762   8.949  1.1981 -1.4283 -3.4560
 8035SOL    HW235565   0.438   0.761   9.079  0.5770  2.6456 -0.6294
 8036SOL     OW35566   4.435   3.800   1.506 -0.2817 -0.1167  0.1162
 8036SOL    HW135567   4.511   3.752   1.539  2.6016  2.2058 -3.0678
 8036SOL    HW235568   4.383   3.810   1.585  0.6468  1.6989  0.4958
 8037SOL     OW35569   0.327   3.909   6.094  0.2115  0.9524  0.2406
 8037SOL    HW135570   0.290   3.828   6.057  1.9200  1.0797 -1.7307
 8037SOL    HW235571   0.271   3.921   6.171 -0.3426 -0.5935  0.0703
 8038SOL     OW35572   3.506   2.837  12.662  0.0101 -0.5084  0.3296
 8038SOL    HW135573   3.463   2.893  12.598  1.4369  0.9802  0.6887
 8038SOL    HW235574   3.440   2.823  12.730 -1.0073 -0.6472 -0.6932
 8039SOL     OW35575   3.521   1.433  11.301  0.0171 -0.1442 -0.2152
 8039SOL    HW135576   3.465   1.383  11.242 -0.8688 -0.3568  0.7987
 8039SOL    HW235577   3.606   1.390  11.294  0.7871  1.2680  0.5088
 8040SOL     OW35578   4.209   1.484   6.347  0.1703 -0.2848  0.4384
 8040SOL    HW135579   4.293   1.446   6.372 -0.8199 -1.5941  1.8082
 8040SOL    HW235580   4.153   1.444   6.414 -1.0617 -2.6210 -1.9776
 8041SOL     OW35581   0.721   3.241   4.634 -0.2498 -0.2954  0.3864
 8041SOL    HW135582   0.751   3.219   4.723 -0.1549 -3.4489 -0.4347
 8041SOL    HW235583   0.628   3.261   4.646 -0.7608 -2.6919  0.3704
 8042SOL     OW35584   0.278   2.779   1.892 -0.8462  0.1212  0.2692
 8042SOL    HW135585   0.308   2.705   1.839  0.6797  0.4599  0.6486
 8042SOL    HW235586   0.343   2.845   1.868 -0.2178 -0.3061  0.7537
 8043SOL     OW35587   4.007   1.087  17.651 -0.4620 -0.0755  0.4676
 8043SOL    HW135588   4.032   1.111   0.040  1.4374  3.1597 -0.9571
 8043SOL    HW235589   4.033   0.995  17.652  0.9928  0.3365  1.2366
 8044SOL     OW35590   2.828   3.901   0.381 -0.0830 -0.0973 -0.3371
 8044SOL    HW135591   2.800   3.814   0.355 -1.0763  0.0396  0.2716
 8044SOL    HW235592   2.912   3.913   0.337 -0.1357  0.0111 -0.4071
 8045SOL     OW35593   3.250   0.090  12.590 -0.0500 -0.5547  0.3897
 8045SOL    HW135594   3.292   0.010  12.560  0.2878 -0.1502 -0.2087
 8045SOL    HW235595   3.293   0.153  12.532  0.8828  0.7742  2.5654
 8046SOL     OW35596   4.246   2.092   7.262 -0.0410  0.1567 -0.0191
 8046SOL    HW135597   4.258   2.048   7.178 -1.9637  0.9072 -0.6641
 8046SOL    HW235598   4.184   2.051   7.323 -1.6993 -0.8657 -2.4178
 8047SOL     OW35599   0.430   0.680   8.298  0.1405 -0.6091 -0.4655
 8047SOL    HW135600   0.491   0.730   8.354  0.8793 -1.5820 -0.4039
 8047SOL    HW235601   0.468   0.593   8.308 -2.3817 -1.6487  0.0242
 8048SOL     OW35602   2.034   3.643   8.439 -1.0310 -0.4370  0.2629
 8048SOL    HW135603   1.985   3.600   8.509  1.0919 -2.1731  0.7048
 8048SOL    HW235604   1.971   3.630   8.368 -2.4979  2.9933  0.9910
 8049SOL     OW35605   1.635   4.709   9.819  0.2532 -0.1020  0.2468
 8049SOL    HW135606   1.545   0.011   9.804  0.8700  1.8871  0.0625
 8049SOL    HW235607   1.626   4.646   9.890 -2.6316 -0.2848 -0.2947
 8050SOL     OW35608   1.479   0.477   2.833 -0.0123 -0.1589  0.0176
 8050SOL    HW135609   1.521   0.558   2.861  0.2649 -0.1376 -0.4545
 8050SOL    HW235610   1.535   0.437   2.766  0.3303 -1.7326  1.2490
 8051SOL     OW35611   3.072   3.665   7.114  0.3986  0.4140 -0.2263
 8051SOL    HW135612   2.992   3.613   7.121  1.1087 -0.4753  1.2757
 8051SOL    HW235613   3.134   3.597   7.087  0.6646  1.0305 -1.1735
 8052SOL     OW35614   2.161   1.443  15.456  0.4987  0.0016 -0.4531
 8052SOL    HW135615   2.248   1.457  15.419  0.7013 -2.5198 -0.9435
 8052SOL    HW235616   2.123   1.381  15.394  2.4088 -1.3102 -0.3032
 8053SOL     OW35617   0.681   3.905  12.208 -0.6201  0.0790 -0.5717
 8053SOL    HW135618   0.631   3.874  12.283 -1.0146 -1.3582 -1.4158
 8053SOL    HW235619   0.669   3.829  12.152 -0.6558  1.2173 -2.1096
 8054SOL     OW35620   4.081   4.088   9.127  0.1181  0.2040  0.6335
 8054SOL    HW135621   4.154   4.076   9.187 -1.0481  0.6143  2.1574
 8054SOL    HW235622   4.053   4.175   9.157  1.4592  0.4565  1.1297
 8055SOL     OW35623   4.154   2.437   9.985 -0.1578 -0.0264 -0.5220
 8055SOL    HW135624   4.218   2.374   9.953  0.6454  0.0164  0.9968
 8055SOL    HW235625   4.201   2.517  10.006  1.7811 -1.7128  1.5503
 8056SOL     OW35626   0.360   0.621   3.159 -0.1993  0.0358 -0.3734
 8056SOL    HW135627   0.419   0.547   3.144 -0.3466 -0.5263  1.8196
 8056SOL    HW235628   0.424   0.683   3.194  0.2809  0.3767 -1.8299
 8057SOL     OW35629   0.818   0.647   8.775 -0.1701  0.2727 -0.6276
 8057SOL    HW135630   0.781   0.633   8.862 -1.4106  1.6050 -0.9459
 8057SOL    HW235631   0.769   0.726   8.752 -0.3010  0.6042  0.8241
 8058SOL     OW35632   1.168   1.005  16.848 -0.5208  0.2252 -0.1386
 8058SOL    HW135633   1.216   1.059  16.784 -1.2915  0.7399 -0.2895
 8058SOL    HW235634   1.088   1.057  16.845 -0.7422 -0.1791 -1.2063
 8059SOL     OW35635   3.674   2.287   5.919  0.3395 -0.2142  0.7957
 8059SOL    HW135636   3.596   2.318   5.873  1.5348  1.9685  0.1883
 8059SOL    HW235637   3.690   2.342   5.995  1.6547 -0.1054  0.4504
 8060SOL     OW35638   0.868   4.353   1.070  0.0453 -0.1624  0.3243
 8060SOL    HW135639   0.941   4.402   1.109  1.9052 -1.8203 -1.0436
 8060SOL    HW235640   0.786   4.374   1.114 -0.5650 -0.8869 -0.4599
 8061SOL     OW35641   3.517   0.417   2.822 -0.5457 -0.4229 -0.1687
 8061SOL    HW135642   3.556   0.371   2.748  0.9018 -0.2537  0.4943
 8061SOL    HW235643   3.450   0.352   2.843  0.4325 -1.2520  0.3897
 8062SOL     OW35644   4.245   0.655  17.460  0.2752 -0.1391  0.1126
 8062SOL    HW135645   4.240   0.595  17.385  0.9445 -1.8004  1.3866
 8062SOL    HW235646   4.338   0.678  17.465 -0.0082  0.2564  3.2022
 8063SOL     OW35647   3.741   1.480   6.126  0.2847  0.5502 -0.3593
 8063SOL    HW135648   3.726   1.556   6.069  0.9650  0.7559 -0.2596
 8063SOL    HW235649   3.835   1.477   6.141  0.4397 -0.0662 -1.4257
 8064SOL     OW35650   1.692   4.488   1.539 -0.5730  0.3116  0.1230
 8064SOL    HW135651   1.675   4.575   1.574  0.1834 -0.4885  2.4693
 8064SOL    HW235652   1.657   4.428   1.605 -1.1487  1.7488  1.1119
 8065SOL     OW35653   3.895   0.178   7.948  0.1039  0.6070 -0.3970
 8065SOL    HW135654   3.946   0.141   8.020  0.0967 -0.3847 -0.9025
 8065SOL    HW235655   3.810   0.134   7.957  0.9376 -0.8112  0.6615
 8066SOL     OW35656   1.748   0.179   2.039  0.5905 -0.4079  0.3447
 8066SOL    HW135657   1.669   0.228   2.063 -0.2301 -0.4682 -2.2375
 8066SOL    HW235658   1.819   0.211   2.094  0.3738 -0.3651  0.5993
 8067SOL     OW35659   2.578   1.220   9.854 -0.5994 -0.7671  0.0018
 8067SOL    HW135660   2.506   1.269   9.893 -0.7472 -0.2784 -0.8644
 8067SOL    HW235661   2.608   1.169   9.928 -1.3530 -1.5577 -0.2419
 8068SOL     OW35662   1.422   4.107   1.045 -0.0287 -0.6194  0.1923
 8068SOL    HW135663   1.471   4.087   0.964 -0.3948  0.9040 -0.3993
 8068SOL    HW235664   1.339   4.143   1.013 -0.6903 -0.1603  2.4707
 8069SOL     OW35665   1.988   1.953   7.665  0.3590  0.3277  0.0212
 8069SOL    HW135666   1.927   1.916   7.601 -0.1339 -1.5423  1.5588
 8069SOL    HW235667   1.928   1.944   7.740  0.9803 -0.8847  0.3707
 8070SOL     OW35668   2.230   4.438   1.062  0.1719  0.3330 -0.0317
 8070SOL    HW135669   2.250   4.519   1.015 -0.7542  1.0624  0.8371
 8070SOL    HW235670   2.312   4.389   1.071  0.9017  1.3208 -1.1734
 8071SOL     OW35671   4.264   2.982   3.635  0.1251 -0.3426  0.1242
 8071SOL    HW135672   4.173   2.992   3.609  0.5092  2.2001 -0.2936
 8071SOL    HW235673   4.319   3.007   3.560 -0.9267  2.1521  0.1730
 8072SOL     OW35674   2.555   1.747   2.015 -0.7246 -0.5704  0.1185
 8072SOL    HW135675   2.562   1.719   2.106  2.2306 -1.5429 -0.3950
 8072SOL    HW235676   2.549   1.662   1.971 -0.9244 -0.6435  0.2874
 8073SOL     OW35677   1.034   1.990   8.605 -0.6957  0.6360  0.1140
 8073SOL    HW135678   1.122   1.954   8.593 -0.5445  1.1425 -0.3144
 8073SOL    HW235679   0.979   1.916   8.582  0.3362  0.0094 -0.3316
 8074SOL     OW35680   3.660   4.441  14.205 -0.1099 -0.0759  0.1249
 8074SOL    HW135681   3.677   4.390  14.126  0.8628 -0.0548  0.3146
 8074SOL    HW235682   3.566   4.460  14.199 -0.2320 -0.8181 -0.3597
 8075SOL     OW35683   1.351   3.706   8.971 -0.1615 -0.1934  0.1327
 8075SOL    HW135684   1.286   3.757   9.018 -0.4972 -0.0177 -0.5118
 8075SOL    HW235685   1.360   3.621   9.014  0.5283  0.6668  1.6936
 8076SOL     OW35686   2.363   2.495   3.055 -0.1915 -0.0264 -0.2528
 8076SOL    HW135687   2.453   2.473   3.034 -0.2271 -1.5283  1.1459
 8076SOL    HW235688   2.329   2.530   2.972  0.2611  1.8135  0.3506
 8077SOL     OW35689   2.843   0.231   3.550  0.4226 -0.0484  0.4454
 8077SOL    HW135690   2.847   0.171   3.475 -2.5884 -0.0590  0.2963
 8077SOL    HW235691   2.846   0.167   3.621 -3.0132  2.2825  2.6484
 8078SOL     OW35692   0.712   3.221  10.811  0.4627  0.2346 -0.1185
 8078SOL    HW135693   0.687   3.304  10.772  0.1338 -0.4236 -1.3005
 8078SOL    HW235694   0.642   3.167  10.774 -0.4878  0.0956  1.8519
 8079SOL     OW35695   2.777   3.925  10.789 -0.2822 -0.5112 -0.2283
 8079SOL    HW135696   2.860   3.878  10.803 -0.2259 -0.3532 -0.0380
 8079SOL    HW235697   2.724   3.851  10.758  1.1718 -1.3018 -0.8373
 8080SOL     OW35698   1.311   3.803   1.826 -0.0903 -0.0011 -0.5819
 8080SOL    HW135699   1.316   3.713   1.857 -2.0638  0.0389 -0.1827
 8080SOL    HW235700   1.263   3.849   1.894  0.5327 -0.5025  0.1975
 8081SOL     OW35701   2.792   4.553   4.921  0.1282  0.1101 -0.4550
 8081SOL    HW135702   2.776   4.462   4.896  1.7246 -0.9796  2.4464
 8081SOL    HW235703   2.871   4.551   4.975 -0.1263  1.1061 -0.0617
 8082SOL     OW35704   3.658   3.413   0.746  0.1459 -0.0582  0.3817
 8082SOL    HW135705   3.579   3.439   0.793 -1.0805 -0.4340 -1.4884
 8082SOL    HW235706   3.614   3.393   0.664  0.4592 -0.8384  0.3996
 8083SOL     OW35707   0.858   1.020   9.820 -0.5158  0.3098 -0.0088
 8083SOL    HW135708   0.885   1.067   9.900 -2.1303 -0.9381  1.2581
 8083SOL    HW235709   0.883   1.078   9.748 -0.1133  0.0769 -0.0574
 8084SOL     OW35710   3.046   3.859   4.729 -0.0699  0.0422 -0.0372
 8084SOL    HW135711   3.067   3.940   4.684  0.3829 -0.4915 -0.7931
 8084SOL    HW235712   3.062   3.876   4.822 -0.6565 -0.2705  0.1227
 8085SOL     OW35713   3.916   4.151   4.424  0.2754 -0.1087 -0.4878
 8085SOL    HW135714   3.941   4.081   4.364 -0.9911 -0.6071 -0.4239
 8085SOL    HW235715   3.998   4.180   4.464  0.1711  0.5506 -0.7693
 8086SOL     OW35716   0.608   4.537   2.720  0.1837 -0.4290 -0.0617
 8086SOL    HW135717   0.683   4.482   2.695 -1.0242 -3.0018  1.9365
 8086SOL    HW235718   0.644   4.624   2.700 -0.5964 -0.6557 -2.4514
 8087SOL     OW35719   2.525   3.051   5.980  0.4040 -0.2855 -0.6430
 8087SOL    HW135720   2.429   3.060   5.980  0.6034  1.9157 -1.6569
 8087SOL    HW235721   2.526   2.967   5.933  1.5244 -0.5440 -0.1475
 8088SOL     OW35722   0.604   1.574   0.462 -0.3170 -0.3863  0.2786
 8088SOL    HW135723   0.655   1.655   0.456 -0.2842 -0.4298 -0.0213
 8088SOL    HW235724   0.525   1.599   0.510 -0.8266 -0.6015 -0.4527
 8089SOL     OW35725   4.260   3.280   1.523 -0.4093 -0.3651  0.4884
 8089SOL    HW135726   4.206   3.244   1.593 -1.2047 -1.6402 -0.7896
 8089SOL    HW235727   4.252   3.208   1.461  1.0189 -0.4675  0.4206
 8090SOL     OW35728   1.912   4.527   7.942 -0.1751  0.4308 -0.6292
 8090SOL    HW135729   1.833   4.575   7.918  0.6410  0.5358 -3.1217
 8090SOL    HW235730   1.984   4.573   7.898 -1.4040  1.6113 -1.4082
 8091SOL     OW35731   1.478   3.289   4.212  0.2209  0.2586  0.7986
 8091SOL    HW135732   1.566   3.275   4.176  0.6471  1.3399  1.4386
 8091SOL    HW235733   1.464   3.375   4.174 -1.1137 -1.2237 -2.0999
 8092SOL     OW35734   2.192   1.194   2.133 -0.0561 -0.3984 -0.8485
 8092SOL    HW135735   2.227   1.108   2.156  1.8630  0.6455  0.1108
 8092SOL    HW235736   2.120   1.165   2.077 -0.3493  0.6099 -0.9972
 8093SOL     OW35737   4.202   1.042   7.989 -0.3089  0.5342 -0.7989
 8093SOL    HW135738   4.108   1.050   8.001 -0.3586  1.3444 -1.7646
 8093SOL    HW235739   4.205   1.004   7.901 -0.3625 -1.3089 -0.0039
 8094SOL     OW35740   4.567   2.243   5.905  0.0326 -0.2355 -0.1654
 8094SOL    HW135741   4.660   2.252   5.884  0.0468  1.6545  0.6783
 8094SOL    HW235742   4.545   2.210   5.818 -1.6040  1.0444 -0.2505
 8095SOL     OW35743   2.434   1.817   5.064  0.3036  0.2612 -0.0181
 8095SOL    HW135744   2.478   1.773   5.137  0.1913 -0.3215 -0.3020
 8095SOL    HW235745   2.364   1.853   5.118 -0.1057  1.8776 -1.6269
 8096SOL     OW35746   0.892   1.115  16.083  0.1312 -0.5861 -0.3880
 8096SOL    HW135747   0.922   1.124  16.174 -0.4033  1.5754 -0.4329
 8096SOL    HW235748   0.980   1.094  16.051  0.1979 -0.0173 -0.5652
 8097SOL     OW35749   0.823   0.716   9.468  1.0326  0.5042 -0.2171
 8097SOL    HW135750   0.745   0.760   9.501  1.2820  2.2190 -1.9269
 8097SOL    HW235751   0.810   0.716   9.373  3.3098 -3.1699 -0.5410
 8098SOL     OW35752   1.773   2.801   7.363 -0.4028 -0.0798  0.0340
 8098SOL    HW135753   1.798   2.893   7.354 -0.0488 -0.3321 -1.5486
 8098SOL    HW235754   1.681   2.815   7.384 -0.8824 -1.5663 -1.1267
 8099SOL     OW35755   1.723   1.713   0.045 -0.3471 -0.6439  0.0556
 8099SOL    HW135756   1.633   1.738   0.065 -0.0863  1.5348 -1.4880
 8099SOL    HW235757   1.767   1.786   0.089 -0.8334 -0.9024  0.9783
 8100SOL     OW35758   1.891   2.552   7.070 -0.1345 -0.0346 -0.3621
 8100SOL    HW135759   1.871   2.554   6.977 -1.3752  0.9780 -0.0657
 8100SOL    HW235760   1.916   2.464   7.097 -1.8311 -0.9505 -1.8474
 8101SOL     OW35761   1.986   3.195  13.782 -0.2030  0.5577  0.5277
 8101SOL    HW135762   1.909   3.168  13.732 -0.0964  0.2105  0.5505
 8101SOL    HW235763   1.970   3.289  13.777 -0.7958  0.4127 -0.2404
 8102SOL     OW35764   2.354   4.151  11.731  0.2546 -0.2832 -0.1250
 8102SOL    HW135765   2.294   4.090  11.688 -0.8726 -0.4952  1.7032
 8102SOL    HW235766   2.437   4.103  11.729  1.1598  1.3224 -1.0006
 8103SOL     OW35767   3.773   2.217  16.246  0.5917  0.0758 -0.3513
 8103SOL    HW135768   3.758   2.205  16.152 -3.2584 -0.5970  0.3624
 8103SOL    HW235769   3.817   2.302  16.238 -2.5188  1.6957 -0.1071
 8104SOL     OW35770   0.259   2.954   3.776 -0.8926 -0.3723  0.4943
 8104SOL    HW135771   0.307   2.885   3.729 -1.3281  0.4148 -1.1021
 8104SOL    HW235772   0.328   3.017   3.796 -1.3675  0.4699 -0.5106
 8105SOL     OW35773   2.740   2.547   7.768 -0.1458 -0.1265 -0.0515
 8105SOL    HW135774   2.772   2.470   7.722 -0.4428  0.0961 -0.6288
 8105SOL    HW235775   2.828   2.573   7.796 -0.3565  0.8934 -0.3377
 8106SOL     OW35776   3.334   1.801   7.769  0.1607 -0.2869 -0.2332
 8106SOL    HW135777   3.414   1.813   7.719 -0.0868 -0.8058 -0.7493
 8106SOL    HW235778   3.326   1.888   7.808 -0.6175  0.5662 -2.3309
 8107SOL     OW35779   1.257   0.450   8.628 -0.4157  0.2464 -0.2746
 8107SOL    HW135780   1.194   0.454   8.700 -1.3174 -0.4555 -1.0235
 8107SOL    HW235781   1.198   0.470   8.555 -0.3050  0.3081 -0.3482
 8108SOL     OW35782   0.274   2.993   7.725  0.3059  0.5154  0.4923
 8108SOL    HW135783   0.211   2.959   7.789  0.3948 -0.4863  0.0510
 8108SOL    HW235784   0.264   2.926   7.658 -1.9357  0.8627  0.4572
 8109SOL     OW35785   2.505   3.414   7.334  0.2623 -0.1651  0.3279
 8109SOL    HW135786   2.476   3.451   7.250  2.4640  2.2831  0.6615
 8109SOL    HW235787   2.463   3.328   7.341 -1.9689  0.9633  1.1502
 8110SOL     OW35788   4.317   1.782  15.219 -0.0454  0.2167  0.1046
 8110SOL    HW135789   4.283   1.718  15.282 -0.7052 -0.5446 -1.0079
 8110SOL    HW235790   4.305   1.858  15.276  1.6250  0.1079  0.5954
 8111SOL     OW35791   3.818   1.051   7.022 -0.5722  0.2786  0.6668
 8111SOL    HW135792   3.809   1.045   7.117 -1.0526  1.3395  0.6985
 8111SOL    HW235793   3.760   1.126   7.006 -0.4728  0.4578  1.1391
 8112SOL     OW35794   3.328   0.763   1.480 -0.6686  0.4153  0.2225
 8112SOL    HW135795   3.310   0.736   1.390 -0.7736 -2.4073  1.0801
 8112SOL    HW235796   3.368   0.683   1.515 -2.7643 -0.7124  0.0433
 8113SOL     OW35797   3.162   3.311   2.556 -0.2138 -0.9067  0.0372
 8113SOL    HW135798   3.244   3.308   2.605  1.2145  1.7737 -2.2186
 8113SOL    HW235799   3.164   3.400   2.522 -0.3339 -0.4327  1.2733
 8114SOL     OW35800   1.491   2.407   8.945 -0.3997 -0.5487  0.1153
 8114SOL    HW135801   1.396   2.410   8.932 -0.5545  1.4306  1.6646
 8114SOL    HW235802   1.517   2.498   8.928  0.4309 -0.7618  0.2445
 8115SOL     OW35803   2.256   0.427  15.310  0.2117  0.5633 -0.4595
 8115SOL    HW135804   2.263   0.522  15.313 -1.5926  0.7167 -1.2043
 8115SOL    HW235805   2.343   0.398  15.340 -1.1313 -1.6064  1.3406
 8116SOL     OW35806   3.336   4.613  15.292 -0.4201  0.0549 -0.2316
 8116SOL    HW135807   3.409   4.675  15.287 -0.1788 -0.2065  0.1592
 8116SOL    HW235808   3.262   4.665  15.324 -0.8497 -1.9135  1.9442
 8117SOL     OW35809   0.485   2.237   8.478 -0.2125  0.0056 -0.5724
 8117SOL    HW135810   0.518   2.159   8.434  0.9765  0.0733  0.1999
 8117SOL    HW235811   0.390   2.225   8.480 -0.1681 -0.1427  1.1547
 8118SOL     OW35812   0.604   1.223   4.807 -0.3105  0.1727  0.1331
 8118SOL    HW135813   0.546   1.221   4.883  2.3762 -0.6618  2.1304
 8118SOL    HW235814   0.614   1.315   4.782  2.8105 -0.1691  0.1032
 8119SOL     OW35815   4.509   4.691   7.103 -0.1480  0.2776  0.5000
 8119SOL    HW135816   4.557   0.045   7.078  0.4615 -0.3496 -0.3115
 8119SOL    HW235817   4.436   4.683   7.041 -0.3695  1.7206  0.5765
 8120SOL     OW35818   3.509   2.577   8.434 -0.2393 -0.1405  0.2436
 8120SOL    HW135819   3.569   2.607   8.365 -2.1801 -1.1206 -1.8607
 8120SOL    HW235820   3.442   2.644   8.422  1.1690  0.9355 -1.5612
 8121SOL     OW35821   0.909   1.567   9.196  0.5962 -0.4070  0.5885
 8121SOL    HW135822   0.969   1.588   9.124  0.8521  1.0450  1.2223
 8121SOL    HW235823   0.920   1.650   9.242 -1.4895 -0.5982  1.4267
 8122SOL     OW35824   3.234   4.505  12.506 -0.0806 -0.3524  0.8799
 8122SOL    HW135825   3.321   4.514  12.467 -1.2597  1.2301 -1.3679
 8122SOL    HW235826   3.256   4.446  12.578 -0.2793 -2.5607 -0.8886
 8123SOL     OW35827   1.025   3.641   1.871 -0.0125  1.0583 -0.3193
 8123SOL    HW135828   0.931   3.626   1.876  0.6246 -2.8705 -0.3780
 8123SOL    HW235829   1.019   3.735   1.890 -1.6660  0.7452  0.6485
 8124SOL     OW35830   3.695   2.764  14.445  0.2765  0.2064  0.1564
 8124SOL    HW135831   3.649   2.700  14.499 -0.1302 -0.2259 -0.6924
 8124SOL    HW235832   3.780   2.763  14.489  1.2954 -0.8599 -1.8271
 8125SOL     OW35833   0.379   2.299   4.890  0.1689 -0.0654 -0.1115
 8125SOL    HW135834   0.463   2.335   4.862  0.7833 -1.4808 -0.1098
 8125SOL    HW235835   0.328   2.379   4.891 -0.0048 -0.1855  0.2839
 8126SOL     OW35836   1.284   3.407   3.878  0.6827 -0.0200  0.2389
 8126SOL    HW135837   1.191   3.388   3.887  0.1553  3.0510  1.2359
 8126SOL    HW235838   1.304   3.363   3.795 -0.4583  0.7371 -0.4268
 8127SOL     OW35839   0.387   3.072   0.976  0.7612 -0.2137  0.0793
 8127SOL    HW135840   0.354   3.138   0.915 -0.9125 -1.0905  0.0545
 8127SOL    HW235841   0.340   2.993   0.951 -0.5506  0.7797 -0.6067
 8128SOL     OW35842   3.205   1.412   6.826  0.1150  0.4780  0.3278
 8128SOL    HW135843   3.187   1.502   6.799  0.5346  0.3676 -0.3004
 8128SOL    HW235844   3.259   1.440   6.900 -0.2182 -1.9841  1.4970
 8129SOL     OW35845   1.697   1.267   8.008  0.0968  0.1887 -0.3484
 8129SOL    HW135846   1.625   1.223   7.962 -1.0680  2.1858 -0.4622
 8129SOL    HW235847   1.725   1.324   7.936 -1.0252  0.5578 -0.5015
 8130SOL     OW35848   3.889   2.279   9.669 -0.0059  0.0351 -0.0202
 8130SOL    HW135849   3.873   2.357   9.616 -1.0791 -0.6456 -0.7018
 8130SOL    HW235850   3.938   2.212   9.622 -1.4902 -1.1659  0.1406
 8131SOL     OW35851   4.564   3.924  15.731 -0.1975  0.1287  0.1857
 8131SOL    HW135852   4.550   3.998  15.671 -0.5595 -1.3968 -1.6038
 8131SOL    HW235853   4.614   3.965  15.802  0.1861  0.9396 -0.5563
 8132SOL     OW35854   0.271   3.428   3.851 -0.1041 -0.1979 -0.4713
 8132SOL    HW135855   0.245   3.337   3.866 -2.0816  0.3069 -0.8290
 8132SOL    HW235856   0.209   3.462   3.787  1.1610  0.0825 -1.5369
 8133SOL     OW35857   3.054   2.421  10.458  0.3574  0.1909  0.7097
 8133SOL    HW135858   2.999   2.362  10.407  0.9198  1.1189 -0.9846
 8133SOL    HW235859   3.059   2.371  10.539  1.7062  1.1852  1.2589
 8134SOL     OW35860   3.032   3.878   6.521 -0.7076  0.5123 -0.1297
 8134SOL    HW135861   3.031   3.851   6.613 -0.1938 -2.0174 -0.8675
 8134SOL    HW235862   3.054   3.970   6.533  1.8716 -0.0737 -0.4253
 8135SOL     OW35863   0.575   2.381   7.968 -0.1198  0.2304  0.9240
 8135SOL    HW135864   0.545   2.303   8.017  0.0671  0.2516  1.0694
 8135SOL    HW235865   0.533   2.446   8.025 -1.4327  0.1447  0.0691
 8136SOL     OW35866   4.666   3.398   6.334 -0.1896 -0.0268 -0.6189
 8136SOL    HW135867   4.698   3.354   6.256 -0.0782  0.7096 -0.9853
 8136SOL    HW235868   4.590   3.340   6.344 -1.4635  1.4991 -1.5110
 8137SOL     OW35869   2.293   4.223   7.359  0.0392 -0.1101 -0.7706
 8137SOL    HW135870   2.325   4.190   7.275  1.1973  0.3035 -0.4857
 8137SOL    HW235871   2.288   4.314   7.328 -1.5463 -0.5505 -1.8694
 8138SOL     OW35872   1.483   0.060   7.383 -0.1089  0.1688  0.5604
 8138SOL    HW135873   1.452   0.020   7.301  2.2729 -0.9529  0.2281
 8138SOL    HW235874   1.410   0.035   7.440  0.1336 -1.2135  0.2468
 8139SOL     OW35875   4.174   2.609  11.823 -0.9804  0.4810  0.6151
 8139SOL    HW135876   4.142   2.655  11.746 -0.2689 -0.8714 -0.4950
 8139SOL    HW235877   4.141   2.519  11.815  0.9856 -0.1963  0.1417
 8140SOL     OW35878   1.642   1.678   7.151 -0.0011  0.2873 -0.3496
 8140SOL    HW135879   1.595   1.669   7.234 -0.8731  0.3192 -0.8383
 8140SOL    HW235880   1.597   1.612   7.097  0.5673 -1.3594  1.1687
 8141SOL     OW35881   2.487   2.282   7.179  0.2723 -0.2392 -0.3285
 8141SOL    HW135882   2.562   2.243   7.135  1.4814  1.3098  0.3260
 8141SOL    HW235883   2.413   2.230   7.147  0.3844 -0.0733 -0.8538
 8142SOL     OW35884   4.477   3.452   3.587  0.0799 -0.2821  0.1216
 8142SOL    HW135885   4.451   3.483   3.500  0.6989  0.8988  0.3657
 8142SOL    HW235886   4.406   3.388   3.591 -0.5932  0.4868  0.5632
 8143SOL     OW35887   0.346   1.567   1.979  0.4710  0.3456  0.1389
 8143SOL    HW135888   0.292   1.522   1.914 -0.8884  2.7895 -0.4321
 8143SOL    HW235889   0.425   1.513   1.980  1.5756  1.9982  0.6955
 8144SOL     OW35890   1.884   0.142   9.752 -0.0084  0.4273 -0.1089
 8144SOL    HW135891   1.948   0.105   9.813 -0.6466 -1.4968 -0.6064
 8144SOL    HW235892   1.820   0.071   9.748  0.0911  0.2820  1.0134
 8145SOL     OW35893   4.186   3.982   0.318 -0.4576 -0.0997  0.3037
 8145SOL    HW135894   4.260   3.923   0.323 -0.4061  0.0565  1.3022
 8145SOL    HW235895   4.131   3.957   0.393  3.9481 -1.2145  3.1184
 8146SOL     OW35896   2.543   0.093   8.996  0.0875 -0.7269 -0.4381
 8146SOL    HW135897   2.544   0.005   8.960 -1.9885 -0.8176 -0.2980
 8146SOL    HW235898   2.634   0.119   9.006  0.1627 -0.7140 -1.1808
 8147SOL     OW35899   4.411   1.022   8.876 -0.3738 -0.3709  0.2248
 8147SOL    HW135900   4.413   0.937   8.922 -0.7479 -1.0157 -0.9591
 8147SOL    HW235901   4.400   1.081   8.951  1.1508 -0.4057  0.4682
 8148SOL     OW35902   2.003   0.831   1.787 -0.6473  0.8585 -0.2297
 8148SOL    HW135903   2.007   0.738   1.810 -0.4093  0.6706 -1.0296
 8148SOL    HW235904   1.909   0.850   1.793 -0.2528  2.3293  1.0863
 8149SOL     OW35905   3.465   3.086  16.007 -0.2440  0.0526  0.4840
 8149SOL    HW135906   3.523   3.010  16.003 -1.3616 -0.8251  0.9334
 8149SOL    HW235907   3.456   3.107  16.099 -2.7518 -0.1243  0.2722
 8150SOL     OW35908   2.604   3.478   6.670  0.0164 -0.2795 -0.2542
 8150SOL    HW135909   2.532   3.531   6.636 -1.3997 -2.5139 -0.7135
 8150SOL    HW235910   2.676   3.505   6.612 -0.0096  1.4408  0.5081
 8151SOL     OW35911   2.992   0.845   0.348 -0.1130  0.4592 -0.4826
 8151SOL    HW135912   3.031   0.790   0.280 -0.7314  3.4478 -3.2560
 8151SOL    HW235913   3.050   0.813   0.417 -0.5123  0.0955 -0.3222
 8152SOL     OW35914   2.080   3.244   5.851 -0.8616  0.3135 -0.0835
 8152SOL    HW135915   1.998   3.239   5.803 -0.8032  0.5594 -0.2095
 8152SOL    HW235916   2.050   3.237   5.942 -0.3621  2.0341  0.2143
 8153SOL     OW35917   2.090   0.596   2.606 -0.3341  0.1140  0.2348
 8153SOL    HW135918   2.154   0.661   2.579 -0.4930 -0.0355 -0.4985
 8153SOL    HW235919   2.026   0.658   2.641  1.1704  1.9108 -0.1956
 8154SOL     OW35920   0.912   4.116   6.391 -0.4021 -0.4655  0.0207
 8154SOL    HW135921   0.930   4.027   6.422 -4.1244 -0.6180  1.7148
 8154SOL    HW235922   0.842   4.092   6.330  0.0495 -1.4493 -0.1190
 8155SOL     OW35923   1.140   3.375   4.753  0.5609  0.3887  0.1480
 8155SOL    HW135924   1.119   3.311   4.821  0.6244 -1.5225 -1.6055
 8155SOL    HW235925   1.050   3.404   4.738  0.1043  0.7408  3.6517
 8156SOL     OW35926   1.145   0.941  16.412  0.0557 -0.0137  0.4971
 8156SOL    HW135927   1.188   1.002  16.472 -0.0153  0.3805  0.1380
 8156SOL    HW235928   1.060   0.982  16.398  0.4693  0.7722  0.2840
 8157SOL     OW35929   3.458   0.457   7.262  0.8520 -0.1139  0.1634
 8157SOL    HW135930   3.531   0.405   7.228  0.5026 -0.5890  0.1333
 8157SOL    HW235931   3.501   0.529   7.308  1.2589 -1.9627  2.6733
 8158SOL     OW35932   3.064   3.080   5.784  0.2941  0.0950 -0.0421
 8158SOL    HW135933   2.977   3.085   5.825  1.2027 -2.4167  2.1542
 8158SOL    HW235934   3.029   3.068   5.696 -1.3116  0.1027  0.5860
 8159SOL     OW35935   3.437   3.888   8.016  0.2817 -0.0663  0.4127
 8159SOL    HW135936   3.434   3.977   8.051  1.5457  0.7098 -1.4706
 8159SOL    HW235937   3.371   3.891   7.947  0.0432 -0.1507  0.6408
 8160SOL     OW35938   1.298   1.631   4.708 -0.2932  0.0703  0.5870
 8160SOL    HW135939   1.390   1.638   4.681 -0.9421 -1.2605 -1.9573
 8160SOL    HW235940   1.307   1.617   4.802 -0.7737  0.2656  0.6595
 8161SOL     OW35941   0.997   1.733   5.915 -0.3593 -0.2273  0.0770
 8161SOL    HW135942   0.969   1.768   6.000 -3.3533 -1.5707 -0.3418
 8161SOL    HW235943   0.992   1.639   5.932  0.6487 -0.4034 -0.6583
 8162SOL     OW35944   2.961   0.907   6.972 -0.4622  0.4413 -0.1946
 8162SOL    HW135945   2.886   0.850   6.991 -0.0992 -0.4279 -1.3417
 8162SOL    HW235946   3.010   0.853   6.909 -1.7727 -0.7684 -0.1706
 8163SOL     OW35947   4.007   3.241   6.315 -0.4538 -0.2106  0.2549
 8163SOL    HW135948   3.980   3.307   6.378 -2.1339 -1.5675  0.9639
 8163SOL    HW235949   3.924   3.235   6.268  0.0366  1.0108 -0.7846
 8164SOL     OW35950   0.970   1.063   5.632 -0.3960 -0.0266 -0.4245
 8164SOL    HW135951   1.034   0.992   5.633  0.0507  0.3769 -0.6565
 8164SOL    HW235952   0.885   1.018   5.633 -0.3762 -0.0485  0.3054
 8165SOL     OW35953   0.893   2.773   8.861  0.2977  0.0954 -0.5752
 8165SOL    HW135954   0.977   2.744   8.826  0.0108  0.1380 -1.3034
 8165SOL    HW235955   0.887   2.715   8.937  0.6637  0.8258  0.0078
 8166SOL     OW35956   3.310   4.512   6.316 -0.2944  0.0896 -0.0840
 8166SOL    HW135957   3.368   4.578   6.280 -0.9214  1.0252  0.6242
 8166SOL    HW235958   3.357   4.429   6.304 -0.2024 -0.1505  1.8577
 8167SOL     OW35959   3.641   3.853  10.027  0.1797 -0.0653 -0.0064
 8167SOL    HW135960   3.643   3.945  10.052 -0.3728  0.2414 -1.0817
 8167SOL    HW235961   3.600   3.861   9.941 -2.1001  1.4890  1.2295
 8168SOL     OW35962   0.420   4.100  13.334 -0.5353 -0.1002  0.2612
 8168SOL    HW135963   0.500   4.152  13.332  0.0868 -1.0747 -0.4484
 8168SOL    HW235964   0.369   4.159  13.278  0.1236  1.8172  1.7138
 8169SOL     OW35965   3.784   3.243   8.315 -0.5435 -0.1668  0.4859
 8169SOL    HW135966   3.761   3.221   8.225 -1.1085  0.9139  0.3719
 8169SOL    HW235967   3.872   3.204   8.313 -0.2868  0.4562 -0.5785
 8170SOL     OW35968   4.239   4.328   8.808 -0.5621  0.2843 -0.0077
 8170SOL    HW135969   4.151   4.366   8.817 -1.5261 -1.4044 -2.1696
 8170SOL    HW235970   4.295   4.404   8.821  2.3539 -2.0302  0.8755
 8171SOL     OW35971   2.861   4.043   1.312 -0.0465 -0.4074 -0.7004
 8171SOL    HW135972   2.881   4.014   1.401  2.1191  0.6914 -0.8411
 8171SOL    HW235973   2.940   4.028   1.261  0.3216 -0.9427  0.0263
 8172SOL     OW35974   4.232   1.874  16.865  0.2179 -0.8114  0.5579
 8172SOL    HW135975   4.219   1.929  16.943 -1.1541 -0.8423  0.3372
 8172SOL    HW235976   4.149   1.884  16.818 -0.6257 -0.1792  2.1775
 8173SOL     OW35977   3.121   2.456   7.301  0.3387 -0.1951 -0.2151
 8173SOL    HW135978   3.069   2.441   7.222 -0.4858  2.2268 -0.1271
 8173SOL    HW235979   3.205   2.468   7.256  1.2479  1.8125  2.0636
 8174SOL     OW35980   4.590   3.063   8.212  0.0454 -0.2235 -1.0202
 8174SOL    HW135981   4.536   3.141   8.202  1.2459  0.6731 -0.5592
 8174SOL    HW235982   4.677   3.100   8.197  0.2523 -0.1344  0.4281
 8175SOL     OW35983   0.679   2.443   4.816 -0.1388 -0.5803  0.0839
 8175SOL    HW135984   0.629   2.471   4.739  1.5667  0.9864 -0.4679
 8175SOL    HW235985   0.714   2.531   4.832 -1.0014  0.2070 -2.3622
 8176SOL     OW35986   4.688   1.780   7.337  0.2427  0.0150 -0.3224
 8176SOL    HW135987   4.611   1.760   7.391  0.0952  0.9070 -0.2006
 8176SOL    HW235988   4.650   1.852   7.286  1.0386  0.5648 -0.1395
 8177SOL     OW35989   1.875   3.160   5.693  0.0710 -0.3987  0.3966
 8177SOL    HW135990   1.874   3.104   5.615  1.7593  0.9644 -0.6272
 8177SOL    HW235991   1.808   3.227   5.679  0.6380  0.0387 -0.2822
 8178SOL     OW35992   3.127   2.195   9.348 -0.3785  0.0804  0.4596
 8178SOL    HW135993   3.044   2.183   9.395 -0.0817  0.1161  0.9860
 8178SOL    HW235994   3.166   2.109   9.364 -2.7002 -1.0829  0.0086
 8179SOL     OW35995   1.114   2.197   0.044 -0.1989  0.6052 -0.1611
 8179SOL    HW135996   1.179   2.256   0.084  0.3577  0.2122 -0.4842
 8179SOL    HW235997   1.151   2.113   0.073  2.2992  1.9742  0.6317
 8180SOL     OW35998   3.960   2.393   0.418  0.0626  0.3398  0.9541
 8180SOL    HW135999   3.880   2.385   0.366  1.8118 -0.6950 -1.5693
 8180SOL    HW236000   3.925   2.379   0.506  0.2517  1.0877  1.1516
 8181SOL     OW36001   0.357   4.422   3.575 -0.3496  0.1452  0.0724
 8181SOL    HW136002   0.364   4.513   3.548  2.0441  0.3089  1.1956
 8181SOL    HW236003   0.314   4.387   3.497 -1.8346  2.0271  0.0585
 8182SOL     OW36004   1.316   2.898  15.802 -0.3592  0.3415 -0.8658
 8182SOL    HW136005   1.386   2.882  15.739  0.1980  2.3448 -0.7862
 8182SOL    HW236006   1.326   2.993  15.792  1.1564  0.2638 -0.1502
 8183SOL     OW36007   4.430   3.906   3.350 -0.1855 -0.5780  0.3724
 8183SOL    HW136008   4.503   3.881   3.293 -0.6183 -1.2451  0.1135
 8183SOL    HW236009   4.363   3.925   3.284  0.7170  1.2082 -0.0507
 8184SOL     OW36010   1.182   0.139   1.461  0.2909  0.3998 -0.1863
 8184SOL    HW136011   1.127   0.066   1.491 -1.0861  1.4754 -0.0707
 8184SOL    HW236012   1.137   0.146   1.376 -2.1814 -1.1394  0.9837
 8185SOL     OW36013   4.429   2.645   4.126 -0.3316  0.4468  0.1172
 8185SOL    HW136014   4.441   2.611   4.037 -1.1189  0.6344 -0.0557
 8185SOL    HW236015   4.515   2.680   4.151 -0.5696  0.4838  0.8872
 8186SOL     OW36016   2.942   3.717   5.899  0.3739 -0.3983  0.2312
 8186SOL    HW136017   2.941   3.692   5.807  1.0518 -0.4517  0.2377
 8186SOL    HW236018   2.991   3.800   5.897  0.5119 -0.4978 -0.5689
 8187SOL     OW36019   4.023   4.393   8.122 -0.5125  1.0845  0.6283
 8187SOL    HW136020   4.076   4.464   8.159  2.2016 -0.7978  0.3564
 8187SOL    HW236021   3.945   4.444   8.099 -1.5336 -0.6331  0.3245
 8188SOL     OW36022   1.489   4.283   8.707 -0.0615 -0.4135  0.2617
 8188SOL    HW136023   1.409   4.307   8.754 -1.2929  0.3167 -2.2557
 8188SOL    HW236024   1.508   4.367   8.664 -1.8542  0.0588  0.3988
 8189SOL     OW36025   4.483   1.888   2.798 -0.0277 -0.5174  0.3778
 8189SOL    HW136026   4.572   1.908   2.828 -0.1818 -1.0808  1.2160
 8189SOL    HW236027   4.491   1.909   2.705 -3.3368 -2.5031 -0.3321
 8190SOL     OW36028   1.133   3.619  14.137 -0.0371 -0.4070  0.0067
 8190SOL    HW136029   1.179   3.623  14.053 -0.4189 -0.1852 -0.1926
 8190SOL    HW236030   1.042   3.610  14.108 -0.7756  1.2326  1.8171
 8191SOL     OW36031   4.612   2.999   3.326 -0.3455 -0.1660  0.0451
 8191SOL    HW136032   4.530   3.024   3.368  0.3107  0.6995  0.8185
 8191SOL    HW236033   4.599   2.905   3.339 -2.0961  0.3137  1.7436
 8192SOL     OW36034   4.273   3.517  12.361  0.0305 -0.1422 -0.4293
 8192SOL    HW136035   4.339   3.541  12.296  0.9321  1.8598  1.2197
 8192SOL    HW236036   4.251   3.426  12.341  0.8978 -0.6858  1.0782
 8193SOL     OW36037   4.623   0.312  15.903  0.7445  0.0897 -0.4022
 8193SOL    HW136038   4.627   0.398  15.945 -1.2949 -0.8146  1.6623
 8193SOL    HW236039   4.582   0.327  15.818 -2.1927  0.4025  1.0989
 8194SOL     OW36040   3.657   2.193  16.487  0.2716 -0.0605 -0.0597
 8194SOL    HW136041   3.660   2.176  16.393 -2.4750 -0.0202 -0.1561
 8194SOL    HW236042   3.570   2.233  16.499  0.1513 -0.0474 -0.9717
 8195SOL     OW36043   0.608   2.986   6.867 -0.5874 -0.0607 -0.1907
 8195SOL    HW136044   0.614   3.018   6.957 -0.5449 -0.8666  0.0846
 8195SOL    HW236045   0.649   2.900   6.876 -2.3697 -0.7126  1.6876
 8196SOL     OW36046   1.254   3.661  13.629 -0.2859 -0.1513 -0.0037
 8196SOL    HW136047   1.178   3.608  13.654 -1.3966  1.5752  0.2181
 8196SOL    HW236048   1.288   3.599  13.564 -0.7602 -0.8709  0.4245
 8197SOL     OW36049   1.382   3.098   3.211 -0.3796 -0.0483 -0.2094
 8197SOL    HW136050   1.469   3.135   3.199 -0.7555  1.8735  2.9083
 8197SOL    HW236051   1.337   3.179   3.238  0.4403 -0.0051  1.0231
 8198SOL     OW36052   1.270   2.741   8.318  0.2856 -0.0453  0.5887
 8198SOL    HW136053   1.265   2.769   8.227  1.1697 -1.8717 -0.0275
 8198SOL    HW236054   1.187   2.774   8.350 -0.4749  1.0863 -2.5879
 8199SOL     OW36055   0.537   3.428   7.802  0.1235  0.1738 -0.0455
 8199SOL    HW136056   0.496   3.377   7.732  1.5004 -2.9439  1.3806
 8199SOL    HW236057   0.621   3.382   7.811 -0.1544 -0.4332 -0.5445
 8200SOL     OW36058   2.685   1.052   7.460  0.6332  0.4378  0.2402
 8200SOL    HW136059   2.725   1.094   7.536  0.5215 -0.7180  0.9441
 8200SOL    HW236060   2.605   1.099   7.436 -0.0170 -0.9586 -0.3901
 8201SOL     OW36061   2.736   4.275   1.164  0.0103 -0.5597 -0.3004
 8201SOL    HW136062   2.809   4.261   1.105  1.1196  0.2692  0.8747
 8201SOL    HW236063   2.711   4.183   1.177 -2.9335 -0.0639 -2.3466
 8202SOL     OW36064   2.304   4.128   0.945 -0.2000 -0.1517 -0.2150
 8202SOL    HW136065   2.278   4.088   1.028  0.5832  2.7185  1.3955
 8202SOL    HW236066   2.392   4.162   0.958 -0.9272  1.1832  1.1153
 8203SOL     OW36067   1.431   1.290  12.824  0.4179  0.4030  0.5426
 8203SOL    HW136068   1.521   1.320  12.818 -0.3843  2.6217 -0.4790
 8203SOL    HW236069   1.446   1.196  12.837 -0.9760 -0.0130 -0.7252
 8204SOL     OW36070   4.039   1.990   7.378  0.4599 -0.0543 -0.4468
 8204SOL    HW136071   3.998   1.933   7.313 -1.9637  1.6496 -0.3971
 8204SOL    HW236072   3.961   2.031   7.414 -1.6619 -3.1262 -1.5683
 8205SOL     OW36073   3.813   3.643   2.284 -0.4312 -0.3897  0.0634
 8205SOL    HW136074   3.830   3.687   2.201 -1.6389  1.2823  0.6980
 8205SOL    HW236075   3.819   3.552   2.256 -0.1059 -0.7129  1.1954
 8206SOL     OW36076   1.723   3.079  11.635  0.2362  0.5494  0.1639
 8206SOL    HW136077   1.689   3.069  11.723  3.6249 -0.8316  1.3309
 8206SOL    HW236078   1.676   3.151  11.594  1.0613  2.2115  2.1773
 8207SOL     OW36079   1.731   3.196   4.970  0.2578 -0.1982  0.5327
 8207SOL    HW136080   1.676   3.274   4.959  0.1491 -0.2662  0.5897
 8207SOL    HW236081   1.793   3.225   5.036 -0.5058  1.1502  0.6775
 8208SOL     OW36082   4.532   1.023   6.016 -0.2142  0.2805  0.1491
 8208SOL    HW136083   4.611   0.976   6.043  0.2003  0.5243 -0.6460
 8208SOL    HW236084   4.563   1.112   6.001 -0.0740  0.5663  2.1175
 8209SOL     OW36085   4.507   1.880  17.634  0.2504 -0.4207  0.7333
 8209SOL    HW136086   4.419   1.878  17.672  0.1656  0.4651  0.5873
 8209SOL    HW236087   4.529   1.787  17.635  1.5455 -0.1392 -1.4128
 8210SOL     OW36088   2.169   0.217  15.179  0.1669  0.0227  0.7982
 8210SOL    HW136089   2.180   0.294  15.235  0.4377 -0.8182  1.8940
 8210SOL    HW236090   2.229   0.234  15.107 -0.2126  4.7588  1.6008
 8211SOL     OW36091   1.212   2.338   8.851 -0.5920 -0.4697 -0.3105
 8211SOL    HW136092   1.222   2.365   8.760 -1.1480  1.1472  0.1020
 8211SOL    HW236093   1.126   2.370   8.878  0.1764 -0.0131  1.6166
 8212SOL     OW36094   0.478   1.559   8.284 -0.1387 -0.0618 -0.2357
 8212SOL    HW136095   0.478   1.560   8.188  1.5973  0.8767 -0.2377
 8212SOL    HW236096   0.445   1.470   8.292 -1.6722  0.5122 -0.1519
 8213SOL     OW36097   2.363   4.273   9.624  0.0949 -0.2331 -0.8050
 8213SOL    HW136098   2.417   4.272   9.703 -0.4636 -1.7379 -0.4303
 8213SOL    HW236099   2.287   4.219   9.644 -0.2880 -0.0249 -1.7165
 8214SOL     OW36100   1.118   3.190   2.690  0.1831 -0.0028  0.1598
 8214SOL    HW136101   1.106   3.212   2.783 -0.9536  0.7955 -0.1813
 8214SOL    HW236102   1.025   3.192   2.669  0.0384 -1.1111  0.6917
 8215SOL     OW36103   4.568   2.948   4.726 -0.0550 -0.2114 -0.0041
 8215SOL    HW136104   4.608   2.936   4.813  3.4080  0.6647 -1.4644
 8215SOL    HW236105   4.611   2.875   4.680 -0.8604 -0.4829 -0.3194
 8216SOL     OW36106   4.673   0.161   6.983 -1.0061  0.1180  0.2206
 8216SOL    HW136107   4.709   0.189   6.899 -1.6084 -3.2315 -1.1886
 8216SOL    HW236108   0.015   0.203   7.037  0.6223 -0.0433 -1.6752
 8217SOL     OW36109   4.590   2.608  17.649 -0.1562  0.0123 -0.3225
 8217SOL    HW136110   4.609   2.531   0.003 -1.6027  0.4659  0.8220
 8217SOL    HW236111   4.665   2.608  17.590  0.9723  1.7943  1.1263
 8218SOL     OW36112   4.440   0.414   4.243  0.1322  0.5396  0.8266
 8218SOL    HW136113   4.381   0.439   4.173  1.9348  0.7446 -0.6331
 8218SOL    HW236114   4.433   0.480   4.312  1.4027  1.1229  0.3939
 8219SOL     OW36115   1.976   1.340   8.155  0.6246 -0.6459 -0.0527
 8219SOL    HW136116   1.999   1.367   8.066 -2.5455 -1.0683 -0.9834
 8219SOL    HW236117   2.067   1.344   8.184  0.3652 -0.2296  0.7046
 8220SOL     OW36118   1.388   4.553   5.460 -0.1012 -0.2257  0.3001
 8220SOL    HW136119   1.337   4.556   5.379  0.4242  1.3737  0.0103
 8220SOL    HW236120   1.317   4.589   5.513  0.1469 -0.1904  0.6069
 8221SOL     OW36121   4.289   4.561   3.386  0.3022  0.1643 -0.4086
 8221SOL    HW136122   4.225   4.513   3.333  1.5797 -1.4184 -0.5256
 8221SOL    HW236123   4.324   4.620   3.319 -0.4087  1.5108  0.4147
 8222SOL     OW36124   2.499   2.580   2.446  0.6052  0.1540  0.5388
 8222SOL    HW136125   2.591   2.608   2.446  1.1654 -1.6413  0.7025
 8222SOL    HW236126   2.498   2.500   2.498  0.2941 -1.3255 -1.7235
 8223SOL     OW36127   3.858   3.884   4.593  0.0275 -0.0820  0.1128
 8223SOL    HW136128   3.921   3.852   4.657  1.2035 -0.0212 -1.0046
 8223SOL    HW236129   3.848   3.804   4.541  1.4657 -0.6520  0.7199
 8224SOL     OW36130   2.376   2.641  14.353  0.1208 -0.3286 -0.2073
 8224SOL    HW136131   2.285   2.611  14.357 -0.7121  2.2261  0.1706
 8224SOL    HW236132   2.424   2.559  14.351 -2.4968 -1.8861  1.3013
 8225SOL     OW36133   1.181   3.145   7.101  0.2491 -0.1436 -0.0930
 8225SOL    HW136134   1.144   3.161   7.015 -1.2397 -1.9762  0.2128
 8225SOL    HW236135   1.275   3.160   7.093  0.3393 -1.4174 -1.2927
 8226SOL     OW36136   1.240   3.648   9.396 -0.2901  0.1646  0.3747
 8226SOL    HW136137   1.298   3.593   9.449  1.3417  0.9846 -0.5592
 8226SOL    HW236138   1.203   3.587   9.332  0.1964 -0.2044  0.4383
 8227SOL     OW36139   0.231   0.797   6.993  0.2153 -0.0226 -0.1282
 8227SOL    HW136140   0.212   0.711   7.030 -0.0916  1.1985  2.5259
 8227SOL    HW236141   0.326   0.792   6.982  0.0954 -0.8192 -0.8372
 8228SOL     OW36142   0.765   2.086  12.708  0.8174  0.0345  0.2980
 8228SOL    HW136143   0.857   2.100  12.730  0.1159  1.4850  2.3579
 8228SOL    HW236144   0.738   2.079  12.799 -1.3747 -1.9609 -0.5036
 8229SOL     OW36145   1.003   1.178  12.221  0.0089  0.5414 -0.0478
 8229SOL    HW136146   1.074   1.230  12.183 -1.6088  1.9838 -1.0965
 8229SOL    HW236147   0.941   1.247  12.241  0.4777  1.5340 -2.0277
 8230SOL     OW36148   2.648   0.689   3.405  0.0691  0.4228  0.7697
 8230SOL    HW136149   2.660   0.770   3.357  0.7827 -1.6924 -2.6435
 8230SOL    HW236150   2.643   0.708   3.499  1.8973  0.9110  0.7663
 8231SOL     OW36151   1.646   4.315   9.110 -0.1277  0.2301 -0.2791
 8231SOL    HW136152   1.595   4.379   9.061  0.9161  0.5962 -0.8881
 8231SOL    HW236153   1.591   4.236   9.114  0.2291 -0.0237 -0.3638
 8232SOL     OW36154   2.043   0.071   5.495 -0.1614  0.2482 -0.3337
 8232SOL    HW136155   2.125   0.119   5.482 -0.6320  1.1392 -0.0112
 8232SOL    HW236156   1.992   0.096   5.418 -2.1665 -0.1747  0.8528
 8233SOL     OW36157   3.028   4.245   7.337 -0.0004 -0.6903 -0.6289
 8233SOL    HW136158   2.990   4.160   7.315  2.2161 -1.8676  0.1504
 8233SOL    HW236159   2.989   4.312   7.280  2.9731  2.6218  1.2025
 8234SOL     OW36160   0.944   1.290  15.700  0.6579  0.3278 -0.1837
 8234SOL    HW136161   0.916   1.229  15.632  0.3982 -1.3533  1.4469
 8234SOL    HW236162   1.036   1.271  15.717  0.5081 -0.5137 -0.3326
 8235SOL     OW36163   0.801   3.577  12.868 -0.3621  0.6172 -0.2927
 8235SOL    HW136164   0.757   3.644  12.816  3.2838  0.5513 -3.5117
 8235SOL    HW236165   0.779   3.505  12.809 -1.1513  1.0856 -0.5689
 8236SOL     OW36166   1.810   0.611   5.900  0.3557 -0.0534 -0.2710
 8236SOL    HW136167   1.746   0.591   5.968 -0.3118  2.1248 -0.2670
 8236SOL    HW236168   1.791   0.704   5.888 -1.5202 -0.3283  0.6363
 8237SOL     OW36169   2.484   3.711   9.105 -0.3505  1.0715  0.3136
 8237SOL    HW136170   2.433   3.784   9.070 -2.6521 -0.9907 -0.6593
 8237SOL    HW236171   2.540   3.749   9.172 -0.1319  0.4605  0.4731
 8238SOL     OW36172   2.186   1.056   9.944 -0.2098  0.1526 -0.4114
 8238SOL    HW136173   2.239   1.116   9.995 -1.2014  0.0833  0.7043
 8238SOL    HW236174   2.101   1.069   9.985  0.2185  2.5706 -0.3150
 8239SOL     OW36175   1.542   2.192   6.953  0.0452 -0.2824 -0.5691
 8239SOL    HW136176   1.482   2.224   7.020  1.4226 -1.5578  1.2919
 8239SOL    HW236177   1.553   2.103   6.989 -1.1644 -1.3167 -2.7622
 8240SOL     OW36178   3.025   1.815   1.013  0.2690  0.4859 -0.4638
 8240SOL    HW136179   3.048   1.758   1.086 -0.4820 -0.7934 -1.2194
 8240SOL    HW236180   3.089   1.783   0.949 -0.2610  0.6625 -1.0780
 8241SOL     OW36181   0.012   0.192   3.527  0.5142  0.0189  0.2471
 8241SOL    HW136182   0.059   0.248   3.465 -0.4169  0.4263 -0.0863
 8241SOL    HW236183   4.714   0.114   3.476  0.2916  0.2250  0.0312
 8242SOL     OW36184   3.415   1.333   8.177 -0.1381 -0.4775 -0.4168
 8242SOL    HW136185   3.366   1.378   8.246 -1.8836 -0.7684 -1.4943
 8242SOL    HW236186   3.396   1.391   8.103  0.7258  0.9120  0.4350
 8243SOL     OW36187   2.942   0.990   9.217 -0.2749 -0.2761  0.4752
 8243SOL    HW136188   2.935   0.991   9.312  0.9084  0.8472  0.5563
 8243SOL    HW236189   3.022   1.042   9.207 -0.6796  0.3552  0.4850
 8244SOL     OW36190   3.273   0.622   3.413  0.8359 -0.2443 -0.0631
 8244SOL    HW136191   3.349   0.585   3.458 -0.3478 -0.3653  1.8201
 8244SOL    HW236192   3.238   0.678   3.483 -0.2794 -4.1980  2.5091
 8245SOL     OW36193   3.121   3.985   0.325  0.2130 -0.3119  0.1266
 8245SOL    HW136194   3.206   3.941   0.318 -0.1645 -1.1458  0.6978
 8245SOL    HW236195   3.139   4.018   0.413 -1.6955 -2.3576  1.2951
 8246SOL     OW36196   4.366   1.052   0.891  0.0835 -0.7372 -0.0186
 8246SOL    HW136197   4.353   0.958   0.903 -0.3310 -0.8912 -1.6952
 8246SOL    HW236198   4.461   1.049   0.874  0.2721  1.4266  0.6829
 8247SOL     OW36199   3.417   3.193   8.693  0.3054 -0.3723  0.0657
 8247SOL    HW136200   3.455   3.281   8.693 -1.4956  0.4301  0.9855
 8247SOL    HW236201   3.498   3.152   8.721  1.1171  1.1681 -0.0362
 8248SOL     OW36202   2.233   4.458   6.082  0.0051 -0.0263 -0.4149
 8248SOL    HW136203   2.203   4.480   5.993  0.8768 -1.6756 -1.1079
 8248SOL    HW236204   2.270   4.373   6.059 -1.1579 -0.0998 -2.0953
 8249SOL     OW36205   1.169   2.790   2.398  0.0264  0.1650 -0.0333
 8249SOL    HW136206   1.197   2.715   2.451 -0.2856  1.0609  1.3714
 8249SOL    HW236207   1.217   2.853   2.451 -0.3646 -1.5742  2.3801
 8250SOL     OW36208   0.015   0.931   3.328  0.6208 -0.1821 -0.1427
 8250SOL    HW136209   0.041   0.870   3.259 -0.7195 -1.1722  0.2223
 8250SOL    HW236210   4.723   0.861   3.391 -0.6737  0.5559  0.3393
 8251SOL     OW36211   1.231   0.224   4.221  0.3445 -0.3146  0.0008
 8251SOL    HW136212   1.153   0.192   4.176  1.1041 -0.0112 -1.5035
 8251SOL    HW236213   1.197   0.303   4.263  2.1793  1.3478 -1.6801
 8252SOL     OW36214   3.431   0.236   4.155 -0.1489 -0.1492  0.3048
 8252SOL    HW136215   3.419   0.236   4.060  4.2176 -1.0382 -0.2812
 8252SOL    HW236216   3.431   0.143   4.174 -0.3022 -0.0670  0.6986
 8253SOL     OW36217   1.882   0.791   3.924  0.0883 -0.4247 -0.0531
 8253SOL    HW136218   1.812   0.818   3.983  0.0390 -0.0377 -0.2915
 8253SOL    HW236219   1.844   0.707   3.898  0.6195 -0.5317 -0.4843
 8254SOL     OW36220   3.126   0.136   6.115  0.8308 -0.0871 -0.0448
 8254SOL    HW136221   3.133   0.221   6.072  0.4112 -0.6581 -1.2441
 8254SOL    HW236222   3.118   0.070   6.046 -2.7882  0.9282 -0.6085
 8255SOL     OW36223   0.739   0.018  17.397  0.1409  0.3462 -0.0276
 8255SOL    HW136224   0.766   0.078  17.466  1.1635 -0.1294 -0.0231
 8255SOL    HW236225   0.784   4.664  17.427  0.5543 -0.3407 -2.5149
 8256SOL     OW36226   0.131   0.937  16.604 -0.1616 -0.3849 -0.6001
 8256SOL    HW136227   0.201   0.994  16.635 -0.1679 -1.4012  1.2873
 8256SOL    HW236228   0.146   0.939  16.510 -0.4056  2.2226 -0.5841
 8257SOL     OW36229   0.441   2.318   3.437  0.4329  0.4385  0.4332
 8257SOL    HW136230   0.366   2.337   3.381  1.1002  1.0844 -0.2532
 8257SOL    HW236231   0.402   2.248   3.488  0.5187  1.2235  1.5684
 8258SOL     OW36232   4.594   3.589   5.308 -0.7304 -0.0859  0.1308
 8258SOL    HW136233   4.538   3.565   5.234 -0.7358 -0.7096  0.3389
 8258SOL    HW236234   4.683   3.568   5.280 -0.6007  1.4115 -0.5608
 8259SOL     OW36235   1.600   4.385   9.377  0.0248  0.0929  0.0467
 8259SOL    HW136236   1.608   4.477   9.349  2.2635 -0.1311 -0.0233
 8259SOL    HW236237   1.633   4.346   9.296  1.6151  0.7210  0.3835
 8260SOL     OW36238   3.480   4.335   5.638  0.2925 -0.0012 -0.5509
 8260SOL    HW136239   3.538   4.365   5.568  0.2663 -1.5189 -1.2283
 8260SOL    HW236240   3.544   4.323   5.709 -1.5188 -3.6678  0.4889
 8261SOL     OW36241   0.856   0.010   6.757 -0.3899 -0.0189 -0.6579
 8261SOL    HW136242   0.902   0.071   6.700  0.2602 -1.0813 -1.2533
 8261SOL    HW236243   0.768   0.043   6.739  0.2089  1.0225 -1.6337
 8262SOL     OW36244   0.202   0.326   7.045 -0.0729  0.8192  0.2037
 8262SOL    HW136245   0.216   0.241   7.087 -3.1194 -0.6364 -1.7109
 8262SOL    HW236246   0.295   0.345   7.030  0.2436  0.6094  1.8806
 8263SOL     OW36247   1.864   4.570  16.002 -0.1094 -1.0443 -0.6611
 8263SOL    HW136248   1.804   4.581  15.929  0.8675 -1.6360 -1.5515
 8263SOL    HW236249   1.802   4.523  16.058  0.2686 -0.5181  0.2102
 8264SOL     OW36250   0.716   4.448  10.045  0.3931 -0.3148 -0.3205
 8264SOL    HW136251   0.772   4.482  10.114  0.0249 -0.5652  0.1014
 8264SOL    HW236252   0.778   4.386  10.007 -1.2026 -1.4342 -1.1381
 8265SOL     OW36253   0.241   4.450   9.860 -0.2183 -0.1078 -0.3490
 8265SOL    HW136254   0.276   4.399   9.787  2.6168  2.1633 -0.5574
 8265SOL    HW236255   0.155   4.408   9.847 -1.4508  1.6270  2.2496
 8266SOL     OW36256   0.066   2.278   7.542 -0.0055  0.0044 -0.0786
 8266SOL    HW136257   0.018   2.245   7.619  0.1664 -0.9293 -0.3700
 8266SOL    HW236258   0.075   2.199   7.488  0.2922  0.7166 -1.0651
 8267SOL     OW36259   1.278   2.711   1.043 -0.7222  0.4874 -0.0040
 8267SOL    HW136260   1.358   2.762   1.026 -0.7957  0.8967  0.9018
 8267SOL    HW236261   1.307   2.622   1.024 -1.5236  0.2447 -0.1104
 8268SOL     OW36262   3.829   1.501   1.088  0.1128 -0.0792  0.0277
 8268SOL    HW136263   3.853   1.466   1.174  0.9121 -0.6792 -0.4377
 8268SOL    HW236264   3.740   1.527   1.112  0.6656  1.8430 -0.0523
 8269SOL     OW36265   2.824   0.759  12.729  0.0642  0.0161 -0.1933
 8269SOL    HW136266   2.869   0.704  12.666  1.5936  1.5887 -0.4748
 8269SOL    HW236267   2.861   0.835  12.684  0.0576  0.5795  0.7558
 8270SOL     OW36268   0.631   2.144   6.749  0.6551  0.3764 -0.0284
 8270SOL    HW136269   0.607   2.149   6.842  0.7027 -0.6483  0.0400
 8270SOL    HW236270   0.601   2.232   6.727  0.8473  0.7253  1.1165
 8271SOL     OW36271   3.881   2.687  10.846  1.0548  0.1974  0.1708
 8271SOL    HW136272   3.858   2.602  10.883  4.6154 -1.2947 -1.0469
 8271SOL    HW236273   3.899   2.678  10.753  1.9466 -1.5853  0.5274
 8272SOL     OW36274   4.126   0.381  10.481 -0.2652  0.1573  0.1374
 8272SOL    HW136275   4.090   0.449  10.424 -1.9438 -0.2487  0.7281
 8272SOL    HW236276   4.211   0.422  10.501  0.5259 -0.0770 -2.7581
 8273SOL     OW36277   3.174   2.070   4.592 -0.3309  0.5341  0.1515
 8273SOL    HW136278   3.131   1.991   4.625  2.5512 -1.7036 -1.4758
 8273SOL    HW236279   3.094   2.102   4.550 -0.8212 -0.3025  0.4534
 8274SOL     OW36280   0.263   0.944   7.849 -0.2162 -0.5674  0.3918
 8274SOL    HW136281   0.324   0.924   7.919 -2.5622 -5.9108  0.9493
 8274SOL    HW236282   0.311   0.983   7.776 -0.4931 -0.3962  0.2983
 8275SOL     OW36283   3.660   1.750  15.226 -0.2846 -0.3262 -0.5787
 8275SOL    HW136284   3.660   1.823  15.164  0.6807 -1.7008 -2.1880
 8275SOL    HW236285   3.594   1.685  15.202 -1.3871  0.4076  0.4379
 8276SOL     OW36286   3.974   0.192   5.948  0.2154  0.3654  0.0260
 8276SOL    HW136287   3.920   0.271   5.948  0.6340  0.6494 -1.0323
 8276SOL    HW236288   3.965   0.148   6.033  1.5879 -1.4627 -0.7763
 8277SOL     OW36289   0.227   1.212   1.069  0.3115 -0.0884  0.3100
 8277SOL    HW136290   0.134   1.207   1.091 -0.2147  0.0765 -1.8654
 8277SOL    HW236291   0.263   1.253   1.148  2.0908 -2.1652  0.5617
 8278SOL     OW36292   2.264   4.477   6.384 -0.0409 -0.1625 -0.1287
 8278SOL    HW136293   2.212   4.404   6.349 -0.8318  0.1459  0.4010
 8278SOL    HW236294   2.317   4.488   6.306 -2.6989  2.5094 -1.5469
 8279SOL     OW36295   4.105   2.747   7.151 -0.4092  0.3395  0.0103
 8279SOL    HW136296   4.087   2.813   7.083  0.0120  0.6475  0.1912
 8279SOL    HW236297   4.183   2.699   7.121 -1.2077  0.1106 -1.6719
 8280SOL     OW36298   0.680   3.837   2.268  0.1046  0.1917 -0.4158
 8280SOL    HW136299   0.586   3.818   2.261  0.4530 -1.1653 -1.4859
 8280SOL    HW236300   0.689   3.932   2.258  0.5614  0.3282  1.2334
 8281SOL     OW36301   0.270   2.962   8.788 -0.2578  0.0425 -0.2230
 8281SOL    HW136302   0.334   3.032   8.773  0.9902 -0.7348  1.4847
 8281SOL    HW236303   0.314   2.916   8.860  2.7554 -0.6832 -2.5457
 8282SOL     OW36304   2.271   3.566  11.421 -0.0779 -0.4428 -0.2890
 8282SOL    HW136305   2.197   3.627  11.421 -0.3511 -0.7833  1.2356
 8282SOL    HW236306   2.239   3.489  11.468  1.3035 -1.5789 -1.2153
 8283SOL     OW36307   1.529   2.517   4.088 -0.5945 -0.7372 -0.0840
 8283SOL    HW136308   1.546   2.457   4.160 -1.7755 -1.9594 -0.8374
 8283SOL    HW236309   1.488   2.454   4.028 -2.0613  0.3940 -0.2851
 8284SOL     OW36310   2.332   1.365   9.916  0.0658 -0.0218 -0.2704
 8284SOL    HW136311   2.308   1.341  10.005 -2.5228  1.4233 -0.5670
 8284SOL    HW236312   2.316   1.460   9.909 -2.8052 -0.4440  0.7197
 8285SOL     OW36313   0.712   3.677   6.786 -0.0718  0.1780  0.3938
 8285SOL    HW136314   0.704   3.584   6.803 -0.9138  0.2506  0.4156
 8285SOL    HW236315   0.683   3.710   6.871  1.9865 -2.4989  2.1071
 8286SOL     OW36316   0.287   3.637   4.029 -0.2825  0.1388  0.0536
 8286SOL    HW136317   0.265   3.553   3.988 -1.8240  0.7757 -0.4326
 8286SOL    HW236318   0.281   3.689   3.948  0.8223  2.0665  1.1953
 8287SOL     OW36319   2.200   0.808   3.177  0.2101  1.0888 -0.0717
 8287SOL    HW136320   2.231   0.898   3.193 -2.3422  1.8661  0.5493
 8287SOL    HW236321   2.284   0.772   3.148 -0.4978 -1.9406  1.6385
 8288SOL     OW36322   2.229   3.744  12.547  0.3322 -0.0518  0.1982
 8288SOL    HW136323   2.264   3.665  12.507 -1.6556 -0.4550 -0.7579
 8288SOL    HW236324   2.166   3.714  12.612 -0.5158  1.9371  0.2993
 8289SOL     OW36325   0.880   3.645  16.120  0.2117  0.2773  0.5098
 8289SOL    HW136326   0.948   3.650  16.053  0.6591  1.2825  1.0364
 8289SOL    HW236327   0.855   3.556  16.096  3.0757 -1.2285  3.0325
 8290SOL     OW36328   0.042   3.804   2.625 -0.6242  0.2849  0.0883
 8290SOL    HW136329   0.091   3.818   2.544 -1.4373 -0.9012 -0.6090
 8290SOL    HW236330   4.685   3.784   2.578  0.8054 -1.2605 -1.7468
 8291SOL     OW36331   1.153   4.283   6.783  0.3009 -0.1458 -0.2104
 8291SOL    HW136332   1.218   4.230   6.737 -0.0571 -0.6575 -0.1167
 8291SOL    HW236333   1.151   4.243   6.870  0.2274 -0.9598 -0.5907
 8292SOL     OW36334   2.096   3.993  16.066  0.3240 -0.0816 -0.5797
 8292SOL    HW136335   2.136   4.011  15.981  3.7278  1.1128  1.2582
 8292SOL    HW236336   2.143   4.056  16.121  1.0129 -0.0259 -1.2217
 8293SOL     OW36337   0.175   2.720   7.687 -0.0628  0.6219  0.0887
 8293SOL    HW136338   0.187   2.705   7.781  1.6195  2.1924  0.1143
 8293SOL    HW236339   0.241   2.666   7.644 -2.6913 -0.8047 -2.1246
 8294SOL     OW36340   3.132   0.333   7.615  0.8841  0.0919  0.2371
 8294SOL    HW136341   3.086   0.339   7.532  1.0960  2.1812  0.2675
 8294SOL    HW236342   3.194   0.406   7.613  0.6854  0.1733 -2.4272
 8295SOL     OW36343   4.652   3.981  10.981  0.3285  0.0547  0.2258
 8295SOL    HW136344   4.607   3.925  11.044  1.5215  0.9814  1.9033
 8295SOL    HW236345   4.586   4.048  10.964 -0.6414 -1.0293 -0.2497
 8296SOL     OW36346   4.088   1.807   3.119 -0.0945  0.2758 -0.0337
 8296SOL    HW136347   4.112   1.715   3.128  1.2037  0.5647 -0.5544
 8296SOL    HW236348   4.117   1.812   3.028 -0.3932  2.6436 -0.0165
 8297SOL     OW36349   0.853   0.275  14.434  0.0188 -0.8056  0.5515
 8297SOL    HW136350   0.780   0.332  14.459  0.6763  0.4299 -0.3355
 8297SOL    HW236351   0.895   0.329  14.367  0.1229 -0.6449  0.7437
 8298SOL     OW36352   1.104   1.988   0.295  0.1285  0.3216  0.1084
 8298SOL    HW136353   1.018   1.975   0.256 -0.9716  0.1767  2.6105
 8298SOL    HW236354   1.100   1.927   0.368  1.6016  0.9306  0.7051
 8299SOL     OW36355   3.204   2.933   1.755 -0.0674 -0.5199 -0.3514
 8299SOL    HW136356   3.143   2.861   1.736 -0.1385  0.0156 -2.1506
 8299SOL    HW236357   3.271   2.887   1.807 -0.6676 -0.1728  0.7229
 8300SOL     OW36358   1.842   2.734   6.619 -0.2935 -0.4323  0.0130
 8300SOL    HW136359   1.754   2.764   6.643  0.3065  1.6750 -0.3648
 8300SOL    HW236360   1.845   2.779   6.534 -1.5839  0.6279  0.5162
 8301SOL     OW36361   1.957   1.115  10.055 -0.2816 -0.2053  0.7098
 8301SOL    HW136362   1.998   1.139  10.137  2.0834  1.8391 -1.0839
 8301SOL    HW236363   1.879   1.170  10.045  1.2150  1.4279 -2.0398
 8302SOL     OW36364   1.364   4.594   1.571 -0.7577  0.0366  0.5440
 8302SOL    HW136365   1.285   4.646   1.588  0.6807  2.0639  1.0413
 8302SOL    HW236366   1.374   4.597   1.476  0.5248  0.6480  0.6927
 8303SOL     OW36367   1.662   0.322  15.211 -0.0435 -0.4047  0.1434
 8303SOL    HW136368   1.645   0.366  15.294  0.7000  0.9822 -0.4428
 8303SOL    HW236369   1.706   0.242  15.239  0.7895 -0.7262 -2.0203
 8304SOL     OW36370   3.098   2.855   3.791 -0.1949  0.5367  0.0005
 8304SOL    HW136371   3.133   2.810   3.713 -2.9580 -0.6857 -0.5429
 8304SOL    HW236372   3.188   2.865   3.822 -0.6019  2.8042  0.3919
 8305SOL     OW36373   1.873   2.914   6.415 -0.2811  0.3007  0.2140
 8305SOL    HW136374   1.961   2.949   6.413  0.0120 -0.4627 -0.2266
 8305SOL    HW236375   1.826   2.953   6.341 -0.1980  2.1915  1.1657
 8306SOL     OW36376   1.684   0.692   4.441 -0.3004 -0.5174  0.0814
 8306SOL    HW136377   1.723   0.676   4.527 -1.2465 -0.5138  0.5151
 8306SOL    HW236378   1.614   0.752   4.467 -0.3681  0.1947 -1.7142
 8307SOL     OW36379   1.245   1.948  17.266  0.5000 -0.1117 -0.0422
 8307SOL    HW136380   1.294   1.912  17.191 -2.1661 -1.8710 -0.9480
 8307SOL    HW236381   1.294   1.910  17.339  1.4173  0.0984 -0.5392
 8308SOL     OW36382   3.044   4.591   6.427 -0.1048  0.0798  0.0457
 8308SOL    HW136383   3.128   4.566   6.389 -0.1077 -1.0135  0.7673
 8308SOL    HW236384   3.064   4.584   6.521  0.1456  1.7241  0.1338
 8309SOL     OW36385   1.417   4.580  15.184 -0.2261 -0.2307 -0.0572
 8309SOL    HW136386   1.337   4.617  15.222  1.0410  3.1694 -0.7187
 8309SOL    HW236387   1.465   4.648  15.137  0.1507 -0.3610  0.1392
 8310SOL     OW36388   4.486   1.920   2.513 -0.6885 -0.3809 -0.1035
 8310SOL    HW136389   4.493   1.963   2.427 -0.8988 -1.1153 -0.4888
 8310SOL    HW236390   4.430   1.842   2.509 -0.1042 -0.7230 -1.7608
 8311SOL     OW36391   3.417   3.992  13.697  0.0992  0.2236 -0.0033
 8311SOL    HW136392   3.411   4.067  13.757 -0.6190 -0.5221  0.8593
 8311SOL    HW236393   3.450   3.926  13.758  0.9159 -1.1357 -1.9432
 8312SOL     OW36394   1.528   3.008   8.310  0.3402  0.2056  0.2257
 8312SOL    HW136395   1.554   2.953   8.384  0.3222  2.2714  1.7479
 8312SOL    HW236396   1.503   2.945   8.242  1.5665 -0.6823  0.5945
 8313SOL     OW36397   2.553   0.167   5.883 -0.2705  0.3181 -0.0978
 8313SOL    HW136398   2.466   0.160   5.924 -0.0562 -2.7737 -0.1336
 8313SOL    HW236399   2.531   0.220   5.807  0.4411 -0.3430 -0.7647
 8314SOL     OW36400   3.580   0.760   1.976  0.1921 -0.2816 -0.4393
 8314SOL    HW136401   3.611   0.694   2.038 -1.1996 -1.7476 -1.2740
 8314SOL    HW236402   3.664   0.804   1.968  0.6244 -0.9196  0.6611
 8315SOL     OW36403   3.498   2.669  11.235 -0.6229 -0.3982  0.0613
 8315SOL    HW136404   3.423   2.644  11.289 -1.2021  1.4036  0.0692
 8315SOL    HW236405   3.482   2.763  11.243 -0.8633 -0.5546  1.4035
 8316SOL     OW36406   4.444   1.868  15.906  0.2732 -0.2813 -0.7821
 8316SOL    HW136407   4.393   1.787  15.915 -1.3548  0.5394 -2.6312
 8316SOL    HW236408   4.504   1.856  15.979 -0.9454 -0.5543  0.1883
 8317SOL     OW36409   0.420   3.717  10.861 -0.3162  0.1511 -0.4630
 8317SOL    HW136410   0.412   3.624  10.884 -1.7461  0.5097  0.4762
 8317SOL    HW236411   0.331   3.748  10.878 -0.4994 -1.8164  2.2062
 8318SOL     OW36412   4.636   1.370   4.884 -0.1908  0.0901 -0.2465
 8318SOL    HW136413   4.606   1.451   4.844  0.4894  0.8893  0.8626
 8318SOL    HW236414   4.558   1.318   4.863 -0.8194  1.6824 -1.8234
 8319SOL     OW36415   4.455   0.899   5.785 -0.3929  0.3017 -0.1590
 8319SOL    HW136416   4.471   0.945   5.868  0.1756 -0.0740 -0.0646
 8319SOL    HW236417   4.527   0.931   5.731 -0.3761 -0.3915 -0.5419
 8320SOL     OW36418   2.115   3.687   3.891  0.3227 -0.5857  0.0246
 8320SOL    HW136419   2.068   3.637   3.957 -1.5925 -0.9823 -1.6428
 8320SOL    HW236420   2.126   3.774   3.931  0.5492  0.4586 -2.2836
 8321SOL     OW36421   1.677   0.310   9.002  0.2529 -0.3863 -0.4496
 8321SOL    HW136422   1.724   0.227   8.995 -0.4884 -1.0248  2.4915
 8321SOL    HW236423   1.728   0.356   8.935 -1.7548 -0.6543 -2.1658
 8322SOL     OW36424   3.628   3.948   7.779 -0.1285  0.3303 -0.6406
 8322SOL    HW136425   3.555   4.009   7.772  0.4632  0.9456 -1.5056
 8322SOL    HW236426   3.673   3.980   7.857  0.5129 -0.0003 -0.8648
 8323SOL     OW36427   2.472   2.746  16.964 -0.1858 -0.3125  0.2104
 8323SOL    HW136428   2.567   2.752  16.955 -0.3818  0.6162 -1.3662
 8323SOL    HW236429   2.450   2.823  16.912  0.0322 -0.2709  0.1801
 8324SOL     OW36430   0.869   0.563  15.125  0.2107  0.5641 -0.0765
 8324SOL    HW136431   0.954   0.520  15.134 -0.2557 -0.1457  1.0099
 8324SOL    HW236432   0.876   0.609  15.208 -1.0375  0.2151  0.2231
 8325SOL     OW36433   2.883   2.626  10.353  0.1168 -0.2882  0.5425
 8325SOL    HW136434   2.922   2.542  10.377  3.7013  1.6391  1.5200
 8325SOL    HW236435   2.794   2.617  10.387 -0.7825 -1.3695 -2.1337
 8326SOL     OW36436   0.459   4.183   6.140 -0.0817  0.2277  0.5962
 8326SOL    HW136437   0.430   4.095   6.115 -0.0275 -0.1162  1.7484
 8326SOL    HW236438   0.542   4.188   6.092  0.2944 -0.0941  1.2039
 8327SOL     OW36439   3.291   1.167   5.849  0.0965 -0.4491  0.0464
 8327SOL    HW136440   3.309   1.145   5.758  0.4914 -0.4467  0.1217
 8327SOL    HW236441   3.202   1.134   5.856 -0.0507 -0.5979 -2.4793
 8328SOL     OW36442   0.582   1.423   2.821 -0.3646 -0.1651  0.0791
 8328SOL    HW136443   0.648   1.366   2.781  0.3244  0.4342  0.3551
 8328SOL    HW236444   0.507   1.389   2.772 -0.0109 -0.5652 -0.1957
 8329SOL     OW36445   4.478   0.559   8.755 -0.2654 -0.2984  0.1102
 8329SOL    HW136446   4.512   0.568   8.844 -0.9384  1.4496  0.1910
 8329SOL    HW236447   4.407   0.623   8.742 -0.5685 -0.3598  1.4562
 8330SOL     OW36448   1.227   4.484   9.799  0.2912  0.2045  0.1232
 8330SOL    HW136449   1.262   4.436   9.874 -0.2934  0.7645  0.7532
 8330SOL    HW236450   1.142   4.445   9.780  0.9600 -1.8815  1.3721
 8331SOL     OW36451   2.205   1.347   6.682  0.2881 -0.9575 -0.0048
 8331SOL    HW136452   2.123   1.379   6.646 -0.0658 -0.7529  0.9696
 8331SOL    HW236453   2.179   1.288   6.753 -2.5518 -0.5025 -0.6784
 8332SOL     OW36454   3.959   2.533   0.080  0.9314  0.6551  0.0060
 8332SOL    HW136455   3.906   2.489   0.147  1.4361 -1.2772 -0.8596
 8332SOL    HW236456   4.008   2.459   0.044 -2.8097 -2.3291  1.1399
 8333SOL     OW36457   3.078   1.142   6.172  0.0743 -0.0786  0.5488
 8333SOL    HW136458   3.170   1.156   6.149 -0.0647  0.5518  0.3638
 8333SOL    HW236459   3.066   1.048   6.156 -0.9085 -0.2727  2.4220
 8334SOL     OW36460   2.939   1.002   3.303 -0.2040 -0.4690  0.8689
 8334SOL    HW136461   2.945   1.066   3.232 -2.9402 -0.0630  0.9770
 8334SOL    HW236462   3.016   0.947   3.289 -0.7946 -1.0093 -0.3591
 8335SOL     OW36463   0.708   2.342  17.187  0.0993  0.5824 -0.3005
 8335SOL    HW136464   0.648   2.289  17.240  1.4790 -0.7655 -0.0781
 8335SOL    HW236465   0.651   2.373  17.117  1.4048  1.5856 -0.9133
 8336SOL     OW36466   1.843   2.471   8.150  0.0549  0.3318 -0.0597
 8336SOL    HW136467   1.936   2.452   8.163  0.1347  1.5674  1.1198
 8336SOL    HW236468   1.814   2.389   8.189 -1.3725  0.4939 -0.7822
 8337SOL     OW36469   1.726   3.691   6.632  0.3337  0.0934 -0.2513
 8337SOL    HW136470   1.641   3.668   6.669 -0.5361  2.1027 -1.0515
 8337SOL    HW236471   1.770   3.606   6.642 -0.6905 -0.5154 -0.9217
 8338SOL     OW36472   4.059   1.708   4.783 -0.3439 -0.0516 -0.1148
 8338SOL    HW136473   4.049   1.613   4.792 -0.4782 -0.0925 -0.7020
 8338SOL    HW236474   3.969   1.724   4.755 -0.0926  0.5621 -0.5735
 8339SOL     OW36475   1.678   1.152  15.650  0.4009  0.5181 -0.4434
 8339SOL    HW136476   1.665   1.170  15.744 -1.1179 -1.8963 -0.2141
 8339SOL    HW236477   1.764   1.184  15.620  0.3768  2.7762  1.8233
 8340SOL     OW36478   3.247   2.492  14.689 -0.1826  0.2216  0.1795
 8340SOL    HW136479   3.309   2.421  14.673 -2.0137 -1.2813 -0.1303
 8340SOL    HW236480   3.209   2.496  14.602 -0.7802  2.4388  0.5375
 8341SOL     OW36481   1.705   4.029   1.784 -0.2553  0.3739  0.0935
 8341SOL    HW136482   1.748   3.970   1.845 -0.4825  0.1688  0.0513
 8341SOL    HW236483   1.678   3.970   1.714  2.8516 -2.0211  0.9346
 8342SOL     OW36484   4.492   3.615   7.782 -0.5267  0.1107  0.4136
 8342SOL    HW136485   4.398   3.611   7.764 -0.3295  1.4715 -0.9538
 8342SOL    HW236486   4.513   3.549   7.848  0.2604  0.3149  0.3766
 8343SOL     OW36487   0.985   1.482   6.029  0.1676  0.3628  0.2849
 8343SOL    HW136488   0.952   1.438   5.951  0.6917  0.3012  0.0988
 8343SOL    HW236489   1.053   1.421   6.058  0.5565  0.5706 -0.1969
 8344SOL     OW36490   1.882   3.745  11.675 -0.0408  0.5354  0.2668
 8344SOL    HW136491   1.920   3.728  11.761 -0.2613  1.9771  0.6543
 8344SOL    HW236492   1.966   3.733  11.630 -0.1822  1.9911 -0.3912
 8345SOL     OW36493   2.871   0.747   1.227 -0.7809  0.0368  0.2601
 8345SOL    HW136494   2.919   0.746   1.309 -1.3145  0.2138  0.5774
 8345SOL    HW236495   2.894   0.664   1.185 -2.3885  0.3269 -1.1951
 8346SOL     OW36496   3.356   1.725   8.648 -0.5155  0.2246  0.4297
 8346SOL    HW136497   3.306   1.647   8.670  1.2963 -1.0581  0.0651
 8346SOL    HW236498   3.444   1.691   8.666 -0.8474 -0.4075  0.8656
 8347SOL     OW36499   0.312   2.218   5.242 -0.2740 -0.3223 -0.2952
 8347SOL    HW136500   0.320   2.211   5.146 -0.7977 -0.1680 -0.3535
 8347SOL    HW236501   0.220   2.244   5.250 -0.4106 -0.7359 -0.5509
 8348SOL     OW36502   0.618   0.677   5.654 -0.1272  0.2913  0.1750
 8348SOL    HW136503   0.680   0.604   5.650 -0.8011 -0.3187  0.6743
 8348SOL    HW236504   0.536   0.635   5.681  0.7065 -2.3586 -1.3634
 8349SOL     OW36505   4.501   0.557   8.318  0.1905 -0.3128  0.4727
 8349SOL    HW136506   4.592   0.557   8.289  0.1917  0.8220  0.4902
 8349SOL    HW236507   4.500   0.641   8.364 -1.8558 -0.1844  0.1930
 8350SOL     OW36508   1.738   3.108  14.371 -0.8288 -0.5378 -0.1369
 8350SOL    HW136509   1.802   3.177  14.354 -1.3396  0.2196  1.0316
 8350SOL    HW236510   1.655   3.155  14.367 -0.6262  0.1486  3.5303
 8351SOL     OW36511   1.455   1.033   9.686 -0.5650  0.1000  0.0159
 8351SOL    HW136512   1.536   1.080   9.708 -0.2093 -0.6745  0.3360
 8351SOL    HW236513   1.493   0.962   9.635 -0.9448 -0.4942  0.5704
 8352SOL     OW36514   0.634   2.292   7.731 -0.2141 -0.5623 -0.0231
 8352SOL    HW136515   0.613   2.317   7.821 -1.5712 -0.4489 -0.3754
 8352SOL    HW236516   0.726   2.266   7.726 -0.1758 -0.8302  2.2387
 8353SOL     OW36517   1.478   1.782  17.202 -0.0128  0.0930  0.4293
 8353SOL    HW136518   1.550   1.733  17.164 -1.4868  0.0887 -2.3611
 8353SOL    HW236519   1.445   1.827  17.124 -0.5333 -1.2861 -0.1388
 8354SOL     OW36520   2.728   2.796  16.917  0.1072  0.1109  1.2322
 8354SOL    HW136521   2.773   2.877  16.939 -0.0690  0.6495 -0.4624
 8354SOL    HW236522   2.788   2.754  16.856  0.1100  2.4943 -0.3791
 8355SOL     OW36523   4.233   1.959   0.042 -0.0533  0.4741  0.0230
 8355SOL    HW136524   4.288   2.010   0.100 -0.5363  3.2298 -1.9031
 8355SOL    HW236525   4.194   1.903   0.108 -0.4972  1.5769  0.7012
 8356SOL     OW36526   2.971   0.506   4.377  0.0585 -0.2534  0.1105
 8356SOL    HW136527   3.066   0.509   4.360 -0.3205 -0.4799 -2.0580
 8356SOL    HW236528   2.963   0.515   4.472 -0.8311  1.8416 -0.1663
 8357SOL     OW36529   3.594   1.408   8.501 -0.2719 -0.5647  0.6474
 8357SOL    HW136530   3.605   1.498   8.533 -1.0289 -0.1206 -0.3687
 8357SOL    HW236531   3.541   1.412   8.422  0.5992  1.7625  0.1729
 8358SOL     OW36532   3.405   1.558   7.025 -0.0287 -0.1302  0.1102
 8358SOL    HW136533   3.411   1.651   7.003  1.3439 -0.3054 -0.2385
 8358SOL    HW236534   3.488   1.544   7.071  1.7094  1.8669 -2.3756
 8359SOL     OW36535   1.266   2.989   1.119 -0.0493 -0.2985  0.0221
 8359SOL    HW136536   1.181   3.002   1.161 -2.2686 -3.4258 -3.4543
 8359SOL    HW236537   1.250   2.905   1.077  2.9086 -1.1674  0.6496
 8360SOL     OW36538   2.749   3.814   5.055 -0.1271  0.0734  0.3530
 8360SOL    HW136539   2.673   3.764   5.025 -0.0112 -0.0078  0.1969
 8360SOL    HW236540   2.827   3.772   5.019 -0.8911  0.2092 -1.4760
 8361SOL     OW36541   3.604   1.897   7.768  0.2403  0.1043  0.5120
 8361SOL    HW136542   3.601   1.853   7.852  0.1945 -0.4283  0.2280
 8361SOL    HW236543   3.690   1.938   7.775  0.1846  0.2299  0.4781
 8362SOL     OW36544   3.465   3.130   5.129 -0.2358  0.4984 -0.1505
 8362SOL    HW136545   3.520   3.052   5.142 -3.6536 -2.1099 -1.3937
 8362SOL    HW236546   3.391   3.121   5.190  1.2468  1.7150  1.8259
 8363SOL     OW36547   1.074   2.112  17.405 -0.0664 -0.1896 -0.0961
 8363SOL    HW136548   1.140   2.059  17.451 -0.5666  1.6886  2.7690
 8363SOL    HW236549   1.045   2.044  17.345  0.2425 -0.6163  0.2307
 8364SOL     OW36550   3.427   2.540   3.345 -0.2896 -0.2887  0.5529
 8364SOL    HW136551   3.454   2.459   3.300  2.4090  1.5195 -1.0964
 8364SOL    HW236552   3.450   2.501   3.430  1.3104 -1.5272 -0.4499
 8365SOL     OW36553   2.665   4.546   7.001  0.0572 -0.1208 -0.2626
 8365SOL    HW136554   2.715   4.627   6.992  1.8471 -1.0601  1.1625
 8365SOL    HW236555   2.674   4.507   6.914 -1.4308 -1.2332  0.0790
 8366SOL     OW36556   0.504   1.850   8.100  1.1100  0.1314  0.2369
 8366SOL    HW136557   0.567   1.881   8.166  1.6546 -0.6838  0.1002
 8366SOL    HW236558   0.427   1.833   8.154  0.2074 -1.9142 -1.7115
 8367SOL     OW36559   3.746   4.387   4.470  0.0947  0.4648 -0.1874
 8367SOL    HW136560   3.784   4.301   4.451  0.1989  0.4243  0.1891
 8367SOL    HW236561   3.720   4.362   4.559 -0.6803 -0.1496 -0.5880
 8368SOL     OW36562   0.766   3.409   9.019  0.1684  0.4367 -0.0414
 8368SOL    HW136563   0.700   3.340   9.015 -0.6120  1.2235 -0.9547
 8368SOL    HW236564   0.842   3.365   9.056  2.1528  1.2093 -3.1789
 8369SOL     OW36565   2.637   3.215  10.806  0.3502  0.2542 -0.2792
 8369SOL    HW136566   2.553   3.212  10.853 -0.0648 -1.1421 -1.0788
 8369SOL    HW236567   2.701   3.194  10.874 -1.7974  1.0370  1.9705
 8370SOL     OW36568   2.316   4.624   7.606 -0.4295  0.4320  0.0067
 8370SOL    HW136569   2.263   4.554   7.567  0.6742 -0.7537  0.6807
 8370SOL    HW236570   2.393   4.631   7.550 -0.3751 -1.5084 -0.1568
 8371SOL     OW36571   0.366   2.642   3.861 -0.3273 -0.1879  0.3652
 8371SOL    HW136572   0.391   2.716   3.805  1.1744 -1.9487 -1.2895
 8371SOL    HW236573   0.425   2.656   3.936  1.0181 -1.2479 -0.5075
 8372SOL     OW36574   2.977   4.107   8.532 -0.5172  0.1243 -0.3958
 8372SOL    HW136575   3.050   4.063   8.489 -1.2534  0.2310 -1.7559
 8372SOL    HW236576   2.960   4.062   8.615 -0.4753 -1.2461 -1.1233
 8373SOL     OW36577   2.386   3.812   1.507 -0.0270  0.0797  0.1264
 8373SOL    HW136578   2.332   3.734   1.522 -0.6964  0.8089  1.5312
 8373SOL    HW236579   2.371   3.857   1.590  0.0333 -0.7952  0.6094
 8374SOL     OW36580   2.743   4.647   3.145  0.3762 -0.0097  0.2220
 8374SOL    HW136581   2.802   4.622   3.216  1.1099 -0.7181 -0.6368
 8374SOL    HW236582   2.658   4.630   3.186  0.9097 -2.3413  0.3929
 8375SOL     OW36583   4.134   2.411  17.592 -0.6876  0.4613  0.0135
 8375SOL    HW136584   4.102   2.469  17.523 -1.6605 -2.0075 -1.6093
 8375SOL    HW236585   4.111   2.321  17.571  0.3649  0.4142 -0.9548
 8376SOL     OW36586   4.696   2.269   2.371  0.3103 -0.4106  0.1049
 8376SOL    HW136587   0.059   2.301   2.349 -0.8420  2.0633 -0.9166
 8376SOL    HW236588   4.653   2.319   2.302  0.7604 -0.2545 -0.0625
 8377SOL     OW36589   3.489   4.453  17.370  0.5550  0.8381  0.8154
 8377SOL    HW136590   3.583   4.451  17.386  0.7818  1.3034 -0.4409
 8377SOL    HW236591   3.462   4.445  17.461  0.3930 -3.2674  0.3671
 8378SOL     OW36592   3.349   2.211   6.576 -0.6246  0.4732 -0.1166
 8378SOL    HW136593   3.254   2.211   6.573 -0.6814  0.0485  1.7569
 8378SOL    HW236594   3.363   2.303   6.556 -0.1970  0.8749  2.0732
 8379SOL     OW36595   4.057   3.054   7.290  0.8668  0.2032  0.3887
 8379SOL    HW136596   3.999   3.056   7.214  0.5630  1.0783  0.6409
 8379SOL    HW236597   4.125   3.000   7.250 -1.9330 -1.3174 -2.2849
 8380SOL     OW36598   4.298   4.131   3.493  0.4623  0.1780  0.0312
 8380SOL    HW136599   4.357   4.197   3.529  1.5908 -0.8670  0.0692
 8380SOL    HW236600   4.350   4.076   3.434 -2.6179  0.3035 -2.8391
 8381SOL     OW36601   1.666   3.272  10.247  0.4145  0.3186  0.0148
 8381SOL    HW136602   1.717   3.305  10.321 -1.2175  1.4962  0.6101
 8381SOL    HW236603   1.612   3.209  10.295  0.6551  1.0605  1.2559
 8382SOL     OW36604   0.807   1.361   6.434 -0.1143 -0.0809 -0.7248
 8382SOL    HW136605   0.875   1.427   6.448 -0.7134 -0.2037  2.6590
 8382SOL    HW236606   0.840   1.292   6.492 -0.0431 -1.5756 -2.5293
 8383SOL     OW36607   3.292   4.614   5.485 -0.2034  0.0270 -0.1850
 8383SOL    HW136608   3.374   4.663   5.473 -0.1001  0.0018  0.3908
 8383SOL    HW236609   3.227   4.674   5.520  0.6017  0.9135 -0.1999
 8384SOL     OW36610   2.640   0.056   8.318 -0.0410  0.9188  0.1061
 8384SOL    HW136611   2.713   4.719   8.305  0.1560  1.3830 -0.9825
 8384SOL    HW236612   2.674   0.142   8.341 -2.4279  0.9029  3.6074
 8385SOL     OW36613   3.354   3.402   5.846  0.4064 -0.7691  0.5696
 8385SOL    HW136614   3.400   3.485   5.833 -0.5474 -0.2566  0.5133
 8385SOL    HW236615   3.288   3.402   5.776 -2.0715 -0.6034  2.9181
 8386SOL     OW36616   1.718   0.409   8.163 -0.2469 -0.5238  0.2864
 8386SOL    HW136617   1.812   0.423   8.170 -0.2007 -0.6210 -0.1438
 8386SOL    HW236618   1.718   0.314   8.171  0.3863 -0.5553 -0.1118
 8387SOL     OW36619   3.726   0.123   1.623 -0.0035  0.3499 -0.1666
 8387SOL    HW136620   3.779   0.055   1.582 -0.3744 -0.0782  0.0654
 8387SOL    HW236621   3.678   0.061   1.678  0.2373 -1.0516 -1.5310
 8388SOL     OW36622   0.198   2.398   7.154 -0.2209  0.1261 -0.0154
 8388SOL    HW136623   0.227   2.391   7.245  0.2865 -0.0469 -0.1925
 8388SOL    HW236624   0.273   2.444   7.119 -1.0441  1.2268 -0.3329
 8389SOL     OW36625   0.939   4.643  11.517  0.3657 -0.1029  0.1893
 8389SOL    HW136626   0.908   0.000  11.477 -0.7992 -0.8055 -0.3341
 8389SOL    HW236627   0.946   4.579  11.447  1.1118  0.1539  0.0318
 8390SOL     OW36628   1.058   0.673   4.208  0.2834  0.3104  0.2280
 8390SOL    HW136629   1.004   0.726   4.267 -0.5921  1.1415 -1.3515
 8390SOL    HW236630   1.026   0.706   4.124 -2.9878 -0.6316  1.0972
 8391SOL     OW36631   3.242   3.860   4.157  0.0355  0.5193  0.3376
 8391SOL    HW136632   3.236   3.954   4.144  0.5849  0.0575 -3.3740
 8391SOL    HW236633   3.159   3.844   4.203 -0.8014 -0.8697 -1.6566
 8392SOL     OW36634   2.286   0.967   6.528  0.5220  0.1878  0.2339
 8392SOL    HW136635   2.372   0.923   6.522 -0.8499 -2.1862 -2.0414
 8392SOL    HW236636   2.275   0.990   6.436  0.5010 -2.8242 -0.5312
 8393SOL     OW36637   1.081   1.062   6.527  0.2787 -0.2289 -0.5668
 8393SOL    HW136638   1.174   1.059   6.547  0.0838 -0.3825  0.2915
 8393SOL    HW236639   1.078   1.089   6.435  0.8336 -2.0769 -1.1099
 8394SOL     OW36640   4.573   0.068   5.554  0.1004  0.0524  0.3393
 8394SOL    HW136641   4.488   0.105   5.577  0.6430  1.4393  0.1517
 8394SOL    HW236642   4.588   4.724   5.619 -0.1858  0.7587  1.1548
 8395SOL     OW36643   3.262   2.054   3.401 -0.4588  0.9211 -0.8182
 8395SOL    HW136644   3.301   1.993   3.339  1.3813  2.1345 -0.8312
 8395SOL    HW236645   3.171   2.041   3.372 -0.1510 -1.4388 -0.7400
 8396SOL     OW36646   0.696   1.368   3.330 -0.2256  0.2638  0.0641
 8396SOL    HW136647   0.668   1.432   3.396 -0.5941 -0.5439  0.6900
 8396SOL    HW236648   0.624   1.351   3.269  0.8031 -1.0939 -0.7742
 8397SOL     OW36649   4.489   2.609  15.161  0.2226  0.3721 -0.3424
 8397SOL    HW136650   4.438   2.592  15.240 -0.2188  1.9975 -0.2789
 8397SOL    HW236651   4.569   2.646  15.199  1.6207 -1.8104 -1.1596
 8398SOL     OW36652   0.137   2.248   2.075 -0.1172  0.0909  0.3067
 8398SOL    HW136653   0.110   2.339   2.065 -2.0717 -0.5109  0.1380
 8398SOL    HW236654   0.182   2.260   2.159  0.3017  1.9768 -0.1833
 8399SOL     OW36655   3.207   3.416   7.959  0.2550  0.1676 -0.7009
 8399SOL    HW136656   3.120   3.450   7.938  0.0165 -0.7835 -1.2590
 8399SOL    HW236657   3.223   3.467   8.038  2.7986 -2.4000  0.4523
 8400SOL     OW36658   4.129   3.643   2.029 -0.3824 -0.2294  0.1719
 8400SOL    HW136659   4.040   3.606   2.028 -0.8863  0.8881  2.6805
 8400SOL    HW236660   4.112   3.736   2.042  0.3218 -0.4661  2.6563
 8401SOL     OW36661   3.801   0.956  11.532  0.1855  0.4193 -0.0838
 8401SOL    HW136662   3.790   0.877  11.586 -0.9449  0.5570 -0.1057
 8401SOL    HW236663   3.720   0.964  11.481 -0.1178 -0.3482  0.2704
 8402SOL     OW36664   1.559   3.715   6.262  0.3477  0.2565 -0.5073
 8402SOL    HW136665   1.518   3.629   6.254 -2.3130  1.4109  0.6519
 8402SOL    HW236666   1.489   3.761   6.308  0.9714  1.3697 -0.6695
 8403SOL     OW36667   0.481   0.868   8.045  0.1971 -0.5970 -0.5830
 8403SOL    HW136668   0.498   0.958   8.071  0.2331 -1.1231  1.2549
 8403SOL    HW236669   0.455   0.831   8.130 -0.2262  0.9716 -0.0299
 8404SOL     OW36670   2.187   4.146   9.226  0.5368  0.1736 -0.1348
 8404SOL    HW136671   2.221   4.072   9.275 -0.4205  0.0013  0.2697
 8404SOL    HW236672   2.264   4.198   9.205  0.9984 -1.2428 -1.9703
 8405SOL     OW36673   0.533   3.174   4.201 -0.0534  0.0084  0.1880
 8405SOL    HW136674   0.504   3.137   4.117 -0.0649  1.1666 -0.3337
 8405SOL    HW236675   0.626   3.171   4.181 -0.4391  0.0115 -1.7005
 8406SOL     OW36676   0.410   3.155   3.891 -0.3200 -0.4536  0.2143
 8406SOL    HW136677   0.487   3.182   3.940 -2.6231 -0.4534  3.8549
 8406SOL    HW236678   0.444   3.183   3.806 -1.1785  0.0310  0.0218
 8407SOL     OW36679   1.593   2.335   6.723  0.2658 -0.4235 -0.5843
 8407SOL    HW136680   1.543   2.417   6.721 -0.2192 -0.6700  0.9179
 8407SOL    HW236681   1.569   2.297   6.808  1.0976  4.1676  1.7533
 8408SOL     OW36682   0.842   3.673  11.479  0.1814  0.1745  0.3486
 8408SOL    HW136683   0.915   3.624  11.443  0.0813  1.4611 -1.5929
 8408SOL    HW236684   0.786   3.689  11.403  1.7982  3.0031 -0.2356
 8409SOL     OW36685   0.548   1.728   9.373 -0.0679  0.2974  0.2066
 8409SOL    HW136686   0.592   1.775   9.302 -1.5997 -0.6899 -1.4154
 8409SOL    HW236687   0.560   1.789   9.446 -0.8415  1.5735 -0.7319
 8410SOL     OW36688   1.068   2.563   4.582 -0.6571  0.4409 -0.1388
 8410SOL    HW136689   1.163   2.563   4.576 -0.6568  1.0999 -0.1074
 8410SOL    HW236690   1.041   2.626   4.515 -2.3858 -0.1898 -0.0412
 8411SOL     OW36691   4.408   2.866   4.484 -0.8069  0.1394  0.0941
 8411SOL    HW136692   4.451   2.903   4.561 -0.3419 -1.5833  0.6575
 8411SOL    HW236693   4.432   2.774   4.494  1.1001  0.6557  0.3461
 8412SOL     OW36694   0.793   3.572  12.407  0.9301  0.2809 -0.9536
 8412SOL    HW136695   0.806   3.515  12.332 -1.1141  0.4764 -1.4655
 8412SOL    HW236696   0.717   3.618  12.372  0.2973  0.5557  0.7824
 8413SOL     OW36697   3.969   1.905   5.450 -0.0625 -0.0410  0.7383
 8413SOL    HW136698   3.977   1.999   5.465 -1.2860  0.0433  0.8350
 8413SOL    HW236699   3.882   1.883   5.482 -0.1661  1.5062  1.5334
 8414SOL     OW36700   1.222   3.142  17.472  0.1188  0.0103  0.1472
 8414SOL    HW136701   1.181   3.122  17.556 -2.4437  1.0486 -0.8436
 8414SOL    HW236702   1.189   3.232  17.469  0.0003 -0.0490 -0.3490
 8415SOL     OW36703   0.371   2.533  13.190  0.5454 -0.4830  0.6307
 8415SOL    HW136704   0.395   2.584  13.112 -2.9871  1.3565  0.7572
 8415SOL    HW236705   0.367   2.606  13.252  0.3389 -1.8822  2.2303
 8416SOL     OW36706   3.940   4.610   4.471 -0.3690 -0.4904  0.9392
 8416SOL    HW136707   3.873   4.556   4.429 -0.5449  0.1834  0.3582
 8416SOL    HW236708   4.010   4.579   4.413 -0.9649  1.4422 -0.8320
 8417SOL     OW36709   2.372   0.862   1.962 -0.3628 -0.0479 -0.4124
 8417SOL    HW136710   2.348   0.945   1.920 -2.8278 -1.6729 -2.1602
 8417SOL    HW236711   2.324   0.871   2.045  2.2489  0.1315  1.0829
 8418SOL     OW36712   0.796   2.460   0.437  0.1735  0.2099  0.3625
 8418SOL    HW136713   0.729   2.468   0.369 -0.4420 -0.9147  0.8228
 8418SOL    HW236714   0.746   2.399   0.492 -1.2387  0.2214 -0.9043
 8419SOL     OW36715   1.329   0.701   4.279  1.0151  0.1458  0.3213
 8419SOL    HW136716   1.241   0.683   4.244  0.8464  0.4934  0.5670
 8419SOL    HW236717   1.367   0.622   4.240 -1.1120 -0.9240  0.3959
 8420SOL     OW36718   4.172   4.579   8.265  0.0357  0.0144 -0.0572
 8420SOL    HW136719   4.167   4.668   8.298  1.2467  0.6867 -1.6833
 8420SOL    HW236720   4.214   4.533   8.338  1.7195  0.0597 -1.0000
 8421SOL     OW36721   1.155   3.911   9.039  0.0107  0.0043 -0.2062
 8421SOL    HW136722   1.123   4.000   9.027  0.9136  0.0729 -2.1717
 8421SOL    HW236723   1.086   3.859   8.998  0.8165 -2.0809  1.0502
 8422SOL     OW36724   2.468   0.667  12.961 -0.1560  0.0098  0.4756
 8422SOL    HW136725   2.489   0.587  12.912 -1.9262 -0.0050 -0.2504
 8422SOL    HW236726   2.456   0.636  13.051 -0.2365  0.3047  0.5668
 8423SOL     OW36727   2.624   0.209  10.705 -0.5401  0.0122 -0.1899
 8423SOL    HW136728   2.573   0.248  10.634 -0.7959 -1.1723 -0.6537
 8423SOL    HW236729   2.628   0.268  10.781 -0.5292 -1.5485  1.0033
 8424SOL     OW36730   2.118   2.674   1.050  0.3904 -0.7281  0.3527
 8424SOL    HW136731   2.197   2.704   1.095 -1.6542  2.8137  1.5393
 8424SOL    HW236732   2.140   2.700   0.960 -1.8431  0.1857  0.0809
 8425SOL     OW36733   2.181   0.887   0.213 -0.4051  0.1686  0.7353
 8425SOL    HW136734   2.144   0.963   0.257 -0.4298  0.0382  0.9415
 8425SOL    HW236735   2.208   0.827   0.283  2.1294 -0.0039 -0.4135
 8426SOL     OW36736   0.696   1.930   7.003  0.4160  0.3050  0.5482
 8426SOL    HW136737   0.697   1.869   6.929 -3.1078  2.3257 -1.1598
 8426SOL    HW236738   0.770   1.900   7.055  0.9419  0.3241 -0.1820
 8427SOL     OW36739   2.939   4.484   5.167 -0.5303 -0.2863 -0.1830
 8427SOL    HW136740   3.020   4.444   5.197  1.0935  1.3670 -2.3062
 8427SOL    HW236741   2.971   4.574   5.172 -0.0701 -0.4635  0.0109
 8428SOL     OW36742   1.739   4.020   9.329 -0.3827  0.3149  0.0837
 8428SOL    HW136743   1.660   4.052   9.286 -0.0576  3.2214  1.6551
 8428SOL    HW236744   1.808   4.074   9.289 -1.9884  2.2445 -0.0555
 8429SOL     OW36745   2.234   1.592   8.406  0.5649  0.6707 -0.3568
 8429SOL    HW136746   2.224   1.516   8.348 -1.1016  3.3455 -3.5140
 8429SOL    HW236747   2.259   1.671   8.358 -0.6012  0.9765 -0.4562
 8430SOL     OW36748   3.367   0.695   0.350 -0.1915  0.3319  0.2594
 8430SOL    HW136749   3.284   0.676   0.393 -1.1378  1.5763 -0.9954
 8430SOL    HW236750   3.379   0.619   0.292 -2.5055 -0.4782  0.8304
 8431SOL     OW36751   1.133   1.269  16.501 -0.0755  0.1932 -0.0733
 8431SOL    HW136752   1.193   1.303  16.434 -0.8147  1.2353 -0.2032
 8431SOL    HW236753   1.191   1.262  16.577 -0.8947 -0.5937  0.4714
 8432SOL     OW36754   4.309   1.647   2.686  0.4304  0.2830  0.5654
 8432SOL    HW136755   4.309   1.682   2.596 -0.1654  0.4382  0.6254
 8432SOL    HW236756   4.262   1.564   2.680  0.7394  0.2891 -1.9677
 8433SOL     OW36757   1.793   0.078  15.196  0.1961  0.4178  0.1464
 8433SOL    HW136758   1.785   4.709  15.180  0.9189  0.3772  0.0215
 8433SOL    HW236759   1.828   0.103  15.110  0.0469 -0.3883 -0.1420
 8434SOL     OW36760   1.239   1.286   5.510  0.6745  0.1299 -0.4290
 8434SOL    HW136761   1.192   1.313   5.589  0.9899  0.4846 -0.3677
 8434SOL    HW236762   1.301   1.357   5.494  1.4040 -0.4564 -0.1969
 8435SOL     OW36763   1.986   1.183   5.768  0.1039  0.7535 -0.2321
 8435SOL    HW136764   1.991   1.097   5.810  1.1501  0.0290 -1.8556
 8435SOL    HW236765   1.933   1.163   5.691  0.7920  2.2851 -1.1213
 8436SOL     OW36766   2.723   2.178   6.363  0.2007  0.1922 -0.2153
 8436SOL    HW136767   2.707   2.250   6.424 -0.4810  0.9510 -1.3111
 8436SOL    HW236768   2.810   2.207   6.335  0.9014  0.4376  2.2173
 8437SOL     OW36769   3.606   3.428   9.142  0.0086  0.3708  0.1990
 8437SOL    HW136770   3.547   3.482   9.195  0.3516 -0.1517  1.1318
 8437SOL    HW236771   3.655   3.384   9.212 -2.1183  0.6987  1.9194
 8438SOL     OW36772   3.309   3.072  17.166  0.2567 -0.5941  0.0383
 8438SOL    HW136773   3.372   3.032  17.105  0.5493 -0.7200  0.4253
 8438SOL    HW236774   3.360   3.150  17.184  0.4192 -1.0160  1.4045
 8439SOL     OW36775   3.079   0.697   8.873  0.0697  0.2958  0.7208
 8439SOL    HW136776   3.151   0.667   8.818 -0.8527 -3.4002  1.5535
 8439SOL    HW236777   3.117   0.683   8.960  2.8650 -1.2876 -0.7756
 8440SOL     OW36778   1.146   2.489   5.772  0.0082 -0.6581  0.5035
 8440SOL    HW136779   1.229   2.463   5.733 -0.8406 -1.8262 -0.5466
 8440SOL    HW236780   1.132   2.554   5.704  1.1354 -1.2865 -0.3210
 8441SOL     OW36781   4.678   1.306   1.468 -0.3259  0.3386  0.2557
 8441SOL    HW136782   0.048   1.319   1.457  0.1319 -2.2987  1.1343
 8441SOL    HW236783   4.659   1.241   1.400  1.5729 -1.3950  1.4011
 8442SOL     OW36784   1.732   3.247   1.362  0.1809  0.0844  0.4775
 8442SOL    HW136785   1.735   3.184   1.434 -1.3572 -3.8814 -2.9443
 8442SOL    HW236786   1.800   3.212   1.304 -0.3303 -1.2048  0.6479
 8443SOL     OW36787   4.180   2.348   7.245  0.1657  0.0387 -0.3481
 8443SOL    HW136788   4.255   2.368   7.302  1.9678 -2.0422 -2.0240
 8443SOL    HW236789   4.209   2.263   7.214 -0.7501 -0.8448  1.2337
 8444SOL     OW36790   0.286   1.136  15.119 -0.1501  0.1439  0.6709
 8444SOL    HW136791   0.252   1.225  15.113 -1.7243 -0.6042 -1.8805
 8444SOL    HW236792   0.202   1.090  15.117 -0.1525  0.2250 -1.3658
 8445SOL     OW36793   0.978   4.654  10.348  0.1881  0.1411  0.4849
 8445SOL    HW136794   1.073   4.649  10.358  0.2608  0.1349 -0.2280
 8445SOL    HW236795   0.971   4.628  10.256  0.7657 -1.0684  0.7747
 8446SOL     OW36796   1.262   4.335   8.863  0.4763  0.2692  0.5871
 8446SOL    HW136797   1.201   4.390   8.913 -0.4894 -0.8977  0.6775
 8446SOL    HW236798   1.198   4.275   8.824  0.1097 -0.9590  3.0611
 8447SOL     OW36799   2.957   2.850   0.627  0.5308 -0.0660  0.3411
 8447SOL    HW136800   2.958   2.845   0.723  1.3649  1.3824  0.4050
 8447SOL    HW236801   3.048   2.821   0.618  0.9065  1.3019 -0.1604
 8448SOL     OW36802   2.752   3.504  15.857  0.6671  0.6219  0.5337
 8448SOL    HW136803   2.759   3.440  15.927 -1.4458 -0.7151 -0.4934
 8448SOL    HW236804   2.839   3.494  15.817  0.0993  1.0603 -0.8329
 8449SOL     OW36805   3.122   0.233   0.732 -0.4686  0.4573  0.5411
 8449SOL    HW136806   3.041   0.184   0.720 -1.0665  1.0652  2.0532
 8449SOL    HW236807   3.193   0.168   0.731 -1.4194 -0.5535 -1.5803
 8450SOL     OW36808   0.096   3.212  14.206 -0.0696  0.0301  0.4059
 8450SOL    HW136809   0.105   3.251  14.119  3.6228  0.3892  0.9420
 8450SOL    HW236810   0.173   3.156  14.214  0.6075  1.3171  3.0362
 8451SOL     OW36811   3.713   0.235   8.859 -0.0667  0.6219 -0.2379
 8451SOL    HW136812   3.694   0.325   8.883  2.9045  1.7808 -2.4058
 8451SOL    HW236813   3.715   0.232   8.763 -0.4728 -1.8915 -0.1915
 8452SOL     OW36814   0.998   0.766   5.737 -0.4946 -0.2573  0.0186
 8452SOL    HW136815   0.915   0.749   5.782 -1.4024  0.9069 -1.2177
 8452SOL    HW236816   1.001   0.707   5.661 -2.4518  0.3462 -0.5164
 8453SOL     OW36817   3.986   3.203   3.035  0.4406 -0.1777 -0.0130
 8453SOL    HW136818   3.910   3.181   3.088  0.7189 -0.2157  0.3640
 8453SOL    HW236819   4.002   3.112   3.006  0.6848  0.5835 -2.3072
 8454SOL     OW36820   4.624   4.380  13.537 -0.4712 -0.4586 -0.6596
 8454SOL    HW136821   4.675   4.355  13.614  0.2625  2.1447 -0.3239
 8454SOL    HW236822   4.678   4.347  13.465  0.3210  0.7393 -0.5976
 8455SOL     OW36823   2.379   2.293   9.072 -0.0914  0.4820  0.0486
 8455SOL    HW136824   2.355   2.228   9.137  0.5934  1.7006  1.5263
 8455SOL    HW236825   2.436   2.347   9.127 -0.8453  0.0463  1.2719
 8456SOL     OW36826   0.724   0.395   7.580  0.0850  0.6081 -0.2609
 8456SOL    HW136827   0.776   0.399   7.661  3.4668 -0.7561 -2.4047
 8456SOL    HW236828   0.777   0.428   7.508 -0.9923  0.9608 -0.9011
 8457SOL     OW36829   0.651   1.403   7.072  0.1998 -0.2540  0.5503
 8457SOL    HW136830   0.572   1.454   7.057  0.1205 -0.2222  1.0625
 8457SOL    HW236831   0.622   1.312   7.069  2.8965 -1.1225  0.8965
 8458SOL     OW36832   3.767   2.065   6.049 -0.5202  0.2994 -0.0657
 8458SOL    HW136833   3.862   2.065   6.047 -0.5880 -0.4854 -3.0576
 8458SOL    HW236834   3.733   2.143   6.005  1.1852  0.3021 -1.3791
 8459SOL     OW36835   2.108   4.023   1.973 -0.2937  0.0875  0.1821
 8459SOL    HW136836   2.075   4.106   1.938  2.3996  1.2654  0.4417
 8459SOL    HW236837   2.176   3.997   1.912 -2.1053 -1.6946 -1.0612
 8460SOL     OW36838   4.680   3.242   5.752  0.1756 -0.0082  0.0352
 8460SOL    HW136839   0.030   3.280   5.799  0.1632 -1.3548  1.1641
 8460SOL    HW236840   4.676   3.157   5.796 -1.6022  0.2038  0.2778
 8461SOL     OW36841   3.749   3.050   2.494 -0.2832  0.2000 -0.0713
 8461SOL    HW136842   3.809   2.991   2.539  0.5444 -0.1106 -1.6086
 8461SOL    HW236843   3.686   3.061   2.566 -0.6142  2.0991 -0.6400
 8462SOL     OW36844   4.540   2.480   9.858  0.0840 -0.0310  0.4153
 8462SOL    HW136845   4.517   2.565   9.897 -1.2102  0.2217 -0.8847
 8462SOL    HW236846   4.534   2.494   9.763 -2.2890  2.7213  0.9623
 8463SOL     OW36847   1.977   3.378   3.094  0.3279 -0.1744  0.0541
 8463SOL    HW136848   2.019   3.292   3.100  1.3435  0.3729  0.8191
 8463SOL    HW236849   1.982   3.390   2.999  1.2930 -0.2186  0.0975
 8464SOL     OW36850   4.458   3.692  15.874 -0.3021 -0.1493 -0.3184
 8464SOL    HW136851   4.531   3.694  15.936  2.1537 -1.3804 -3.1389
 8464SOL    HW236852   4.457   3.781  15.837  1.6013 -0.4519 -1.1367
 8465SOL     OW36853   1.662   3.035   9.648 -0.3325  0.6803 -0.3381
 8465SOL    HW136854   1.593   3.037   9.581 -1.2455  0.1532  0.5889
 8465SOL    HW236855   1.675   3.127   9.670 -2.1135  0.8621 -0.0283
 8466SOL     OW36856   0.906   2.436   0.706  0.2849  0.9801  0.1775
 8466SOL    HW136857   0.854   2.465   0.631  0.2641  0.1921 -0.1078
 8466SOL    HW236858   0.904   2.343   0.685 -0.0917  1.2206 -0.8793
 8467SOL     OW36859   2.624   0.580   4.520 -0.2443 -0.1125 -0.1634
 8467SOL    HW136860   2.632   0.550   4.430 -0.1444  1.1883 -0.5834
 8467SOL    HW236861   2.716   0.596   4.544  0.1401 -1.5176 -0.7017
 8468SOL     OW36862   3.004   2.059   8.164 -0.1174  0.2804 -0.7764
 8468SOL    HW136863   2.960   1.992   8.112 -1.8888  0.4057  0.5553
 8468SOL    HW236864   2.972   2.042   8.253  0.5597  0.4390 -0.4964
 8469SOL     OW36865   4.225   3.062  12.030 -0.0778  0.4029 -0.1262
 8469SOL    HW136866   4.311   3.103  12.040 -0.5529  1.3341  0.2004
 8469SOL    HW236867   4.228   2.992  12.094 -0.7255 -0.0322 -0.5753
 8470SOL     OW36868   2.234   0.696   6.984 -0.2675 -0.4749 -0.0409
 8470SOL    HW136869   2.263   0.779   6.948 -3.1297  0.2529 -0.6916
 8470SOL    HW236870   2.239   0.639   6.907  0.5294  0.6143 -0.7968
 8471SOL     OW36871   2.017   4.122   7.798  0.0941  0.5287 -0.4559
 8471SOL    HW136872   1.997   4.039   7.840  2.3040  0.4248  0.3581
 8471SOL    HW236873   2.040   4.167   7.879  0.7886 -2.4038  0.9628
 8472SOL     OW36874   0.167   3.869   6.306  0.4584  0.6092 -0.0546
 8472SOL    HW136875   0.184   3.850   6.398 -0.1366 -2.1542 -0.5222
 8472SOL    HW236876   0.073   3.853   6.300  0.7318 -0.6460 -0.8272
 8473SOL     OW36877   2.499   0.493   7.866  0.3093  0.0626 -0.3048
 8473SOL    HW136878   2.453   0.571   7.897  0.7946 -0.0300  0.6412
 8473SOL    HW236879   2.451   0.459   7.791  0.5869 -0.9724 -0.0088
 8474SOL     OW36880   4.705   1.164   8.013 -0.2308  0.2976  0.4436
 8474SOL    HW136881   0.064   1.192   7.975 -1.6801  1.0321 -2.1910
 8474SOL    HW236882   4.653   1.242   7.995  0.8138  0.9016  0.0234
 8475SOL     OW36883   1.867   0.114  16.705  0.5345  0.4923 -1.0211
 8475SOL    HW136884   1.897   0.033  16.747  2.4003  0.3078 -2.7216
 8475SOL    HW236885   1.780   0.130  16.742  1.3168  1.1735  0.5196
 8476SOL     OW36886   0.477   2.420   4.239  0.2398 -0.0438  0.0124
 8476SOL    HW136887   0.453   2.425   4.146 -2.4433 -1.1655  0.6499
 8476SOL    HW236888   0.449   2.505   4.273 -0.7902 -0.4902  0.2856
 8477SOL     OW36889   1.377   0.604   2.159 -0.2356  0.8360 -0.1925
 8477SOL    HW136890   1.308   0.580   2.097  0.0532  1.1054 -0.6193
 8477SOL    HW236891   1.365   0.542   2.231 -0.2201 -0.2413 -1.1217
 8478SOL     OW36892   0.162   3.978   3.921  0.1138 -0.3525 -0.0307
 8478SOL    HW136893   0.119   4.044   3.976 -0.5871  0.4782 -1.5527
 8478SOL    HW236894   0.237   4.033   3.897  0.0956  0.6181  2.1433
 8479SOL     OW36895   1.316   4.418   5.080  0.0516 -0.3318 -0.0378
 8479SOL    HW136896   1.280   4.425   4.992  2.7936  0.0371 -1.1182
 8479SOL    HW236897   1.292   4.500   5.123  0.6290 -1.7775  3.0808
 8480SOL     OW36898   0.296   1.826   7.468  0.3389 -0.7778  0.2236
 8480SOL    HW136899   0.249   1.908   7.450  2.8264  0.4059 -0.8858
 8480SOL    HW236900   0.232   1.756   7.457 -0.8926  0.5581 -1.1448
 8481SOL     OW36901   2.386   2.440  12.348 -0.8540  0.7576  0.3146
 8481SOL    HW136902   2.372   2.431  12.443  2.3494 -0.4592  0.6669
 8481SOL    HW236903   2.475   2.472  12.338 -0.3790 -0.1755  1.5144
 8482SOL     OW36904   1.558   1.965   3.422 -0.1676  0.6284 -0.0797
 8482SOL    HW136905   1.481   1.912   3.442  2.9194 -2.2297  4.2515
 8482SOL    HW236906   1.555   1.959   3.326 -1.6572 -1.0746  0.0887
 8483SOL     OW36907   4.183   2.227   1.702  0.1319  0.4020  0.9724
 8483SOL    HW136908   4.095   2.243   1.736 -0.3169  0.1494 -0.0727
 8483SOL    HW236909   4.168   2.150   1.645  0.3004  0.8597  0.3135
 8484SOL     OW36910   0.796   3.520   5.359  0.8210 -0.1587  0.1599
 8484SOL    HW136911   0.882   3.527   5.319  0.4643 -1.1772 -0.7947
 8484SOL    HW236912   0.808   3.513   5.453  0.2018  0.2148  0.2681
 8485SOL     OW36913   2.556   3.335  16.589  0.3401 -0.3612 -0.3443
 8485SOL    HW136914   2.467   3.313  16.562 -0.8276  0.2856  3.0643
 8485SOL    HW236915   2.548   3.317  16.682  0.7631 -0.9517 -0.4245
 8486SOL     OW36916   3.807   1.211   4.503  0.3808  0.4857 -0.0769
 8486SOL    HW136917   3.817   1.162   4.422 -0.0300  0.8609 -0.3551
 8486SOL    HW236918   3.891   1.192   4.544  0.4942 -1.7400 -1.3181
 8487SOL     OW36919   1.740   0.314   6.506  0.3775 -0.2948 -0.6693
 8487SOL    HW136920   1.684   0.327   6.582  0.9165  1.7939 -0.6098
 8487SOL    HW236921   1.774   0.225   6.519  0.4677 -0.1504  0.1260
 8488SOL     OW36922   2.244   2.310   2.768  0.3413  0.4657 -0.4295
 8488SOL    HW136923   2.248   2.223   2.809  0.1413  0.7581  0.2102
 8488SOL    HW236924   2.289   2.290   2.686  0.6691 -0.7312  0.0441
 8489SOL     OW36925   3.398   0.911   7.312  0.3844  0.3410 -0.4586
 8489SOL    HW136926   3.477   0.899   7.366  1.0037 -1.7532 -1.8670
 8489SOL    HW236927   3.335   0.893   7.382 -1.3493 -0.2941 -2.1840
 8490SOL     OW36928   3.616   0.590   4.056 -0.1588  0.2033  0.1688
 8490SOL    HW136929   3.703   0.578   4.017  0.5421 -1.5879  2.3232
 8490SOL    HW236930   3.598   0.681   4.033 -0.6834 -0.3292 -1.5011
 8491SOL     OW36931   1.574   1.320   5.096  0.6610 -0.0001 -0.0928
 8491SOL    HW136932   1.521   1.280   5.027 -0.2859  0.2494  0.4963
 8491SOL    HW236933   1.552   1.267   5.172  2.0681 -0.0257  0.2907
 8492SOL     OW36934   4.247   2.368   5.540  0.0494 -0.1935  0.0904
 8492SOL    HW136935   4.256   2.463   5.541 -3.1145  0.1132 -0.1855
 8492SOL    HW236936   4.281   2.356   5.451  1.4683 -0.1661  0.6402
 8493SOL     OW36937   1.229   1.691   6.287  0.0619 -0.2309 -0.9679
 8493SOL    HW136938   1.232   1.766   6.228  1.8013  0.9474  0.6296
 8493SOL    HW236939   1.293   1.715   6.353  0.0601  1.2626 -1.5127
 8494SOL     OW36940   1.502   1.751   2.759  0.4179 -0.4262  0.1254
 8494SOL    HW136941   1.420   1.797   2.775  0.7054  0.4233 -0.8253
 8494SOL    HW236942   1.484   1.676   2.815 -1.9181 -0.4320 -0.6677
 8495SOL     OW36943   0.640   1.273   8.884  0.0977  0.1197 -0.1555
 8495SOL    HW136944   0.678   1.220   8.954  0.6495 -0.0273 -0.5736
 8495SOL    HW236945   0.611   1.348   8.937  0.8826 -0.5826  1.2766
 8496SOL     OW36946   1.563   3.808   0.824 -0.1203 -0.3670  0.0190
 8496SOL    HW136947   1.568   3.800   0.729  1.6183  0.1856  0.0752
 8496SOL    HW236948   1.485   3.754   0.840  1.2344 -2.8031 -1.6450
 8497SOL     OW36949   3.094   3.132   3.808  0.4556 -0.0151  0.1455
 8497SOL    HW136950   3.099   3.120   3.903 -0.9757  0.1466  0.2337
 8497SOL    HW236951   3.065   3.043   3.792 -0.6403  0.5950 -1.2443
 8498SOL     OW36952   0.314   3.337   4.207  0.3050 -0.3301  0.7445
 8498SOL    HW136953   0.302   3.348   4.302 -0.9664  0.0378  0.5542
 8498SOL    HW236954   0.389   3.279   4.199  0.4228 -0.3254  1.7521
 8499SOL     OW36955   4.295   3.780   2.702  0.7270 -0.6544  0.3902
 8499SOL    HW136956   4.284   3.729   2.782  2.6562 -0.3045  0.8693
 8499SOL    HW236957   4.272   3.719   2.631 -0.4008 -0.6209  0.7276
 8500SOL     OW36958   4.496   4.207  10.788  0.2024  0.4210  0.5796
 8500SOL    HW136959   4.419   4.225  10.734  0.5450 -1.6903 -0.5992
 8500SOL    HW236960   4.479   4.267  10.860 -0.0351 -0.1831  1.0298
 8501SOL     OW36961   1.445   4.000   8.928 -0.6046  0.1920  0.3896
 8501SOL    HW136962   1.415   3.911   8.945  0.5689 -0.0964  0.9362
 8501SOL    HW236963   1.475   4.031   9.013 -1.5827 -0.1345  0.8548
 8502SOL     OW36964   0.186   1.100   4.181 -0.6645  0.8679  0.3926
 8502SOL    HW136965   0.203   1.063   4.268  0.5473  0.3612 -0.0554
 8502SOL    HW236966   0.267   1.148   4.164  0.3461 -0.2916  1.8981
 8503SOL     OW36967   1.415   3.455   6.298  0.0230 -0.5910  0.1439
 8503SOL    HW136968   1.361   3.469   6.375  1.2649  2.6889  0.3919
 8503SOL    HW236969   1.403   3.360   6.293  3.1735 -0.9040 -1.3085
 8504SOL     OW36970   2.699   0.983   6.656 -0.6070  0.0731  0.1453
 8504SOL    HW136971   2.741   1.055   6.701  1.6010 -1.9798  1.3802
 8504SOL    HW236972   2.654   0.952   6.734 -0.2887  1.0757  0.7217
 8505SOL     OW36973   0.235   3.021   6.564  0.1572 -0.1618  0.0038
 8505SOL    HW136974   0.195   2.998   6.648 -1.4454 -0.2451 -0.7787
 8505SOL    HW236975   0.174   2.975   6.506  0.3710  0.8322 -1.0124
 8506SOL     OW36976   2.867   0.748   2.637 -0.2447 -0.0741  0.5233
 8506SOL    HW136977   2.956   0.714   2.630 -0.6697 -0.9960 -0.4383
 8506SOL    HW236978   2.834   0.729   2.549  2.4930 -0.7604 -0.3240
 8507SOL     OW36979   4.344   3.784   6.565 -0.7973 -0.6234 -0.1734
 8507SOL    HW136980   4.288   3.798   6.641  0.0766 -0.9409  0.5369
 8507SOL    HW236981   4.292   3.724   6.511  1.5176 -2.6370 -0.1966
 8508SOL     OW36982   1.363   1.652   8.551  0.3139 -0.3765 -0.2586
 8508SOL    HW136983   1.360   1.746   8.534 -2.0081 -0.5943 -0.9839
 8508SOL    HW236984   1.393   1.617   8.467 -2.7310 -1.1171 -1.0405
 8509SOL     OW36985   0.965   2.106   3.940  0.3283  0.3189  0.2637
 8509SOL    HW136986   0.915   2.140   3.865 -0.3248 -0.3901  0.3776
 8509SOL    HW236987   0.897   2.068   3.996  0.0384  1.1699  0.4955
 8510SOL     OW36988   1.768   3.800   1.939  0.2487 -0.0218  0.1986
 8510SOL    HW136989   1.757   3.708   1.917  0.1187  0.5059 -1.9618
 8510SOL    HW236990   1.855   3.800   1.980  0.3555  0.0389 -0.0264
 8511SOL     OW36991   4.100   1.049   4.440  0.2875  0.3543 -0.0858
 8511SOL    HW136992   4.074   1.104   4.514 -1.1451 -1.4512  0.7538
 8511SOL    HW236993   4.193   1.036   4.456 -0.4500 -0.1720  3.6962
 8512SOL     OW36994   2.039   4.450   6.590  0.1343  0.0779  0.3937
 8512SOL    HW136995   2.112   4.474   6.532  0.6436  0.5981  1.2463
 8512SOL    HW236996   2.063   4.509   6.662  2.1686 -1.7128  1.1821
 8513SOL     OW36997   4.002   4.476   8.838  0.3855  0.0746 -0.0971
 8513SOL    HW136998   3.932   4.541   8.830 -0.8089 -0.8543  2.9338
 8513SOL    HW236999   4.033   4.505   8.924  1.2767 -0.9177 -0.0917
 8514SOL     OW37000   0.980   3.435  15.742 -0.4572  0.1790  0.1880
 8514SOL    HW137001   0.910   3.420  15.806 -2.0729  2.6851 -0.9862
 8514SOL    HW237002   0.995   3.530  15.746  1.0138 -0.1586  3.1023
 8515SOL     OW37003   1.310   3.698   3.833  0.1381  0.5061  0.8022
 8515SOL    HW137004   1.270   3.731   3.752  0.3678  1.9718  1.2921
 8515SOL    HW237005   1.290   3.605   3.820  4.0268 -0.0010 -1.6500
 8516SOL     OW37006   4.218   1.463   1.977 -0.2475 -0.6847  0.0070
 8516SOL    HW137007   4.147   1.398   1.976 -0.1678 -0.7750  0.3120
 8516SOL    HW237008   4.292   1.403   1.966  2.0350  1.9674  0.9295
 8517SOL     OW37009   0.838   3.388   2.827 -0.5224 -0.3657 -0.5895
 8517SOL    HW137010   0.831   3.367   2.734  0.0767  0.3157 -0.7847
 8517SOL    HW237011   0.745   3.386   2.851  0.0127 -0.0771  1.4713
 8518SOL     OW37012   1.653   0.271  13.657 -0.2460  0.0298  0.5297
 8518SOL    HW137013   1.566   0.296  13.689  0.3899  2.1772  0.5403
 8518SOL    HW237014   1.694   0.261  13.743  0.8165  2.1462  0.2590
 8519SOL     OW37015   0.082   3.346  14.440 -0.1463 -0.4429  0.1732
 8519SOL    HW137016   0.066   3.314  14.352 -0.5972  0.5057 -0.0848
 8519SOL    HW237017   0.152   3.407  14.419 -1.7328  1.1829 -0.3658
 8520SOL     OW37018   3.990   0.092   6.571 -0.5402  0.3607  0.1333
 8520SOL    HW137019   3.925   0.158   6.596 -0.8910  0.4370 -0.9997
 8520SOL    HW237020   4.032   0.136   6.497  1.5693 -0.5936  0.7609
 8521SOL     OW37021   2.526   2.609   3.271 -0.1338  0.3254 -0.1761
 8521SOL    HW137022   2.464   2.627   3.200 -1.2523 -0.6458  0.5539
 8521SOL    HW237023   2.472   2.611   3.351 -1.4065 -2.7869 -0.9584
 8522SOL     OW37024   0.103   2.504   2.065 -0.2320  0.2068 -0.6773
 8522SOL    HW137025   0.108   2.596   2.037  0.9970  1.0666  2.3151
 8522SOL    HW237026   0.016   2.506   2.103  0.1515  0.5325  0.1873
 8523SOL     OW37027   0.737   2.168   3.775 -0.2289  0.3196 -0.4456
 8523SOL    HW137028   0.797   2.146   3.704  0.4742 -0.2116  0.3029
 8523SOL    HW237029   0.723   2.261   3.760 -0.2905  0.4749  0.5469
 8524SOL     OW37030   2.430   4.660  12.579 -0.2979 -0.6574  0.7742
 8524SOL    HW137031   2.395   4.683  12.493  1.2651 -0.9831  0.0573
 8524SOL    HW237032   2.469   4.579  12.547 -0.6723 -0.7376  0.5188
 8525SOL     OW37033   2.859   0.068   9.527  0.3642 -0.1515  0.0289
 8525SOL    HW137034   2.934   0.109   9.485  2.1176  0.0073  3.2887
 8525SOL    HW237035   2.897   0.055   9.614  2.5056 -1.9938 -1.2048
 8526SOL     OW37036   0.382   1.723  14.844  0.5813  0.3455 -0.0170
 8526SOL    HW137037   0.374   1.629  14.827  2.1163  0.2042  0.0736
 8526SOL    HW237038   0.413   1.726  14.934  1.6794  0.6815 -0.4127
 8527SOL     OW37039   3.149   0.409   1.477  0.0464 -0.3799 -0.0161
 8527SOL    HW137040   3.108   0.481   1.525  1.0131 -0.1250  0.4415
 8527SOL    HW237041   3.240   0.436   1.486  0.1543 -0.8805  0.4402
 8528SOL     OW37042   0.147   2.394   8.601 -0.5867 -0.5406  0.2203
 8528SOL    HW137043   0.092   2.456   8.553 -0.4295  1.2662  2.3819
 8528SOL    HW237044   0.138   2.321   8.539 -2.6852  1.3021 -1.6557
 8529SOL     OW37045   0.988   4.145   7.403  0.0554  0.2225 -0.1141
 8529SOL    HW137046   1.011   4.170   7.493 -0.2050 -4.1721  1.1521
 8529SOL    HW237047   0.979   4.053   7.377 -0.7169  0.3048 -0.1296
 8530SOL     OW37048   0.918   4.283   3.679 -0.6154 -0.1644  0.1599
 8530SOL    HW137049   0.862   4.276   3.756 -0.5466 -0.6310  0.1684
 8530SOL    HW237050   0.959   4.197   3.679  0.5006  0.3584 -1.5579
 8531SOL     OW37051   1.364   0.200  17.078  0.0788 -0.2750 -0.4239
 8531SOL    HW137052   1.378   0.111  17.045  2.0469 -0.6918  1.5298
 8531SOL    HW237053   1.401   0.254  17.008  2.6574  1.6720  2.4254
 8532SOL     OW37054   2.279   0.058   6.560 -0.0148 -0.4912 -1.3056
 8532SOL    HW137055   2.215   0.080   6.628  1.7571  0.1522  0.1518
 8532SOL    HW237056   2.273   0.145   6.520  0.6636  0.7902  1.4177
 8533SOL     OW37057   3.600   1.580   1.958  0.7326 -0.1004 -0.2490
 8533SOL    HW137058   3.608   1.638   2.034 -0.8956 -0.3514  0.1239
 8533SOL    HW237059   3.612   1.496   2.002  0.8492 -0.7174 -1.4689
 8534SOL     OW37060   2.704   2.266  14.915 -0.0225  0.3581  0.2367
 8534SOL    HW137061   2.615   2.235  14.933  0.7811 -0.7339  2.3492
 8534SOL    HW237062   2.705   2.289  14.822  1.6327  1.2334  0.4664
 8535SOL     OW37063   3.682   2.074   0.361 -0.1714  0.1407  0.4812
 8535SOL    HW137064   3.653   2.000   0.308  2.0204 -1.2389  1.2356
 8535SOL    HW237065   3.633   2.146   0.320  0.5794 -0.4801 -1.5170
 8536SOL     OW37066   3.774   2.398   0.672  0.0450 -0.0109  0.6119
 8536SOL    HW137067   3.833   2.463   0.711 -1.9612  0.5055  2.7886
 8536SOL    HW237068   3.810   2.317   0.708 -0.5975 -0.8743 -0.6936
 8537SOL     OW37069   3.045   1.388  17.311 -0.2019  0.1147  0.1630
 8537SOL    HW137070   3.133   1.408  17.343 -1.0048  0.2971  2.2765
 8537SOL    HW237071   3.007   1.474  17.289 -0.9848 -0.0268  0.9446
 8538SOL     OW37072   3.768   0.243   5.580 -0.1449 -0.2025  0.8428
 8538SOL    HW137073   3.797   0.183   5.649  1.5638 -0.7321 -0.3300
 8538SOL    HW237074   3.683   0.201   5.569 -0.3839  0.5044 -0.0319
 8539SOL     OW37075   3.621   1.046  10.101  0.1518  0.7302  0.2235
 8539SOL    HW137076   3.582   1.057  10.188  1.3160 -0.5254  0.9154
 8539SOL    HW237077   3.697   0.990  10.118 -0.9606 -0.2029  2.0413
 8540SOL     OW37078   3.394   4.445   5.971 -0.0861 -0.1580 -0.2443
 8540SOL    HW137079   3.392   4.535   6.004  0.0854 -0.3837  0.3684
 8540SOL    HW237080   3.341   4.442   5.891 -1.0888 -0.9477  0.4483
 8541SOL     OW37081   0.121   1.979   6.203  0.1140 -0.0222  0.3992
 8541SOL    HW137082   0.115   2.066   6.243  0.5729  0.4550 -0.5756
 8541SOL    HW237083   0.190   1.935   6.253  1.1894 -0.0311 -1.0952
 8542SOL     OW37084   1.240   1.180  17.474  0.2287  0.1461  0.0751
 8542SOL    HW137085   1.231   1.086  17.458  0.4620  0.1227  0.0809
 8542SOL    HW237086   1.265   1.187  17.566  0.3800  2.0311 -0.1026
 8543SOL     OW37087   3.663   3.026   3.534 -0.2872 -0.1043  0.3305
 8543SOL    HW137088   3.654   3.111   3.491 -1.0017 -1.8821 -3.0247
 8543SOL    HW237089   3.666   2.965   3.460 -1.2684  0.3088 -0.0422
 8544SOL     OW37090   3.350   4.406   3.114 -0.3783  0.4358  0.3972
 8544SOL    HW137091   3.309   4.346   3.052 -3.0840  1.4369  1.2281
 8544SOL    HW237092   3.439   4.402   3.078 -0.3328  1.1678  0.4186
 8545SOL     OW37093   0.133   4.596   2.683  0.1684  0.4497 -0.0546
 8545SOL    HW137094   0.223   4.566   2.698  0.9076  3.1823  0.9759
 8545SOL    HW237095   0.113   4.532   2.615  1.5712 -0.2202  0.1524
 8546SOL     OW37096   2.788   1.176   1.026 -0.5469 -0.1031 -0.7569
 8546SOL    HW137097   2.863   1.116   1.022 -1.2448 -1.1159  1.4016
 8546SOL    HW237098   2.766   1.163   1.118 -3.4096  0.6008 -1.3400
 8547SOL     OW37099   2.160   3.733   9.700 -0.2150 -0.3308 -0.1385
 8547SOL    HW137100   2.088   3.684   9.738  0.8949 -2.6529 -1.0278
 8547SOL    HW237101   2.117   3.818   9.694 -1.3204 -0.9073 -0.3060
 8548SOL     OW37102   4.525   3.357   6.682 -0.2481  0.1589  0.4201
 8548SOL    HW137103   4.482   3.304   6.749  0.4158  1.3752  1.7887
 8548SOL    HW237104   4.457   3.420   6.659  1.7620  2.2100  0.0910
 8549SOL     OW37105   3.931   2.319   1.828  0.0558 -0.4838 -0.6651
 8549SOL    HW137106   3.855   2.268   1.854  0.6949 -2.2768 -2.3151
 8549SOL    HW237107   3.918   2.399   1.879  0.0779 -2.1333  1.9228
 8550SOL     OW37108   1.619   2.150   0.152  0.2134 -0.1739  0.1073
 8550SOL    HW137109   1.576   2.106   0.079  0.2962 -0.5980  0.3183
 8550SOL    HW237110   1.710   2.125   0.144 -0.3507 -2.4152  0.8574
 8551SOL     OW37111   2.629   1.639   5.532  0.0058 -0.2103  0.0674
 8551SOL    HW137112   2.628   1.544   5.523  2.1547 -0.3582  1.3606
 8551SOL    HW237113   2.534   1.655   5.530  0.1147  0.4708  0.1873
 8552SOL     OW37114   4.360   2.812   8.297  0.1686 -0.1125 -0.0899
 8552SOL    HW137115   4.281   2.769   8.328  0.4887  0.4999  1.6038
 8552SOL    HW237116   4.328   2.897   8.267  1.9226 -0.0527 -1.7924
 8553SOL     OW37117   2.538   0.714   5.537  0.2027 -0.2065  0.1496
 8553SOL    HW137118   2.574   0.626   5.549  1.1332  0.2074  0.4360
 8553SOL    HW237119   2.618   0.766   5.533 -0.0973  0.2119 -0.4976
 8554SOL     OW37120   4.438   2.868   0.030 -0.2252  0.0569 -0.2042
 8554SOL    HW137121   4.391   2.791   0.062 -3.3132  2.3254  0.7490
 8554SOL    HW237122   4.464   2.914   0.110 -1.1786  1.2682 -0.5815
 8555SOL     OW37123   1.723   3.262   2.897  0.6768 -0.5177 -0.1673
 8555SOL    HW137124   1.656   3.216   2.846 -1.1277  1.2621  0.5853
 8555SOL    HW237125   1.803   3.228   2.857 -1.5405 -4.4549 -1.2696
 8556SOL     OW37126   0.834   0.431   5.195 -0.3556 -0.1338 -0.5676
 8556SOL    HW137127   0.802   0.473   5.115  0.0590  0.7441 -0.2738
 8556SOL    HW237128   0.923   0.403   5.173 -0.9269 -1.0739 -1.6921
 8557SOL     OW37129   2.019   1.987   2.671  0.0530  0.9368  0.3017
 8557SOL    HW137130   2.068   2.061   2.707 -0.7755  1.5890  0.0890
 8557SOL    HW237131   2.018   2.011   2.579  0.0309 -0.2180  0.0110
 8558SOL     OW37132   0.051   4.421   2.490 -0.2858 -0.2035 -0.6291
 8558SOL    HW137133   0.095   4.338   2.470 -0.0457  0.1311 -1.4707
 8558SOL    HW237134   0.037   4.444   2.398  0.1243  1.5326 -0.2459
 8559SOL     OW37135   0.153   4.058   7.883  0.5321  0.2111  0.3119
 8559SOL    HW137136   0.133   4.151   7.892 -0.2757 -0.0684  1.4923
 8559SOL    HW237137   0.219   4.046   7.951  2.7273  2.4130 -1.4437
 8560SOL     OW37138   2.738   1.283   8.217 -0.2229  0.2280  0.2264
 8560SOL    HW137139   2.834   1.280   8.213 -0.2301  1.7858 -1.1201
 8560SOL    HW237140   2.719   1.222   8.288  0.5018  0.0776  0.2931
 8561SOL     OW37141   2.383   0.057   6.276 -0.1318  0.2873  0.6445
 8561SOL    HW137142   2.342   0.040   6.361 -0.7171  1.6568  0.6322
 8561SOL    HW237143   2.459   0.003   6.298 -0.6541 -1.1947 -1.1739
 8562SOL     OW37144   0.137   3.637  11.544 -0.0088  0.1733  0.0079
 8562SOL    HW137145   0.077   3.589  11.487  0.6885 -0.2697 -0.3538
 8562SOL    HW237146   0.227   3.616  11.519 -1.3066 -1.5910 -3.0800
 8563SOL     OW37147   0.338   1.929  15.175 -0.2992  0.2917 -0.1447
 8563SOL    HW137148   0.275   1.860  15.194  3.3431 -3.5595 -2.0015
 8563SOL    HW237149   0.371   1.959  15.260  0.3676 -0.6196 -0.0830
 8564SOL     OW37150   1.155   2.441   0.577 -0.1751  0.0385  0.1117
 8564SOL    HW137151   1.134   2.366   0.521 -0.6258  0.9618 -0.9554
 8564SOL    HW237152   1.080   2.432   0.637 -1.2365  1.7028 -0.9446
 8565SOL     OW37153   0.795   2.734  11.362 -0.2463 -0.1232 -0.1468
 8565SOL    HW137154   0.876   2.686  11.376 -1.0628 -1.3790  0.2998
 8565SOL    HW237155   0.836   2.794  11.299  0.4681 -0.6138 -0.1495
 8566SOL     OW37156   1.894   4.534   8.275 -1.1290  0.4369 -0.2798
 8566SOL    HW137157   1.892   4.443   8.307  1.5228  0.9200  1.2722
 8566SOL    HW237158   1.986   4.561   8.277 -1.1829  0.6700 -1.1200
 8567SOL     OW37159   2.629   3.419  12.500 -0.1669  0.2368 -0.6120
 8567SOL    HW137160   2.612   3.513  12.502  1.0935  0.4562  0.3174
 8567SOL    HW237161   2.603   3.386  12.587  0.7734  0.0650 -0.3957
 8568SOL     OW37162   3.943   2.852   4.067 -0.1050  0.4443 -0.3049
 8568SOL    HW137163   3.881   2.885   4.002 -0.1721  2.6767  0.8884
 8568SOL    HW237164   4.024   2.900   4.050 -0.2983  1.6420  2.1063
 8569SOL     OW37165   3.080   0.529   3.969 -0.1591  0.1455 -0.4657
 8569SOL    HW137166   3.055   0.540   4.061  0.7170 -0.7293 -0.1226
 8569SOL    HW237167   3.047   0.441   3.950 -1.4453  0.2191  1.4041
 8570SOL     OW37168   0.128   4.201   5.996 -0.0938  0.0245 -0.1297
 8570SOL    HW137169   0.070   4.273   6.018  1.0088  0.4104  1.5406
 8570SOL    HW237170   0.119   4.154   6.079 -1.7960  0.5962  0.0061
 8571SOL     OW37171   2.670   3.078   4.317  0.1494 -0.1226 -0.0138
 8571SOL    HW137172   2.623   3.003   4.353  1.9032 -2.5019 -2.6252
 8571SOL    HW237173   2.660   3.135   4.392  0.1208  0.4670 -0.4676
 8572SOL     OW37174   2.960   2.466   3.023  0.1325  0.4527  0.0826
 8572SOL    HW137175   3.034   2.453   3.084 -1.0305 -2.2538  0.9234
 8572SOL    HW237176   2.898   2.479   3.095 -0.8376 -0.6984 -0.5550
 8573SOL     OW37177   3.717   4.188   5.207  0.3261 -0.1948  0.6498
 8573SOL    HW137178   3.706   4.257   5.141 -0.4887 -1.1452 -0.2112
 8573SOL    HW237179   3.803   4.152   5.186  1.1599  1.2488  1.6726
 8574SOL     OW37180   2.958   3.791   8.363 -0.1601  0.1507  0.1136
 8574SOL    HW137181   2.866   3.804   8.339 -0.5296 -0.3709  1.2299
 8574SOL    HW237182   2.948   3.750   8.449  1.6124 -0.9137 -0.1990
 8575SOL     OW37183   2.826   1.365   9.858  0.2354  0.3307  0.7413
 8575SOL    HW137184   2.782   1.440   9.898 -1.5434  0.9359 -2.2874
 8575SOL    HW237185   2.745   1.314   9.859  1.3930 -1.4885  1.3600
 8576SOL     OW37186   2.384   1.579   4.166  0.1949 -0.7405  0.0387
 8576SOL    HW137187   2.466   1.541   4.196 -0.9475 -1.1373  2.6620
 8576SOL    HW237188   2.322   1.514   4.197 -1.0240 -1.6067 -4.1523
 8577SOL     OW37189   0.565   3.162   9.418 -0.0333  0.0309  0.5893
 8577SOL    HW137190   0.475   3.156   9.451 -0.2617  0.5250  0.0598
 8577SOL    HW237191   0.614   3.136   9.496  1.8018  1.3782 -0.1263
 8578SOL     OW37192   1.467   4.058   2.098 -0.4854  0.2126  0.1357
 8578SOL    HW137193   1.509   3.978   2.066 -3.0882 -0.8963 -0.4742
 8578SOL    HW237194   1.378   4.035   2.074 -0.6393  2.1801 -1.1843
 8579SOL     OW37195   1.413   2.663   3.655  0.1809  0.1935  0.1665
 8579SOL    HW137196   1.425   2.578   3.611 -0.7165 -0.7089  1.6546
 8579SOL    HW237197   1.319   2.676   3.647  0.1885 -0.0772 -0.4018
 8580SOL     OW37198   1.845   2.481   2.220  0.0450  0.1298 -0.9407
 8580SOL    HW137199   1.817   2.488   2.312  1.8029 -0.8518 -0.3326
 8580SOL    HW237200   1.793   2.548   2.175 -1.1170 -1.1936 -1.5385
 8581SOL     OW37201   0.220   4.251   9.681  0.0083  0.1284  0.2962
 8581SOL    HW137202   0.279   4.196   9.732 -0.9088 -1.6350 -0.5612
 8581SOL    HW237203   0.193   4.179   9.624 -2.1060 -0.6897  2.3679
 8582SOL     OW37204   0.144   4.181   6.313  0.1317 -0.0686 -0.7225
 8582SOL    HW137205   0.093   4.244   6.364  1.6852  1.3552 -0.9533
 8582SOL    HW237206   0.080   4.110   6.321 -1.4079  1.0910 -2.9620
 8583SOL     OW37207   3.106   0.742  16.030 -0.0462 -0.3687  0.1565
 8583SOL    HW137208   3.139   0.660  16.066  0.2873 -0.3051 -0.0051
 8583SOL    HW237209   3.011   0.734  16.042 -0.0280 -0.8665 -0.0650
 8584SOL     OW37210   0.858   1.833   6.160  0.2201 -0.3604  0.0597
 8584SOL    HW137211   0.826   1.823   6.249  1.9740  1.8790  0.9283
 8584SOL    HW237212   0.866   1.927   6.175 -1.7697  0.1580 -2.0246
 8585SOL     OW37213   1.714   0.488   7.102  0.0602 -0.2434  0.1188
 8585SOL    HW137214   1.791   0.510   7.049  0.2238 -0.7836  0.1384
 8585SOL    HW237215   1.661   0.566   7.087  0.0575 -0.6245 -1.7802
 8586SOL     OW37216   2.351   4.145  15.674 -0.6432  0.5438 -0.4790
 8586SOL    HW137217   2.321   4.123  15.763 -0.3097 -2.7860 -1.2000
 8586SOL    HW237218   2.308   4.077  15.623 -1.4943  0.6156  0.1465
 8587SOL     OW37219   0.697   4.112   9.305  0.4568 -0.1557  0.2864
 8587SOL    HW137220   0.748   4.038   9.338 -0.9822 -1.4039 -0.3180
 8587SOL    HW237221   0.696   4.164   9.386  0.5370 -0.1326  0.2729
 8588SOL     OW37222   3.874   0.785   5.439 -0.3450 -0.2048  0.1839
 8588SOL    HW137223   3.938   0.728   5.395  0.1441  0.5783 -0.1332
 8588SOL    HW237224   3.790   0.741   5.425  0.2808 -1.3569  0.0380
 8589SOL     OW37225   0.044   0.739  11.138 -0.6854 -1.1703  0.2167
 8589SOL    HW137226   0.031   0.666  11.199 -1.0436 -1.9113 -0.7267
 8589SOL    HW237227   0.124   0.770  11.179 -1.5323  0.4393  0.6198
 8590SOL     OW37228   0.777   1.167   9.081  0.2215  0.6499 -0.2681
 8590SOL    HW137229   0.775   1.106   9.155  5.0538  0.1631 -0.5038
 8590SOL    HW237230   0.864   1.200   9.103  0.2654  1.5189 -1.7775
 8591SOL     OW37231   2.545   3.498   4.370 -0.2195 -0.5650 -0.1717
 8591SOL    HW137232   2.570   3.590   4.384  1.4589 -1.2857  1.6821
 8591SOL    HW237233   2.624   3.449   4.394  1.1609  0.5760 -2.3286
 8592SOL     OW37234   0.060   4.605   3.566 -0.2546 -0.2181 -0.0808
 8592SOL    HW137235   0.127   4.570   3.508 -0.6331  1.3751 -1.4786
 8592SOL    HW237236   4.707   4.609   3.510 -0.9349 -0.1834  0.8613
 8593SOL     OW37237   3.341   4.564   5.115 -0.3660 -0.2641  0.3258
 8593SOL    HW137238   3.388   4.556   5.032 -0.4887  0.3822  0.1983
 8593SOL    HW237239   3.257   4.601   5.087 -0.0198  0.1628 -0.1309
 8594SOL     OW37240   1.926   0.460   3.116 -0.5829 -0.0217  0.0678
 8594SOL    HW137241   1.974   0.409   3.182  2.2597  2.0820 -0.3961
 8594SOL    HW237242   1.846   0.409   3.105  2.8262 -5.5458  0.8156
 8595SOL     OW37243   0.935   1.139  16.384  0.3776 -0.7343  0.3077
 8595SOL    HW137244   1.000   1.187  16.435  1.5422 -0.6910 -1.2279
 8595SOL    HW237245   0.859   1.122  16.440 -0.9014  0.4455 -1.0770
 8596SOL     OW37246   1.281   2.364   3.226  0.2665 -0.2316  0.1061
 8596SOL    HW137247   1.312   2.303   3.158 -1.2017  0.8620 -1.5325
 8596SOL    HW237248   1.191   2.335   3.240  0.2690  0.1190  0.8528
 8597SOL     OW37249   2.127   1.293   4.629  0.3162 -0.0404  0.2320
 8597SOL    HW137250   2.128   1.277   4.534  2.7902 -1.1215  0.4474
 8597SOL    HW237251   2.210   1.340   4.639  0.1587  0.0648  1.0206
 8598SOL     OW37252   4.391   2.114  10.147  0.3818  1.2531 -0.4042
 8598SOL    HW137253   4.384   2.157  10.062 -0.3742  1.4313 -0.2542
 8598SOL    HW237254   4.334   2.171  10.198 -0.4924  0.4735 -0.5145
 8599SOL     OW37255   0.262   1.362   5.293 -0.0150  0.3573 -0.6119
 8599SOL    HW137256   0.287   1.374   5.201 -0.3471 -2.5405 -1.0943
 8599SOL    HW237257   0.339   1.321   5.333 -0.0635  1.0697  0.2033
 8600SOL     OW37258   2.781   4.344   3.195 -0.0884 -0.7286 -0.2099
 8600SOL    HW137259   2.688   4.368   3.198 -0.2547 -1.4216  0.0870
 8600SOL    HW237260   2.808   4.392   3.273  0.3752 -2.7185  0.8324
 8601SOL     OW37261   4.334   2.776   5.366 -0.3471 -0.0409 -0.4286
 8601SOL    HW137262   4.418   2.817   5.390 -0.1997 -0.5511 -0.0880
 8601SOL    HW237263   4.333   2.787   5.271 -1.1132  0.1217 -0.3981
 8602SOL     OW37264   3.939   4.720   3.344 -0.2018 -0.2286  0.3613
 8602SOL    HW137265   4.022   0.021   3.385  0.7352 -2.7335  0.0371
 8602SOL    HW237266   3.956   0.002   3.249 -1.7090  0.9549  0.1786
 8603SOL     OW37267   2.447   4.570   4.266 -0.7701  0.0124 -0.2647
 8603SOL    HW137268   2.420   4.628   4.196 -1.6651 -2.3410 -1.8720
 8603SOL    HW237269   2.458   4.638   4.333  2.0599 -1.2255  0.5111
 8604SOL     OW37270   1.409   3.307   1.951 -0.7028  0.2504 -0.5152
 8604SOL    HW137271   1.325   3.286   1.909 -0.7680 -0.8430  0.1682
 8604SOL    HW237272   1.455   3.223   1.949 -0.4529  0.3781  0.0473
 8605SOL     OW37273   4.703   3.930  15.371 -0.1659 -0.1026  0.1454
 8605SOL    HW137274   0.032   3.975  15.307 -1.0509 -0.2981 -0.7322
 8605SOL    HW237275   4.685   4.001  15.433  0.9751  0.2610  0.0531
 8606SOL     OW37276   2.900   3.231   6.523  0.3640  0.5865  0.2016
 8606SOL    HW137277   2.973   3.285   6.554  0.5985  0.6931 -0.5185
 8606SOL    HW237278   2.855   3.295   6.468  0.0286 -0.5814 -0.8849
 8607SOL     OW37279   0.759   1.643   4.266 -0.3408  0.0031  0.1605
 8607SOL    HW137280   0.706   1.594   4.203  0.2299  1.2630 -1.3153
 8607SOL    HW237281   0.726   1.733   4.266 -3.0511 -1.0105 -1.6893
 8608SOL     OW37282   1.154   2.808   2.867 -0.6048 -0.7957 -0.2646
 8608SOL    HW137283   1.153   2.799   2.772  0.7647  1.2396 -0.4443
 8608SOL    HW237284   1.245   2.788   2.890 -0.3616  0.6092 -0.0579
 8609SOL     OW37285   3.037   1.918  12.095  0.3552  0.5120  0.1914
 8609SOL    HW137286   3.020   1.914  12.001  0.9172 -1.1966  0.1503
 8609SOL    HW237287   2.951   1.947  12.126 -0.8907 -1.1414 -1.6986
 8610SOL     OW37288   0.805   4.442   0.155  0.2824  0.2831  0.0372
 8610SOL    HW137289   0.756   4.378   0.103  0.8923 -0.7358  0.7034
 8610SOL    HW237290   0.874   4.473   0.097 -0.6040  1.0250 -0.6155
 8611SOL     OW37291   0.673   0.910   4.063  0.4415  0.1812 -0.1897
 8611SOL    HW137292   0.710   0.970   3.997  1.5817 -0.0685  0.2288
 8611SOL    HW237293   0.731   0.835   4.056 -1.4190 -1.2847  0.1429
 8612SOL     OW37294   0.687   2.484   3.940 -0.0050 -0.7107 -0.6392
 8612SOL    HW137295   0.597   2.456   3.920 -0.0943  0.3016 -1.6714
 8612SOL    HW237296   0.738   2.461   3.862  0.6967  1.1202 -0.7137
 8613SOL     OW37297   4.634   1.448   5.153 -0.1850 -1.0917  0.2725
 8613SOL    HW137298   4.680   1.531   5.162  1.5016 -2.0510  0.4915
 8613SOL    HW237299   4.663   1.410   5.069 -0.2766 -1.5694  0.4557
 8614SOL     OW37300   0.210   3.766   3.751  0.1431  0.2974 -0.0732
 8614SOL    HW137301   0.120   3.745   3.723 -0.3881  2.3862  0.0379
 8614SOL    HW237302   0.198   3.848   3.799  0.1357 -1.4713  2.9500
 8615SOL     OW37303   2.666   2.417   4.030  1.0869  0.7641  0.3709
 8615SOL    HW137304   2.650   2.436   3.937 -1.6088 -0.6658  0.5491
 8615SOL    HW237305   2.636   2.328   4.047  1.3720  0.3218 -1.4255
 8616SOL     OW37306   2.663   2.109  13.277 -0.4253 -0.3862 -0.5253
 8616SOL    HW137307   2.629   2.197  13.261  1.5882  0.7643  1.5745
 8616SOL    HW237308   2.592   2.051  13.251 -0.0535 -0.8337 -0.5508
 8617SOL     OW37309   0.338   2.317   6.235 -0.2683  0.0144 -0.2052
 8617SOL    HW137310   0.416   2.350   6.280  0.7059 -0.3702 -1.6271
 8617SOL    HW237311   0.271   2.336   6.301  1.2396 -2.5057  2.0590
 8618SOL     OW37312   2.169   2.463  15.933  0.2116 -0.0851 -0.5429
 8618SOL    HW137313   2.218   2.398  15.983  0.5087  1.4841  1.1899
 8618SOL    HW237314   2.120   2.406  15.874  1.9099 -3.3031  1.1689
 8619SOL     OW37315   3.558   0.237  11.966 -0.0908  0.2769 -0.0686
 8619SOL    HW137316   3.466   0.220  11.984 -0.2319 -1.1386 -2.1067
 8619SOL    HW237317   3.607   0.164  12.004 -1.6832 -0.5240  0.4449
 8620SOL     OW37318   3.192   2.455   9.556  0.1410 -0.4922 -0.6653
 8620SOL    HW137319   3.212   2.366   9.583 -1.1896 -0.7891 -0.6367
 8620SOL    HW237320   3.143   2.489   9.631  1.3166 -2.0375  0.7761
 8621SOL     OW37321   2.325   0.903   8.926  0.4864  0.1895  0.4624
 8621SOL    HW137322   2.385   0.836   8.893  1.1040  0.5325  0.8825
 8621SOL    HW237323   2.307   0.949   8.844  1.1052  1.3168  0.9605
 8622SOL     OW37324   1.680   3.964   0.297  0.2064 -0.5414  0.1817
 8622SOL    HW137325   1.769   3.981   0.327  0.2057  0.3059 -0.2868
 8622SOL    HW237326   1.678   4.014   0.215  0.4918 -3.0025 -1.3132
 8623SOL     OW37327   0.442   2.607  17.650 -0.3964  0.9352 -0.2556
 8623SOL    HW137328   0.375   2.630  17.586 -1.0321  0.8068  0.3779
 8623SOL    HW237329   0.515   2.582  17.594 -1.5990  0.2674 -1.5053
 8624SOL     OW37330   3.352   0.805   5.046  0.3747 -0.4176  0.4603
 8624SOL    HW137331   3.280   0.853   5.006  1.1628  1.7776  1.7075
 8624SOL    HW237332   3.427   0.864   5.040 -0.7092  0.8302 -0.7175
 8625SOL     OW37333   1.596   4.531   8.123 -0.5904 -0.1347 -0.3965
 8625SOL    HW137334   1.542   4.562   8.195 -0.9161 -0.6591 -0.4149
 8625SOL    HW237335   1.687   4.542   8.151 -1.2456 -1.4390  2.2598
 8626SOL     OW37336   0.413   3.907   5.484 -0.0541 -0.0176 -0.3385
 8626SOL    HW137337   0.463   3.987   5.466 -0.0802 -0.2300 -1.3128
 8626SOL    HW237338   0.482   3.841   5.477 -0.1308  0.0926 -2.0663
 8627SOL     OW37339   3.133   0.784   4.373 -0.2083 -0.0434 -0.5144
 8627SOL    HW137340   3.153   0.840   4.449  3.0012 -0.8778 -0.7489
 8627SOL    HW237341   3.211   0.729   4.385 -0.6781 -0.6155 -0.0885
 8628SOL     OW37342   4.383   2.647  17.485 -0.2178 -0.0094 -0.2751
 8628SOL    HW137343   4.416   2.574  17.433  0.6114 -0.3665  0.7471
 8628SOL    HW237344   4.449   2.650  17.554 -3.3308 -1.7854  2.7830
 8629SOL     OW37345   1.185   1.892  10.663  0.4577 -0.0264 -0.0282
 8629SOL    HW137346   1.141   1.955  10.606 -0.6999 -1.0114 -0.2019
 8629SOL    HW237347   1.117   1.827  10.680 -0.0834  0.0961 -1.7781
 8630SOL     OW37348   0.602   3.719  10.658 -0.2248 -0.1684 -0.6260
 8630SOL    HW137349   0.565   3.791  10.607  0.6029 -0.2908 -1.4093
 8630SOL    HW237350   0.563   3.728  10.745  0.1525  3.3974 -0.8232
 8631SOL     OW37351   0.712   4.724  15.891  0.1064  0.3289  0.8008
 8631SOL    HW137352   0.639   0.022  15.949  0.3052 -0.3273  1.3020
 8631SOL    HW237353   0.700   0.071  15.828  1.5736 -1.2683 -1.3170
 8632SOL     OW37354   1.456   3.192   1.077 -0.0220 -0.0005  0.1045
 8632SOL    HW137355   1.382   3.252   1.067  0.6988  0.9428  0.3196
 8632SOL    HW237356   1.403   3.124   1.117 -1.2537  1.1034  0.3410
 8633SOL     OW37357   2.517   1.097   2.334 -0.3291 -0.3294  0.0963
 8633SOL    HW137358   2.449   1.053   2.283  0.0163 -0.8450  0.0819
 8633SOL    HW237359   2.470   1.180   2.347  0.5753  0.2357 -0.2459
 8634SOL     OW37360   1.794   2.096  10.340  0.4905  0.3450 -0.0663
 8634SOL    HW137361   1.861   2.029  10.356  0.0382 -0.0759  0.0800
 8634SOL    HW237362   1.744   2.077  10.420 -1.5333 -1.9199 -1.8448
 8635SOL     OW37363   3.818   0.923   7.280 -0.2691 -0.6214 -0.8778
 8635SOL    HW137364   3.798   0.835   7.248  1.1411 -1.7189  1.1979
 8635SOL    HW237365   3.747   0.933   7.343  0.2497 -2.6856  0.0439
 8636SOL     OW37366   3.324   1.663   1.013 -0.1662  0.6397  0.5142
 8636SOL    HW137367   3.233   1.631   1.013 -0.4059  1.3179  0.7895
 8636SOL    HW237368   3.356   1.624   0.932 -0.8680 -0.3849  0.7276
 8637SOL     OW37369   2.896   0.178   5.761 -0.0594 -0.4121  0.3391
 8637SOL    HW137370   2.944   0.241   5.814 -0.3197 -0.0569  0.1526
 8637SOL    HW237371   2.864   0.116   5.827  0.2791  0.0449  0.9368
 8638SOL     OW37372   2.633   3.270  12.241  0.2085  0.0575 -0.5227
 8638SOL    HW137373   2.697   3.306  12.180 -0.6874  1.0252 -0.8823
 8638SOL    HW237374   2.646   3.322  12.320 -1.3457 -2.3648  1.3227
 8639SOL     OW37375   3.841   1.171  13.960 -0.7096  0.1783  1.2248
 8639SOL    HW137376   3.867   1.258  13.991 -0.4845  0.7193 -0.4510
 8639SOL    HW237377   3.770   1.186  13.898 -1.2270 -1.3943  1.4483
 8640SOL     OW37378   1.047   3.084   9.480  0.2051 -0.3365 -0.5470
 8640SOL    HW137379   0.972   3.132   9.515  0.3502 -0.6842  0.2437
 8640SOL    HW237380   1.024   2.992   9.494  1.8657 -0.8569 -1.2426
 8641SOL     OW37381   0.740   3.721   9.313  0.0315  0.3197  0.0964
 8641SOL    HW137382   0.801   3.791   9.337  2.8890 -1.5422 -1.7557
 8641SOL    HW237383   0.679   3.740   9.384 -0.9085 -0.4165 -0.5026
 8642SOL     OW37384   4.476   2.953   9.104 -0.0640 -0.2791 -0.1832
 8642SOL    HW137385   4.447   3.026   9.158  1.1612  0.3676 -0.3974
 8642SOL    HW237386   4.566   2.935   9.132  0.0901  2.3760  1.0050
 8643SOL     OW37387   0.352   1.949   5.296  0.1720 -0.1439  0.2524
 8643SOL    HW137388   0.348   2.031   5.248  1.8655  0.7884  1.6882
 8643SOL    HW237389   0.445   1.927   5.287  0.5982  1.1775  1.5742
 8644SOL     OW37390   2.160   2.141   7.750  0.5249 -0.6039  0.9269
 8644SOL    HW137391   2.092   2.075   7.733 -1.0048  1.3642 -0.5411
 8644SOL    HW237392   2.228   2.104   7.694  0.9752  0.2619  0.9009
 8645SOL     OW37393   0.387   2.384  10.443 -0.2237  0.4266  0.0853
 8645SOL    HW137394   0.473   2.348  10.460 -0.6382 -0.5496  0.0994
 8645SOL    HW237395   0.330   2.309  10.424  3.1472 -2.7244  2.4892
 8646SOL     OW37396   0.414   1.746   3.639 -0.1897 -0.2174 -1.0362
 8646SOL    HW137397   0.473   1.764   3.712 -0.4355 -0.5363 -0.7629
 8646SOL    HW237398   0.332   1.751   3.688  1.0502 -2.2192  1.2585
 8647SOL     OW37399   0.702   2.535  10.419 -0.3065  0.6301 -0.3847
 8647SOL    HW137400   0.667   2.572  10.500  0.6698 -2.6947  1.5640
 8647SOL    HW237401   0.683   2.442  10.436  1.8405  0.3062  0.3000
 8648SOL     OW37402   4.551   2.650   3.453 -0.2586 -0.1982 -0.7179
 8648SOL    HW137403   4.474   2.617   3.499  0.1470 -0.7067 -0.3980
 8648SOL    HW237404   4.514   2.681   3.370  0.7360  1.6216 -0.4796
 8649SOL     OW37405   2.810   0.068   6.901 -0.2391 -0.1066 -0.0299
 8649SOL    HW137406   2.886   0.123   6.885  0.2083 -1.0142 -1.0198
 8649SOL    HW237407   2.760   0.126   6.959  0.4191  0.8554 -0.4315
 8650SOL     OW37408   4.663   3.318  12.124 -0.3870  0.2056  0.2397
 8650SOL    HW137409   0.003   3.288  12.059  0.2247 -0.3257  1.0972
 8650SOL    HW237410   4.674   3.413  12.120 -2.6673  0.3558 -2.4740
 8651SOL     OW37411   3.638   4.616   3.093  1.3734 -0.0112  0.6068
 8651SOL    HW137412   3.594   4.638   3.174  2.8958 -0.0516  1.4562
 8651SOL    HW237413   3.663   4.526   3.115 -2.7962 -2.0329 -2.9077
 8652SOL     OW37414   1.905   3.503   8.676  0.2782  0.2196  0.2380
 8652SOL    HW137415   1.977   3.480   8.735  1.2852  0.8644 -0.7406
 8652SOL    HW237416   1.836   3.491   8.741  0.0924  0.7863  0.1483
 8653SOL     OW37417   3.512   3.044   7.355 -0.5768  0.0641  0.0860
 8653SOL    HW137418   3.569   3.064   7.429 -0.1780  0.1988 -0.2580
 8653SOL    HW237419   3.487   2.952   7.363 -1.6650  0.4959  1.6976
 8654SOL     OW37420   1.690   2.779   9.755 -0.1154 -0.1292  0.2367
 8654SOL    HW137421   1.603   2.819   9.765 -0.0657 -0.2759  1.2486
 8654SOL    HW237422   1.727   2.849   9.701  0.4832 -1.1339 -0.6526
 8655SOL     OW37423   1.302   3.787   6.494 -0.1030  0.8546  0.1680
 8655SOL    HW137424   1.292   3.781   6.589 -0.0505 -1.7927  0.0056
 8655SOL    HW237425   1.368   3.856   6.495 -0.1103  0.8618  0.1175
 8656SOL     OW37426   3.844   2.365   2.673  0.7829 -0.2191 -0.1582
 8656SOL    HW137427   3.899   2.311   2.616  1.4558  0.7684 -0.4324
 8656SOL    HW237428   3.842   2.300   2.743 -1.2805 -0.3996 -0.3718
 8657SOL     OW37429   2.752   2.740   8.438  0.2780 -0.0243  0.4250
 8657SOL    HW137430   2.720   2.651   8.447 -0.4763  0.4138  2.0991
 8657SOL    HW237431   2.762   2.753   8.344  1.8994  0.9445  0.7116
 8658SOL     OW37432   4.163   0.080   3.204  0.2295  0.2251  0.5504
 8658SOL    HW137433   4.252   0.090   3.236  0.3550  2.1070 -0.3974
 8658SOL    HW237434   4.167   0.115   3.115  4.0635 -0.4287  0.4680
 8659SOL     OW37435   3.940   4.035   7.170 -0.2013  0.3226 -0.1471
 8659SOL    HW137436   3.849   4.010   7.152 -0.7711  1.9740  0.3362
 8659SOL    HW237437   3.967   3.981   7.244 -1.5537  0.8776  0.7578
 8660SOL     OW37438   0.095   4.134   5.019 -0.0620 -0.0704  0.4580
 8660SOL    HW137439   0.034   4.207   5.006  0.0851 -0.3421 -1.8286
 8660SOL    HW237440   0.033   4.062   5.030 -0.7156  0.4396  0.1754
 8661SOL     OW37441   2.675   2.863   6.695 -0.3300  0.4224  0.0207
 8661SOL    HW137442   2.629   2.937   6.654 -0.8511  1.1951  1.9575
 8661SOL    HW237443   2.684   2.892   6.786 -2.2328  1.2997 -0.0507
 8662SOL     OW37444   3.955   2.835   2.691 -0.1704  0.4692  0.1420
 8662SOL    HW137445   3.991   2.850   2.604 -1.5180  1.3018 -0.2797
 8662SOL    HW237446   3.942   2.740   2.685 -0.0305  0.4134  0.7955
 8663SOL     OW37447   3.654   0.434  12.130 -0.0223 -0.4088  0.9282
 8663SOL    HW137448   3.616   0.430  12.218  1.6280 -0.3966  1.6410
 8663SOL    HW237449   3.594   0.407  12.060  0.0806 -0.3519  0.8182
 8664SOL     OW37450   2.179   1.324   7.596  0.1000  0.1169 -0.0183
 8664SOL    HW137451   2.205   1.409   7.561 -1.4260  0.0187 -1.3655
 8664SOL    HW237452   2.268   1.288   7.588 -1.7000 -4.1155 -0.9120
 8665SOL     OW37453   3.400   2.389  11.948 -0.2124 -0.3544 -0.2524
 8665SOL    HW137454   3.374   2.368  11.858  0.7227 -0.8393 -0.4148
 8665SOL    HW237455   3.356   2.316  11.991  1.8739 -0.0728  2.3631
 8666SOL     OW37456   3.263   2.909   5.855  0.2522 -0.5839  0.0829
 8666SOL    HW137457   3.194   2.964   5.818  1.3833  0.5331 -0.3518
 8666SOL    HW237458   3.342   2.959   5.836 -0.7119  0.7989 -0.2592
 8667SOL     OW37459   1.037   0.837   7.905  0.0784 -0.1100  0.0571
 8667SOL    HW137460   0.946   0.855   7.928  0.2751 -1.1475  1.6926
 8667SOL    HW237461   1.025   0.821   7.812  2.4672 -0.7160 -0.1360
 8668SOL     OW37462   1.207   2.721   5.330  0.7067  0.0915 -0.0813
 8668SOL    HW137463   1.288   2.737   5.282  0.8603  0.0954  0.1822
 8668SOL    HW237464   1.161   2.679   5.257 -0.2509 -1.1917  1.2540
 8669SOL     OW37465   0.806   4.453   7.908 -0.5147 -0.3559  0.4864
 8669SOL    HW137466   0.864   4.502   7.850 -0.5888 -1.7416 -0.7457
 8669SOL    HW237467   0.752   4.523   7.943 -1.3437  0.9885 -3.5374
 8670SOL     OW37468   3.751   3.523   9.839  0.1145  0.0656 -0.2622
 8670SOL    HW137469   3.760   3.597   9.779  1.9077 -2.5171 -3.1485
 8670SOL    HW237470   3.709   3.564   9.914  0.6899 -0.2472  0.2390
 8671SOL     OW37471   3.558   0.527   4.315  0.1540 -0.0124  0.1312
 8671SOL    HW137472   3.589   0.437   4.310 -0.6071 -0.2049 -1.2652
 8671SOL    HW237473   3.591   0.566   4.233 -2.2356  1.0726 -0.3090
 8672SOL     OW37474   2.689   1.647   4.919 -1.0907 -0.3712 -0.3476
 8672SOL    HW137475   2.773   1.604   4.936 -0.7342  0.5253  0.1678
 8672SOL    HW237476   2.655   1.647   5.009 -1.5250 -3.0542 -0.5352
 8673SOL     OW37477   2.282   1.536  17.111  0.4927 -0.3491 -0.2988
 8673SOL    HW137478   2.373   1.560  17.101  0.0762  1.7643  0.9808
 8673SOL    HW237479   2.273   1.504  17.201 -2.0169  0.1848 -0.3514
 8674SOL     OW37480   2.672   3.828  14.411 -0.4337 -0.5658  0.3250
 8674SOL    HW137481   2.667   3.740  14.448 -0.8587 -1.7296 -2.4753
 8674SOL    HW237482   2.586   3.860  14.437 -0.9186 -1.6209  0.0064
 8675SOL     OW37483   2.478   0.091   3.004 -0.1129  0.1921 -0.2440
 8675SOL    HW137484   2.447   0.175   2.974  1.6020  1.7007  2.1455
 8675SOL    HW237485   2.482   0.103   3.099 -0.3012 -2.3867  0.1026
 8676SOL     OW37486   2.686   3.865   8.345 -0.0435 -0.7982 -0.1981
 8676SOL    HW137487   2.697   3.958   8.322  0.2204 -0.3396  1.7188
 8676SOL    HW237488   2.629   3.848   8.270  1.0507  2.6384 -1.8147
 8677SOL     OW37489   2.210   1.294  13.957  0.5564 -0.2884 -0.4293
 8677SOL    HW137490   2.297   1.289  13.998  1.9692  2.0276 -3.1763
 8677SOL    HW237491   2.172   1.355  14.020 -0.1090  0.7467 -1.8310
 8678SOL     OW37492   4.540   4.186   6.599 -0.1441  0.2933  0.5109
 8678SOL    HW137493   4.580   4.261   6.643  0.0610 -0.1323  1.0451
 8678SOL    HW237494   4.539   4.118   6.667  1.8733  1.3202  1.5773
 8679SOL     OW37495   1.602   2.100   3.640  0.2534 -0.4616  0.0928
 8679SOL    HW137496   1.602   2.048   3.559  0.2121  0.7583 -0.7019
 8679SOL    HW237497   1.618   2.185   3.600  1.4482 -0.5656  0.3453
 8680SOL     OW37498   1.725   3.071   8.038 -0.2850  0.3643 -0.2467
 8680SOL    HW137499   1.696   2.980   8.025 -1.3949  0.7920 -0.7513
 8680SOL    HW237500   1.717   3.067   8.133  0.6477  2.6761 -0.0668
 8681SOL     OW37501   0.460   1.874  17.512  0.0707  0.2089 -0.0957
 8681SOL    HW137502   0.543   1.919  17.499 -0.6412  2.3237  2.7322
 8681SOL    HW237503   0.452   1.870  17.607  0.2947  3.5515  0.0645
 8682SOL     OW37504   2.378   2.741   3.980  0.0631 -0.2724 -0.1960
 8682SOL    HW137505   2.337   2.675   4.035  1.8068  0.7571  2.3549
 8682SOL    HW237506   2.325   2.820   3.993 -4.3671 -3.1426 -0.7340
 8683SOL     OW37507   3.312   3.032   8.257 -0.9808  0.5998 -0.1873
 8683SOL    HW137508   3.311   3.067   8.346  3.3241  1.4735 -0.4733
 8683SOL    HW237509   3.264   3.099   8.209  1.2976  1.6481 -1.0125
 8684SOL     OW37510   0.944   3.471   0.597  0.5596  0.1757 -0.0671
 8684SOL    HW137511   0.865   3.458   0.544  0.5342  2.9909 -0.7156
 8684SOL    HW237512   0.939   3.561   0.629  0.2326  0.1132  0.0625
 8685SOL     OW37513   1.484   0.698  14.061  0.5888  0.1573 -0.0643
 8685SOL    HW137514   1.523   0.675  13.977  0.7610  0.9009 -0.1922
 8685SOL    HW237515   1.389   0.688  14.060  0.5207  0.6629  2.0728
 8686SOL     OW37516   1.754   4.219   7.754  0.9699  0.0615  0.0424
 8686SOL    HW137517   1.733   4.246   7.844  2.2096  1.1912 -0.0104
 8686SOL    HW237518   1.835   4.171   7.770  0.0410 -1.2583  0.8302
 8687SOL     OW37519   0.653   1.721   7.863  0.3095  0.1313  0.1506
 8687SOL    HW137520   0.627   1.768   7.942 -1.4490 -1.2115  0.3631
 8687SOL    HW237521   0.582   1.657   7.863 -0.7295  1.2984 -0.8461
 8688SOL     OW37522   3.022   2.371  16.249 -0.3372 -0.2803 -0.1711
 8688SOL    HW137523   2.964   2.386  16.324 -0.2567 -2.1024  0.2473
 8688SOL    HW237524   3.107   2.380  16.291  0.5696  0.9245 -2.2899
 8689SOL     OW37525   2.161   0.121   6.952 -0.2081 -0.9924  0.2901
 8689SOL    HW137526   2.104   0.159   7.019  0.8945  0.4504  0.4249
 8689SOL    HW237527   2.209   0.194   6.912 -1.6106 -0.5982 -0.6669
 8690SOL     OW37528   1.879   2.838   2.877  0.4407  0.3970  0.0344
 8690SOL    HW137529   1.884   2.930   2.903 -1.3225  0.7438 -0.8782
 8690SOL    HW237530   1.954   2.822   2.819 -2.7632 -0.6124 -3.7711
 8691SOL     OW37531   1.909   3.881   4.819  0.2092  0.8616  0.4946
 8691SOL    HW137532   1.836   3.828   4.850  2.2876 -2.6924 -0.7488
 8691SOL    HW237533   1.864   3.923   4.746  0.2392 -1.2327 -0.7131
 8692SOL     OW37534   2.093   4.618   6.831 -0.2891 -0.0316 -0.1227
 8692SOL    HW137535   2.020   4.628   6.891  0.2592 -0.6159  0.6372
 8692SOL    HW237536   2.147   4.684   6.873  0.7058 -0.3504 -0.8875
 8693SOL     OW37537   2.949   4.521  13.238 -0.4140 -0.7888 -0.0220
 8693SOL    HW137538   2.878   4.458  13.244  0.1367 -1.4655 -0.6601
 8693SOL    HW237539   2.933   4.545  13.147  2.0741 -0.8941 -0.5030
 8694SOL     OW37540   2.858   2.569  16.463  0.3693  0.1750 -0.8180
 8694SOL    HW137541   2.884   2.626  16.391  0.2991  0.0942 -0.9067
 8694SOL    HW237542   2.807   2.498  16.425 -2.0240  1.7934 -0.5932
 8695SOL     OW37543   3.399   0.142   8.788  0.1545 -0.4501  0.7605
 8695SOL    HW137544   3.432   0.207   8.726 -0.0102 -1.3460 -0.2749
 8695SOL    HW237545   3.472   0.081   8.775 -2.6772 -3.7347  0.4848
 8696SOL     OW37546   2.165   2.973  11.010  0.1701  0.3195 -0.3800
 8696SOL    HW137547   2.127   3.047  10.962 -1.8380 -1.1075 -1.0233
 8696SOL    HW237548   2.194   3.016  11.090  0.9237 -1.9283  0.5543
 8697SOL     OW37549   1.682   0.273   5.756  0.2821  0.0186  0.4034
 8697SOL    HW137550   1.776   0.281   5.739  0.2232 -1.2031 -0.4856
 8697SOL    HW237551   1.664   0.179   5.751 -1.3381  0.4255 -1.3888
 8698SOL     OW37552   1.038   4.145  12.242  0.1421 -0.6099  0.1602
 8698SOL    HW137553   0.979   4.083  12.198 -0.7341 -0.1367  0.6882
 8698SOL    HW237554   0.986   4.218  12.276  0.6528  0.1346 -0.6552
 8699SOL     OW37555   1.847   3.192   9.026  0.5826 -0.0394  0.3837
 8699SOL    HW137556   1.902   3.197   8.948  1.8724 -1.2586  1.2234
 8699SOL    HW237557   1.901   3.136   9.082 -1.2846 -1.1238  1.0832
 8700SOL     OW37558   1.611   0.122   4.319 -0.2707 -0.1789  0.0308
 8700SOL    HW137559   1.680   0.063   4.288 -0.2557 -0.4533  0.5760
 8700SOL    HW237560   1.564   0.147   4.240 -0.7140  0.5502  0.5258
 8701SOL     OW37561   3.756   1.295   3.868  0.1607  0.0513  0.5387
 8701SOL    HW137562   3.674   1.247   3.879  1.5308 -2.6771 -0.8676
 8701SOL    HW237563   3.820   1.224   3.881 -0.8287 -0.9932 -0.2474
 8702SOL     OW37564   2.005   0.554   1.825  0.4706  0.5474 -0.2195
 8702SOL    HW137565   2.008   0.489   1.895  0.4205  0.7784 -0.0016
 8702SOL    HW237566   1.983   0.502   1.747 -2.1249 -0.6708  1.3286
 8703SOL     OW37567   2.444   4.711  11.533  0.2953 -0.0085  0.7889
 8703SOL    HW137568   2.363   4.661  11.542  0.3592 -0.3002 -0.1791
 8703SOL    HW237569   2.493   4.708  11.615  1.2672  0.7433  0.2314
 8704SOL     OW37570   0.041   1.608   0.369  0.0729  0.2972 -0.0490
 8704SOL    HW137571   0.102   1.668   0.326 -1.4754  1.4578 -0.6132
 8704SOL    HW237572   0.107   1.545   0.396  1.1993  1.7006  0.4562
 8705SOL     OW37573   4.351   1.234   5.411  0.7789 -0.0578 -0.4133
 8705SOL    HW137574   4.349   1.193   5.324 -0.1991  0.3112 -0.5673
 8705SOL    HW237575   4.258   1.245   5.430  1.1306  0.6367  0.8804
 8706SOL     OW37576   1.461   1.976   9.312  0.2326  0.0680  0.5860
 8706SOL    HW137577   1.415   1.895   9.288  0.0160  0.3882 -0.0809
 8706SOL    HW237578   1.548   1.944   9.338 -0.1893 -0.3343  1.4992
 8707SOL     OW37579   0.613   0.723   1.060 -0.6667  0.2316  0.5810
 8707SOL    HW137580   0.592   0.796   1.118 -0.7295 -0.0806  0.9460
 8707SOL    HW237581   0.664   0.672   1.123 -1.0630  0.1298  0.8163
 8708SOL     OW37582   1.898   3.465   7.479  0.0125  0.4759  0.0710
 8708SOL    HW137583   1.882   3.560   7.480  1.6112  0.7480 -2.9213
 8708SOL    HW237584   1.929   3.444   7.567  1.1738 -0.1077 -0.4779
 8709SOL     OW37585   4.214   2.670  12.779 -0.2799 -0.3764 -0.3616
 8709SOL    HW137586   4.266   2.617  12.839  2.0485  0.2147 -1.8391
 8709SOL    HW237587   4.128   2.660  12.819 -0.5189 -1.3022 -1.1087
 8710SOL     OW37588   3.196   2.647  17.019 -0.3667  0.4162  0.1303
 8710SOL    HW137589   3.227   2.679  17.103  2.5585 -1.3522 -0.2686
 8710SOL    HW237590   3.258   2.575  17.004 -0.4667 -0.2800  3.1336
 8711SOL     OW37591   3.237   1.903  10.308 -0.0981  0.0229 -0.4003
 8711SOL    HW137592   3.289   1.878  10.232  0.7263  0.6176 -0.0373
 8711SOL    HW237593   3.294   1.877  10.380 -1.1065 -0.9706  0.0431
 8712SOL     OW37594   1.329   2.540   1.780  0.5109 -0.2578 -0.5034
 8712SOL    HW137595   1.368   2.484   1.713 -1.7172 -1.0056 -1.1853
 8712SOL    HW237596   1.340   2.500   1.866 -1.3400  0.2977  0.0012
 8713SOL     OW37597   3.741   3.364  14.640 -0.2108  0.3423  0.1650
 8713SOL    HW137598   3.767   3.379  14.731 -0.8118 -1.2793  0.6117
 8713SOL    HW237599   3.711   3.453  14.620  1.3904  0.2382 -2.5769
 8714SOL     OW37600   3.224   0.720   9.945  0.1376 -0.3533 -0.0662
 8714SOL    HW137601   3.303   0.674   9.974 -0.5241 -1.1224  0.4812
 8714SOL    HW237602   3.252   0.812   9.954 -0.6811 -0.1916  0.8179
 8715SOL     OW37603   0.718   1.768   6.391  0.2689 -0.2898  0.0407
 8715SOL    HW137604   0.729   1.821   6.470  0.4726  1.4334 -1.1372
 8715SOL    HW237605   0.636   1.807   6.362  0.4736 -1.5904 -2.2095
 8716SOL     OW37606   2.147   3.332   7.466  0.5575 -0.0666  0.9170
 8716SOL    HW137607   2.197   3.394   7.519  1.4456 -1.2590  1.4622
 8716SOL    HW237608   2.062   3.373   7.447  0.9930 -0.0605 -0.9858
 8717SOL     OW37609   1.921   0.980   8.573 -0.2830 -0.3017  0.9859
 8717SOL    HW137610   1.969   1.037   8.633  0.5634  0.9347 -0.8679
 8717SOL    HW237611   1.992   0.926   8.536 -0.6409  0.3096 -0.5959
 8718SOL     OW37612   3.083   2.029  15.160 -0.4571 -0.0324 -0.2597
 8718SOL    HW137613   3.080   1.966  15.088  0.3767 -1.1177  0.6681
 8718SOL    HW237614   2.989   2.045  15.169 -0.4010  1.4915 -2.3406
 8719SOL     OW37615   0.792   4.086   3.957 -0.3173 -0.4803  0.1800
 8719SOL    HW137616   0.771   4.015   3.896 -2.0195  0.2969 -0.1618
 8719SOL    HW237617   0.865   4.044   4.001 -1.1372 -1.5692  0.4950
 8720SOL     OW37618   2.407   1.052   2.866  0.4251 -0.4049  0.0527
 8720SOL    HW137619   2.335   1.072   2.806  1.4724 -0.3822 -1.1987
 8720SOL    HW237620   2.452   0.990   2.808 -1.5923 -1.4663 -0.3876
 8721SOL     OW37621   4.228   1.163   1.794 -0.0562  0.8692  0.3101
 8721SOL    HW137622   4.289   1.178   1.866 -1.2355  1.1815  1.2642
 8721SOL    HW237623   4.278   1.128   1.721 -2.1883 -0.2725 -0.6090
 8722SOL     OW37624   0.321   1.648   1.444  0.2396 -0.0892  0.7664
 8722SOL    HW137625   0.346   1.620   1.532  0.5333 -2.3998 -0.0508
 8722SOL    HW237626   0.397   1.691   1.405 -1.3069  1.3787 -0.6205
 8723SOL     OW37627   3.818   0.473   7.965 -0.4614 -0.0127 -0.8363
 8723SOL    HW137628   3.852   0.510   8.046  1.1252  3.2880 -2.9925
 8723SOL    HW237629   3.845   0.381   7.971  0.3991  0.3644  0.9117
 8724SOL     OW37630   2.999   2.729   5.126  0.1813  0.6652  0.5623
 8724SOL    HW137631   2.971   2.812   5.086  1.2597  1.9592  2.5009
 8724SOL    HW237632   3.057   2.757   5.197 -0.7112 -0.6621  1.8013
 8725SOL     OW37633   2.229   0.641  16.866 -0.2060  0.2024  0.2025
 8725SOL    HW137634   2.236   0.589  16.945  1.4451  2.5514  1.6070
 8725SOL    HW237635   2.242   0.575  16.798  2.0291  0.9949 -0.1516
 8726SOL     OW37636   0.790   1.906   7.432 -0.5231  0.0533  0.3900
 8726SOL    HW137637   0.699   1.902   7.463 -0.6643  0.3895  0.0052
 8726SOL    HW237638   0.842   1.911   7.513 -0.4736  3.3226  0.1438
 8727SOL     OW37639   0.743   4.640   3.085  0.0267  0.3017 -0.2837
 8727SOL    HW137640   0.826   4.610   3.121  0.0956 -1.5165 -1.9663
 8727SOL    HW237641   0.713   4.563   3.037 -0.5593  0.4129 -0.1043
 8728SOL     OW37642   3.143   4.698   7.388  0.4134 -0.0228 -0.2889
 8728SOL    HW137643   3.208   0.044   7.379 -1.0456  1.0783 -2.3850
 8728SOL    HW237644   3.075   0.010   7.444  1.6307 -0.4245  1.4331
 8729SOL     OW37645   4.025   0.013   2.022 -0.1278 -0.6092 -0.2267
 8729SOL    HW137646   4.045   0.056   2.106  0.8650 -2.1838  0.3533
 8729SOL    HW237647   3.974   0.080   1.977 -0.8820 -0.5177  0.7594
 8730SOL     OW37648   0.314   2.587   2.362  0.1970 -0.6608  0.3562
 8730SOL    HW137649   0.325   2.611   2.270  1.4807 -2.9016 -0.0812
 8730SOL    HW237650   0.275   2.670   2.390 -0.9232 -0.7722 -0.8354
 8731SOL     OW37651   2.089   1.798   1.079  0.7933  0.3907  0.1410
 8731SOL    HW137652   2.177   1.765   1.059  1.6957  3.2547 -0.5584
 8731SOL    HW237653   2.024   1.735   1.047  0.1783  2.1047 -1.9643
 8732SOL     OW37654   4.021   3.763   6.667  0.6429 -0.1573  0.5882
 8732SOL    HW137655   3.992   3.800   6.751 -2.9585 -0.8459 -0.3521
 8732SOL    HW237656   3.987   3.835   6.614  1.9355 -0.3806 -0.5488
 8733SOL     OW37657   3.385   2.355   8.885 -0.6110 -0.0521  0.2965
 8733SOL    HW137658   3.393   2.376   8.792 -2.1042 -0.3600  0.0982
 8733SOL    HW237659   3.296   2.382   8.908 -0.4524 -0.5187  1.4914
 8734SOL     OW37660   0.625   0.165   7.470  0.0854  0.1212  0.1015
 8734SOL    HW137661   0.644   0.248   7.514  3.1584 -0.2144 -0.5934
 8734SOL    HW237662   0.705   0.115   7.487  0.8329  1.2341 -0.1601
 8735SOL     OW37663   1.967   3.036   8.298  0.0776  0.4676  0.1549
 8735SOL    HW137664   1.966   3.017   8.204  2.3301 -0.0301  0.2498
 8735SOL    HW237665   2.021   3.115   8.297  1.7241 -0.6837 -1.7080
 8736SOL     OW37666   2.365   1.396  12.254  0.7394 -0.6904  0.2347
 8736SOL    HW137667   2.329   1.441  12.177 -0.9567 -1.8987  0.3313
 8736SOL    HW237668   2.310   1.318  12.249 -0.0802 -0.1893  1.4163
 8737SOL     OW37669   1.571   3.596   3.129 -0.1288  0.1161  0.6700
 8737SOL    HW137670   1.609   3.615   3.043 -1.3025 -0.9277 -0.0720
 8737SOL    HW237671   1.561   3.502   3.119  0.7953  0.4646 -3.5166
 8738SOL     OW37672   3.483   3.289   7.264 -0.0398 -0.5053 -0.2418
 8738SOL    HW137673   3.523   3.215   7.309 -0.7937  0.1616  1.5427
 8738SOL    HW237674   3.395   3.256   7.244 -0.0619  1.3108 -3.1499
 8739SOL     OW37675   0.077   0.563   7.470  0.9195 -0.1117 -0.2980
 8739SOL    HW137676   0.057   0.469   7.469 -0.7293  0.2084  1.7291
 8739SOL    HW237677   4.716   0.590   7.501 -0.3456 -1.7880 -2.3267
 8740SOL     OW37678   3.860   2.072  17.700  0.0361 -0.1263 -0.3689
 8740SOL    HW137679   3.935   2.109   0.048  1.2724 -1.1506 -1.5025
 8740SOL    HW237680   3.895   1.998  17.651 -0.0679 -1.9486  2.3371
 8741SOL     OW37681   2.616   0.834   2.341 -0.1913  0.0971  0.3574
 8741SOL    HW137682   2.613   0.930   2.347  2.0806  0.1514  0.6299
 8741SOL    HW237683   2.662   0.822   2.258 -0.3940 -2.1451  0.5813
 8742SOL     OW37684   1.174   3.273   2.284 -0.6471 -0.3430 -0.3889
 8742SOL    HW137685   1.127   3.310   2.209 -2.5119 -0.3739  0.7435
 8742SOL    HW237686   1.097   3.226   2.316 -1.0450  0.8907  0.4906
 8743SOL     OW37687   1.745   2.664   5.964  0.2908  0.2444 -0.2920
 8743SOL    HW137688   1.779   2.670   5.875  1.3462  1.8823  0.2161
 8743SOL    HW237689   1.651   2.649   5.949  0.2214  0.3156  0.0635
 8744SOL     OW37690   1.816   1.579   5.518  0.4407  0.4205  0.5073
 8744SOL    HW137691   1.774   1.499   5.487  0.3448  0.7826 -0.3067
 8744SOL    HW237692   1.906   1.547   5.525  0.4269  0.0852 -0.9173
 8745SOL     OW37693   2.590   2.850   1.398  0.2242  0.1849 -0.0062
 8745SOL    HW137694   2.585   2.891   1.484  1.8685 -0.8543  0.5886
 8745SOL    HW237695   2.578   2.762   1.434  0.8036  0.9337  1.9844
 8746SOL     OW37696   2.684   4.004   3.314  0.5570  0.5547 -0.0076
 8746SOL    HW137697   2.644   3.918   3.327  1.8781  0.0947  1.0173
 8746SOL    HW237698   2.635   4.032   3.236  0.2283  0.7469  0.2664
 8747SOL     OW37699   2.115   0.362   5.142  0.3475 -0.3627 -0.1461
 8747SOL    HW137700   2.043   0.422   5.121  0.8000 -0.1979 -1.2418
 8747SOL    HW237701   2.191   0.407   5.105 -1.7602  2.4671 -1.0803
 8748SOL     OW37702   4.667   2.269   1.199  0.6889 -0.1811 -0.5679
 8748SOL    HW137703   4.666   2.228   1.286  0.3074  2.2220  0.5678
 8748SOL    HW237704   4.607   2.343   1.202  0.9226 -0.0241  0.4868
 8749SOL     OW37705   3.250   2.943   4.947 -0.5133  0.5252 -0.0308
 8749SOL    HW137706   3.272   2.869   5.004 -1.3501  1.3986  1.4403
 8749SOL    HW237707   3.184   2.989   4.998 -0.8462 -0.2110  0.2120
 8750SOL     OW37708   2.204   4.152   5.754  0.4177  0.4360  0.1684
 8750SOL    HW137709   2.286   4.191   5.724 -0.7540  0.7573 -2.6046
 8750SOL    HW237710   2.144   4.202   5.698 -2.0259 -0.9816  1.5484
 8751SOL     OW37711   0.644   2.031   0.876  0.0889 -0.4155  0.6060
 8751SOL    HW137712   0.676   2.025   0.786 -0.4608  2.2550  0.2311
 8751SOL    HW237713   0.670   1.950   0.920  1.0919 -1.4576 -1.8685
 8752SOL     OW37714   0.895   0.856   3.494  0.1120 -0.3524  0.6189
 8752SOL    HW137715   0.962   0.872   3.427  1.4895 -0.1181  2.0570
 8752SOL    HW237716   0.827   0.908   3.453  0.1824 -0.8633 -0.1457
 8753SOL     OW37717   3.702   4.477   7.368 -0.3827  0.5683  0.1822
 8753SOL    HW137718   3.789   4.438   7.355 -0.5885  0.0662  0.3303
 8753SOL    HW237719   3.723   4.569   7.386 -1.7800  1.2061 -1.4748
 8754SOL     OW37720   3.328   1.208   6.464 -0.0262 -0.6986 -0.1569
 8754SOL    HW137721   3.367   1.295   6.473 -1.6943  0.1104 -0.7037
 8754SOL    HW237722   3.316   1.206   6.369 -1.0294 -1.4634 -0.0117
 8755SOL     OW37723   0.083   0.923  10.662 -0.2675 -0.6823 -0.3981
 8755SOL    HW137724   0.020   0.928  10.591 -0.2930 -0.5341 -0.3644
 8755SOL    HW237725   0.031   0.862  10.715  1.5917 -2.5335 -0.6794
 8756SOL     OW37726   2.991   1.024  15.569  0.6712  0.0367  0.0853
 8756SOL    HW137727   3.012   0.931  15.580  1.3731 -0.0539 -1.8738
 8756SOL    HW237728   3.035   1.046  15.487 -1.5803  0.7526 -0.9146
 8757SOL     OW37729   1.435   1.100   5.747  0.0031 -0.0324  0.0102
 8757SOL    HW137730   1.368   1.156   5.787  1.3103  1.0133  0.7396
 8757SOL    HW237731   1.388   1.017   5.742 -0.1483 -0.0630  1.7816
 8758SOL     OW37732   2.269   0.049   7.230 -0.0274 -0.6501  0.3545
 8758SOL    HW137733   2.278   0.092   7.145  1.1245  0.3668  0.9895
 8758SOL    HW237734   2.179   0.015   7.231 -1.2695  2.6025  0.4666
 8759SOL     OW37735   2.261   3.899   9.328  0.3853 -0.4067  0.4473
 8759SOL    HW137736   2.290   3.902   9.237 -1.8936 -0.0234 -0.2732
 8759SOL    HW237737   2.277   3.809   9.356 -0.0482 -0.2075  1.3469
 8760SOL     OW37738   0.505   4.502   7.126  0.6064  0.1603 -0.4462
 8760SOL    HW137739   0.601   4.506   7.130  0.7362  0.7327 -4.4006
 8760SOL    HW237740   0.471   4.550   7.050 -0.6426 -1.2594 -0.7855
 8761SOL     OW37741   1.185   1.415   7.220  0.2539  0.0810  0.3607
 8761SOL    HW137742   1.187   1.344   7.284 -1.8135 -1.5833 -1.4149
 8761SOL    HW237743   1.204   1.376   7.135 -0.8634  1.3003 -0.4444
 8762SOL     OW37744   4.172   0.789  12.371  0.0305  0.1640 -0.0152
 8762SOL    HW137745   4.114   0.856  12.407 -0.6970 -1.0934  1.1332
 8762SOL    HW237746   4.118   0.749  12.303 -1.2631 -0.0095  1.1170
 8763SOL     OW37747   0.473   4.234   7.486 -0.1601  0.0612  0.4408
 8763SOL    HW137748   0.418   4.191   7.552 -0.3218 -0.1718  0.1501
 8763SOL    HW237749   0.544   4.173   7.467 -2.8873 -2.8592 -0.2275
 8764SOL     OW37750   1.369   4.432   0.192 -0.8388  0.3403 -0.5437
 8764SOL    HW137751   1.356   4.477   0.109  2.1215  0.5400 -0.8849
 8764SOL    HW237752   1.389   4.342   0.168 -0.0406 -0.0566  1.5960
 8765SOL     OW37753   4.268   3.184  16.509 -0.4516 -0.5077 -0.1216
 8765SOL    HW137754   4.304   3.247  16.446 -1.0149  0.8467  0.9070
 8765SOL    HW237755   4.345   3.163  16.562 -0.6108  0.1822  0.3833
 8766SOL     OW37756   2.976   0.299   3.882 -0.5671 -0.8476  0.0108
 8766SOL    HW137757   2.941   0.237   3.947 -1.5570  0.3006  0.5949
 8766SOL    HW237758   2.992   0.235   3.813  2.2739  0.5574 -0.6442
 8767SOL     OW37759   3.854   1.837   6.441 -0.2905 -0.3836  0.2874
 8767SOL    HW137760   3.941   1.846   6.403  0.1349 -1.0389  1.0867
 8767SOL    HW237761   3.812   1.917   6.409  1.4576  0.6077  0.4895
 8768SOL     OW37762   1.539   2.836   6.198 -0.2183 -0.4428  0.8898
 8768SOL    HW137763   1.533   2.763   6.137 -0.0839  0.0865  0.2388
 8768SOL    HW237764   1.448   2.845   6.226 -0.4814  0.2078 -0.1420
 8769SOL     OW37765   0.435   1.181   3.168 -0.2604 -0.0748 -0.2276
 8769SOL    HW137766   0.424   1.276   3.170 -1.7239 -0.2179 -1.6059
 8769SOL    HW237767   0.345   1.155   3.146  0.5681 -1.8865 -1.4528
 8770SOL     OW37768   4.321   1.094   8.611 -0.1861  0.3700 -0.0207
 8770SOL    HW137769   4.360   1.060   8.692 -1.7683 -1.2086  0.0781
 8770SOL    HW237770   4.361   1.039   8.545 -1.2109 -0.4425  0.0312
 8771SOL     OW37771   2.263   4.706  14.149 -0.7250 -0.3191 -0.6088
 8771SOL    HW137772   2.346   4.660  14.158 -0.7584 -0.4593 -0.9930
 8771SOL    HW237773   2.269   0.027  14.065 -0.2893  1.5101  0.4178
 8772SOL     OW37774   2.535   1.263  15.704 -0.2447  0.5631 -0.3021
 8772SOL    HW137775   2.515   1.356  15.693 -1.6896  0.3631  0.6496
 8772SOL    HW237776   2.631   1.264  15.704 -0.2435 -0.1243  1.2991
 8773SOL     OW37777   3.913   4.486   7.801  0.4015  0.2440 -0.2474
 8773SOL    HW137778   3.925   4.392   7.789  0.4814  0.0997  0.9493
 8773SOL    HW237779   4.005   4.505   7.816  0.1289  0.5082  1.1422
 8774SOL     OW37780   2.542   0.618   0.888 -0.0104  0.3103 -0.0086
 8774SOL    HW137781   2.525   0.585   0.977 -1.0205  0.6765 -0.0712
 8774SOL    HW237782   2.568   0.707   0.913  1.3096  0.1513 -0.8197
 8775SOL     OW37783   1.357   0.717  17.112 -0.0742 -0.3384  0.1904
 8775SOL    HW137784   1.423   0.648  17.105  2.4290  2.0268  0.2631
 8775SOL    HW237785   1.312   0.693  17.193  1.7701  0.6031  1.5193
 8776SOL     OW37786   3.100   4.598  11.059  0.6241 -0.1108  0.7382
 8776SOL    HW137787   3.152   4.544  11.117  1.3001 -0.8428 -0.5515
 8776SOL    HW237788   3.095   4.673  11.118 -2.2050  1.3291 -1.2980
 8777SOL     OW37789   0.091   2.755   2.657 -0.4073 -0.1089  0.3478
 8777SOL    HW137790   4.724   2.774   2.672  0.0974  1.7668  1.0049
 8777SOL    HW237791   0.128   2.802   2.732 -3.0457 -0.4020  1.8168
 8778SOL     OW37792   3.902   4.393  14.382  0.1025  0.3182 -0.1484
 8778SOL    HW137793   3.810   4.375  14.363  0.5007  0.3223 -2.0449
 8778SOL    HW237794   3.923   4.449  14.307  0.5787  0.5112  0.1301
 8779SOL     OW37795   2.603   1.592   6.767  0.0981 -0.0019  0.1871
 8779SOL    HW137796   2.588   1.685   6.751 -0.3657 -0.3804 -1.5837
 8779SOL    HW237797   2.664   1.587   6.840  0.0826  0.7856  0.2571
 8780SOL     OW37798   0.395   1.079  10.554 -0.1852 -0.0297  0.4404
 8780SOL    HW137799   0.448   1.004  10.526  0.3964  0.7131 -0.4335
 8780SOL    HW237800   0.406   1.067  10.648 -0.1264 -0.2910  0.3997
 8781SOL     OW37801   3.590   4.387   3.838 -0.1461 -0.4986 -0.3698
 8781SOL    HW137802   3.618   4.469   3.797  2.0483 -0.2684  1.6022
 8781SOL    HW237803   3.662   4.384   3.901  1.5542 -0.7518 -2.3337
 8782SOL     OW37804   3.281   2.407   6.830  0.1104  0.0843  0.1062
 8782SOL    HW137805   3.217   2.434   6.764  2.3056 -0.2082 -2.1793
 8782SOL    HW237806   3.326   2.489   6.850  1.4232 -0.4061 -0.7824
 8783SOL     OW37807   2.832   3.143   1.925 -0.0947 -0.0449  0.5581
 8783SOL    HW137808   2.900   3.209   1.911  0.6764 -0.6954  1.1843
 8783SOL    HW237809   2.834   3.134   2.020  0.4168  0.0230  0.5554
 8784SOL     OW37810   1.736   1.689  10.390  0.0910  0.8859  0.3671
 8784SOL    HW137811   1.813   1.743  10.405 -0.0471  1.3405 -0.5828
 8784SOL    HW237812   1.685   1.708  10.469  0.5127  0.5728  0.7141
 8785SOL     OW37813   4.339   3.766  10.231 -0.1617 -0.4140 -0.3454
 8785SOL    HW137814   4.272   3.773  10.299 -0.5074 -2.7683 -0.4171
 8785SOL    HW237815   4.289   3.747  10.151  0.4371 -0.2125 -0.7661
 8786SOL     OW37816   1.081   4.466   0.266 -0.3821 -0.5399 -0.1901
 8786SOL    HW137817   1.175   4.462   0.247 -0.1143 -0.1646  1.0830
 8786SOL    HW237818   1.042   4.493   0.182 -1.4453 -2.0784 -0.1943
 8787SOL     OW37819   3.097   1.667   4.863 -0.3269  0.0456 -0.0568
 8787SOL    HW137820   3.174   1.674   4.919  0.4830 -1.0369 -1.0232
 8787SOL    HW237821   3.033   1.614   4.911 -0.4471  1.3703  1.2231
 8788SOL     OW37822   2.807   4.097   9.200  0.3318 -0.5061 -0.3585
 8788SOL    HW137823   2.879   4.035   9.186  0.2137 -0.2529 -2.0014
 8788SOL    HW237824   2.865   4.173   9.209  0.6210 -0.7952  0.2552
 8789SOL     OW37825   3.264   4.128   3.977  0.3916 -0.0427 -0.2117
 8789SOL    HW137826   3.356   4.142   3.954  0.7372  0.2809  1.4054
 8789SOL    HW237827   3.241   4.197   4.040  1.0664  0.1259 -0.1574
 8790SOL     OW37828   1.745   2.327  13.548  0.2332 -0.4105 -0.0101
 8790SOL    HW137829   1.704   2.404  13.509  1.5766  0.4783  0.3313
 8790SOL    HW237830   1.691   2.259  13.507 -0.9885  1.1496 -0.9684
 8791SOL     OW37831   3.689   4.324   4.734  0.1507  0.1555  0.1516
 8791SOL    HW137832   3.602   4.328   4.775 -1.0481  0.2305 -2.4359
 8791SOL    HW237833   3.703   4.230   4.736 -3.2100 -0.3311  2.3352
 8792SOL     OW37834   2.260   2.831  10.092 -1.0429  0.7724 -0.5730
 8792SOL    HW137835   2.180   2.782  10.073  0.6645 -1.3188 -2.3320
 8792SOL    HW237836   2.278   2.794  10.179 -0.5398  0.8327 -0.6490
 8793SOL     OW37837   4.547   1.551   7.433  0.3242 -0.4480 -0.0609
 8793SOL    HW137838   4.473   1.499   7.464  1.6811 -1.4497  1.4776
 8793SOL    HW237839   4.609   1.484   7.405 -0.1801 -1.0588  0.2909
 8794SOL     OW37840   1.534   0.343   5.523  0.9528 -0.1147  0.2998
 8794SOL    HW137841   1.548   0.346   5.618 -0.4038 -0.5964  0.5165
 8794SOL    HW237842   1.525   0.435   5.496 -1.0454 -0.6809 -0.9242
 8795SOL     OW37843   3.348   1.660   4.420 -0.6519 -0.3364  0.2597
 8795SOL    HW137844   3.280   1.623   4.477  0.9685 -1.0174  1.7849
 8795SOL    HW237845   3.285   1.708   4.367  0.4310  1.0985  0.2900
 8796SOL     OW37846   2.882   4.227   2.607 -0.1043  0.0086  0.3075
 8796SOL    HW137847   2.902   4.305   2.556 -0.3321  0.0250  0.2426
 8796SOL    HW237848   2.837   4.266   2.682 -0.5240 -2.1728  1.1804
 8797SOL     OW37849   2.399   4.031   7.160  0.1540  0.1746 -0.1631
 8797SOL    HW137850   2.456   4.036   7.084 -0.2680 -0.2279 -0.5102
 8797SOL    HW237851   2.328   3.993   7.107  1.7970 -2.0861 -0.7424
 8798SOL     OW37852   0.595   2.150   4.106  0.3869  0.3662  0.5879
 8798SOL    HW137853   0.569   2.156   4.198 -0.0157  2.1466  0.3599
 8798SOL    HW237854   0.560   2.225   4.058 -1.2800 -0.2946  0.7643
 8799SOL     OW37855   0.365   2.761  13.303 -0.0309  0.3914  0.2188
 8799SOL    HW137856   0.294   2.777  13.365 -1.2458  0.7824 -1.2812
 8799SOL    HW237857   0.370   2.854  13.281 -1.8307 -0.2420 -2.8416
 8800SOL     OW37858   1.197   0.822  15.003 -0.1695 -0.4502 -0.1621
 8800SOL    HW137859   1.224   0.749  15.058  0.2756 -0.0328  0.1860
 8800SOL    HW237860   1.287   0.851  14.986 -0.1783  0.0808  0.7010
 8801SOL     OW37861   2.707   3.439  17.268  0.0298  0.2088 -0.0938
 8801SOL    HW137862   2.788   3.416  17.314  0.4439  0.3454 -0.7666
 8801SOL    HW237863   2.734   3.441  17.177 -0.8800 -0.8804 -0.3811
 8802SOL     OW37864   4.019   0.322   5.249 -0.8018 -0.0252 -0.2334
 8802SOL    HW137865   4.063   0.286   5.173 -0.2636  0.5621 -0.1985
 8802SOL    HW237866   4.068   0.270   5.313  0.4796  0.0162 -1.1978
 8803SOL     OW37867   2.815   1.045  15.774 -0.3351 -0.0491  0.0307
 8803SOL    HW137868   2.871   1.029  15.698 -1.1166  1.1296 -0.8019
 8803SOL    HW237869   2.826   1.140  15.782 -1.1772  0.3242 -3.4268
 8804SOL     OW37870   1.392   4.391  13.182  0.4249 -0.4600 -0.3001
 8804SOL    HW137871   1.484   4.419  13.184  0.4168 -0.5177  1.0938
 8804SOL    HW237872   1.398   4.296  13.171  0.8158 -0.5603  0.7342
 8805SOL     OW37873   2.983   1.357  10.769 -0.1622 -0.2015  0.1320
 8805SOL    HW137874   2.925   1.372  10.844 -0.2742 -0.1903  0.0439
 8805SOL    HW237875   3.047   1.298  10.810  0.0247 -0.1503 -0.0901
 8806SOL     OW37876   3.986   1.266   6.382 -0.1146 -0.4968  0.1323
 8806SOL    HW137877   3.978   1.177   6.415 -1.5048 -0.6363 -0.5887
 8806SOL    HW237878   3.898   1.304   6.389 -0.0714 -0.2267 -0.9176
 8807SOL     OW37879   3.835   0.296   6.645 -0.2859 -0.2180 -0.6806
 8807SOL    HW137880   3.839   0.355   6.720  0.9619 -1.5328  0.2988
 8807SOL    HW237881   3.754   0.330   6.608 -0.4837  0.0881  0.0300
 8808SOL     OW37882   0.575   4.334   4.476  0.0790  0.5672 -0.4857
 8808SOL    HW137883   0.489   4.375   4.465 -0.0505  0.8225  1.5613
 8808SOL    HW237884   0.552   4.256   4.525 -0.3179 -0.4266 -2.2617
 8809SOL     OW37885   2.535   1.903   4.521  0.1206  0.4511 -0.1875
 8809SOL    HW137886   2.463   1.839   4.524 -0.1491  0.7765  0.2388
 8809SOL    HW237887   2.565   1.903   4.612 -0.7600 -0.8058  0.1177
 8810SOL     OW37888   0.163   3.297   3.232  0.9603  0.5931 -0.1842
 8810SOL    HW137889   0.134   3.293   3.141  0.1870  0.2119  0.0810
 8810SOL    HW237890   0.175   3.392   3.239 -0.2484  0.7007  0.4781
 8811SOL     OW37891   1.486   2.993   4.286 -0.0573 -0.2020 -0.1239
 8811SOL    HW137892   1.510   3.052   4.215 -1.2839 -0.1969 -0.5360
 8811SOL    HW237893   1.473   2.914   4.234  0.5577 -0.5208  0.2102
 8812SOL     OW37894   3.098   2.841   4.296 -0.4566  0.7240  0.0865
 8812SOL    HW137895   3.012   2.830   4.256 -0.4439 -1.1670  0.6113
 8812SOL    HW237896   3.083   2.859   4.389  0.5465  0.6394  0.2663
 8813SOL     OW37897   3.022   4.395   0.243  0.1568  0.0479  0.3793
 8813SOL    HW137898   2.953   4.378   0.307 -1.3545 -1.3536 -1.6083
 8813SOL    HW237899   3.087   4.328   0.266 -0.4864 -1.0953 -1.1102
 8814SOL     OW37900   0.108   4.672   9.425  0.2180  0.5171 -0.6171
 8814SOL    HW137901   0.086   4.583   9.455 -1.7588  1.2050 -0.0058
 8814SOL    HW237902   0.113   4.717   9.509  0.2848  1.6525 -1.2348
 8815SOL     OW37903   2.430   0.122   1.707  0.4602  0.2664 -0.3815
 8815SOL    HW137904   2.376   0.118   1.786 -1.5424 -1.1641 -1.8094
 8815SOL    HW237905   2.424   0.215   1.684  2.5136  0.0690 -1.7030
 8816SOL     OW37906   1.042   4.711  11.761 -0.5733  0.6017  0.0184
 8816SOL    HW137907   0.990   4.647  11.809  0.0418 -0.0606 -0.2029
 8816SOL    HW237908   1.006   4.695  11.674  2.3820  0.0904 -1.1311
 8817SOL     OW37909   3.394   0.930   9.997 -0.0229  0.3604 -0.3952
 8817SOL    HW137910   3.369   1.011   9.953 -0.9298  0.4162  0.2251
 8817SOL    HW237911   3.475   0.967  10.032  1.1170 -3.0029  0.4953
 8818SOL     OW37912   3.243   1.474   3.320  0.7802 -0.0384 -0.5757
 8818SOL    HW137913   3.272   1.469   3.229 -2.6074 -0.3258 -1.6259
 8818SOL    HW237914   3.207   1.561   3.336 -1.7788 -1.5351  1.9227
 8819SOL     OW37915   3.315   2.401   0.863  1.0558  0.1096 -0.4833
 8819SOL    HW137916   3.260   2.433   0.792 -0.7191 -1.1775  0.3157
 8819SOL    HW237917   3.392   2.368   0.817  1.2724  1.7468 -1.3168
 8820SOL     OW37918   3.055   2.552   9.315 -0.5473  0.2076 -0.7997
 8820SOL    HW137919   3.057   2.647   9.314  0.4275  0.1702 -1.5258
 8820SOL    HW237920   3.076   2.534   9.407  1.9496  0.9022 -1.2534
 8821SOL     OW37921   4.057   3.108  16.727  0.2093 -0.5451  0.5364
 8821SOL    HW137922   4.123   3.172  16.754 -0.5605  0.5064 -0.0335
 8821SOL    HW237923   4.070   3.119  16.633 -2.0801  0.4194  0.3117
 8822SOL     OW37924   3.115   2.691   5.743 -0.4685 -0.1797 -0.3725
 8822SOL    HW137925   3.163   2.753   5.797 -1.8313  0.9428 -0.4540
 8822SOL    HW237926   3.029   2.696   5.783 -0.4538 -0.7649 -0.2676
 8823SOL     OW37927   1.614   2.546   0.496 -0.5538 -0.4020 -0.7559
 8823SOL    HW137928   1.624   2.474   0.434  2.8398 -0.6010 -0.0080
 8823SOL    HW237929   1.706   2.572   0.492 -1.2760  2.0472 -1.2477
 8824SOL     OW37930   4.214   3.495   5.371 -0.6873 -0.4354 -0.5085
 8824SOL    HW137931   4.196   3.575   5.420  1.8370  1.5128 -2.7763
 8824SOL    HW237932   4.263   3.523   5.294  1.1668  3.0732  1.9375
 8825SOL     OW37933   0.392   1.034  17.003 -0.5575  0.0336  0.3368
 8825SOL    HW137934   0.330   1.080  17.059 -1.0688  1.6915 -1.5767
 8825SOL    HW237935   0.366   0.942  17.012 -0.4364 -0.2382 -2.1346
 8826SOL     OW37936   3.355   2.025  17.313 -0.3522 -0.4708  0.7607
 8826SOL    HW137937   3.418   2.032  17.241 -1.3360  0.5541 -0.0004
 8826SOL    HW237938   3.341   2.110  17.355 -0.2313 -0.2264  0.3086
 8827SOL     OW37939   4.012   4.029   7.865 -0.0099 -0.5753  0.7768
 8827SOL    HW137940   4.069   4.022   7.942  0.6052 -2.1655  0.1835
 8827SOL    HW237941   4.044   4.109   7.823  1.0972 -1.3934  0.0578
 8828SOL     OW37942   1.523   3.485   4.510  0.3026 -0.4383 -0.0828
 8828SOL    HW137943   1.480   3.400   4.514  0.1540 -0.5666 -4.0022
 8828SOL    HW237944   1.503   3.531   4.591  0.2928 -0.4173 -0.0970
 8829SOL     OW37945   4.679   4.365  14.327 -0.4035 -0.4954  0.5362
 8829SOL    HW137946   4.593   4.341  14.362 -0.0150 -2.0589  0.4015
 8829SOL    HW237947   4.647   4.405  14.246  0.4556  0.7354  0.7939
 8830SOL     OW37948   1.111   2.966   7.433 -0.0992 -0.4232  0.1932
 8830SOL    HW137949   1.119   3.057   7.407 -2.1027 -0.2463  0.1368
 8830SOL    HW237950   1.059   2.977   7.513 -0.5702 -1.3184  0.0121
 8831SOL     OW37951   1.989   3.040   2.582  0.0027  0.0193 -0.2495
 8831SOL    HW137952   2.065   3.065   2.530  0.4608 -1.2821 -0.2287
 8831SOL    HW237953   2.039   2.982   2.640  0.7348  1.7851  0.9015
 8832SOL     OW37954   0.536   0.796   9.583 -0.1501  0.5485 -0.0491
 8832SOL    HW137955   0.603   0.773   9.647  0.6258 -0.6280 -1.3020
 8832SOL    HW237956   0.500   0.877   9.620 -3.5192 -1.0936  0.2662
 8833SOL     OW37957   1.383   3.896   4.759  0.0678  0.1149  0.0055
 8833SOL    HW137958   1.435   3.953   4.815  1.9619 -0.9586 -0.6815
 8833SOL    HW237959   1.300   3.940   4.778 -0.6675 -1.6755  0.9556
 8834SOL     OW37960   3.049   0.152   2.487  0.3804 -0.2645 -0.2503
 8834SOL    HW137961   3.090   0.111   2.411  0.5444  0.0884 -0.3511
 8834SOL    HW237962   2.972   0.183   2.438  0.4682 -0.9954 -0.8464
 8835SOL     OW37963   2.278   3.598   8.789 -0.0096 -0.1583 -0.1219
 8835SOL    HW137964   2.198   3.598   8.841  0.0254 -0.1212 -0.0673
 8835SOL    HW237965   2.305   3.507   8.791  0.5195  0.0004 -0.0591
 8836SOL     OW37966   1.011   2.756  14.638  0.7049 -0.1230  0.0917
 8836SOL    HW137967   1.048   2.838  14.603  0.5847 -0.5162 -0.9616
 8836SOL    HW237968   1.085   2.742  14.696 -0.8114  0.6004  2.2019
 8837SOL     OW37969   2.746   0.378  16.699  0.1874 -0.0733 -0.2198
 8837SOL    HW137970   2.722   0.357  16.609 -2.2946  1.7049  0.0316
 8837SOL    HW237971   2.701   0.310  16.750  0.0020  0.1014 -0.1512
 8838SOL     OW37972   2.659   1.163   5.257 -0.0786  0.6091 -0.0077
 8838SOL    HW137973   2.607   1.135   5.182  0.4764 -0.3367 -0.0374
 8838SOL    HW237974   2.712   1.238   5.229 -0.1362  0.7255  0.1970
 8839SOL     OW37975   2.682   3.547   1.460  0.4452  0.3086 -0.0215
 8839SOL    HW137976   2.778   3.553   1.454  0.2420  2.8311 -0.5313
 8839SOL    HW237977   2.674   3.544   1.556 -2.3050  0.9530 -0.2582
 8840SOL     OW37978   3.966   2.783  16.014  0.0680  0.4218 -0.3297
 8840SOL    HW137979   3.903   2.735  16.067 -0.5530  1.2430 -0.3335
 8840SOL    HW237980   4.044   2.778  16.070  0.3566  1.6481 -0.6200
 8841SOL     OW37981   1.956   2.214  16.609 -0.1415  0.1007 -0.6498
 8841SOL    HW137982   1.979   2.237  16.699 -0.7232  3.1414 -1.2966
 8841SOL    HW237983   2.004   2.279  16.558  1.8310 -0.0925  0.9878
 8842SOL     OW37984   0.567   1.527   1.196  0.7118 -0.1987  0.2537
 8842SOL    HW137985   0.556   1.586   1.271 -0.3979  0.3196 -0.3248
 8842SOL    HW237986   0.550   1.584   1.121  0.0145 -0.6027  0.1094
 8843SOL     OW37987   0.579   0.880  17.201  0.6333  0.2233 -0.0328
 8843SOL    HW137988   0.549   0.944  17.265  2.5728  1.3123 -0.2344
 8843SOL    HW237989   0.495   0.856  17.161  0.5931 -1.6580  1.1802
 8844SOL     OW37990   3.200   4.440   2.018  0.0085 -0.3835 -0.0703
 8844SOL    HW137991   3.133   4.385   1.976  1.3069 -1.6781 -0.4311
 8844SOL    HW237992   3.166   4.449   2.107  1.1942 -1.8190  0.5213
 8845SOL     OW37993   1.681   1.592   5.793 -0.0931  0.6088  0.1081
 8845SOL    HW137994   1.676   1.685   5.817 -0.3860 -0.6561  4.9898
 8845SOL    HW237995   1.681   1.589   5.697 -0.0131  0.1047  0.1259
 8846SOL     OW37996   3.315   2.738   7.119  0.1834 -0.0182  0.0417
 8846SOL    HW137997   3.396   2.734   7.069  0.4473  0.0783  0.4699
 8846SOL    HW237998   3.286   2.651   7.092  1.8118 -0.5504  0.0748
 8847SOL     OW37999   1.399   2.297   5.670 -0.1938 -0.5591 -0.9937
 8847SOL    HW138000   1.387   2.251   5.753  0.3320 -2.0955 -1.7582
 8847SOL    HW238001   1.476   2.350   5.688 -2.0525  1.8556 -0.1259
 8848SOL     OW38002   3.963   2.989  14.605 -0.1918  0.0398 -0.1461
 8848SOL    HW138003   4.051   3.008  14.571 -0.1156 -2.1818 -1.1702
 8848SOL    HW238004   3.971   2.898  14.631 -1.3852 -0.9226 -3.1831
 8849SOL     OW38005   4.140   2.070   2.364  0.1476 -0.4151 -0.0976
 8849SOL    HW138006   4.214   2.118   2.401 -0.8537 -0.0228  1.4012
 8849SOL    HW238007   4.071   2.134   2.342  0.4376  0.4742  1.6106
 8850SOL     OW38008   1.853   3.654  11.020  0.3532 -0.2320 -0.5246
 8850SOL    HW138009   1.861   3.727  11.081  2.2857  0.2742 -1.3876
 8850SOL    HW238010   1.788   3.599  11.063 -1.7031  2.2138 -0.4788
 8851SOL     OW38011   4.595   3.849   5.090 -0.0888 -0.3116  0.1686
 8851SOL    HW138012   4.603   3.880   5.180  0.6148  0.0215 -0.0128
 8851SOL    HW238013   4.667   3.790   5.068 -0.0060 -0.0826 -0.1808
 8852SOL     OW38014   1.394   3.074   1.534  0.6120 -0.5167 -0.4267
 8852SOL    HW138015   1.472   3.078   1.479  1.2842  1.2831  0.6691
 8852SOL    HW238016   1.367   3.165   1.523 -0.1976 -1.0626 -3.0232
 8853SOL     OW38017   0.731   3.705   9.039  0.0041  0.0087 -0.2444
 8853SOL    HW138018   0.727   3.710   9.134 -0.9597 -0.5605 -0.2564
 8853SOL    HW238019   0.716   3.613   9.021 -1.8689  0.3871 -0.6068
 8854SOL     OW38020   2.552   3.504   8.056  0.1684  0.4921  0.3320
 8854SOL    HW138021   2.643   3.475   8.054 -0.2106 -0.6810 -0.0993
 8854SOL    HW238022   2.538   3.484   8.149 -0.4544 -2.3922 -0.3790
 8855SOL     OW38023   3.308   4.718   9.470  0.2360 -0.1037 -0.2351
 8855SOL    HW138024   3.284   0.086   9.468  1.3998  0.2266  1.5075
 8855SOL    HW238025   3.325   4.699   9.378 -0.7709 -1.9680 -0.0286
 8856SOL     OW38026   2.443   1.444   7.368 -0.4030 -0.1341  0.2007
 8856SOL    HW138027   2.438   1.512   7.300  3.4512 -3.2341 -3.2010
 8856SOL    HW238028   2.414   1.491   7.446  0.1577  2.2313 -1.0219
 8857SOL     OW38029   2.545   0.554  14.315  0.1053  0.0963 -1.0101
 8857SOL    HW138030   2.489   0.617  14.361  1.8046  0.9772 -0.1227
 8857SOL    HW238031   2.536   0.481  14.377 -2.2964  0.1728 -1.2719
 8858SOL     OW38032   3.829   3.690   4.441  0.0027 -0.0541  0.0667
 8858SOL    HW138033   3.757   3.672   4.380  0.4265 -2.1810  0.2093
 8858SOL    HW238034   3.912   3.677   4.395  1.7986  2.8261  2.4748
 8859SOL     OW38035   2.377   2.311   3.805  0.2310 -1.0105 -0.6665
 8859SOL    HW138036   2.454   2.343   3.852  0.4061  0.0229 -1.6487
 8859SOL    HW238037   2.396   2.219   3.789 -1.2907 -1.5195  0.3756
 8860SOL     OW38038   3.421   3.700   7.209 -0.0269  0.7565 -0.5057
 8860SOL    HW138039   3.378   3.637   7.152 -0.5093  0.4595  0.1835
 8860SOL    HW238040   3.342   3.744   7.243 -0.2883 -1.3492  1.5548
 8861SOL     OW38041   2.313   1.233   0.413  0.0143  0.4037  0.0279
 8861SOL    HW138042   2.235   1.181   0.395  0.1300  0.5507 -0.8994
 8861SOL    HW238043   2.348   1.233   0.324 -1.1328  0.3005 -0.4218
 8862SOL     OW38044   1.101   4.552   6.540  0.1936  0.6119  0.6122
 8862SOL    HW138045   1.127   4.614   6.609  2.7377  1.0944 -0.7918
 8862SOL    HW238046   1.122   4.468   6.580 -0.2568  0.7264  1.0905
 8863SOL     OW38047   4.150   2.160  15.087 -0.2251 -0.0188  0.2293
 8863SOL    HW138048   4.128   2.203  15.005  4.8956 -0.0981 -1.2007
 8863SOL    HW238049   4.060   2.134  15.108  0.1592  0.5020  2.5805
 8864SOL     OW38050   2.505   3.606  13.641  0.2945  0.1073 -0.1330
 8864SOL    HW138051   2.535   3.640  13.556 -0.4934 -2.1006 -1.2897
 8864SOL    HW238052   2.449   3.534  13.614 -0.1264  0.7807 -1.0732
 8865SOL     OW38053   0.372   4.156   5.878 -0.9087 -0.5469  0.1541
 8865SOL    HW138054   0.351   4.073   5.835  2.0219 -0.5294 -1.3164
 8865SOL    HW238055   0.299   4.168   5.938 -2.1185 -2.5310 -0.9139
 8866SOL     OW38056   3.340   4.575   2.756 -0.0458  0.1499 -0.3211
 8866SOL    HW138057   3.250   4.554   2.734 -0.1329 -0.4718  0.5952
 8866SOL    HW238058   3.375   4.496   2.798  2.0770  0.7806 -0.9185
 8867SOL     OW38059   3.362   2.726   8.769  0.8373 -0.1082 -0.4609
 8867SOL    HW138060   3.406   2.785   8.830  1.0762 -0.8999  0.1304
 8867SOL    HW238061   3.301   2.682   8.828  2.0206  0.5294  1.2438
 8868SOL     OW38062   0.406   2.495   8.194 -0.1262 -0.1542  0.1199
 8868SOL    HW138063   0.383   2.538   8.276  0.6797 -0.7105  0.6465
 8868SOL    HW238064   0.388   2.404   8.218 -0.9254 -0.3527 -1.2440
 8869SOL     OW38065   3.648   2.468   7.268 -0.4059 -0.4285 -0.3490
 8869SOL    HW138066   3.709   2.541   7.257  0.2897 -1.1133 -0.9659
 8869SOL    HW238067   3.712   2.400   7.246 -0.1770 -0.2767 -0.1496
 8870SOL     OW38068   0.537   1.483   9.047 -0.4490  0.2246  0.0077
 8870SOL    HW138069   0.443   1.472   9.037 -0.5424  1.1447 -0.1012
 8870SOL    HW238070   0.538   1.554   9.110  1.1141  1.4698 -1.4248
 8871SOL     OW38071   3.945   4.670   3.723  0.2860  0.3077  0.2161
 8871SOL    HW138072   3.988   4.621   3.793  0.7990 -0.6432 -0.7536
 8871SOL    HW238073   4.013   4.722   3.682  2.5400 -3.0469 -0.3193
 8872SOL     OW38074   0.854   3.496   9.377 -0.6693  0.1864  0.7497
 8872SOL    HW138075   0.822   3.498   9.468 -0.3847  1.4093  0.8200
 8872SOL    HW238076   0.814   3.578   9.348 -2.6958 -1.2490 -0.4995
 8873SOL     OW38077   4.060   2.176   7.587 -0.6849 -0.0367  0.5177
 8873SOL    HW138078   4.080   2.254   7.534  3.3693 -0.2718  1.6678
 8873SOL    HW238079   4.070   2.103   7.527 -2.1513 -0.6534  1.0340
 8874SOL     OW38080   3.897   0.804   8.202  0.2041 -0.4546  0.1251
 8874SOL    HW138081   3.903   0.730   8.262  1.9985 -2.5668 -2.6932
 8874SOL    HW238082   3.877   0.750   8.125  1.3548 -0.1385 -0.3844
 8875SOL     OW38083   1.572   2.835   7.954 -0.5954  0.1434  0.3223
 8875SOL    HW138084   1.518   2.765   7.918  2.5104 -1.4229 -1.2832
 8875SOL    HW238085   1.612   2.800   8.034 -0.3281  0.2659  0.2420
 8876SOL     OW38086   2.052   3.396   2.490 -0.2279 -0.2189 -0.9254
 8876SOL    HW138087   2.106   3.475   2.497  2.0205 -1.9076  0.9279
 8876SOL    HW238088   2.074   3.360   2.404 -1.3009 -1.7755 -0.5525
 8877SOL     OW38089   3.728   1.486   5.577  0.2305  0.6888 -0.0274
 8877SOL    HW138090   3.798   1.534   5.620 -0.2999  0.4806  1.0642
 8877SOL    HW238091   3.655   1.548   5.574  0.8619  1.3834 -0.6387
 8878SOL     OW38092   3.613   3.201   2.993 -0.5657  0.3543  0.1241
 8878SOL    HW138093   3.566   3.272   2.950 -1.8497  0.0814  1.0718
 8878SOL    HW238094   3.548   3.144   3.034 -0.1268 -1.5929 -1.9173
 8879SOL     OW38095   0.502   3.751  12.366  0.0686  0.0666 -0.0866
 8879SOL    HW138096   0.424   3.708  12.333  0.3675 -0.6348  0.1236
 8879SOL    HW238097   0.504   3.721  12.457  0.3088  0.4632  0.0421
 8880SOL     OW38098   0.154   0.019   7.396 -0.6762  0.5103  0.2342
 8880SOL    HW138099   0.062   0.028   7.373  0.2081  0.9779 -3.1062
 8880SOL    HW238100   0.146   4.710   7.485  2.8623 -0.1167  0.3119
 8881SOL     OW38101   0.537   4.543   1.538 -0.2571 -0.7914  0.1559
 8881SOL    HW138102   0.483   4.621   1.545  0.0785 -0.5315 -0.1973
 8881SOL    HW238103   0.545   4.530   1.444  1.9281 -3.1518  0.6608
 8882SOL     OW38104   3.463   4.688   4.629 -0.2358 -0.1753  0.0074
 8882SOL    HW138105   3.448   4.641   4.548 -1.5682 -0.1330  0.2307
 8882SOL    HW238106   3.544   0.004   4.598  0.4477 -0.0693  1.9224
 8883SOL     OW38107   0.061   3.516  13.168  0.5031  0.2529 -0.1499
 8883SOL    HW138108   0.025   3.602  13.145 -1.5872  0.3668  3.4468
 8883SOL    HW238109   0.016   3.455  13.110 -0.9923  1.3376 -0.1452
 8884SOL     OW38110   0.341   4.102   8.092 -0.1719  0.4554 -0.2784
 8884SOL    HW138111   0.396   4.180   8.083  1.9502 -1.0723 -0.5869
 8884SOL    HW238112   0.296   4.124   8.174  0.4321  1.8289 -0.3105
 8885SOL     OW38113   3.306   2.859   4.581 -0.2115  0.1225 -0.3343
 8885SOL    HW138114   3.382   2.893   4.627 -0.9326  0.6405  0.4659
 8885SOL    HW238115   3.345   2.785   4.534  1.3387  1.4546 -1.1194
 8886SOL     OW38116   2.711   0.328   9.577  0.4968  0.4140 -0.2603
 8886SOL    HW138117   2.789   0.381   9.561  0.1686  0.7581 -0.7167
 8886SOL    HW238118   2.683   0.320   9.486  2.2121  0.1833 -0.7806
 8887SOL     OW38119   3.375   0.296   1.719  0.7168  0.3486  0.1910
 8887SOL    HW138120   3.303   0.355   1.738  0.8830 -0.0057  1.9311
 8887SOL    HW238121   3.369   0.240   1.796  1.5101 -0.0918 -0.0599
 8888SOL     OW38122   2.741   2.981   1.183 -0.0095 -1.2233 -0.0214
 8888SOL    HW138123   2.687   2.946   1.112  1.7612 -0.4034 -1.7884
 8888SOL    HW238124   2.699   2.941   1.259 -1.8997 -2.8803 -1.9355
 8889SOL     OW38125   0.546   2.105   1.617  0.1550 -0.2786 -0.1592
 8889SOL    HW138126   0.553   2.149   1.532  0.2929 -0.4205 -0.2216
 8889SOL    HW238127   0.637   2.117   1.642 -0.9517  1.1305  3.1412
 8890SOL     OW38128   1.134   3.487   7.274  0.2499 -0.1442  0.4140
 8890SOL    HW138129   1.131   3.563   7.333 -0.8435 -1.5745  2.1897
 8890SOL    HW238130   1.183   3.523   7.200  0.8007 -0.9747  0.3742
 8891SOL     OW38131   2.450   2.184   2.012  0.4465 -0.2733  0.2299
 8891SOL    HW138132   2.480   2.107   1.964  0.4551 -0.0297 -0.1617
 8891SOL    HW238133   2.463   2.255   1.949 -0.4534 -0.7765 -0.5125
 8892SOL     OW38134   4.182   4.210   8.017 -0.3188 -1.0068  0.4301
 8892SOL    HW138135   4.187   4.141   8.083  0.8909 -0.2082  1.1659
 8892SOL    HW238136   4.116   4.275   8.041 -1.2809 -1.4468 -1.0450
 8893SOL     OW38137   3.885   2.828   8.294  0.4743  0.0718 -0.1131
 8893SOL    HW138138   3.819   2.874   8.347  0.5964  1.7395 -1.4348
 8893SOL    HW238139   3.939   2.798   8.367 -0.7620 -2.2319 -0.1169
 8894SOL     OW38140   2.418   3.666  11.771  0.3863 -0.2873 -0.0975
 8894SOL    HW138141   2.492   3.690  11.716  0.9002  0.2712  0.8233
 8894SOL    HW238142   2.407   3.747  11.823  1.5686  0.8508 -1.6400
 8895SOL     OW38143   1.231   4.141  10.525  0.2752 -0.1622 -0.2376
 8895SOL    HW138144   1.256   4.051  10.545  1.4430 -0.0056 -0.9692
 8895SOL    HW238145   1.311   4.168  10.479  0.3059  1.3866  0.7126
 8896SOL     OW38146   3.166   3.621   0.383  0.0983 -0.3352  0.2881
 8896SOL    HW138147   3.215   3.703   0.390 -0.1909 -0.1470  0.1393
 8896SOL    HW238148   3.125   3.621   0.296  4.0335  1.4711 -1.5635
 8897SOL     OW38149   4.056   3.419  10.071 -0.3042  0.1498 -0.1435
 8897SOL    HW138150   4.108   3.343  10.096 -0.6660 -0.1435 -0.2792
 8897SOL    HW238151   3.965   3.393  10.087  1.0237 -5.0213 -1.0282
 8898SOL     OW38152   3.942   3.322  12.923  0.0640  0.6186 -0.2597
 8898SOL    HW138153   4.036   3.336  12.930  0.0948 -0.0293  0.6161
 8898SOL    HW238154   3.930   3.397  12.865 -2.3123  0.8373  0.5087
 8899SOL     OW38155   3.364   1.973  14.153  0.1196 -0.0022  0.3498
 8899SOL    HW138156   3.332   2.024  14.227  2.3425  0.0459  1.2779
 8899SOL    HW238157   3.316   2.021  14.086  0.7254  0.0378 -0.0591
 8900SOL     OW38158   3.629   1.357   0.871  0.1007  0.5096  0.4578
 8900SOL    HW138159   3.578   1.379   0.793 -1.1649  0.5055  1.2788
 8900SOL    HW238160   3.693   1.428   0.868 -0.1827  0.6839 -1.5651
 8901SOL     OW38161   0.748   0.294  17.243  0.1640 -0.3468  0.1914
 8901SOL    HW138162   0.675   0.277  17.303 -3.0174 -0.7222 -3.7513
 8901SOL    HW238163   0.804   0.218  17.257 -0.8654 -0.9201  1.1479
 8902SOL     OW38164   3.911   1.197   2.251 -0.3239 -0.0741  0.1705
 8902SOL    HW138165   3.843   1.209   2.318  0.1789 -0.4443  0.7436
 8902SOL    HW238166   3.973   1.268   2.266  0.4242 -1.1533  2.2630
 8903SOL     OW38167   4.642   1.155   9.465 -0.1735  0.4839 -0.0190
 8903SOL    HW138168   4.600   1.200   9.391  1.2655 -0.3866 -1.3724
 8903SOL    HW238169   4.598   1.070   9.455 -0.5328  0.5730  0.8047
 8904SOL     OW38170   0.957   2.645   6.065 -0.3779 -0.1931  0.2966
 8904SOL    HW138171   1.008   2.631   6.146 -1.4810  1.9339  1.3502
 8904SOL    HW238172   0.910   2.563   6.055 -1.0212  0.0372  1.4261
 8905SOL     OW38173   4.349   0.630  12.140 -0.4136 -0.2789 -0.5276
 8905SOL    HW138174   4.382   0.681  12.213 -0.9849 -1.4215  0.5299
 8905SOL    HW238175   4.260   0.664  12.151 -0.1061  0.4624 -0.3296
 8906SOL     OW38176   0.837   1.641  11.261 -0.7145  0.1831 -0.3509
 8906SOL    HW138177   0.861   1.719  11.311  1.7605 -0.3554 -0.7115
 8906SOL    HW238178   0.889   1.575  11.308 -0.1345  0.6019 -0.4090
 8907SOL     OW38179   3.752   2.434   3.103 -0.0448 -0.2631 -0.0093
 8907SOL    HW138180   3.683   2.409   3.042  1.3094  1.6814 -2.3004
 8907SOL    HW238181   3.721   2.379   3.176  0.0025  0.1588  0.3293
 8908SOL     OW38182   1.279   2.541   2.995 -0.4720 -0.1116  0.5190
 8908SOL    HW138183   1.355   2.491   2.966  0.0183  0.9432 -0.0130
 8908SOL    HW238184   1.265   2.493   3.077 -0.7264 -0.4813  0.2571
 8909SOL     OW38185   0.744   1.171   3.594  0.8262 -0.0864 -0.3160
 8909SOL    HW138186   0.664   1.219   3.574  1.1747  0.3067 -0.7378
 8909SOL    HW238187   0.772   1.153   3.505  1.0527  0.6374 -0.3892
 8910SOL     OW38188   3.055   4.454   9.999  0.1335 -0.3633 -0.6037
 8910SOL    HW138189   2.986   4.398   9.964 -0.6164  0.1267  0.0802
 8910SOL    HW238190   3.130   4.436   9.942 -0.6405 -0.9672 -1.4155
 8911SOL     OW38191   0.186   0.445  11.050  0.6010 -0.2469 -0.1653
 8911SOL    HW138192   0.178   0.539  11.062 -0.4049 -0.3482 -0.0110
 8911SOL    HW238193   0.096   0.422  11.074  0.7651  0.0176  0.6899
 8912SOL     OW38194   3.322   0.388  10.342  0.4692 -0.1128 -0.4308
 8912SOL    HW138195   3.293   0.452  10.277  2.0856 -0.4091 -1.4434
 8912SOL    HW238196   3.412   0.378  10.309  0.6550  1.9204 -0.5092
 8913SOL     OW38197   4.397   4.430  13.385 -0.4594  0.0466 -0.2692
 8913SOL    HW138198   4.474   4.417  13.440  1.2101  1.5254 -2.2500
 8913SOL    HW238199   4.338   4.439  13.460  1.1827 -0.8364  1.1048
 8914SOL     OW38200   3.729   2.211   1.967 -0.2866 -0.1978 -0.5500
 8914SOL    HW138201   3.713   2.257   2.050  1.1851 -2.5985  1.0430
 8914SOL    HW238202   3.779   2.147   2.017 -2.6944  0.0612  2.2005
 8915SOL     OW38203   1.352   2.097   0.978 -0.8539 -0.2118  0.1511
 8915SOL    HW138204   1.346   2.156   0.904 -0.7201  1.5529  1.5505
 8915SOL    HW238205   1.374   2.015   0.934 -3.6154  0.0435 -1.6824
 8916SOL     OW38206   1.838   3.562   9.974 -0.8043 -0.0575 -0.4215
 8916SOL    HW138207   1.889   3.496  10.019  0.3652  0.9972 -0.2025
 8916SOL    HW238208   1.768   3.585  10.036  1.1507 -1.9124  2.4238
 8917SOL     OW38209   2.225   4.332  12.109 -0.2120  0.2092 -0.1042
 8917SOL    HW138210   2.268   4.397  12.164 -0.2658 -0.7408  1.0702
 8917SOL    HW238211   2.144   4.377  12.089  0.5749  1.2903 -0.8424
 8918SOL     OW38212   3.348   2.401   9.338 -0.0415 -0.9977 -0.0428
 8918SOL    HW138213   3.333   2.446   9.421  2.6551 -0.0893 -0.0400
 8918SOL    HW238214   3.262   2.362   9.324 -0.1291 -0.7979 -0.0682
 8919SOL     OW38215   0.756   0.834   7.996  0.1428  0.2029 -0.4189
 8919SOL    HW138216   0.792   0.902   8.052 -0.6935 -0.3456  0.7880
 8919SOL    HW238217   0.663   0.854   7.987 -0.2814 -0.8637  1.5109
 8920SOL     OW38218   0.618   2.403   6.719  0.5531 -0.2376 -0.3319
 8920SOL    HW138219   0.564   2.444   6.787  0.0484 -1.2067 -0.1507
 8920SOL    HW238220   0.671   2.480   6.696 -1.3026  0.7503 -1.2639
 8921SOL     OW38221   0.781   1.967   5.397  0.1569 -0.1976  0.0702
 8921SOL    HW138222   0.873   1.990   5.411  0.2849 -0.0694 -0.9534
 8921SOL    HW238223   0.738   2.005   5.473  0.6070 -1.5737  1.0171
 8922SOL     OW38224   2.834   1.711   5.210  0.3178  0.0962 -0.7921
 8922SOL    HW138225   2.842   1.770   5.135  1.3998 -2.1516 -2.4179
 8922SOL    HW238226   2.749   1.669   5.196  1.4993 -2.1857 -1.0488
 8923SOL     OW38227   3.908   1.378   7.948  0.5417  0.4356  0.9079
 8923SOL    HW138228   3.843   1.363   8.017 -0.6416  0.7205 -0.1413
 8923SOL    HW238229   3.852   1.384   7.870  1.6034  0.1138  0.1244
 8924SOL     OW38230   3.024   3.401   3.762  0.1573 -0.4699 -0.6913
 8924SOL    HW138231   3.045   3.315   3.800  2.3197 -0.0901 -1.0189
 8924SOL    HW238232   2.957   3.442   3.815  0.4772 -2.4051  1.2175
 8925SOL     OW38233   1.604   0.091  11.719  0.3815 -0.4059 -0.2238
 8925SOL    HW138234   1.641   0.126  11.800  1.5159  1.0601 -1.3773
 8925SOL    HW238235   1.525   0.046  11.749  0.1063 -1.8600 -3.1424
 8926SOL     OW38236   2.002   1.118   4.417  0.4386  0.4483 -0.4431
 8926SOL    HW138237   2.087   1.073   4.418 -1.9116 -3.8853  1.7449
 8926SOL    HW238238   1.936   1.051   4.401  0.0865  0.3866  1.2707
 8927SOL     OW38239   4.569   0.069   1.611  0.1190 -0.4673 -0.0164
 8927SOL    HW138240   4.562   4.705   1.648 -0.3313 -0.4898 -0.1627
 8927SOL    HW238241   4.475   0.084   1.600  0.2095 -0.7497 -1.1616
 8928SOL     OW38242   1.612   3.088  15.803  0.2454  0.8746  0.2776
 8928SOL    HW138243   1.603   3.007  15.855 -2.0397  1.3293  0.6065
 8928SOL    HW238244   1.519   3.096  15.783  0.2629  2.6079  0.8616
 8929SOL     OW38245   2.557   1.717   7.956 -0.1958 -0.3748 -0.0729
 8929SOL    HW138246   2.607   1.797   7.969 -0.3665 -0.2282 -0.3142
 8929SOL    HW238247   2.467   1.749   7.949  0.0252  0.6527  1.8541
 8930SOL     OW38248   3.019   4.708   3.410  0.6153  0.2804  0.6775
 8930SOL    HW138249   3.068   0.031   3.477 -0.1154  0.4152  1.1210
 8930SOL    HW238250   3.095   4.686   3.357  0.9698  0.8115  0.9667
 8931SOL     OW38251   1.300   1.451  11.107 -0.2601  1.0468  0.0720
 8931SOL    HW138252   1.329   1.423  11.194 -0.2900 -0.4141 -0.3944
 8931SOL    HW238253   1.297   1.372  11.054  1.2939 -0.0721  1.6347
 8932SOL     OW38254   0.561   0.390   5.265 -0.2875  0.1574  0.4781
 8932SOL    HW138255   0.539   0.368   5.175 -3.1621  2.0561  0.7020
 8932SOL    HW238256   0.656   0.384   5.271 -0.1849 -0.6906 -2.0170
 8933SOL     OW38257   4.198   1.359  16.364 -0.4163  0.0205  0.4219
 8933SOL    HW138258   4.285   1.399  16.365 -0.1095 -0.6703  1.2745
 8933SOL    HW238259   4.154   1.400  16.438  0.6123  0.7294  0.6510
 8934SOL     OW38260   1.156   4.644   4.133  0.3144 -0.3243 -0.0578
 8934SOL    HW138261   1.124   4.584   4.066 -1.5749  0.4566  0.1699
 8934SOL    HW238262   1.131   0.006   4.102 -1.0563 -0.6635  0.1199
 8935SOL     OW38263   2.873   3.481  12.392 -0.7540  0.1422 -0.2809
 8935SOL    HW138264   2.784   3.493  12.425 -0.9583 -0.9029 -0.4575
 8935SOL    HW238265   2.911   3.405  12.436  1.7689  0.0504 -2.6289
 8936SOL     OW38266   1.725   1.467   7.792  0.3478  0.3910 -0.0503
 8936SOL    HW138267   1.757   1.526   7.724  0.1504 -1.1091 -1.4420
 8936SOL    HW238268   1.711   1.385   7.744  2.7633 -0.3446  0.5039
 8937SOL     OW38269   0.904   0.342   7.171  0.1899  0.5367  0.7153
 8937SOL    HW138270   0.879   0.430   7.143 -0.2520  0.3950  0.6659
 8937SOL    HW238271   0.833   0.294   7.129  1.4612  0.1749 -1.0385
 8938SOL     OW38272   1.403   2.120   8.760  0.6852  0.3826 -0.4765
 8938SOL    HW138273   1.341   2.141   8.830 -1.6780 -3.5050 -1.4035
 8938SOL    HW238274   1.475   2.181   8.773 -0.0875  0.8472  1.5713
 8939SOL     OW38275   3.378   2.662   7.395 -0.0579  0.2564 -0.1749
 8939SOL    HW138276   3.317   2.733   7.417 -0.5036  0.0654 -0.8106
 8939SOL    HW238277   3.360   2.635   7.305  0.8681 -3.0810  0.6588
 8940SOL     OW38278   0.038   2.047   2.511 -0.1790  0.4486 -0.0076
 8940SOL    HW138279   4.724   2.111   2.451  0.9511  1.1799  0.0524
 8940SOL    HW238280   0.001   1.964   2.479  2.5046 -0.2270 -1.3440
 8941SOL     OW38281   4.109   3.875  10.375  0.2975  0.6798  0.1108
 8941SOL    HW138282   4.105   3.926  10.455 -1.0639  1.1657 -0.2693
 8941SOL    HW238283   4.055   3.936  10.324  1.0343  1.3092  0.0840
 8942SOL     OW38284   2.590   2.768   5.938  0.5083  0.1400 -0.2053
 8942SOL    HW138285   2.546   2.709   5.999  0.9421 -0.4011 -0.4134
 8942SOL    HW238286   2.553   2.726   5.860  1.1049 -0.9963  0.1243
 8943SOL     OW38287   0.864   0.794  10.942  0.5479 -0.0508 -0.4533
 8943SOL    HW138288   0.912   0.742  10.877  1.6571 -1.6439  1.6546
 8943SOL    HW238289   0.790   0.822  10.888  0.4061 -0.4796 -0.4812
 8944SOL     OW38290   0.471   3.656   8.364 -0.3698 -0.2676  0.3150
 8944SOL    HW138291   0.499   3.744   8.386 -1.3319 -0.1608  1.0850
 8944SOL    HW238292   0.385   3.677   8.330 -0.6187 -0.9510  0.5078
 8945SOL     OW38293   4.654   0.717  10.231 -0.0153 -0.1691 -0.3366
 8945SOL    HW138294   4.583   0.777  10.206  2.3095  3.4822  1.7856
 8945SOL    HW238295   4.602   0.636  10.234  1.6827 -1.2434 -0.1045
 8946SOL     OW38296   4.065   1.174  16.537 -0.4151 -0.2662 -0.2084
 8946SOL    HW138297   4.136   1.125  16.579 -0.2230 -0.0322 -0.2607
 8946SOL    HW238298   4.015   1.202  16.614 -1.3689 -2.2582 -0.1075
 8947SOL     OW38299   3.477   4.634  16.915  1.0828 -0.1508 -0.5403
 8947SOL    HW138300   3.392   4.630  16.870  2.7322  0.3937 -3.7140
 8947SOL    HW238301   3.524   4.657  16.835  2.5509 -2.2465 -0.2666
 8948SOL     OW38302   0.114   2.655   7.181 -0.7817  0.3025 -0.4194
 8948SOL    HW138303   0.056   2.657   7.257  0.6483 -1.0693  0.7187
 8948SOL    HW238304   0.133   2.561   7.173  2.0346  0.8669 -0.3753
 8949SOL     OW38305   3.739   2.619   2.704  0.4001 -0.5225 -0.0052
 8949SOL    HW138306   3.783   2.535   2.692 -0.9423 -1.2172 -0.0347
 8949SOL    HW238307   3.774   2.642   2.790 -0.9568  0.0961  0.3741
 8950SOL     OW38308   2.180   3.110  10.332 -0.7376 -0.6376  0.1079
 8950SOL    HW138309   2.134   3.067  10.259 -0.1036 -1.3504  0.1185
 8950SOL    HW238310   2.218   3.031  10.371 -0.8692 -1.4986 -1.4699
 8951SOL     OW38311   2.775   0.806   4.108 -0.4222 -0.5910  0.1720
 8951SOL    HW138312   2.699   0.830   4.056  0.6104  1.5936 -0.3425
 8951SOL    HW238313   2.774   0.866   4.183 -0.9091  0.3652 -0.6064
 8952SOL     OW38314   3.467   3.350   3.273 -0.4876 -0.3219 -0.3982
 8952SOL    HW138315   3.544   3.385   3.230  1.6297 -1.8693  2.1414
 8952SOL    HW238316   3.484   3.256   3.270  0.5940 -0.1060 -0.8616
 8953SOL     OW38317   1.565   4.696   3.910 -0.4344  0.0155 -0.2353
 8953SOL    HW138318   1.510   4.630   3.869  0.8798  1.0535 -3.6980
 8953SOL    HW238319   1.504   0.020   3.966  1.0561  2.4887 -0.7484
 8954SOL     OW38320   0.034   3.785   4.481  0.6843  0.1166 -0.2052
 8954SOL    HW138321   4.669   3.757   4.463  0.6112  0.2786 -0.0924
 8954SOL    HW238322   0.064   3.807   4.392  0.2920 -2.1807 -0.9247
 8955SOL     OW38323   3.209   1.198   7.630 -0.0652  0.4559  0.2387
 8955SOL    HW138324   3.140   1.238   7.578  1.3163 -0.5082 -2.3167
 8955SOL    HW238325   3.233   1.267   7.692 -2.3552  0.5155  1.0776
 8956SOL     OW38326   2.598   3.070   6.234  0.1087 -0.6507 -1.3069
 8956SOL    HW138327   2.583   3.051   6.142  0.8238 -0.4687 -1.4638
 8956SOL    HW238328   2.512   3.039   6.264  0.0481  0.3959 -0.3984
 8957SOL     OW38329   2.715   4.500   2.249  0.2772  0.2449  0.1417
 8957SOL    HW138330   2.648   4.478   2.184  1.7441  0.7404 -1.5239
 8957SOL    HW238331   2.670   4.565   2.304 -0.9848  0.3052 -0.9539
 8958SOL     OW38332   1.152   2.784   3.715  0.1022  0.6141  0.1578
 8958SOL    HW138333   1.162   2.874   3.685  0.0023  0.5705 -0.0036
 8958SOL    HW238334   1.077   2.761   3.661 -0.9785  2.3870  0.8880
 8959SOL     OW38335   4.283   2.342   2.458  0.5390 -0.2039 -0.3051
 8959SOL    HW138336   4.374   2.366   2.473  1.3395 -1.6465 -2.7908
 8959SOL    HW238337   4.287   2.336   2.363  0.8580 -0.3449 -0.2842
 8960SOL     OW38338   2.030   2.846   0.037  0.3848 -0.2885 -0.2705
 8960SOL    HW138339   1.977   2.914   0.078 -1.2021 -2.3120  1.0087
 8960SOL    HW238340   1.968   2.819  17.669  0.4062 -0.5007 -0.2035
 8961SOL     OW38341   2.069   3.691  11.900  0.3552 -0.1879 -0.2666
 8961SOL    HW138342   2.088   3.598  11.912 -1.7189 -0.7414 -1.2555
 8961SOL    HW238343   2.157   3.729  11.900  0.9151 -1.4753  1.0637
 8962SOL     OW38344   0.310   3.842   7.073  0.0953  0.0882 -0.5138
 8962SOL    HW138345   0.367   3.832   7.149 -0.6479 -0.6113 -0.0591
 8962SOL    HW238346   0.233   3.885   7.110  1.0050  2.6357 -1.5375
 8963SOL     OW38347   4.309   2.944   0.808 -0.1531 -0.3975 -0.0775
 8963SOL    HW138348   4.220   2.909   0.801 -1.2744  2.0132  1.8333
 8963SOL    HW238349   4.345   2.893   0.736  0.3382 -2.7608  1.8652
 8964SOL     OW38350   0.666   2.066   5.627  0.0867  0.5392 -0.1551
 8964SOL    HW138351   0.683   2.136   5.564 -0.1601  0.6653 -0.0786
 8964SOL    HW238352   0.698   2.105   5.708  0.5289  2.1542 -1.1068
 8965SOL     OW38353   3.081   1.207   2.729 -0.0263  0.7331 -0.8747
 8965SOL    HW138354   3.096   1.163   2.645  1.8165 -0.3342  0.0130
 8965SOL    HW238355   3.005   1.259   2.705 -0.7495 -0.1533 -0.4913
 8966SOL     OW38356   4.635   3.866   5.388  0.5692  0.1025  0.0204
 8966SOL    HW138357   4.624   3.771   5.391 -1.6416  0.3677  0.3097
 8966SOL    HW238358   0.001   3.890   5.408  0.8944  0.9840 -2.3994
 8967SOL     OW38359   4.470   0.947   4.334 -0.0383  0.1931  0.2140
 8967SOL    HW138360   4.555   0.943   4.379  0.8198  1.6214 -1.2784
 8967SOL    HW238361   4.436   1.019   4.386  0.7838 -0.0200  1.0375
 8968SOL     OW38362   4.555   0.536   6.835 -0.0355  0.0929 -0.3149
 8968SOL    HW138363   4.566   0.548   6.929  1.0438 -0.4463 -0.3723
 8968SOL    HW238364   4.548   0.441   6.833  1.4773 -0.0443  0.9756
 8969SOL     OW38365   1.361   2.249   2.990  1.0083 -0.1208 -0.1551
 8969SOL    HW138366   1.440   2.294   2.961  1.0566 -0.1316 -0.0402
 8969SOL    HW238367   1.326   2.221   2.905 -1.4540  0.3707  0.7120
 8970SOL     OW38368   0.936   0.642   7.685  0.2489  0.0018  0.7003
 8970SOL    HW138369   0.929   0.598   7.601 -2.3392  0.6381  0.5797
 8970SOL    HW238370   0.996   0.715   7.665  2.3650 -1.9897 -0.1848
 8971SOL     OW38371   2.771   3.161   9.105  0.0986 -0.3566  0.0081
 8971SOL    HW138372   2.700   3.128   9.160  0.2269  2.4898  1.9239
 8971SOL    HW238373   2.751   3.255   9.106  1.7922  0.0168 -0.0768
 8972SOL     OW38374   3.502   3.028  15.704  0.5701  0.0208 -0.7162
 8972SOL    HW138375   3.412   3.014  15.733  1.0640  0.3309  0.9963
 8972SOL    HW238376   3.540   3.095  15.761  1.3904 -1.5839  0.6284
 8973SOL     OW38377   2.588   1.510   9.680 -0.3035  0.2002 -0.4498
 8973SOL    HW138378   2.648   1.584   9.672  0.7904 -0.7206 -0.6535
 8973SOL    HW238379   2.628   1.439   9.630 -2.0653 -0.6061 -0.7323
 8974SOL     OW38380   0.185   2.121   8.754  0.5194 -0.1386 -0.0543
 8974SOL    HW138381   0.153   2.075   8.677  0.4684 -1.5909  0.8283
 8974SOL    HW238382   0.103   2.167   8.770 -0.6405 -2.2274 -0.0113
 8975SOL     OW38383   1.685   0.908   0.010  0.0329  0.1728 -0.1799
 8975SOL    HW138384   1.679   0.981  17.648  0.2785  0.6349  0.3376
 8975SOL    HW238385   1.778   0.900   0.031 -0.2787 -1.9090  0.4015
 8976SOL     OW38386   0.052   1.741   1.407  0.6314 -0.3630  0.3741
 8976SOL    HW138387   0.136   1.696   1.415  0.4093 -0.3337  2.9729
 8976SOL    HW238388   0.013   1.716   1.323  1.8285 -0.3050 -0.1926
 8977SOL     OW38389   4.155   3.661   5.011  0.3262 -0.3504  0.0060
 8977SOL    HW138390   4.209   3.597   4.965  1.8377  2.0052 -1.4977
 8977SOL    HW238391   4.207   3.674   5.090  0.3684 -2.8027  0.3808
 8978SOL     OW38392   4.466   2.070   8.514  0.2578  0.2529  0.0030
 8978SOL    HW138393   4.386   2.112   8.544  0.7694  0.0618  1.6118
 8978SOL    HW238394   4.437   2.044   8.427  0.4316 -2.4782  0.7821
 8979SOL     OW38395   0.840   3.726   3.584  0.1494 -0.1034  0.4788
 8979SOL    HW138396   0.786   3.804   3.573  2.6761  1.6034  0.4458
 8979SOL    HW238397   0.787   3.684   3.653 -0.6517 -0.7541 -0.5178
 8980SOL     OW38398   2.272   1.457   0.598  0.0756 -0.6421 -0.7096
 8980SOL    HW138399   2.257   1.378   0.546 -0.4785 -2.2388  1.8464
 8980SOL    HW238400   2.195   1.499   0.561  1.4757  0.1241 -2.7609
 8981SOL     OW38401   3.668   3.425  15.723  0.3349 -0.4008  0.0217
 8981SOL    HW138402   3.575   3.430  15.744 -0.0897 -0.6694 -1.7965
 8981SOL    HW238403   3.678   3.337  15.759  1.6774  0.2012  1.0877
 8982SOL     OW38404   0.416   2.579   1.739 -0.1815  0.0868 -0.1809
 8982SOL    HW138405   0.433   2.526   1.816  1.5778 -0.0406 -0.6730
 8982SOL    HW238406   0.352   2.529   1.688  0.1508  0.0095 -0.5186
 8983SOL     OW38407   0.354   2.658   8.752 -0.2704  0.6394  0.2959
 8983SOL    HW138408   0.365   2.628   8.661  0.3473  1.5295  0.0801
 8983SOL    HW238409   0.442   2.677   8.783  0.0271  1.0346 -0.7660
 8984SOL     OW38410   1.652   0.885   4.055 -0.1324 -0.0809 -0.3905
 8984SOL    HW138411   1.640   0.975   4.083 -0.7080 -0.9317  2.1507
 8984SOL    HW238412   1.566   0.869   4.016  0.4229  1.9619 -2.4337
 8985SOL     OW38413   0.609   3.110   5.250  0.2785 -0.1482 -0.4548
 8985SOL    HW138414   0.593   3.192   5.204 -1.5519  0.5878  1.5422
 8985SOL    HW238415   0.675   3.142   5.312  2.1274  0.6524 -2.8358
 8986SOL     OW38416   3.918   1.604  11.367  0.5868 -0.2092 -0.1761
 8986SOL    HW138417   3.851   1.624  11.433 -0.1243 -1.2555 -0.5781
 8986SOL    HW238418   3.948   1.693  11.350  0.1843 -0.2769 -1.2255
 8987SOL     OW38419   0.452   0.975   8.586 -0.4154  0.2169 -0.1274
 8987SOL    HW138420   0.374   1.007   8.632  0.9501  0.5807  1.9020
 8987SOL    HW238421   0.405   0.906   8.538  0.1308  0.8478 -1.5460
 8988SOL     OW38422   2.200   2.080   6.548  0.4011  0.0191 -0.2284
 8988SOL    HW138423   2.225   2.172   6.543  0.1374  0.0936 -0.1618
 8988SOL    HW238424   2.167   2.078   6.638 -0.1390  0.8252 -0.4151
 8989SOL     OW38425   1.693   1.101   5.893  0.1675  0.2179 -0.2084
 8989SOL    HW138426   1.603   1.096   5.860 -0.1352 -1.0707  0.7947
 8989SOL    HW238427   1.680   1.193   5.912  2.2315  1.0268 -2.6694
 8990SOL     OW38428   2.986   3.020   9.123 -0.0307  0.3423  0.2220
 8990SOL    HW138429   3.008   3.003   9.032 -1.2907  1.6908 -0.3461
 8990SOL    HW238430   2.918   3.088   9.114  0.3298  0.5617 -0.8257
 8991SOL     OW38431   0.898   2.580   3.082  0.4158 -1.1213  0.1058
 8991SOL    HW138432   0.911   2.674   3.098  1.1133 -1.0986 -0.5699
 8991SOL    HW238433   0.948   2.582   3.000 -1.3294  0.4726 -0.9257
 8992SOL     OW38434   2.564   3.762  13.246 -0.0758 -0.8140  0.3535
 8992SOL    HW138435   2.620   3.755  13.323  0.2861 -1.1602  0.0565
 8992SOL    HW238436   2.480   3.746  13.290  0.2008 -1.9453  0.4710
 8993SOL     OW38437   4.265   2.058   0.645  0.3906 -0.5604 -0.3518
 8993SOL    HW138438   4.331   2.004   0.688  0.2786 -1.4735 -1.3197
 8993SOL    HW238439   4.278   2.144   0.686 -0.6404 -1.7003  2.3630
 8994SOL     OW38440   0.398   3.186   2.252  0.6190  0.9797 -0.0332
 8994SOL    HW138441   0.476   3.135   2.274 -0.1583 -0.4470 -0.6290
 8994SOL    HW238442   0.339   3.113   2.233  1.5239  0.1961  0.2062
 8995SOL     OW38443   4.019   1.935   8.717 -0.6259 -0.2422 -0.0489
 8995SOL    HW138444   4.082   1.908   8.651 -0.2187 -0.5812  0.4876
 8995SOL    HW238445   4.000   2.024   8.686  0.6920 -0.0939 -0.4373
 8996SOL     OW38446   4.037   1.627  15.189  0.7894  0.3299  0.2603
 8996SOL    HW138447   3.988   1.697  15.233  1.6395 -0.1386  1.9317
 8996SOL    HW238448   4.045   1.569  15.265 -0.4571 -0.6035 -0.3139
 8997SOL     OW38449   1.608   0.242  11.055  0.0273 -0.6500 -0.0469
 8997SOL    HW138450   1.692   0.274  11.023 -0.6498 -0.3979 -1.5717
 8997SOL    HW238451   1.638   0.155  11.080 -0.1589  0.2336  3.1988
 8998SOL     OW38452   1.702   0.722  12.500 -0.0496  0.2012 -0.1931
 8998SOL    HW138453   1.671   0.663  12.569 -0.6771  1.4762  0.5979
 8998SOL    HW238454   1.770   0.671  12.455  0.6705 -1.3101  2.6301
 8999SOL     OW38455   3.472   2.079  11.615  0.0298  0.0377 -0.1983
 8999SOL    HW138456   3.406   2.055  11.681 -2.2103  1.0102 -2.1036
 8999SOL    HW238457   3.462   2.003  11.558 -2.4692  0.7441 -0.6931
 9000SOL     OW38458   1.494   2.332   3.851  0.0751  0.5824  0.5498
 9000SOL    HW138459   1.425   2.346   3.786  2.0459  1.3082 -1.3507
 9000SOL    HW238460   1.547   2.262   3.813 -1.2839 -0.2935  0.2719
 9001SOL     OW38461   1.447   0.188  17.691  0.1668  0.2675 -0.0564
 9001SOL    HW138462   1.384   0.155   0.055 -1.9780 -0.2033 -2.4071
 9001SOL    HW238463   1.409   0.134  17.622 -1.6590  0.3652  0.8559
 9002SOL     OW38464   3.624   0.871  10.669  0.2771 -0.1575  0.0501
 9002SOL    HW138465   3.618   0.947  10.727 -0.0972 -1.6995  2.0545
 9002SOL    HW238466   3.543   0.827  10.696 -0.5614  1.7745  0.6979
 9003SOL     OW38467   3.521   4.345   6.442  0.1152  0.0002  0.6309
 9003SOL    HW138468   3.570   4.264   6.458  0.0161 -0.3588 -0.8783
 9003SOL    HW238469   3.486   4.364   6.529 -0.6749 -0.6672  0.4594
 9004SOL     OW38470   1.860   3.707   2.378 -0.1898 -0.2657  0.3008
 9004SOL    HW138471   1.887   3.714   2.286 -1.0017  0.2576  0.1011
 9004SOL    HW238472   1.920   3.772   2.414 -0.7842  0.1597  0.5342
 9005SOL     OW38473   4.538   4.271   3.447  0.1150  0.0238  0.1448
 9005SOL    HW138474   4.599   4.213   3.492  1.4163  0.1611 -1.4367
 9005SOL    HW238475   4.589   4.304   3.373  2.0417 -0.7597  1.1296
 9006SOL     OW38476   2.188   1.146   3.893  0.2940  0.1372  0.1115
 9006SOL    HW138477   2.115   1.103   3.849 -0.0836 -0.2332  1.1102
 9006SOL    HW238478   2.141   1.200   3.955 -3.4012 -0.1234 -2.4837
 9007SOL     OW38479   2.048   3.640   4.776 -0.3342 -0.7905 -0.3808
 9007SOL    HW138480   2.010   3.727   4.790  0.5733 -0.2640 -1.2235
 9007SOL    HW238481   2.139   3.669   4.782 -1.0306  1.2455  0.2067
 9008SOL     OW38482   3.431   4.183  17.490  0.4683  0.1022  0.1622
 9008SOL    HW138483   3.527   4.180  17.490  0.4536 -0.3691 -0.7465
 9008SOL    HW238484   3.417   4.236  17.412 -0.2675  0.0589  0.2662
 9009SOL     OW38485   3.344   0.420   6.569  0.4155 -0.3161  0.0616
 9009SOL    HW138486   3.287   0.344   6.556  2.6970 -1.8504 -0.8572
 9009SOL    HW238487   3.435   0.393   6.559  0.6999  0.7258 -0.1813
 9010SOL     OW38488   1.584   4.662   1.933 -0.4134 -0.0624  0.3357
 9010SOL    HW138489   1.579   4.724   1.861 -0.7476  0.4553  0.8078
 9010SOL    HW238490   1.564   4.577   1.893 -0.6103 -0.0743  0.4624
 9011SOL     OW38491   0.352   4.453  15.450  0.4744 -0.5742 -0.3942
 9011SOL    HW138492   0.410   4.392  15.496 -1.1812 -2.4628 -0.8255
 9011SOL    HW238493   0.417   4.514  15.416  0.4940  0.7466  2.0248
 9012SOL     OW38494   3.002   1.886   4.725  0.8981  0.0884 -0.2535
 9012SOL    HW138495   2.975   1.959   4.780  2.6866  0.2825  0.3730
 9012SOL    HW238496   3.005   1.812   4.786  1.1201 -0.3644 -0.8173
 9013SOL     OW38497   1.748   4.611  14.309  0.3934 -0.3634 -0.6151
 9013SOL    HW138498   1.784   4.699  14.317  0.0894 -0.1645 -1.3798
 9013SOL    HW238499   1.711   4.597  14.396  2.6037 -1.1320  0.2013
 9014SOL     OW38500   4.333   3.147  15.620 -0.4384 -0.2038 -0.3316
 9014SOL    HW138501   4.423   3.156  15.650 -0.2339 -1.9078 -0.4224
 9014SOL    HW238502   4.299   3.231  15.590 -0.1171  0.3360  0.8002
 9015SOL     OW38503   2.319   4.170   6.085 -0.2621  0.0677 -0.7152
 9015SOL    HW138504   2.366   4.096   6.122 -2.0031 -1.2953 -1.2371
 9015SOL    HW238505   2.275   4.187   6.168 -0.5489 -1.8856 -0.4757
 9016SOL     OW38506   2.850   0.781   4.448 -0.0272 -1.3808 -0.5133
 9016SOL    HW138507   2.939   0.748   4.434  0.1700 -0.8222 -0.5705
 9016SOL    HW238508   2.845   0.802   4.541 -0.0663 -2.0261 -0.3687
 9017SOL     OW38509   1.387   0.751  16.770 -0.1331 -0.2055  0.3523
 9017SOL    HW138510   1.427   0.802  16.700  0.3853 -0.8642  0.1763
 9017SOL    HW238511   1.327   0.703  16.713  1.0832  3.6690 -4.2238
 9018SOL     OW38512   4.378   3.922   2.265 -0.1458  0.1284  0.4838
 9018SOL    HW138513   4.411   3.895   2.179 -1.2906  0.9410 -0.2234
 9018SOL    HW238514   4.455   3.959   2.307 -0.0659 -1.2239  1.5224
 9019SOL     OW38515   3.921   4.328   3.329  0.1075  0.1064  0.2838
 9019SOL    HW138516   3.871   4.372   3.397 -1.5244  0.6646 -1.2449
 9019SOL    HW238517   3.962   4.254   3.372 -1.5930 -1.6915 -1.1792
 9020SOL     OW38518   0.888   1.338  17.479 -0.2811  0.0280  0.3712
 9020SOL    HW138519   0.794   1.335  17.463 -0.4734  1.1832  1.2999
 9020SOL    HW238520   0.925   1.390  17.407 -1.9227 -0.7982 -1.0561
 9021SOL     OW38521   2.637   2.597  11.999  0.7113  0.3945  0.4439
 9021SOL    HW138522   2.544   2.612  12.015  0.9126  0.5999  1.3756
 9021SOL    HW238523   2.679   2.672  12.040  0.1263  0.0613  1.6563
 9022SOL     OW38524   3.643   2.012   3.550  0.2192 -0.5668 -0.5890
 9022SOL    HW138525   3.627   2.080   3.616 -0.9512 -0.1459 -1.3050
 9022SOL    HW238526   3.729   1.977   3.573  1.5459  3.9976  1.3770
 9023SOL     OW38527   2.577   3.385  15.056  0.5791  0.4755 -0.0049
 9023SOL    HW138528   2.670   3.408  15.046  1.2168 -1.9517  0.3521
 9023SOL    HW238529   2.568   3.313  14.994  0.9908 -2.0304  2.8394
 9024SOL     OW38530   1.920   4.487   5.416 -0.5746 -0.5059  0.1712
 9024SOL    HW138531   1.941   4.580   5.422 -0.2544 -0.5819  0.2929
 9024SOL    HW238532   1.949   4.467   5.327 -1.1546  0.8204 -0.3112
 9025SOL     OW38533   0.339   1.018  11.361  0.5998 -0.0619 -0.4926
 9025SOL    HW138534   0.400   1.050  11.427  0.8225 -1.1722 -0.1565
 9025SOL    HW238535   0.338   1.094  11.303 -1.5413  0.3602  0.0837
 9026SOL     OW38536   3.540   2.035  14.613  0.3853  0.0359  0.5139
 9026SOL    HW138537   3.571   1.944  14.611  0.5112  0.0927  0.0003
 9026SOL    HW238538   3.545   2.043  14.518 -0.2066  3.2916  0.7524
 9027SOL     OW38539   3.707   0.421   3.419  0.2190  0.6371 -0.1577
 9027SOL    HW138540   3.780   0.411   3.358  0.7553 -1.7346  0.8805
 9027SOL    HW238541   3.708   0.512   3.449  0.8233  0.7898 -0.6461
 9028SOL     OW38542   4.464   3.178   7.217  1.2691  0.3187  0.1414
 9028SOL    HW138543   4.547   3.225   7.226  1.3660  0.2269 -0.2723
 9028SOL    HW238544   4.410   3.227   7.280  1.9542 -0.1531  1.0809
 9029SOL     OW38545   4.354   2.675   7.047 -0.0808 -0.2810 -0.3857
 9029SOL    HW138546   4.450   2.676   7.048 -0.0933  0.1075  1.0294
 9029SOL    HW238547   4.342   2.584   7.022 -0.6137  0.3449 -2.4011
 9030SOL     OW38548   4.127   1.392   2.310 -0.4437  0.1178 -0.1249
 9030SOL    HW138549   4.091   1.474   2.276  1.2139  0.7098 -0.4751
 9030SOL    HW238550   4.222   1.403   2.302 -0.1896 -1.0995  1.3134
 9031SOL     OW38551   4.574   0.462   3.666  0.6577 -0.1622 -0.2265
 9031SOL    HW138552   4.625   0.385   3.639  0.5442  0.3019 -1.7360
 9031SOL    HW238553   4.577   0.468   3.761 -1.7182  1.8772 -0.3044
 9032SOL     OW38554   4.413   1.156   1.170  0.1090 -0.2692  0.7711
 9032SOL    HW138555   4.374   1.243   1.167 -0.1885 -0.4704 -0.7837
 9032SOL    HW238556   4.411   1.123   1.080 -1.4773  2.5227 -0.1944
 9033SOL     OW38557   1.954   0.048   1.023  1.0225  0.5371  0.7007
 9033SOL    HW138558   1.977   4.702   1.083  1.1792 -2.2002 -2.5704
 9033SOL    HW238559   1.873   0.021   0.979  2.2902  0.2387 -1.4561
 9034SOL     OW38560   2.630   3.988   4.610  0.7773 -0.0453 -0.1218
 9034SOL    HW138561   2.692   4.058   4.630  0.5276 -0.2947  1.4588
 9034SOL    HW238562   2.670   3.902   4.619 -0.9667 -0.6813  1.3446
 9035SOL     OW38563   3.227   1.909   7.198  0.5875  0.4645 -0.4330
 9035SOL    HW138564   3.188   1.916   7.111 -2.1151  1.1821  0.8292
 9035SOL    HW238565   3.147   1.908   7.252  2.3455 -2.1991  2.1592
 9036SOL     OW38566   1.787   1.934   6.548  0.0234  0.0041 -0.1320
 9036SOL    HW138567   1.706   1.971   6.584 -0.0988  0.8154 -1.2312
 9036SOL    HW238568   1.764   1.841   6.548 -0.7257  0.1820 -0.5546
 9037SOL     OW38569   3.230   2.821   6.360 -0.2431  0.3140 -0.1325
 9037SOL    HW138570   3.184   2.899   6.392 -0.1272  0.3910 -0.1545
 9037SOL    HW238571   3.304   2.802   6.417  1.7225 -1.7533 -3.4445
 9038SOL     OW38572   4.013   1.647   8.027 -0.9653  0.0144 -0.1885
 9038SOL    HW138573   3.979   1.560   8.005 -1.5426  0.3280 -0.5564
 9038SOL    HW238574   4.000   1.688   7.942 -2.1839  2.8349  1.3584
 9039SOL     OW38575   1.707   1.156   8.476 -0.9440  0.5546  0.1943
 9039SOL    HW138576   1.716   1.158   8.381 -2.2129  0.4047  0.0612
 9039SOL    HW238577   1.769   1.086   8.496  0.9298  1.7463 -1.5465
 9040SOL     OW38578   1.535   2.659  15.768 -0.0414 -0.0909 -0.1444
 9040SOL    HW138579   1.585   2.689  15.844  1.2127 -0.2202 -0.9194
 9040SOL    HW238580   1.447   2.651  15.804 -0.0450  1.9285  0.2654
 9041SOL     OW38581   1.763   4.461  10.764  0.1641 -0.3866  0.2892
 9041SOL    HW138582   1.854   4.447  10.791  1.1124  0.0382 -2.7270
 9041SOL    HW238583   1.733   4.537  10.815 -1.4907 -0.0415 -1.1790
 9042SOL     OW38584   3.758   2.304   6.606  0.1611 -0.4854 -0.4546
 9042SOL    HW138585   3.792   2.325   6.519  0.0259 -0.1462 -0.4268
 9042SOL    HW238586   3.681   2.361   6.611  1.7345  1.6333 -0.2502
 9043SOL     OW38587   1.503   2.329  10.166  0.2076 -0.2188  0.0499
 9043SOL    HW138588   1.598   2.341  10.170  0.3234 -1.7601  1.9246
 9043SOL    HW238589   1.493   2.239  10.196 -2.7600  0.7963  2.0599
 9044SOL     OW38590   1.063   4.261   4.626 -0.1814 -0.2588  0.6058
 9044SOL    HW138591   1.006   4.331   4.659 -1.6318 -1.5019  0.7447
 9044SOL    HW238592   1.151   4.298   4.622 -0.3320  0.1221  0.8307
 9045SOL     OW38593   0.994   1.351   4.643 -0.2115 -0.7479  0.6873
 9045SOL    HW138594   1.048   1.412   4.593 -1.1753 -2.0009 -1.8352
 9045SOL    HW238595   1.041   1.356   4.727  1.3880 -2.9639 -0.0649
 9046SOL     OW38596   4.441   4.345  12.747 -0.0398 -0.4171  0.7088
 9046SOL    HW138597   4.346   4.355  12.753  0.0416  0.9530 -0.2435
 9046SOL    HW238598   4.467   4.435  12.729 -0.9378 -0.2950  0.0395
 9047SOL     OW38599   1.929   3.931   3.799  0.0680  0.3982 -0.4559
 9047SOL    HW138600   1.873   3.874   3.747  2.6026 -3.2872  0.9007
 9047SOL    HW238601   2.012   3.920   3.753  0.8969  1.1505  0.8375
 9048SOL     OW38602   0.096   1.365   3.708  0.4345  0.5145  0.6581
 9048SOL    HW138603   0.021   1.313   3.739 -0.1957  0.5907 -0.7463
 9048SOL    HW238604   0.112   1.328   3.621 -3.5394  2.0403 -0.7238
 9049SOL     OW38605   0.646   1.878   4.274  0.0624  0.0103 -0.2791
 9049SOL    HW138606   0.572   1.927   4.311  0.8665  0.5982  0.5234
 9049SOL    HW238607   0.653   1.922   4.189 -1.3564 -0.0652 -0.4340
 9050SOL     OW38608   2.249   2.583   8.370 -0.4306 -0.2646 -0.6042
 9050SOL    HW138609   2.276   2.519   8.303 -0.5227 -0.1740 -0.7285
 9050SOL    HW238610   2.197   2.534   8.434  1.2553 -0.4457  0.6083
 9051SOL     OW38611   2.745   3.993   3.875 -0.6836 -0.2337 -0.1059
 9051SOL    HW138612   2.709   3.955   3.955 -1.2264 -0.3433 -0.4030
 9051SOL    HW238613   2.837   3.968   3.882 -1.2013 -2.1010 -0.0264
 9052SOL     OW38614   4.613   2.666   5.066  0.4748  0.2633  0.0676
 9052SOL    HW138615   4.526   2.698   5.090 -0.2983 -1.7416 -0.0097
 9052SOL    HW238616   4.587   2.619   4.987 -1.1494 -1.1817  1.4457
 9053SOL     OW38617   0.342   0.630   2.384  0.7482  0.2714  0.0901
 9053SOL    HW138618   0.338   0.638   2.479 -0.6362  1.0856 -0.0359
 9053SOL    HW238619   0.378   0.714   2.356  0.8591 -0.0520 -0.7345
 9054SOL     OW38620   1.743   3.810   4.105  0.1864  0.3082 -0.2560
 9054SOL    HW138621   1.668   3.847   4.058  0.2436 -0.8725 -1.3066
 9054SOL    HW238622   1.749   3.718   4.079  1.1000  0.0697  0.8340
 9055SOL     OW38623   0.730   4.142   2.213 -0.3536  0.1029 -0.9440
 9055SOL    HW138624   0.649   4.156   2.164 -0.9608  0.8813  0.2849
 9055SOL    HW238625   0.759   4.232   2.201 -2.3070  0.6272 -1.6391
 9056SOL     OW38626   3.835   3.276   9.884 -0.1644  0.0468  0.1473
 9056SOL    HW138627   3.786   3.263   9.965 -2.6368  1.3181 -1.1152
 9056SOL    HW238628   3.814   3.366   9.858 -0.7481 -0.2414 -0.3679
 9057SOL     OW38629   2.359   0.534  14.077  0.3031  0.1298  0.3321
 9057SOL    HW138630   2.355   0.445  14.111  0.1549  0.3222  0.8224
 9057SOL    HW238631   2.269   0.561  14.091 -0.3112 -1.1292 -1.2274
 9058SOL     OW38632   2.870   1.348   2.633  0.1009 -0.3297 -0.5722
 9058SOL    HW138633   2.853   1.268   2.585 -0.6584 -1.3011  1.3190
 9058SOL    HW238634   2.781   1.367   2.664  0.2675  1.4987 -1.2246
 9059SOL     OW38635   0.546   0.361   4.085 -0.4250 -0.4391  0.0905
 9059SOL    HW138636   0.484   0.425   4.119 -0.1920 -0.9353  1.4387
 9059SOL    HW238637   0.520   0.364   3.993 -0.3648  1.8791  0.1552
 9060SOL     OW38638   1.769   2.350  10.192  0.2007 -0.7248  0.2545
 9060SOL    HW138639   1.806   2.271  10.233  0.1079 -1.6540 -1.4516
 9060SOL    HW238640   1.806   2.346  10.104 -0.7937  1.2446 -0.2458
 9061SOL     OW38641   4.524   1.472   6.913 -0.0395  0.3196  0.7700
 9061SOL    HW138642   4.498   1.436   6.998 -0.3636 -1.0440  0.0925
 9061SOL    HW238643   4.610   1.506   6.938 -1.1019  2.2945  1.7791
 9062SOL     OW38644   4.539   0.441   2.756  0.2909 -0.3685 -0.9132
 9062SOL    HW138645   4.588   0.370   2.797  2.2854 -0.4346 -3.4415
 9062SOL    HW238646   4.590   0.521   2.769  0.4642 -1.0546  2.7813
 9063SOL     OW38647   3.175   0.631   0.777  0.1951 -0.3611 -0.3304
 9063SOL    HW138648   3.267   0.644   0.798  0.0022 -0.6886  0.7294
 9063SOL    HW238649   3.149   0.571   0.846 -1.6059  0.3236 -0.3949
 9064SOL     OW38650   4.007   1.513  16.552 -0.1814 -0.2299  0.2128
 9064SOL    HW138651   4.041   1.601  16.537  1.0624 -0.7771 -0.1608
 9064SOL    HW238652   3.914   1.533  16.559 -0.3902 -1.4386  0.8745
 9065SOL     OW38653   1.964   3.697  14.443  0.4625  0.0684  0.3224
 9065SOL    HW138654   1.915   3.621  14.412  2.3358 -0.8939 -0.3245
 9065SOL    HW238655   1.936   3.698  14.534 -0.5816  1.0397 -0.0137
 9066SOL     OW38656   2.281   0.613   1.791  0.2713  0.0424  0.4647
 9066SOL    HW138657   2.270   0.675   1.863  0.3911  0.6173 -0.0079
 9066SOL    HW238658   2.193   0.579   1.777  0.8702 -0.1320 -2.9432
 9067SOL     OW38659   4.145   2.586  17.009 -0.2561  0.6666  0.0797
 9067SOL    HW138660   4.212   2.612  17.073  0.0067  0.9241 -0.3041
 9067SOL    HW238661   4.200   2.525  16.961  1.6230  0.6203  2.2697
 9068SOL     OW38662   0.976   2.136   0.769 -0.2917  0.1152 -0.0359
 9068SOL    HW138663   1.056   2.166   0.813 -0.2510 -0.6402  0.4059
 9068SOL    HW238664   0.914   2.128   0.842  0.1789 -2.3317  0.0641
 9069SOL     OW38665   3.557   3.454   2.874 -0.1524  0.5679 -0.3281
 9069SOL    HW138666   3.523   3.541   2.894  0.0316  0.1558  1.8073
 9069SOL    HW238667   3.651   3.469   2.886 -0.2687  1.7150 -0.8476
 9070SOL     OW38668   2.143   2.645   5.170  0.1131  0.4496 -0.2823
 9070SOL    HW138669   2.172   2.637   5.079 -0.4901 -0.7831 -0.3720
 9070SOL    HW238670   2.072   2.580   5.171 -0.9610  1.6256 -2.0181
 9071SOL     OW38671   2.163   3.775   6.320  0.5835  0.6173 -0.0543
 9071SOL    HW138672   2.104   3.710   6.357 -0.1241  1.3443  0.1146
 9071SOL    HW238673   2.184   3.740   6.234 -1.4587  1.8686 -1.0626
 9072SOL     OW38674   3.251   1.872   1.824  0.3401  0.3676 -0.2052
 9072SOL    HW138675   3.332   1.879   1.875 -0.1481  2.3661  0.2705
 9072SOL    HW238676   3.278   1.816   1.750 -0.6052 -0.7674  0.3163
 9073SOL     OW38677   1.906   0.445   4.617 -0.3188  0.2677 -0.1736
 9073SOL    HW138678   1.829   0.394   4.591  1.1851 -1.4928 -1.1770
 9073SOL    HW238679   1.873   0.531   4.643  0.0987 -0.1903  1.8294
 9074SOL     OW38680   2.624   1.750   8.522 -0.4881  0.2511 -0.0379
 9074SOL    HW138681   2.595   1.694   8.593  1.4385 -2.9237 -1.7297
 9074SOL    HW238682   2.638   1.835   8.564  0.2803  0.6048 -0.9912
 9075SOL     OW38683   4.576   0.434   1.988  0.1288  0.3125 -0.3308
 9075SOL    HW138684   4.539   0.356   1.947  0.6305 -0.8968  1.5610
 9075SOL    HW238685   4.513   0.505   1.972  0.4646 -0.1216 -3.7017
 9076SOL     OW38686   0.992   1.047   4.196 -0.1640  0.2577 -0.0274
 9076SOL    HW138687   1.075   1.088   4.221 -0.4755  0.1394  1.2239
 9076SOL    HW238688   0.946   1.130   4.184 -0.5677 -0.0894 -0.8701
 9077SOL     OW38689   1.626   0.290   9.340 -0.0578  0.4271 -0.5927
 9077SOL    HW138690   1.540   0.322   9.313 -0.3774 -0.3139 -0.4407
 9077SOL    HW238691   1.625   0.309   9.434 -1.8769 -0.2135 -0.4760
 9078SOL     OW38692   3.911   0.239   3.990 -0.0686  0.6254  0.2483
 9078SOL    HW138693   3.886   0.304   4.055  0.4987 -0.4367  1.5265
 9078SOL    HW238694   3.974   0.192   4.044 -1.0821 -0.3675  0.5648
 9079SOL     OW38695   0.985   0.141   2.648  0.0559  0.2585  0.2394
 9079SOL    HW138696   1.042   0.138   2.725 -1.9484  2.5030  1.8245
 9079SOL    HW238697   1.036   0.093   2.583 -0.5696 -2.2750  1.6460
 9080SOL     OW38698   0.730   4.058   0.365 -0.3757  0.0642 -0.0097
 9080SOL    HW138699   0.787   3.986   0.392 -0.8341 -0.2082  0.2279
 9080SOL    HW238700   0.658   4.044   0.427  0.3676 -1.0677  0.6125
 9081SOL     OW38701   4.369   3.411  15.898  0.0194 -0.5257  0.5028
 9081SOL    HW138702   4.425   3.362  15.838  1.9536  0.1043  1.8103
 9081SOL    HW238703   4.355   3.496  15.857  0.2214 -0.6282  0.2171
 9082SOL     OW38704   0.683   4.348   4.072  0.2598  0.3885 -0.4704
 9082SOL    HW138705   0.712   4.377   4.159  2.6204 -0.0123 -1.1168
 9082SOL    HW238706   0.717   4.259   4.071  0.1638  0.3459  0.3752
 9083SOL     OW38707   3.208   3.649   6.267 -0.0440  0.6899  0.0160
 9083SOL    HW138708   3.214   3.557   6.241  0.1669  0.3909  1.1404
 9083SOL    HW238709   3.131   3.654   6.323 -0.7601  1.3211 -1.0227
 9084SOL     OW38710   4.202   1.832   2.854  0.3924  0.7446  0.1811
 9084SOL    HW138711   4.265   1.904   2.842  1.4423 -0.1970 -0.0296
 9084SOL    HW238712   4.245   1.760   2.808 -1.0476  0.3104 -0.4752
 9085SOL     OW38713   2.921   0.082   8.054  0.3618  0.0058 -0.0367
 9085SOL    HW138714   2.866   0.024   8.002  2.5896 -3.7207  1.7174
 9085SOL    HW238715   2.926   0.036   8.138  1.0439 -1.2307 -0.7518
 9086SOL     OW38716   0.452   0.372   8.345 -0.0099  0.2450  0.6168
 9086SOL    HW138717   0.501   0.291   8.339  0.8977  0.7771  0.9248
 9086SOL    HW238718   0.370   0.332   8.375 -0.0863 -0.1839 -0.1786
 9087SOL     OW38719   3.407   1.871   0.549 -0.9028 -0.1816 -0.2794
 9087SOL    HW138720   3.393   1.959   0.513 -0.2819 -0.2534 -0.6884
 9087SOL    HW238721   3.497   1.870   0.582 -0.2035 -0.8136 -2.1976
 9088SOL     OW38722   2.449   4.239   9.364 -0.0047 -0.1637  0.4319
 9088SOL    HW138723   2.428   4.277   9.449 -2.0405 -1.6883  0.6321
 9088SOL    HW238724   2.486   4.154   9.390 -0.0802 -0.9160 -1.8911
 9089SOL     OW38725   2.245   1.370   8.194 -0.4730 -0.4001 -0.7385
 9089SOL    HW138726   2.280   1.296   8.244 -1.5117 -0.5995 -0.2922
 9089SOL    HW238727   2.324   1.398   8.149 -1.6615 -0.6580 -2.9677
 9090SOL     OW38728   0.677   3.854   5.571 -0.0199  0.6803 -0.5250
 9090SOL    HW138729   0.667   3.763   5.598  0.3567  0.6393 -0.5180
 9090SOL    HW238730   0.748   3.845   5.507 -0.0604  0.2492 -0.5087
 9091SOL     OW38731   1.489   0.946   1.621  0.1657  1.0596  0.2845
 9091SOL    HW138732   1.543   0.938   1.542 -0.8734 -2.1903 -0.1009
 9091SOL    HW238733   1.454   1.032   1.599  0.8442  1.4730  0.8392
 9092SOL     OW38734   0.467   3.292   4.717  0.3956 -0.8985 -0.3274
 9092SOL    HW138735   0.397   3.277   4.781  0.9147 -0.1390  0.4392
 9092SOL    HW238736   0.450   3.234   4.644  0.7336  0.2532 -1.3187
 9093SOL     OW38737   2.903   0.347   8.718 -0.4636  0.0055  0.2660
 9093SOL    HW138738   2.993   0.331   8.744 -0.4737 -0.8572 -0.2337
 9093SOL    HW238739   2.859   0.342   8.803 -0.0580  1.4387  0.5534
 9094SOL     OW38740   3.920   0.270   9.237 -0.3250  0.0937 -0.6140
 9094SOL    HW138741   3.996   0.236   9.284 -1.0955  1.0687  1.3193
 9094SOL    HW238742   3.845   0.224   9.273 -1.3214  0.8394 -1.7299
 9095SOL     OW38743   2.042   3.250  12.911 -0.2987 -0.0486 -0.0628
 9095SOL    HW138744   2.130   3.233  12.879 -0.9816 -1.2196 -1.3173
 9095SOL    HW238745   2.006   3.292  12.834  0.3159 -0.2962 -0.4825
 9096SOL     OW38746   3.041   2.180   6.775  0.1088  0.4209 -0.2739
 9096SOL    HW138747   3.082   2.180   6.862 -0.8947  1.1700  0.2038
 9096SOL    HW238748   3.014   2.271   6.760  0.5525  0.5362 -0.3809
 9097SOL     OW38749   2.224   3.134   7.935 -0.0981  0.3247 -0.7147
 9097SOL    HW138750   2.274   3.200   7.887 -2.6273 -0.0861 -3.9124
 9097SOL    HW238751   2.185   3.192   8.000  1.0849 -2.6072  2.6354
 9098SOL     OW38752   4.483   0.800   0.407  0.8355  0.8997  0.6036
 9098SOL    HW138753   4.395   0.794   0.371  0.8859  0.7727  0.4995
 9098SOL    HW238754   4.518   0.725   0.359 -1.5049 -0.0483  0.3893
 9099SOL     OW38755   0.808   0.276  13.135 -0.3278 -0.3073  0.3765
 9099SOL    HW138756   0.819   0.358  13.184 -1.0596 -0.0606  0.1329
 9099SOL    HW238757   0.817   0.212  13.205  0.7497 -1.6586 -1.0067
 9100SOL     OW38758   0.328   1.377   4.158  0.4676 -0.6749 -0.4183
 9100SOL    HW138759   0.302   1.392   4.249 -0.9609 -2.4222 -0.5427
 9100SOL    HW238760   0.246   1.401   4.115  0.8394 -2.3926 -2.0337
 9101SOL     OW38761   3.841   0.923   8.904 -0.4034  0.3463 -0.3061
 9101SOL    HW138762   3.762   0.921   8.851 -0.1259  2.0913 -0.7777
 9101SOL    HW238763   3.897   0.857   8.864 -1.1799 -0.7306  0.3964
 9102SOL     OW38764   2.061   4.189   3.767  0.1235 -0.0310  0.2829
 9102SOL    HW138765   1.966   4.182   3.755 -0.1709 -0.3208  3.0130
 9102SOL    HW238766   2.092   4.103   3.739  0.0331 -0.1616  0.5906
 9103SOL     OW38767   0.291   2.618   7.951 -0.0071 -0.5101  0.4029
 9103SOL    HW138768   0.356   2.553   7.979  0.5177 -0.6789 -1.1992
 9103SOL    HW238769   0.337   2.701   7.938  0.2944 -0.8432 -0.7035
 9104SOL     OW38770   1.861   0.682   9.233  0.1144  0.8469  0.4200
 9104SOL    HW138771   1.793   0.719   9.177  0.1248  0.4239  0.1240
 9104SOL    HW238772   1.939   0.705   9.182 -0.8436 -0.0731 -1.4771
 9105SOL     OW38773   2.575   3.792   2.814  0.1602 -0.1725  0.5955
 9105SOL    HW138774   2.599   3.746   2.894 -2.3056  0.1684  1.5163
 9105SOL    HW238775   2.597   3.721   2.754 -2.3867 -0.7430  0.3558
 9106SOL     OW38776   2.203   1.531   5.426  0.2542 -0.5442  0.0346
 9106SOL    HW138777   2.108   1.529   5.416 -0.1263  0.4833  3.4486
 9106SOL    HW238778   2.232   1.469   5.493 -1.5429  0.0250  1.3378
 9107SOL     OW38779   3.083   2.995  10.958 -0.0831  0.0762 -0.0080
 9107SOL    HW138780   3.150   3.018  11.023 -0.2408  2.5720 -0.7433
 9107SOL    HW238781   3.011   2.970  11.016  0.9799 -0.9772  0.8747
 9108SOL     OW38782   3.742   1.086   0.870  0.4386 -0.1601 -0.0291
 9108SOL    HW138783   3.732   1.180   0.860  0.6180 -0.2570 -1.1327
 9108SOL    HW238784   3.662   1.050   0.831  0.3174  1.3489 -1.1620
 9109SOL     OW38785   1.372   0.419  11.047  0.8024  1.0474 -0.6715
 9109SOL    HW138786   1.451   0.437  10.996  2.5593 -0.6305  1.4388
 9109SOL    HW238787   1.409   0.367  11.118  0.5148 -0.0533 -1.3289
 9110SOL     OW38788   0.806   0.626   2.446 -0.0843  0.1957  0.0876
 9110SOL    HW138789   0.750   0.619   2.369  1.8637 -0.2681 -1.2906
 9110SOL    HW238790   0.799   0.536   2.478 -1.4344  0.4101  0.3958
 9111SOL     OW38791   1.734   2.704   5.452 -0.3658 -0.4398  0.7061
 9111SOL    HW138792   1.647   2.744   5.457 -1.2124 -1.9848 -1.4859
 9111SOL    HW238793   1.774   2.771   5.396  0.7784 -0.7795  1.1225
 9112SOL     OW38794   2.842   2.353   7.416 -0.4880  0.3375  0.1074
 9112SOL    HW138795   2.899   2.427   7.393 -0.3577  0.7627  1.8482
 9112SOL    HW238796   2.852   2.343   7.511 -3.2457 -1.0477  0.2372
 9113SOL     OW38797   3.800   1.914   3.149 -0.3980 -0.0684  0.6025
 9113SOL    HW138798   3.889   1.897   3.116  0.4172 -0.1946  2.8657
 9113SOL    HW238799   3.820   1.969   3.225  0.9380 -1.0818  0.9754
 9114SOL     OW38800   3.440   0.787  13.999  0.1146  0.1321  0.7059
 9114SOL    HW138801   3.352   0.762  13.970 -0.4391 -0.8980  3.3129
 9114SOL    HW238802   3.428   0.874  14.036  1.6716 -0.0393  1.5968
 9115SOL     OW38803   1.393   0.327   5.811 -0.1992 -0.4089 -0.8040
 9115SOL    HW138804   1.483   0.295   5.807 -0.1935 -0.5872  0.7356
 9115SOL    HW238805   1.375   0.355   5.901 -1.0273 -2.6795 -0.2678
 9116SOL     OW38806   2.750   2.176   1.798  0.2312  0.1506 -0.1796
 9116SOL    HW138807   2.776   2.098   1.847  1.2402 -0.8276 -2.2438
 9116SOL    HW238808   2.821   2.188   1.735  2.9640 -0.4082  2.8101
 9117SOL     OW38809   0.157   1.006   5.335 -0.1914  0.2281 -0.2812
 9117SOL    HW138810   0.228   1.023   5.273 -0.5329  1.0771 -0.4343
 9117SOL    HW238811   0.106   1.087   5.333  0.9923  0.9952  0.0217
 9118SOL     OW38812   1.931   3.382   9.521 -0.1709  0.5650 -0.4909
 9118SOL    HW138813   1.853   3.327   9.528  1.5534 -1.7350  0.8478
 9118SOL    HW238814   1.930   3.414   9.611 -0.1357  0.4010 -0.4314
 9119SOL     OW38815   3.301   2.638   2.121  0.0435  0.3120  0.1416
 9119SOL    HW138816   3.331   2.616   2.033  0.4890 -0.2021  0.4227
 9119SOL    HW238817   3.237   2.570   2.144 -0.7047 -0.0988 -3.2012
 9120SOL     OW38818   4.207   3.205   9.240  0.3909 -0.0486  0.2681
 9120SOL    HW138819   4.271   3.194   9.310  0.1616 -3.3764 -0.0254
 9120SOL    HW238820   4.252   3.261   9.177  1.1652  0.4794  1.2955
 9121SOL     OW38821   1.692   1.383   4.571 -0.0464  0.0021 -1.2688
 9121SOL    HW138822   1.705   1.405   4.663 -0.4870  1.3977 -1.5353
 9121SOL    HW238823   1.640   1.460   4.548  0.6802  0.6520 -0.7291
 9122SOL     OW38824   1.045   2.632  11.415 -0.6734  0.1154 -0.0696
 9122SOL    HW138825   1.080   2.625  11.504 -1.5976  2.6473  0.4809
 9122SOL    HW238826   1.057   2.540  11.388 -1.1134  0.8123 -2.5928
 9123SOL     OW38827   1.348   2.360   2.697 -0.0216  0.3901 -0.1909
 9123SOL    HW138828   1.428   2.307   2.696  1.2846  2.3152  2.1411
 9123SOL    HW238829   1.293   2.287   2.723  0.1815  0.4308  0.3731
 9124SOL     OW38830   2.909   1.140   0.003  0.3851  0.6667  0.5015
 9124SOL    HW138831   2.818   1.113   0.013 -0.1297  2.5175  0.8856
 9124SOL    HW238832   2.908   1.186  17.619 -1.0940  0.5506  0.4429
 9125SOL     OW38833   2.651   3.733   4.415 -0.9065 -0.3811  0.2141
 9125SOL    HW138834   2.695   3.747   4.499 -2.3869 -0.4378  1.0031
 9125SOL    HW238835   2.608   3.818   4.405  0.5153  0.2732 -0.2670
 9126SOL     OW38836   0.665   4.461   5.434  0.0512 -0.6334  0.1955
 9126SOL    HW138837   0.716   4.535   5.467  0.1339 -0.4464 -0.3438
 9126SOL    HW238838   0.639   4.491   5.347 -1.4694  0.7710  1.1432
 9127SOL     OW38839   0.451   2.615  12.905 -0.2654 -0.1247 -0.2387
 9127SOL    HW138840   0.367   2.629  12.862  0.4920  1.4522 -1.1923
 9127SOL    HW238841   0.486   2.699  12.874  0.4517 -0.9082 -1.5740
 9128SOL     OW38842   1.490   1.190   4.479  0.2685  0.4694 -0.0880
 9128SOL    HW138843   1.544   1.263   4.508  2.4069 -1.7229  1.3975
 9128SOL    HW238844   1.418   1.184   4.542  1.5311  0.0651  1.3073
 9129SOL     OW38845   3.855   3.214   4.017  0.0519 -0.6282 -0.7947
 9129SOL    HW138846   3.805   3.295   4.027  0.8950 -0.0422 -1.3078
 9129SOL    HW238847   3.839   3.169   4.099 -2.6861  0.2082 -0.8591
 9130SOL     OW38848   3.154   3.684  10.049  0.6306  0.3403 -0.1085
 9130SOL    HW138849   3.214   3.733  10.106 -0.9141  0.2301  1.6313
 9130SOL    HW238850   3.064   3.705  10.074  1.3603  3.1071  0.2875
 9131SOL     OW38851   1.945   1.274  12.098 -0.3610 -0.3473  0.0901
 9131SOL    HW138852   1.898   1.261  12.180 -2.4943  0.8465 -0.9419
 9131SOL    HW238853   2.036   1.263  12.125 -0.1186  1.0966 -0.1254
 9132SOL     OW38854   3.395   2.758   1.821 -0.4753 -0.6981  0.5824
 9132SOL    HW138855   3.424   2.696   1.753  1.4254  0.7075  0.1085
 9132SOL    HW238856   3.462   2.747   1.888  0.9005 -1.2669 -0.8635
 9133SOL     OW38857   1.189   1.684   5.253 -0.0214  0.1272 -0.9721
 9133SOL    HW138858   1.148   1.770   5.267 -3.3075 -1.6821  0.4056
 9133SOL    HW238859   1.114   1.627   5.266  0.1803  0.3197  1.0511
 9134SOL     OW38860   3.413   0.377   8.656 -0.2336 -0.3751  0.2745
 9134SOL    HW138861   3.404   0.457   8.707  1.8968 -0.8455  1.3863
 9134SOL    HW238862   3.329   0.378   8.611 -1.0734 -0.6069  1.8241
 9135SOL     OW38863   1.987   3.520   5.501 -0.0759  0.2056  0.2038
 9135SOL    HW138864   1.983   3.563   5.415  0.2981  0.5920  0.3818
 9135SOL    HW238865   1.899   3.543   5.528 -0.6136  0.6248 -1.8684
 9136SOL     OW38866   3.136   4.695  12.274  0.5738  0.3037  0.9128
 9136SOL    HW138867   3.042   4.680  12.273 -0.0326  4.1646  0.6057
 9136SOL    HW238868   3.173   4.612  12.246 -0.0511  0.3857 -0.1237
 9137SOL     OW38869   2.760   3.276  11.773  0.6312 -0.2082  0.3379
 9137SOL    HW138870   2.685   3.223  11.799 -2.6700  3.2440 -2.2115
 9137SOL    HW238871   2.798   3.230  11.699 -1.1638 -1.7725  0.3997
 9138SOL     OW38872   0.605   3.052   9.823  0.4267  0.2802 -0.2006
 9138SOL    HW138873   0.650   3.080   9.902 -0.8093 -0.1655  0.6588
 9138SOL    HW238874   0.565   2.968   9.848  1.5879 -0.2552 -0.1476
 9139SOL     OW38875   4.157   0.757   4.569 -0.0224  0.1495  0.0255
 9139SOL    HW138876   4.227   0.729   4.510 -0.9573  2.9276 -2.4009
 9139SOL    HW238877   4.087   0.693   4.557 -0.6887  0.2786  3.2164
 9140SOL     OW38878   1.730   4.480   0.372 -0.3267  0.0886 -0.0016
 9140SOL    HW138879   1.656   4.529   0.337 -1.3115 -0.0416  1.9268
 9140SOL    HW238880   1.794   4.480   0.301 -0.2439 -0.8078  0.0756
 9141SOL     OW38881   1.057   1.688   2.809  0.2278  0.0874  0.2015
 9141SOL    HW138882   1.004   1.667   2.886  1.4204  0.5877  1.1821
 9141SOL    HW238883   1.082   1.602   2.775 -0.4752  0.9820 -2.5677
 9142SOL     OW38884   1.799   0.196   7.601  0.1884 -0.2539 -0.0368
 9142SOL    HW138885   1.877   0.155   7.566 -0.7044 -2.5002  0.6078
 9142SOL    HW238886   1.762   0.221   7.516  2.1720  2.8354  0.0054
 9143SOL     OW38887   2.665   0.272   6.125  0.0459  0.1149 -0.5825
 9143SOL    HW138888   2.619   0.225   6.056 -0.2262 -0.9569  0.3268
 9143SOL    HW238889   2.588   0.305   6.171  2.0672  0.7262  2.4171
 9144SOL     OW38890   2.925   4.478   2.478 -0.1101 -0.5045  0.2541
 9144SOL    HW138891   2.896   4.551   2.533  0.3057 -0.6965  0.7294
 9144SOL    HW238892   2.874   4.493   2.398 -2.2879  0.8258  1.8985
 9145SOL     OW38893   3.766   2.318   9.163 -0.1855 -0.4031 -0.4048
 9145SOL    HW138894   3.814   2.324   9.081 -1.6724  0.7995 -1.1730
 9145SOL    HW238895   3.729   2.230   9.163  0.4544 -0.6735 -1.1617
 9146SOL     OW38896   0.856   2.128  13.084  0.2568 -0.1880 -0.4251
 9146SOL    HW138897   0.867   2.067  13.157  0.7069  1.2163  0.6856
 9146SOL    HW238898   0.772   2.091  13.055  1.1192 -2.6186  0.1367
 9147SOL     OW38899   0.012   0.115   6.450 -1.1623 -0.0697  0.4073
 9147SOL    HW138900   4.669   0.134   6.386 -0.6043 -0.2834 -0.2431
 9147SOL    HW238901   0.078   0.058   6.411 -1.3578 -1.8495  2.6553
 9148SOL     OW38902   1.499   4.550   8.598  0.2764  0.2206 -0.0446
 9148SOL    HW138903   1.580   4.597   8.614 -0.3100  1.7513 -1.5451
 9148SOL    HW238904   1.446   4.606   8.655  1.6195  1.0246  0.4136
 9149SOL     OW38905   3.824   2.987   8.756 -0.3273  0.0119 -0.5125
 9149SOL    HW138906   3.899   2.958   8.807  1.2613  0.6400 -2.4807
 9149SOL    HW238907   3.756   2.996   8.822 -1.0704  1.8637 -1.5043
 9150SOL     OW38908   0.673   4.683   5.674  0.0145  0.0308  0.3099
 9150SOL    HW138909   0.584   4.651   5.661  0.8064 -2.9011  2.3357
 9150SOL    HW238910   0.663   0.029   5.738  0.7443 -0.8594  1.3907
 9151SOL     OW38911   1.698   3.643   5.238 -0.4229  0.6506  0.2103
 9151SOL    HW138912   1.655   3.624   5.322  0.0474  1.4771  0.6301
 9151SOL    HW238913   1.703   3.558   5.193 -0.0831 -0.5233  2.4447
 9152SOL     OW38914   0.467   3.844  12.956  0.2902  0.2105  0.2558
 9152SOL    HW138915   0.415   3.850  13.036  1.6214 -0.3549  1.1488
 9152SOL    HW238916   0.504   3.756  12.961 -1.3125 -0.3706  2.0072
 9153SOL     OW38917   4.353   1.680   7.778  0.4246 -0.1756 -0.0591
 9153SOL    HW138918   4.332   1.766   7.813 -0.8869  0.2218 -1.7669
 9153SOL    HW238919   4.299   1.626   7.835 -2.7504  0.3797 -2.4701
 9154SOL     OW38920   0.778   1.162   8.676  0.4201  0.2079 -0.1259
 9154SOL    HW138921   0.867   1.185   8.649 -0.4223  0.4381 -2.6582
 9154SOL    HW238922   0.751   1.235   8.732 -1.1608 -0.4739 -0.0124
 9155SOL     OW38923   1.281   3.382  13.052 -0.4665 -0.1084  0.8046
 9155SOL    HW138924   1.217   3.356  12.986  0.7451  0.1163 -0.4722
 9155SOL    HW238925   1.253   3.327  13.125  2.3010  0.0739  2.0125
 9156SOL     OW38926   0.400   3.887  17.110 -0.1715  0.5318  0.2434
 9156SOL    HW138927   0.406   3.919  17.020 -1.5280 -2.3764 -0.8710
 9156SOL    HW238928   0.323   3.940  17.135 -2.7359 -2.3716 -1.5411
 9157SOL     OW38929   2.383   0.273   4.212  0.2168 -0.1087 -0.0990
 9157SOL    HW138930   2.346   0.344   4.160 -1.6886 -1.9287 -1.2431
 9157SOL    HW238931   2.473   0.305   4.207 -0.4488  1.7115 -0.3675
 9158SOL     OW38932   4.273   1.873   1.403  0.4615  0.4077 -0.0349
 9158SOL    HW138933   4.249   1.812   1.334  2.2691 -0.6268  0.2449
 9158SOL    HW238934   4.353   1.836   1.439 -1.9318 -1.0494  3.7915
 9159SOL     OW38935   3.749   1.871   8.188 -0.7769  0.5150 -0.5096
 9159SOL    HW138936   3.752   1.927   8.266  2.5220 -0.5790  0.1289
 9159SOL    HW238937   3.826   1.906   8.142  2.1604 -2.0357  2.4599
 9160SOL     OW38938   1.224   0.636   5.086  0.2980 -0.3816 -0.3008
 9160SOL    HW138939   1.158   0.629   5.017 -0.0232  0.5688 -0.0792
 9160SOL    HW238940   1.273   0.710   5.050  0.0076 -0.4713 -0.8845
 9161SOL     OW38941   0.130   3.545   2.672 -0.1407 -0.8581 -0.0952
 9161SOL    HW138942   0.225   3.545   2.689 -0.5562 -2.9937  2.2154
 9161SOL    HW238943   0.117   3.640   2.667  0.9469 -0.8949 -3.3947
 9162SOL     OW38944   2.040   2.001   8.900  0.4192 -0.7638  0.2432
 9162SOL    HW138945   2.032   2.092   8.927 -0.1381 -0.9045  0.5421
 9162SOL    HW238946   2.113   1.977   8.959 -0.1958 -0.4037  1.1526
 9163SOL     OW38947   4.581   3.117  16.097 -0.3782 -0.8828 -0.1138
 9163SOL    HW138948   4.527   3.116  16.176  1.3179 -0.9833  1.0649
 9163SOL    HW238949   4.545   3.039  16.054 -2.9842  0.4420 -0.3165
 9164SOL     OW38950   1.513   4.389  14.153  0.3307 -0.5394 -0.4926
 9164SOL    HW138951   1.463   4.310  14.132  0.1402 -0.9231  1.4014
 9164SOL    HW238952   1.603   4.357  14.145  1.2884  1.8047  0.9965
 9165SOL     OW38953   3.573   4.597   1.050 -0.0402  0.2184 -0.1306
 9165SOL    HW138954   3.624   4.518   1.065  0.7582  0.6642 -0.5139
 9165SOL    HW238955   3.539   4.622   1.136 -2.7479  0.9592 -1.4071
 9166SOL     OW38956   0.890   3.485   4.757  0.3420 -0.2801  0.5792
 9166SOL    HW138957   0.810   3.443   4.726  1.0405  1.1241 -3.2218
 9166SOL    HW238958   0.862   3.572   4.787  1.1684  0.2259 -0.0889
 9167SOL     OW38959   3.858   3.621  11.611 -0.4867 -0.0249 -0.1503
 9167SOL    HW138960   3.839   3.537  11.653 -0.8035 -0.9476 -2.1653
 9167SOL    HW238961   3.920   3.647  11.679 -2.1088 -0.7896  1.6338
 9168SOL     OW38962   1.904   1.851   3.128  0.3396 -0.4821  0.2113
 9168SOL    HW138963   1.893   1.831   3.035 -0.0705  0.0930  0.1342
 9168SOL    HW238964   1.973   1.916   3.116 -0.3060  0.3758  1.1301
 9169SOL     OW38965   4.037   2.073   4.080  0.5968  0.0403 -0.0848
 9169SOL    HW138966   4.033   2.047   4.172 -1.1590  1.7924  0.3520
 9169SOL    HW238967   4.039   1.985   4.042 -0.4216  1.0615 -2.4828
 9170SOL     OW38968   1.116   2.475   7.166  0.2556 -0.5441 -0.2951
 9170SOL    HW138969   1.090   2.468   7.258 -0.7970 -2.1731 -0.7187
 9170SOL    HW238970   1.030   2.478   7.124  1.2336 -2.0438 -2.4178
 9171SOL     OW38971   1.801   1.898   7.164  0.0001  0.4606 -0.2044
 9171SOL    HW138972   1.743   1.823   7.157 -0.3689  0.4663  2.5654
 9171SOL    HW238973   1.758   1.952   7.098 -1.4122 -0.2771  0.1181
 9172SOL     OW38974   3.280   2.015  12.448 -0.8836 -0.1897 -0.8271
 9172SOL    HW138975   3.260   2.043  12.538  1.4132 -1.0935 -0.0315
 9172SOL    HW238976   3.258   2.092  12.396 -0.2556  1.0137  0.6853
 9173SOL     OW38977   2.417   3.313   7.856  0.1082  0.0799  0.3617
 9173SOL    HW138978   2.500   3.315   7.904 -1.1321  1.4815  2.4239
 9173SOL    HW238979   2.437   3.363   7.777 -1.0793  0.2135  0.1485
 9174SOL     OW38980   1.759   4.693   4.166  0.3169 -0.1137 -0.6729
 9174SOL    HW138981   1.692   4.686   4.098 -0.9068  2.0134  0.3214
 9174SOL    HW238982   1.794   4.605   4.180  0.4427 -0.1537 -1.2384
 9175SOL     OW38983   3.696   0.099   1.294  0.0621  0.3208  0.3213
 9175SOL    HW138984   3.617   0.073   1.342  1.1862 -2.3413  0.7658
 9175SOL    HW238985   3.669   0.173   1.240  2.3615  1.0943  0.2267
 9176SOL     OW38986   2.831   2.439   2.786  0.5302 -0.1508  0.0843
 9176SOL    HW138987   2.902   2.460   2.725  0.3867  0.8784  0.2832
 9176SOL    HW238988   2.875   2.423   2.870 -0.1010  0.1033  0.4644
 9177SOL     OW38989   2.723   0.565   6.555 -0.3100 -0.3403  0.1234
 9177SOL    HW138990   2.737   0.654   6.586  0.9559  0.0874 -1.6562
 9177SOL    HW238991   2.628   0.557   6.541 -0.4522 -0.9442  1.4793
 9178SOL     OW38992   1.336   3.030   5.251 -0.5176 -0.3208 -0.3408
 9178SOL    HW138993   1.329   2.940   5.285  1.3123  0.1168  1.1559
 9178SOL    HW238994   1.312   3.015   5.160 -3.1244 -1.0446  0.4624
 9179SOL     OW38995   2.769   1.453   7.345 -0.2813 -0.8436  0.0700
 9179SOL    HW138996   2.707   1.466   7.274 -1.0653 -3.3981  0.2992
 9179SOL    HW238997   2.707   1.423   7.412  0.5875 -2.3595  0.1766
 9180SOL     OW38998   2.584   3.666   1.770  0.1259  0.2214 -0.7398
 9180SOL    HW138999   2.640   3.737   1.738  0.5881 -0.3592 -1.2319
 9180SOL    HW239000   2.517   3.709   1.823  1.4493  1.5190 -0.0953
 9181SOL     OW39001   0.725   1.532   6.137  0.2864  0.0302 -0.8329
 9181SOL    HW139002   0.725   1.610   6.193 -1.6297 -0.7607  0.2465
 9181SOL    HW239003   0.816   1.521   6.110  0.9674  0.2687  1.3855
 9182SOL     OW39004   3.926   3.029   7.053  0.4218  0.0285  0.4141
 9182SOL    HW139005   3.915   3.116   7.013 -2.6560  0.8192  2.9945
 9182SOL    HW239006   3.964   2.970   6.987  0.5513 -0.5023  0.9682
 9183SOL     OW39007   4.146   4.501   7.229 -0.1299 -0.0367  0.1274
 9183SOL    HW139008   4.197   4.434   7.185 -0.3096 -0.5965  0.7724
 9183SOL    HW239009   4.058   4.479   7.198 -0.0845  1.2469 -0.9401
 9184SOL     OW39010   4.504   3.512   3.856  0.3383  0.0663  0.5928
 9184SOL    HW139011   4.532   3.600   3.880  0.7473 -0.4618  2.0654
 9184SOL    HW239012   4.496   3.510   3.761 -0.9601 -2.8139  0.7369
 9185SOL     OW39013   1.582   1.410  11.731  0.1414  0.0038 -0.0332
 9185SOL    HW139014   1.644   1.377  11.796 -0.1437 -0.2686  0.1052
 9185SOL    HW239015   1.588   1.331  11.677 -0.0097 -0.7795  1.0934
 9186SOL     OW39016   1.129   3.750   8.164  0.2480 -0.7662  0.1532
 9186SOL    HW139017   1.058   3.730   8.103  1.3695  1.9960 -2.0548
 9186SOL    HW239018   1.173   3.825   8.124 -1.9922  0.8856  0.7300
 9187SOL     OW39019   2.949   1.350   2.056 -0.1025 -0.0287  0.9291
 9187SOL    HW139020   2.962   1.335   1.962  0.2631 -0.3403  1.0286
 9187SOL    HW239021   2.901   1.270   2.078  0.3246 -0.5674 -0.1023
 9188SOL     OW39022   0.109   4.527  13.019 -0.1963  0.0190 -0.4693
 9188SOL    HW139023   0.204   4.541  13.017  0.2404 -2.5236  2.6821
 9188SOL    HW239024   0.081   4.618  13.012  2.2953  0.9054  1.2587
 9189SOL     OW39025   0.584   4.574   6.359  0.6152  0.2328  0.2606
 9189SOL    HW139026   0.679   4.565   6.361  0.4845 -0.9839  1.0218
 9189SOL    HW239027   0.554   4.511   6.425 -1.2016  1.0966  0.2808
 9190SOL     OW39028   3.750   0.145   6.184  0.1213 -0.1559  0.5603
 9190SOL    HW139029   3.672   0.149   6.239 -0.2323 -1.1131  0.1320
 9190SOL    HW239030   3.708   0.148   6.098 -0.6837 -0.9201  0.9230
 9191SOL     OW39031   3.990   4.619   1.159  0.1403 -0.0057 -0.8068
 9191SOL    HW139032   3.987   4.681   1.232 -0.4298 -1.0293  0.0271
 9191SOL    HW239033   4.084   4.630   1.142  0.3094  2.5345  1.7773
 9192SOL     OW39034   3.611   3.366   9.651  0.2335 -0.2441  0.4963
 9192SOL    HW139035   3.671   3.420   9.702  1.3291  0.6926 -1.7750
 9192SOL    HW239036   3.535   3.424   9.651  0.9402  0.6832 -2.4461
 9193SOL     OW39037   2.280   3.879   4.032 -0.0795  1.1703 -0.1815
 9193SOL    HW139038   2.340   3.808   4.007 -0.5929  1.5149 -2.4451
 9193SOL    HW239039   2.294   3.944   3.963 -1.2213  1.5994 -0.0053
 9194SOL     OW39040   2.178   2.098   4.695 -0.0144 -0.0530  0.0819
 9194SOL    HW139041   2.124   2.055   4.761  0.0107  1.3104  0.9907
 9194SOL    HW239042   2.142   2.054   4.618  0.0620 -0.3274  0.2032
 9195SOL     OW39043   3.184   1.708   0.105 -0.2454  1.0536  0.1252
 9195SOL    HW139044   3.188   1.747   0.192 -1.6923  0.1513  0.5980
 9195SOL    HW239045   3.216   1.779   0.050  1.7388  0.5507  0.6243
 9196SOL     OW39046   3.754   4.672   2.056  0.2293  0.5004 -0.3122
 9196SOL    HW139047   3.780   4.638   1.971  1.7754  2.3529 -0.5781
 9196SOL    HW239048   3.837   4.670   2.103  0.3346  1.1795 -0.4666
 9197SOL     OW39049   3.974   2.672   4.898 -0.4719 -0.4169  0.0422
 9197SOL    HW139050   4.045   2.664   4.961 -0.9011  0.5905  0.6648
 9197SOL    HW239051   3.975   2.768   4.889  0.5531 -0.5362 -1.0994
 9198SOL     OW39052   3.463   4.325   1.960  0.3016  0.4018 -0.3604
 9198SOL    HW139053   3.389   4.385   1.969 -0.6991 -0.5110 -2.5183
 9198SOL    HW239054   3.413   4.248   1.990 -0.1993 -0.1467 -2.6295
 9199SOL     OW39055   0.292   1.982  14.915 -0.0171 -0.0342 -0.0037
 9199SOL    HW139056   0.337   1.973  14.999 -0.9017 -0.2895  0.4458
 9199SOL    HW239057   0.334   1.914  14.861  1.0294 -0.8999  1.8794
 9200SOL     OW39058   1.408   0.063   4.101  0.4759 -0.4064  0.8752
 9200SOL    HW139059   1.331   0.007   4.110 -0.5878  0.7670 -0.9068
 9200SOL    HW239060   1.366   0.143   4.133  2.1804 -0.5944  3.6030
 9201SOL     OW39061   2.357   3.263   1.533  0.0124 -0.1929  0.1133
 9201SOL    HW139062   2.368   3.306   1.448  0.4533  1.3224  0.9481
 9201SOL    HW239063   2.423   3.305   1.587 -0.0414 -2.1002  1.6679
 9202SOL     OW39064   1.404   2.215   0.316  0.3942 -0.2957  0.3688
 9202SOL    HW139065   1.482   2.221   0.261  0.0816 -0.9344 -0.1475
 9202SOL    HW239066   1.344   2.276   0.273  1.0918  0.2458  0.1780
 9203SOL     OW39067   1.845   4.202   3.516 -0.0262 -0.2998 -0.2552
 9203SOL    HW139068   1.919   4.161   3.471  0.0420 -1.4283  0.9025
 9203SOL    HW239069   1.798   4.238   3.440  1.3930  1.6729 -0.2199
 9204SOL     OW39070   0.293   4.384   4.468 -0.3386  0.0654  0.5100
 9204SOL    HW139071   0.243   4.461   4.441  0.1365 -0.0075 -0.5600
 9204SOL    HW239072   0.241   4.341   4.536 -1.3218  1.0466  0.3826
 9205SOL     OW39073   3.429   2.181   6.839  0.4985 -0.4741  0.0179
 9205SOL    HW139074   3.395   2.159   6.753  0.9087 -1.9885  0.2408
 9205SOL    HW239075   3.373   2.258   6.848 -0.9686 -1.7574  1.9674
 9206SOL     OW39076   1.123   0.039   1.201 -0.1396 -0.7572 -0.2706
 9206SOL    HW139077   1.138   0.031   1.107 -0.8016 -2.9677 -0.1683
 9206SOL    HW239078   1.138   4.676   1.236 -0.9083 -0.5788  0.5056
 9207SOL     OW39079   4.262   1.731  12.768 -0.3960 -0.3569  0.5129
 9207SOL    HW139080   4.244   1.824  12.758 -1.8564 -0.3080  3.4951
 9207SOL    HW239081   4.278   1.728  12.863 -0.9845 -0.0180  0.6255
 9208SOL     OW39082   2.561   2.382   2.890 -0.3244  0.6177 -0.3602
 9208SOL    HW139083   2.577   2.305   2.946 -1.1993 -0.2168 -1.2572
 9208SOL    HW239084   2.646   2.377   2.845 -0.3328  0.0706 -0.3248
 9209SOL     OW39085   2.445   0.459   2.206 -0.0841 -0.1224  0.0793
 9209SOL    HW139086   2.476   0.499   2.124 -0.0004  0.5266  0.4320
 9209SOL    HW239087   2.389   0.531   2.234  0.1690  0.2838 -0.4498
 9210SOL     OW39088   0.750   3.687   6.137 -0.0003  0.4662 -0.1654
 9210SOL    HW139089   0.726   3.707   6.228 -0.8367  3.9389 -1.1764
 9210SOL    HW239090   0.790   3.765   6.100 -2.1837  0.1940 -3.0696
 9211SOL     OW39091   3.138   2.828   7.692 -0.1214  0.0934 -0.2947
 9211SOL    HW139092   3.136   2.823   7.596  2.6515 -0.4525 -0.3291
 9211SOL    HW239093   3.190   2.907   7.703  0.6681 -0.3211 -1.0073
 9212SOL     OW39094   3.513   1.763   2.646  0.0788 -0.2627 -0.6701
 9212SOL    HW139095   3.509   1.706   2.569  0.3461 -1.0479 -0.1051
 9212SOL    HW239096   3.606   1.764   2.668 -0.0706  0.0773 -0.0588
 9213SOL     OW39097   3.799   0.031   0.970  0.0708 -0.2583 -0.4822
 9213SOL    HW139098   3.856   0.050   1.045 -0.6671 -0.1836  0.0540
 9213SOL    HW239099   3.744   4.686   1.005  1.4653  0.3612  2.9763
 9214SOL     OW39100   1.581   2.881  15.126  0.2832 -0.1317 -0.0864
 9214SOL    HW139101   1.673   2.857  15.122  0.6912  1.2778  1.3289
 9214SOL    HW239102   1.581   2.964  15.174 -1.0152  0.4864 -1.1432
 9215SOL     OW39103   4.470   4.581  13.168  0.5025 -0.3648  0.0918
 9215SOL    HW139104   4.551   4.594  13.216  0.3370 -2.3647  0.8930
 9215SOL    HW239105   4.434   4.530  13.241  3.4291  0.1864  1.9297
 9216SOL     OW39106   1.721   1.432   2.529 -0.3430 -0.6246 -0.3923
 9216SOL    HW139107   1.778   1.366   2.569  0.8813 -0.4197 -1.8346
 9216SOL    HW239108   1.776   1.508   2.514 -0.6347 -0.2881  0.2587
 9217SOL     OW39109   1.410   2.290  11.016  0.0110 -0.0661 -0.0116
 9217SOL    HW139110   1.481   2.259  10.960 -1.1469 -1.2444 -0.8358
 9217SOL    HW239111   1.453   2.279  11.101 -1.1497  1.7321  0.7998
 9218SOL     OW39112   4.220   2.177   7.996 -0.4313  0.0212 -0.2710
 9218SOL    HW139113   4.187   2.148   8.081 -0.0140 -2.0356 -0.8029
 9218SOL    HW239114   4.159   2.247   7.973 -0.0847  0.6155  0.6359
 9219SOL     OW39115   2.887   2.161   7.225 -0.0574 -0.2598  0.1837
 9219SOL    HW139116   2.904   2.069   7.248  0.1830  0.0793  1.3420
 9219SOL    HW239117   2.857   2.192   7.310 -2.2507 -0.6744 -0.4450
 9220SOL     OW39118   1.671   2.948   7.084 -0.1559  0.2068  0.1763
 9220SOL    HW139119   1.641   2.962   7.174 -0.2002 -1.1977  0.3689
 9220SOL    HW239120   1.753   2.997   7.090 -0.1602  0.2369 -0.0041
 9221SOL     OW39121   0.039   4.214  10.714  0.0158 -0.4631 -0.8182
 9221SOL    HW139122   4.669   4.215  10.731  0.7100 -2.5943  3.1522
 9221SOL    HW239123   0.050   4.133  10.764  1.7023 -0.8323 -1.7807
 9222SOL     OW39124   1.852   1.724   4.855 -0.4680 -0.5072 -0.4730
 9222SOL    HW139125   1.901   1.787   4.803 -2.0262 -0.0328 -1.3708
 9222SOL    HW239126   1.840   1.769   4.940 -0.8628 -0.6414 -0.4580
 9223SOL     OW39127   3.530   2.217   0.766  0.5274 -0.8798  0.1024
 9223SOL    HW139128   3.569   2.245   0.849 -0.7176 -0.0471  0.4181
 9223SOL    HW239129   3.480   2.141   0.797 -1.4925  1.4900  2.6756
 9224SOL     OW39130   2.396   4.162   7.942  0.4287 -0.2140  0.5326
 9224SOL    HW139131   2.487   4.136   7.925 -0.1935 -2.2089  0.2891
 9224SOL    HW239132   2.390   4.256   7.926  0.6044 -0.3002 -0.0778
 9225SOL     OW39133   1.364   3.741  11.148  0.0185 -0.1981 -0.2546
 9225SOL    HW139134   1.284   3.736  11.201 -1.3216  2.9836 -1.9591
 9225SOL    HW239135   1.400   3.653  11.151  0.2338 -0.0833  0.5234
 9226SOL     OW39136   3.667   1.481   9.853 -0.0281  0.2127 -0.3342
 9226SOL    HW139137   3.694   1.510   9.940  0.0263 -0.1934 -0.2158
 9226SOL    HW239138   3.637   1.393   9.876  1.0274 -0.0900 -0.1385
 9227SOL     OW39139   3.363   3.396  15.714  0.1260 -0.8319  0.6317
 9227SOL    HW139140   3.326   3.401  15.626  1.1300 -0.8294  0.2112
 9227SOL    HW239141   3.285   3.369  15.762 -1.6531  0.1442 -1.6785
 9228SOL     OW39142   3.574   1.732   2.181  0.0171 -0.5071 -0.1171
 9228SOL    HW139143   3.486   1.769   2.183 -0.8650 -2.5551 -1.9393
 9228SOL    HW239144   3.610   1.744   2.269  0.1743 -0.8089 -0.1403
 9229SOL     OW39145   0.578   0.175   1.650  0.3022  0.9587 -0.2075
 9229SOL    HW139146   0.570   0.092   1.698 -1.7299  0.6812 -0.9936
 9229SOL    HW239147   0.526   0.226   1.713 -1.0421 -0.4317 -0.1668
 9230SOL     OW39148   1.172   4.687   5.587 -0.2442 -0.7601  0.1631
 9230SOL    HW139149   1.232   0.034   5.568 -1.5896 -0.1481 -1.8270
 9230SOL    HW239150   1.110   4.711   5.518 -0.0262 -2.6026 -0.6737
 9231SOL     OW39151   3.029   4.662   9.737  0.0418  0.1249  0.2172
 9231SOL    HW139152   3.049   4.663   9.831 -0.3529 -1.7197  0.3110
 9231SOL    HW239153   2.978   4.581   9.732  1.2341 -0.7314  1.9203
 9232SOL     OW39154   3.678   0.772   1.480  0.3454 -0.0840 -0.4860
 9232SOL    HW139155   3.726   0.811   1.553  1.2890 -2.0377 -0.0694
 9232SOL    HW239156   3.596   0.821   1.470  1.4223  1.8007 -0.2361
 9233SOL     OW39157   0.919   1.203   0.856 -0.7010 -0.7765 -0.3087
 9233SOL    HW139158   0.995   1.158   0.893  0.0167 -0.3549 -1.2567
 9233SOL    HW239159   0.886   1.250   0.932  0.8623  0.4715 -0.3994
 9234SOL     OW39160   3.796   0.528   5.650 -0.2724 -0.1787 -0.5908
 9234SOL    HW139161   3.806   0.434   5.662 -1.7916 -0.1622  0.8071
 9234SOL    HW239162   3.703   0.542   5.632 -0.1594 -0.6869 -1.5729
 9235SOL     OW39163   1.018   1.200   2.689 -0.1177 -0.3856  0.1421
 9235SOL    HW139164   1.080   1.130   2.708  1.8441  1.4365  0.4911
 9235SOL    HW239165   1.069   1.281   2.696 -3.6506  1.9109 -0.5741
 9236SOL     OW39166   4.102   0.679  13.744 -0.8791 -0.3437  0.0524
 9236SOL    HW139167   4.020   0.721  13.718 -1.8056 -1.9673  0.3853
 9236SOL    HW239168   4.174   0.741  13.731 -1.9829  0.5503 -1.8773
 9237SOL     OW39169   3.675   1.163  16.533 -0.3571  0.4293  0.4707
 9237SOL    HW139170   3.723   1.235  16.491  0.3934 -0.8479 -0.8802
 9237SOL    HW239171   3.693   1.190  16.623 -1.1803 -2.2337  1.4238
 9238SOL     OW39172   2.551   1.164   0.500 -0.1355 -0.4059 -0.6189
 9238SOL    HW139173   2.458   1.179   0.487  0.3116  2.8373  0.0143
 9238SOL    HW239174   2.587   1.191   0.415  1.6003  0.6268  0.4385
 9239SOL     OW39175   3.985   2.022  16.190 -0.0833  0.0316 -0.1715
 9239SOL    HW139176   3.967   2.102  16.239 -2.3617 -1.5105  1.5424
 9239SOL    HW239177   3.909   2.006  16.134 -1.0358  1.3844  0.7533
 9240SOL     OW39178   1.581   4.170   3.657 -0.5083  0.2288  0.2657
 9240SOL    HW139179   1.544   4.082   3.669  2.2056 -0.7446  1.6393
 9240SOL    HW239180   1.674   4.156   3.639 -0.7496 -1.0596  0.0084
 9241SOL     OW39181   0.121   0.725   2.803 -0.2697 -0.3530  0.3151
 9241SOL    HW139182   0.192   0.691   2.748 -0.1844 -0.7218  0.6621
 9241SOL    HW239183   0.063   0.762   2.737 -1.3650 -1.9616  0.3826
 9242SOL     OW39184   3.993   3.412   2.686 -0.0572  0.2281  0.6575
 9242SOL    HW139185   3.964   3.501   2.704 -0.0673  0.3478  0.0293
 9242SOL    HW239186   3.930   3.369   2.743 -0.8809 -0.1662 -0.5605
 9243SOL     OW39187   1.209   2.615  17.562  0.3692  0.0300  0.1980
 9243SOL    HW139188   1.183   2.540  17.509  0.5253 -0.5966  1.0032
 9243SOL    HW239189   1.128   2.666  17.563  1.9526  2.5207  0.4424
 9244SOL     OW39190   1.037   4.196   7.698 -0.7024  0.1722  0.1065
 9244SOL    HW139191   0.952   4.165   7.730 -0.9704 -1.0717 -1.7737
 9244SOL    HW239192   1.103   4.174   7.764 -0.2938  0.2296 -0.2829
 9245SOL     OW39193   4.093   2.331  16.740  0.0285  0.2544  0.1613
 9245SOL    HW139194   4.071   2.313  16.831 -0.4414  1.6533  0.3213
 9245SOL    HW239195   4.009   2.349  16.698  0.5586 -0.0734 -1.0600
 9246SOL     OW39196   0.559   2.404   3.690  0.3825  0.2782 -0.2188
 9246SOL    HW139197   0.492   2.337   3.702  0.4204  0.2135 -0.3611
 9246SOL    HW239198   0.524   2.444   3.610  0.8844 -1.4947 -1.3290
 9247SOL     OW39199   0.901   2.050   2.365 -0.0785  0.9060 -0.3979
 9247SOL    HW139200   0.851   2.071   2.444  0.3719 -0.8629  0.3439
 9247SOL    HW239201   0.840   2.010   2.304 -0.3846  0.6226  0.0962
 9248SOL     OW39202   2.506   0.845   2.736 -0.1808 -0.7795  0.0359
 9248SOL    HW139203   2.530   0.773   2.678  2.7088 -0.4318  0.8091
 9248SOL    HW239204   2.429   0.802   2.773 -0.3880  0.0746  0.6077
 9249SOL     OW39205   0.249   2.840  11.365  0.0517 -0.2728  0.2813
 9249SOL    HW139206   0.164   2.827  11.323 -0.7259  3.3578  0.7132
 9249SOL    HW239207   0.302   2.786  11.307  0.5973  0.7867 -0.2080
 9250SOL     OW39208   0.926   1.452   3.624  0.5686  0.1573 -0.3041
 9250SOL    HW139209   0.845   1.424   3.665  0.2146 -4.3221 -4.0260
 9250SOL    HW239210   0.989   1.452   3.695  0.7605  1.8333 -0.4730
 9251SOL     OW39211   1.917   3.698  14.717  0.1727  0.0561  0.0294
 9251SOL    HW139212   1.919   3.612  14.758  0.5320 -0.1088 -0.3413
 9251SOL    HW239213   1.831   3.731  14.744 -0.2643 -0.3257 -0.9071
 9252SOL     OW39214   1.626   2.949   4.995  0.7415  0.4667 -0.3504
 9252SOL    HW139215   1.610   2.906   4.910  0.1858  0.3892 -0.2063
 9252SOL    HW239216   1.682   3.022   4.972 -1.2821  1.5058 -1.9940
 9253SOL     OW39217   3.616   2.175   3.757 -0.1220 -0.1240 -0.6895
 9253SOL    HW139218   3.551   2.188   3.826  0.8691 -1.0784  0.4407
 9253SOL    HW239219   3.698   2.161   3.805  0.0827 -0.9435 -1.2746
 9254SOL     OW39220   0.564   1.527   3.510 -0.0716 -0.2661 -0.0414
 9254SOL    HW139221   0.487   1.499   3.460  1.6936 -0.9962 -2.3778
 9254SOL    HW239222   0.521   1.604   3.545  1.2597  0.3694  0.2046
 9255SOL     OW39223   2.116   1.347   1.151  0.3990  0.6508 -0.1326
 9255SOL    HW139224   2.021   1.336   1.147  0.5691 -1.0464  0.4142
 9255SOL    HW239225   2.151   1.262   1.123 -0.4191 -0.0602  0.9840
 9256SOL     OW39226   2.813   0.622   0.260 -0.2748  0.3978 -0.2496
 9256SOL    HW139227   2.830   0.709   0.295 -0.9716  0.7327 -0.7282
 9256SOL    HW239228   2.897   0.575   0.260  0.3870  1.5831  0.5097
 9257SOL     OW39229   3.938   2.198  12.415  0.3237  0.3605  0.0289
 9257SOL    HW139230   3.952   2.105  12.435 -0.5014  0.2680  0.1937
 9257SOL    HW239231   3.973   2.237  12.495  0.1326  1.2060 -0.3008
 9258SOL     OW39232   3.859   0.514   8.231 -0.3146  0.1634  0.0677
 9258SOL    HW139233   3.908   0.439   8.264 -0.8118  0.0495  0.5656
 9258SOL    HW239234   3.865   0.564   8.313 -2.0098  0.1285  0.2200
 9259SOL     OW39235   2.622   1.153  16.824  0.0511 -0.3949 -0.0392
 9259SOL    HW139236   2.610   1.170  16.731  1.5240  1.7198  0.1661
 9259SOL    HW239237   2.686   1.082  16.829  0.2144 -0.2804 -0.6330
 9260SOL     OW39238   1.534   3.660  17.003  0.2755 -0.1992  0.2981
 9260SOL    HW139239   1.527   3.669  16.908 -1.1395  1.6987  0.5706
 9260SOL    HW239240   1.441   3.639  17.010 -0.0302  1.2884  0.7275
 9261SOL     OW39241   0.023   0.498   3.001  0.1880  0.2093  0.1480
 9261SOL    HW139242   0.077   0.433   2.956 -1.8162 -1.1887 -0.2105
 9261SOL    HW239243   0.013   0.563   2.932 -2.6698 -0.5668 -0.1417
 9262SOL     OW39244   0.041   1.832   6.768 -0.2513 -0.9562  0.7363
 9262SOL    HW139245   0.113   1.887   6.737 -0.5951 -1.3577 -0.7849
 9262SOL    HW239246   0.088   1.748   6.767  1.3568 -0.0426 -0.2309
 9263SOL     OW39247   1.394   2.911   7.595 -0.3573  0.0614 -0.2192
 9263SOL    HW139248   1.392   2.896   7.689  2.0409  0.6922 -0.0810
 9263SOL    HW239249   1.364   3.002   7.598 -0.6990 -0.0831  0.6522
 9264SOL     OW39250   0.071   0.946   5.022  0.4664 -0.2415 -0.2457
 9264SOL    HW139251   0.057   1.024   5.077 -0.6778 -1.1236  0.7188
 9264SOL    HW239252   0.082   0.868   5.077  1.6327 -0.8728 -1.3775
 9265SOL     OW39253   4.406   3.256   8.704 -0.5867 -0.2548 -0.4668
 9265SOL    HW139254   4.453   3.214   8.631  1.3464  1.0302  0.0360
 9265SOL    HW239255   4.465   3.223   8.772  0.3771  0.0274 -1.1666
 9266SOL     OW39256   3.423   2.873   1.358 -0.5599  0.0343  0.1512
 9266SOL    HW139257   3.418   2.786   1.398  1.0332  0.7545  1.8531
 9266SOL    HW239258   3.376   2.917   1.429 -0.8882 -1.0129  0.5923
 9267SOL     OW39259   2.543   3.152   4.103 -0.2664  0.0335 -0.0898
 9267SOL    HW139260   2.587   3.124   4.183  0.5706  0.7768 -0.2902
 9267SOL    HW239261   2.468   3.204   4.134 -0.2336  1.2968 -2.1681
 9268SOL     OW39262   4.618   3.324  14.908 -0.0482  0.0326  0.2996
 9268SOL    HW139263   4.585   3.413  14.921  1.5200  1.1313 -3.1040
 9268SOL    HW239264   4.694   3.342  14.852  0.8385 -0.2104  1.4229
 9269SOL     OW39265   3.712   4.264   9.623  0.7162  0.3777 -0.1296
 9269SOL    HW139266   3.785   4.241   9.565  1.1989 -1.4365  1.1872
 9269SOL    HW239267   3.755   4.255   9.708 -0.5083  0.9294  0.5488
 9270SOL     OW39268   1.464   3.098   0.551 -0.0950 -0.0451 -0.3509
 9270SOL    HW139269   1.557   3.117   0.534 -0.4750  1.4591 -0.7125
 9270SOL    HW239270   1.426   3.186   0.554  2.5315  1.1333 -1.4165
 9271SOL     OW39271   2.686   1.772   3.638  0.5486 -1.0590  0.4269
 9271SOL    HW139272   2.683   1.678   3.655  1.7294 -0.7950  2.0862
 9271SOL    HW239273   2.660   1.808   3.723 -0.4962  0.1670 -0.4076
 9272SOL     OW39274   2.968   1.005   2.263 -0.4477 -0.7984  0.2469
 9272SOL    HW139275   2.931   1.027   2.177 -0.9916 -2.7108 -0.0144
 9272SOL    HW239276   2.974   0.909   2.257 -0.0875 -0.8925  2.1007
 9273SOL     OW39277   2.004   3.648   6.801 -0.5118  0.8439 -0.2337
 9273SOL    HW139278   1.928   3.636   6.858  1.5034  2.1686  2.7270
 9273SOL    HW239279   1.993   3.576   6.738 -1.0484  0.8302 -0.1301
 9274SOL     OW39280   0.160   1.433   1.785  0.1747 -0.4525 -0.1672
 9274SOL    HW139281   0.093   1.451   1.720 -0.4300  0.8272  0.8019
 9274SOL    HW239282   0.114   1.369   1.840 -0.2628 -0.8715 -1.0319
 9275SOL     OW39283   2.697   2.541   0.652  0.1488  0.3266 -0.0792
 9275SOL    HW139284   2.708   2.454   0.613  0.2747 -0.3781  1.5338
 9275SOL    HW239285   2.691   2.522   0.745 -1.0105  0.1723 -0.1925
 9276SOL     OW39286   0.079   0.001   4.260  0.1566 -0.3675 -0.0422
 9276SOL    HW139287   0.106   4.636   4.282  1.4092  0.4607  1.7657
 9276SOL    HW239288   0.048   0.042   4.341  1.6875  2.3420 -0.8319
 9277SOL     OW39289   3.328   1.501  14.080  0.1024 -0.4839  0.5288
 9277SOL    HW139290   3.349   1.440  14.151  0.6888 -0.5950  0.2621
 9277SOL    HW239291   3.381   1.467  14.008 -0.1198  0.4832 -0.0801
 9278SOL     OW39292   0.858   3.155  14.441  0.7424  0.3419  0.2002
 9278SOL    HW139293   0.796   3.147  14.368 -1.1265 -2.2617  2.0826
 9278SOL    HW239294   0.879   3.248  14.439  1.1956  0.2379 -0.0177
 9279SOL     OW39295   4.238   3.668   9.701  0.6442 -0.1674  0.1717
 9279SOL    HW139296   4.189   3.585   9.701  2.4315 -1.2033 -1.4650
 9279SOL    HW239297   4.172   3.720   9.747 -0.7650 -2.7143  1.0862
 9280SOL     OW39298   2.267   1.956   5.239  0.3745 -0.7016 -0.3160
 9280SOL    HW139299   2.321   2.032   5.219 -0.7316 -0.5683 -2.7761
 9280SOL    HW239300   2.181   1.998   5.233  0.1293 -1.4629 -2.1005
 9281SOL     OW39301   4.274   1.650  15.498  0.4395  0.0287 -0.3924
 9281SOL    HW139302   4.266   1.717  15.566  0.0722 -0.7710  0.3504
 9281SOL    HW239303   4.366   1.647  15.471  1.3099  0.7264  2.4759
 9282SOL     OW39304   0.568   1.440   2.086  0.4026  0.4311  0.1675
 9282SOL    HW139305   0.584   1.512   2.147 -1.4227 -0.3681  1.5761
 9282SOL    HW239306   0.642   1.383   2.107 -1.8018 -1.7153  2.0604
 9283SOL     OW39307   1.847   0.857   9.715  0.3955 -0.0953  0.0723
 9283SOL    HW139308   1.880   0.799   9.646  0.2710 -1.9503  1.5520
 9283SOL    HW239309   1.757   0.851   9.683  1.0384  0.2409 -1.8138
 9284SOL     OW39310   1.199   4.008   2.006 -0.2182 -0.8601 -0.2037
 9284SOL    HW139311   1.171   4.057   1.929 -0.9800 -0.2573  0.4410
 9284SOL    HW239312   1.115   4.005   2.053  1.1359  0.1119  2.2985
 9285SOL     OW39313   3.108   3.959   6.254 -0.2348  0.1779 -0.0927
 9285SOL    HW139314   3.128   3.884   6.310 -0.8815  1.5489  1.9697
 9285SOL    HW239315   3.152   3.929   6.174  1.0113  4.1900 -0.9362
 9286SOL     OW39316   4.649   3.372  11.698  0.1865  0.4673  0.3846
 9286SOL    HW139317   4.649   3.456  11.743  0.1375  1.3233 -1.2210
 9286SOL    HW239318   0.015   3.356  11.671 -0.6010 -2.3671 -0.5586
 9287SOL     OW39319   1.653   1.827   4.353  0.0776  0.1285  0.3758
 9287SOL    HW139320   1.739   1.829   4.395  0.9438 -1.3437 -1.3431
 9287SOL    HW239321   1.604   1.894   4.402 -1.7306 -0.2499 -0.9256
 9288SOL     OW39322   0.976   3.504   6.965 -0.3993  0.3859  0.2882
 9288SOL    HW139323   0.979   3.592   6.927 -1.4101  0.2168 -0.1795
 9288SOL    HW239324   0.891   3.491   7.008 -0.4019 -1.5931 -0.3361
 9289SOL     OW39325   4.211   2.956  15.897  0.2563  0.2363 -0.4468
 9289SOL    HW139326   4.296   2.973  15.937 -0.4173 -0.7619  1.3809
 9289SOL    HW239327   4.175   2.896  15.962  0.5090  1.5723  0.9326
 9290SOL     OW39328   3.361   2.379   1.375  0.0197 -0.4755 -0.1415
 9290SOL    HW139329   3.367   2.359   1.281 -0.5862  2.3578 -0.7713
 9290SOL    HW239330   3.290   2.316   1.391 -0.2069 -0.0064  0.7030
 9291SOL     OW39331   4.446   2.440   3.304 -0.0739 -0.1771 -0.1291
 9291SOL    HW139332   4.468   2.518   3.356 -1.6695 -0.0062  0.2772
 9291SOL    HW239333   4.366   2.416   3.351  0.6597 -2.6329 -0.1567
 9292SOL     OW39334   4.034   2.114   5.999 -0.1153  0.4569  0.2683
 9292SOL    HW139335   4.121   2.112   6.039  0.1129  1.2564 -0.1970
 9292SOL    HW239336   4.050   2.141   5.909 -1.3681  1.3644  0.3171
 9293SOL     OW39337   4.029   0.965   2.173 -0.6925 -0.3123 -0.3038
 9293SOL    HW139338   4.123   0.977   2.184 -1.0603  0.7445  1.6106
 9293SOL    HW239339   3.997   1.047   2.209 -2.1883 -0.1444 -1.9988
 9294SOL     OW39340   3.660   0.442  10.105 -0.4087 -0.0018 -0.2649
 9294SOL    HW139341   3.661   0.494  10.185 -1.6622  2.2070 -1.6841
 9294SOL    HW239342   3.706   0.359  10.120 -0.6023 -0.2573 -1.0681
 9295SOL     OW39343   3.733   0.984  14.469  0.1458  0.2881  0.0454
 9295SOL    HW139344   3.784   0.933  14.406  0.2656 -0.2104  0.5521
 9295SOL    HW239345   3.739   0.934  14.550 -2.2155  0.4131  0.2922
 9296SOL     OW39346   3.281   2.155  10.436 -0.0638 -0.7194  0.0300
 9296SOL    HW139347   3.222   2.127  10.506 -2.0579  1.1599 -0.9080
 9296SOL    HW239348   3.268   2.087  10.370  0.7110  0.1417 -0.9995
 9297SOL     OW39349   4.682   2.450   6.596 -0.4037  0.1752  0.0141
 9297SOL    HW139350   4.617   2.499   6.545  0.5461 -0.3042 -1.6253
 9297SOL    HW239351   4.655   2.439   6.688 -0.5849  1.3352  0.1069
 9298SOL     OW39352   3.560   2.916   2.307  0.1380  0.8025 -1.1909
 9298SOL    HW139353   3.626   2.897   2.374 -0.8717 -1.3196 -0.7970
 9298SOL    HW239354   3.480   2.937   2.354  1.0255 -0.5543  0.9005
 9299SOL     OW39355   2.551   1.026  15.826  0.1185 -0.1835  0.6015
 9299SOL    HW139356   2.647   1.024  15.830  0.2324  0.9182 -2.1114
 9299SOL    HW239357   2.536   1.114  15.793 -1.0285 -0.8743 -0.7119
 9300SOL     OW39358   1.469   1.161   5.273  0.1038  0.1962 -0.3655
 9300SOL    HW139359   1.438   1.160   5.364  1.1690  2.3789  0.0223
 9300SOL    HW239360   1.486   1.068   5.262  0.3150  0.2180 -0.2254
 9301SOL     OW39361   3.952   3.890   3.807 -0.0526  0.0452 -0.0977
 9301SOL    HW139362   3.937   3.984   3.821 -1.9008 -0.3170  0.4443
 9301SOL    HW239363   3.865   3.853   3.790  0.0488 -0.2479  0.0270
 9302SOL     OW39364   3.174   0.030   2.277 -0.4353  0.0986 -0.1143
 9302SOL    HW139365   3.118   4.678   2.287  1.6284 -1.8113 -3.3086
 9302SOL    HW239366   3.149   0.064   2.191  0.0457  0.7588  0.0106
 9303SOL     OW39367   0.716   4.550   3.877  0.4946 -0.1633 -0.1857
 9303SOL    HW139368   0.672   4.499   3.808  3.0151  1.6530 -3.1156
 9303SOL    HW239369   0.680   4.499   3.950  1.5524 -0.3682  0.1920
 9304SOL     OW39370   3.987   2.301   2.416  0.7266  0.5590  0.0549
 9304SOL    HW139371   4.069   2.341   2.445  0.0001  1.3786  1.0021
 9304SOL    HW239372   3.929   2.377   2.412  1.2644  0.7790 -3.3624
 9305SOL     OW39373   2.619   2.092  16.791 -0.0596  0.8018 -0.3581
 9305SOL    HW139374   2.607   2.186  16.805  0.6687  0.7720  0.4805
 9305SOL    HW239375   2.706   2.088  16.831 -0.1761 -0.1311 -0.2071
 9306SOL     OW39376   0.851   1.299   7.697  0.1089 -0.1054 -0.2126
 9306SOL    HW139377   0.914   1.353   7.744 -0.2542 -0.2385  0.4252
 9306SOL    HW239378   0.778   1.360   7.688 -0.1192 -0.6447 -2.0125
 9307SOL     OW39379   0.773   4.015   8.254  0.2688 -0.3527  0.2105
 9307SOL    HW139380   0.834   3.978   8.317  1.2093  2.1907  0.8014
 9307SOL    HW239381   0.816   4.006   8.169  0.2016  2.2270 -0.1112
 9308SOL     OW39382   4.014   3.127   8.351  0.3081 -0.3010  0.1986
 9308SOL    HW139383   4.044   3.055   8.407  0.2007  1.3034  2.3255
 9308SOL    HW239384   4.075   3.196   8.379 -1.5452  1.7670 -0.8547
 9309SOL     OW39385   0.049   0.962   8.534 -0.0758  0.0260  0.1284
 9309SOL    HW139386   0.127   0.909   8.554 -0.7550 -1.0826 -0.1401
 9309SOL    HW239387   0.039   0.991   8.625 -1.7717  0.1180 -0.0952
 9310SOL     OW39388   3.777   2.255  14.462  0.2053 -0.4265 -0.0379
 9310SOL    HW139389   3.751   2.324  14.401 -2.6501 -2.7378 -1.4006
 9310SOL    HW239390   3.701   2.199  14.451  0.0110 -0.0037 -0.7853
 9311SOL     OW39391   2.771   0.164   1.345  0.0712 -0.0091 -0.2646
 9311SOL    HW139392   2.757   0.094   1.409  1.3223 -0.2255 -0.2261
 9311SOL    HW239393   2.865   0.179   1.350  0.0990  0.2105 -1.3928
 9312SOL     OW39394   3.983   3.955  10.010  0.1072  0.5478  0.1932
 9312SOL    HW139395   3.965   4.048  10.028 -0.8859  0.4574 -0.3287
 9312SOL    HW239396   3.917   3.912  10.064 -1.1142  1.0824 -0.8713
 9313SOL     OW39397   4.306   0.451   2.230  0.1145  0.2527 -0.2862
 9313SOL    HW139398   4.277   0.360   2.227 -0.2635  0.2869  2.7524
 9313SOL    HW239399   4.336   0.465   2.140  0.0030  0.6904 -0.2565
 9314SOL     OW39400   1.181   3.616   8.706 -0.4008 -0.2529 -0.9873
 9314SOL    HW139401   1.088   3.600   8.696 -0.9354  1.8327  0.6690
 9314SOL    HW239402   1.202   3.650   8.793 -0.7890 -1.0265 -0.5988
 9315SOL     OW39403   1.212   0.559  12.924 -0.2791 -0.0606  0.0493
 9315SOL    HW139404   1.136   0.569  12.980 -1.0009  1.3846 -1.1899
 9315SOL    HW239405   1.180   0.501  12.855  1.4332 -1.6811  0.5793
 9316SOL     OW39406   4.595   1.926  16.801 -0.2133  0.1128  0.2957
 9316SOL    HW139407   4.657   1.986  16.759 -2.6943  1.1943 -1.8980
 9316SOL    HW239408   4.531   1.931  16.730  0.1115  1.1534  0.0648
 9317SOL     OW39409   3.201   2.625   3.155 -0.6496 -0.1376  0.0217
 9317SOL    HW139410   3.229   2.601   3.243 -1.9779  1.3718  0.8272
 9317SOL    HW239411   3.282   2.656   3.114 -0.9787  1.9115  0.9283
 9318SOL     OW39412   1.145   2.662   1.319  0.4894 -0.5682 -0.0152
 9318SOL    HW139413   1.235   2.640   1.296 -0.3157 -2.2316 -1.6125
 9318SOL    HW239414   1.101   2.580   1.341 -1.7066  0.6893  0.3251
 9319SOL     OW39415   3.961   1.239  11.637 -0.5313  0.3010 -0.3380
 9319SOL    HW139416   4.023   1.259  11.707  1.2095 -2.3248 -1.1349
 9319SOL    HW239417   3.884   1.249  11.692 -0.3704 -2.4394  0.3667
 9320SOL     OW39418   4.488   1.963  16.555  0.5543 -0.3756  0.5177
 9320SOL    HW139419   4.405   1.927  16.523  0.5973  0.0109 -0.0350
 9320SOL    HW239420   4.485   2.054  16.525 -1.5536  0.1733  2.3401
 9321SOL     OW39421   3.438   2.146   3.063  0.3212 -0.0766  0.4606
 9321SOL    HW139422   3.396   2.207   3.002  2.7633 -0.4756 -1.5992
 9321SOL    HW239423   3.487   2.211   3.114  1.7482  0.2861 -1.3504
 9322SOL     OW39424   4.007   3.953   6.333 -0.5573 -0.0168 -0.1445
 9322SOL    HW139425   3.990   4.040   6.296 -2.2864 -0.6838 -0.9339
 9322SOL    HW239426   3.994   3.983   6.424  0.5244  1.6763 -0.5518
 9323SOL     OW39427   1.682   3.228   9.254  0.3467 -0.2708  0.2735
 9323SOL    HW139428   1.741   3.214   9.181 -0.2257 -1.1693 -0.0218
 9323SOL    HW239429   1.711   3.314   9.284 -0.1530 -0.0935  0.2548
 9324SOL     OW39430   0.462   4.126   4.610 -0.3512  0.3689 -0.0808
 9324SOL    HW139431   0.471   4.031   4.620 -3.9913 -0.1731 -2.1315
 9324SOL    HW239432   0.439   4.146   4.701  1.6533 -1.4528  0.8307
 9325SOL     OW39433   1.257   0.568   9.586  0.4812  0.4433 -0.0153
 9325SOL    HW139434   1.322   0.547   9.652  0.1541  1.6427  0.6733
 9325SOL    HW239435   1.288   0.650   9.549  1.2636  0.3781  0.5179
 9326SOL     OW39436   2.259   3.998   1.733  0.6119 -0.0627 -0.8700
 9326SOL    HW139437   2.210   4.003   1.651  1.0555  1.7738 -1.0198
 9326SOL    HW239438   2.294   4.087   1.734 -0.2971  0.3110 -2.2091
 9327SOL     OW39439   1.070   0.711  16.827 -0.8228 -0.6094 -0.5356
 9327SOL    HW139440   1.119   0.679  16.752  0.4608  0.5666 -0.2230
 9327SOL    HW239441   1.037   0.796  16.798 -1.4923 -1.1285 -1.2609
 9328SOL     OW39442   2.368   3.099   0.308  0.2075  0.4465  0.2714
 9328SOL    HW139443   2.274   3.096   0.328  0.8014  1.3821  3.2961
 9328SOL    HW239444   2.390   3.164   0.375  0.8995 -0.6828  1.1482
 9329SOL     OW39445   1.592   4.021   8.176 -0.4066  0.3617 -0.2609
 9329SOL    HW139446   1.553   4.102   8.143 -0.6840  0.0954 -0.5887
 9329SOL    HW239447   1.615   4.055   8.262 -2.2291 -0.5118  0.5632
 9330SOL     OW39448   0.651   1.533   0.916 -0.4696  0.0659 -0.4796
 9330SOL    HW139449   0.719   1.480   0.958 -1.4678 -1.1403 -0.3764
 9330SOL    HW239450   0.577   1.474   0.931 -0.3507  0.3004  1.0662
 9331SOL     OW39451   0.021   0.922   1.107  0.3236 -0.3307 -0.2545
 9331SOL    HW139452   0.014   0.829   1.083 -1.0987  0.3391 -2.4406
 9331SOL    HW239453   4.684   0.963   1.048  1.7440 -0.2068 -1.6615
 9332SOL     OW39454   4.446   3.031  10.202  0.2371 -0.7992 -0.0298
 9332SOL    HW139455   4.422   2.940  10.222 -1.8784 -0.6606 -1.9757
 9332SOL    HW239456   4.380   3.076  10.255  0.3992 -0.9826  0.3335
 9333SOL     OW39457   3.612   1.181   2.132  0.1269 -0.0436 -0.5529
 9333SOL    HW139458   3.569   1.212   2.052 -1.5222 -1.3349 -0.1602
 9333SOL    HW239459   3.695   1.229   2.135  0.5503 -0.7969 -0.3865
 9334SOL     OW39460   3.971   3.695   5.684 -0.2355  0.4310 -0.8483
 9334SOL    HW139461   3.970   3.621   5.623 -3.7492 -0.1178 -0.1530
 9334SOL    HW239462   3.880   3.721   5.671  0.0445  1.4975 -0.7326
 9335SOL     OW39463   2.456   2.298   3.541  0.8440  0.1992  0.4470
 9335SOL    HW139464   2.407   2.298   3.623 -1.0759  1.4858 -0.6846
 9335SOL    HW239465   2.544   2.308   3.577  1.5822  1.7039 -1.7257
 9336SOL     OW39466   1.321   4.274  12.826 -0.3480 -0.1383  0.3259
 9336SOL    HW139467   1.372   4.328  12.886 -1.2386 -0.5324  1.4223
 9336SOL    HW239468   1.234   4.282  12.865 -0.1177  1.5272  0.4915
 9337SOL     OW39469   0.631   3.171   7.071  0.0178  0.8132  0.4669
 9337SOL    HW139470   0.581   3.151   7.150  1.5217 -0.1958  1.1373
 9337SOL    HW239471   0.713   3.127   7.092 -0.6460 -0.6948 -0.1059
 9338SOL     OW39472   0.648   4.381   2.437  0.4555  0.5648 -0.2349
 9338SOL    HW139473   0.701   4.380   2.516 -0.8705 -1.6248  0.6432
 9338SOL    HW239474   0.599   4.300   2.453 -1.6549  1.6864 -1.0043
 9339SOL     OW39475   1.197   4.400   6.233 -0.0259 -0.5977 -0.0203
 9339SOL    HW139476   1.133   4.441   6.175 -0.4496 -0.8450  0.2706
 9339SOL    HW239477   1.262   4.470   6.233 -0.8081  0.1440  1.7696
 9340SOL     OW39478   0.279   3.841  13.185 -0.3720  0.6090 -0.4236
 9340SOL    HW139479   0.229   3.922  13.194 -2.0673 -0.3449 -1.3409
 9340SOL    HW239480   0.218   3.782  13.230  0.6799 -1.7939 -2.1399
 9341SOL     OW39481   3.104   2.272   5.596 -0.0257  0.1160  0.1250
 9341SOL    HW139482   3.068   2.282   5.684 -2.1937  1.9952 -0.9846
 9341SOL    HW239483   3.062   2.347   5.555 -0.2996  0.2692  0.6890
 9342SOL     OW39484   0.599   4.606   1.275 -0.1538 -0.3861  0.1698
 9342SOL    HW139485   0.630   4.516   1.262 -2.3046 -1.3374  1.6721
 9342SOL    HW239486   0.614   4.643   1.188 -0.5570  0.9077  0.6438
 9343SOL     OW39487   1.363   3.063   2.324 -0.9670  0.0570 -0.6403
 9343SOL    HW139488   1.304   3.138   2.316  0.8699  1.3254 -2.3916
 9343SOL    HW239489   1.444   3.113   2.338  0.2284 -1.1292 -3.2277
 9344SOL     OW39490   0.014   2.126   6.585  0.2217 -0.6905  0.5199
 9344SOL    HW139491   4.672   2.151   6.648  0.5876 -0.9714  1.0156
 9344SOL    HW239492   0.080   2.092   6.645 -1.9626 -0.4625  3.0253
 9345SOL     OW39493   3.369   2.553  11.452  0.0354 -0.0750 -0.4150
 9345SOL    HW139494   3.433   2.486  11.476 -1.4145 -1.0509  0.6925
 9345SOL    HW239495   3.290   2.501  11.461  0.3908 -0.9049 -2.0857
 9346SOL     OW39496   2.757   3.379   6.344  0.2344  0.0422  0.6866
 9346SOL    HW139497   2.676   3.427   6.360  0.4659  0.5089  0.4592
 9346SOL    HW239498   2.738   3.331   6.264  0.5833 -0.6574  1.0213
 9347SOL     OW39499   1.997   4.123  14.602 -0.1628 -0.0957 -0.2745
 9347SOL    HW139500   2.052   4.184  14.553  2.7205 -2.1930  0.3670
 9347SOL    HW239501   1.913   4.115  14.556  0.8804 -1.7389 -1.8840
 9348SOL     OW39502   0.456   4.687   3.794 -0.1594  0.6436  0.9380
 9348SOL    HW139503   0.410   4.615   3.837 -1.5186  1.1972  0.4291
 9348SOL    HW239504   0.499   0.004   3.869  1.6538  0.9961 -0.3017
 9349SOL     OW39505   0.148   4.560  10.449 -0.3094 -0.0585 -0.1987
 9349SOL    HW139506   0.174   4.533  10.361  0.9267  2.4068 -0.5937
 9349SOL    HW239507   0.178   4.480  10.493  0.4738 -0.6107 -1.7650
 9350SOL     OW39508   0.792   4.362  16.175 -0.2813 -0.4856  0.0569
 9350SOL    HW139509   0.764   4.416  16.249  1.9152  1.1208 -0.2738
 9350SOL    HW239510   0.879   4.391  16.148  0.2848 -0.4829  1.8541
 9351SOL     OW39511   4.548   4.275   6.979  0.0031 -0.2148  0.2571
 9351SOL    HW139512   4.550   4.361   6.936 -2.4350  0.1732  0.9273
 9351SOL    HW239513   4.604   4.289   7.055 -1.0082  2.2113  0.5588
 9352SOL     OW39514   3.068   1.884  10.004 -0.3371  0.3055  0.6419
 9352SOL    HW139515   3.021   1.966   9.995 -0.7278 -0.0938 -0.9427
 9352SOL    HW239516   3.021   1.836  10.072  1.2332 -1.0532  0.7677
 9353SOL     OW39517   2.678   0.591   3.019  0.0234  0.0669 -0.2707
 9353SOL    HW139518   2.699   0.547   2.936  0.4637  0.8492 -0.5718
 9353SOL    HW239519   2.747   0.657   3.016  1.0246 -0.9459  0.5811
 9354SOL     OW39520   3.609   0.580   9.553  0.0720  0.4383 -0.7282
 9354SOL    HW139521   3.623   0.545   9.464 -1.2322 -0.0715 -0.7314
 9354SOL    HW239522   3.652   0.664   9.539 -0.8208  1.0941  0.5515
 9355SOL     OW39523   0.337   0.938  15.311 -0.4934 -0.8952  0.3334
 9355SOL    HW139524   0.369   1.018  15.271 -1.0085 -0.3183  1.0548
 9355SOL    HW239525   0.247   0.968  15.323 -0.3152 -0.3311  0.2383
 9356SOL     OW39526   2.524   0.761   4.859  0.4918  0.1799 -0.6875
 9356SOL    HW139527   2.473   0.688   4.894  1.6161 -1.0946 -1.6940
 9356SOL    HW239528   2.488   0.780   4.773  0.5221 -2.3097 -1.2507
 9357SOL     OW39529   2.254   0.726   6.023  0.4455  0.3058  0.1477
 9357SOL    HW139530   2.193   0.755   6.090  0.6129  0.5740  0.1847
 9357SOL    HW239531   2.201   0.729   5.943  0.0893  0.9792  0.4121
 9358SOL     OW39532   1.248   2.363   1.514  0.4071 -0.3887 -0.0442
 9358SOL    HW139533   1.256   2.339   1.421 -1.8702  1.8060 -0.8100
 9358SOL    HW239534   1.212   2.283   1.553  0.4037 -0.2035  0.3294
 9359SOL     OW39535   2.602   4.108  10.825  0.1755 -0.2695 -0.1830
 9359SOL    HW139536   2.528   4.064  10.867 -0.6629 -0.3276 -1.7169
 9359SOL    HW239537   2.668   4.040  10.810  0.0340  0.1217 -2.6328
 9360SOL     OW39538   3.340   1.896   8.431  0.1747  0.6186  0.5418
 9360SOL    HW139539   3.254   1.865   8.406  1.0288 -1.3589  0.0574
 9360SOL    HW239540   3.356   1.824   8.492  2.6172  0.8278  0.1864
 9361SOL     OW39541   3.508   3.086   3.273 -0.4904 -0.2637  0.1412
 9361SOL    HW139542   3.472   3.032   3.344 -0.4229  1.7226  1.6913
 9361SOL    HW239543   3.469   3.043   3.197 -1.4849 -1.7745  1.4967
 9362SOL     OW39544   0.579   4.019  15.797  0.3073  0.1609 -0.2422
 9362SOL    HW139545   0.650   4.021  15.861  2.3552 -2.0722 -2.4386
 9362SOL    HW239546   0.632   4.020  15.718 -0.3579 -1.9545 -0.7237
 9363SOL     OW39547   1.109   0.957   0.754 -0.5834 -0.2595  0.3092
 9363SOL    HW139548   1.185   0.974   0.698 -0.3006  1.0902  1.0834
 9363SOL    HW239549   1.147   0.957   0.843 -0.3424 -1.9147  0.1965
 9364SOL     OW39550   2.895   3.913  13.330 -0.1036  0.1162 -0.5953
 9364SOL    HW139551   2.903   3.999  13.289  0.9836  0.2258 -0.1694
 9364SOL    HW239552   2.985   3.888  13.309 -0.0460  2.3404 -2.9446
 9365SOL     OW39553   4.068   3.512   6.725  0.1109 -0.4322 -0.3298
 9365SOL    HW139554   4.057   3.605   6.710  0.6310 -0.1655  0.9474
 9365SOL    HW239555   4.053   3.498   6.819  1.2802 -1.8423 -0.3480
 9366SOL     OW39556   4.210   3.282   4.746 -0.6737  0.1801  0.2417
 9366SOL    HW139557   4.129   3.234   4.765  0.3485 -2.2616 -1.5963
 9366SOL    HW239558   4.204   3.297   4.652 -1.3370 -2.5482 -0.1442
 9367SOL     OW39559   0.965   1.862   4.108  0.1086 -0.3408 -0.0562
 9367SOL    HW139560   0.943   1.858   4.201  1.3171 -1.3658  0.1831
 9367SOL    HW239561   0.879   1.862   4.067 -1.6751  5.2060  3.6094
 9368SOL     OW39562   1.289   3.744   2.899  0.0907 -0.6787 -0.3078
 9368SOL    HW139563   1.218   3.806   2.881 -1.4255 -2.3337  0.0321
 9368SOL    HW239564   1.353   3.802   2.940 -3.1508  1.9225  1.1722
 9369SOL     OW39565   0.537   3.496   9.732  0.2000  0.2463  0.3537
 9369SOL    HW139566   0.478   3.567   9.709 -0.9026 -1.2241 -1.3301
 9369SOL    HW239567   0.614   3.545   9.703  0.0395 -1.1691 -2.4387
 9370SOL     OW39568   0.088   3.217   4.182  0.1751 -0.0637 -0.7724
 9370SOL    HW139569   0.071   3.262   4.098 -0.0601 -0.7167 -1.0723
 9370SOL    HW239570   0.176   3.246   4.206 -0.0674  2.0354 -2.3633
 9371SOL     OW39571   0.506   3.311   9.929  0.2178 -0.3191 -0.1341
 9371SOL    HW139572   0.532   3.381   9.869  2.6223 -1.3568 -0.3277
 9371SOL    HW239573   0.479   3.248   9.864 -1.3355  0.7714 -0.5436
 9372SOL     OW39574   1.428   0.795  12.640 -0.1184  0.0721 -0.2450
 9372SOL    HW139575   1.401   0.704  12.652  1.0117 -0.6230 -2.8455
 9372SOL    HW239576   1.492   0.816  12.708 -1.3233 -1.7924  1.4785
 9373SOL     OW39577   2.101   3.022  15.342  0.1185  0.5209  0.3901
 9373SOL    HW139578   2.148   3.047  15.421  1.6156  3.1908 -1.3091
 9373SOL    HW239579   2.038   3.094  15.350 -0.7431 -0.4761  2.5997
 9374SOL     OW39580   0.171   3.352   2.954  0.6658  0.2005  0.3002
 9374SOL    HW139581   0.085   3.390   2.935  0.2685  0.5447  2.8195
 9374SOL    HW239582   0.185   3.313   2.868  2.5121 -0.2847  0.8254
 9375SOL     OW39583   1.729   0.420   0.626  0.2748  0.1749  0.7293
 9375SOL    HW139584   1.823   0.411   0.643  0.2097 -0.3737  0.7927
 9375SOL    HW239585   1.741   0.433   0.532  0.5157 -0.7995  0.6259
 9376SOL     OW39586   4.218   3.165   6.143  0.0670 -0.7692 -0.2061
 9376SOL    HW139587   4.129   3.185   6.171  0.5646 -0.4291  1.1692
 9376SOL    HW239588   4.205   3.079   6.101  1.1007 -1.5640  1.0843
 9377SOL     OW39589   3.293   3.483   1.375  0.0788  0.0781  0.0394
 9377SOL    HW139590   3.295   3.575   1.402 -0.6980  0.5855 -1.5760
 9377SOL    HW239591   3.320   3.490   1.283  1.1971 -3.0018  0.1447
 9378SOL     OW39592   0.354   3.626   2.855  0.0678  0.8048 -0.0037
 9378SOL    HW139593   0.394   3.696   2.804 -1.7287  1.5504 -0.3876
 9378SOL    HW239594   0.328   3.672   2.934 -1.3596 -0.6932  0.4033
 9379SOL     OW39595   1.329   0.832   9.492 -0.4478  0.4260 -0.3462
 9379SOL    HW139596   1.250   0.853   9.442 -0.2731  0.1557 -0.7378
 9379SOL    HW239597   1.391   0.853   9.422 -0.4687  0.5957 -0.3147
 9380SOL     OW39598   1.223   2.136   2.778  0.0321 -0.7442  0.2532
 9380SOL    HW139599   1.128   2.138   2.787 -0.0830  0.3278 -1.1507
 9380SOL    HW239600   1.242   2.042   2.781 -1.3843 -1.0197  0.4290
 9381SOL     OW39601   3.379   1.629   0.312 -0.5361  0.1140  0.3416
 9381SOL    HW139602   3.351   1.547   0.273 -1.7913  1.3111 -1.2981
 9381SOL    HW239603   3.352   1.617   0.403  1.5496  0.1365  0.9628
 9382SOL     OW39604   4.104   1.978   1.605  0.7236  0.8101 -0.3719
 9382SOL    HW139605   4.150   1.960   1.687 -0.2960 -3.8532 -0.7964
 9382SOL    HW239606   4.151   1.924   1.541 -1.8800 -1.6846 -0.1818
 9383SOL     OW39607   0.489   0.228   2.508  0.3074  0.0626  0.3452
 9383SOL    HW139608   0.502   0.191   2.420 -1.2370  1.8491 -0.6252
 9383SOL    HW239609   0.403   0.195   2.534  0.1047 -0.0903 -0.5057
 9384SOL     OW39610   4.025   3.752   9.852  0.3264 -0.6081  0.2057
 9384SOL    HW139611   4.017   3.831   9.906 -1.6072  1.2616 -2.8508
 9384SOL    HW239612   3.936   3.737   9.822  0.4414  1.9506 -1.4218
 9385SOL     OW39613   1.200   4.543   9.364 -0.4926  0.2988 -0.2308
 9385SOL    HW139614   1.177   4.636   9.358  0.7250  0.6189 -0.0378
 9385SOL    HW239615   1.252   4.544   9.285  1.1218 -1.2366  0.8174
 9386SOL     OW39616   0.077   3.881   3.442 -1.3133  0.2615  0.0712
 9386SOL    HW139617   0.052   3.797   3.480  1.1650 -0.2011  0.7091
 9386SOL    HW239618   0.124   3.851   3.365 -0.0732  1.5138  0.3407
 9387SOL     OW39619   4.402   0.933   6.257 -0.0607 -0.2647  0.1228
 9387SOL    HW139620   4.433   0.957   6.169  1.1305 -2.2777 -0.0188
 9387SOL    HW239621   4.328   0.992   6.273  0.0901 -0.5716  1.9837
 9388SOL     OW39622   4.077   3.545   3.632  0.2558  0.3019 -0.5842
 9388SOL    HW139623   4.126   3.602   3.573  1.1835  0.6230  0.4905
 9388SOL    HW239624   4.016   3.600   3.681  0.5231 -1.6963  2.0187
 9389SOL     OW39625   3.832   1.269  11.382  0.3309 -0.2432 -0.0320
 9389SOL    HW139626   3.786   1.309  11.456 -0.2489  0.2183 -0.6418
 9389SOL    HW239627   3.760   1.217  11.346  0.2467  0.5283 -0.9540
 9390SOL     OW39628   3.236   0.796   3.623 -0.2595 -0.6431  0.1646
 9390SOL    HW139629   3.252   0.889   3.609 -0.4896 -0.1409  3.1919
 9390SOL    HW239630   3.154   0.800   3.672 -0.7851  1.1516 -0.8675
 9391SOL     OW39631   4.708   4.106   2.657  0.1681  0.4540  0.0549
 9391SOL    HW139632   4.688   4.106   2.564 -1.7705 -1.0867  0.4735
 9391SOL    HW239633   4.642   4.048   2.695 -0.6142  1.2537 -0.0853
 9392SOL     OW39634   0.024   2.452   8.975  0.4533 -0.2137 -0.8024
 9392SOL    HW139635   0.089   2.518   8.949  1.3073 -0.2759  1.1498
 9392SOL    HW239636   0.069   2.398   9.040 -0.5567  1.3175  1.1992
 9393SOL     OW39637   1.197   3.231   4.985  0.2080 -0.0752  0.1842
 9393SOL    HW139638   1.254   3.257   5.058 -0.7453  0.4190  0.7505
 9393SOL    HW239639   1.221   3.138   4.983 -0.1225 -0.1581  0.0606
 9394SOL     OW39640   0.471   3.600  12.584  0.0755  0.5576  0.0417
 9394SOL    HW139641   0.379   3.589  12.611  1.1865 -1.9373  2.8550
 9394SOL    HW239642   0.495   3.508  12.574 -0.6737  0.4077 -0.3790
 9395SOL     OW39643   2.046   4.483   4.688 -0.3159  0.0814 -0.0643
 9395SOL    HW139644   2.065   4.552   4.752 -2.9337  1.0450 -0.3365
 9395SOL    HW239645   2.034   4.408   4.746 -0.6897  1.5781  1.8106
 9396SOL     OW39646   4.032   4.137   3.479  0.8979  0.6714  0.6122
 9396SOL    HW139647   4.125   4.132   3.502  1.2616  1.7396 -0.6308
 9396SOL    HW239648   4.020   4.049   3.442  0.2865  0.2159  1.8976
 9397SOL     OW39649   4.208   4.682   1.821  0.1269 -0.1496 -0.6234
 9397SOL    HW139650   4.144   4.692   1.891  1.6036 -0.1532  0.7153
 9397SOL    HW239651   4.275   4.622   1.854 -1.7622 -1.9192 -0.0275
 9398SOL     OW39652   2.597   1.371   5.480  0.0127 -0.6807 -0.3322
 9398SOL    HW139653   2.503   1.361   5.467 -0.7271  1.5220  3.3473
 9398SOL    HW239654   2.620   1.293   5.429 -0.4949 -0.6307 -0.6384
 9399SOL     OW39655   4.193   4.108   9.479  0.3952 -0.2098  0.4120
 9399SOL    HW139656   4.209   4.095   9.572  1.0468  0.1807  0.3595
 9399SOL    HW239657   4.278   4.139   9.449 -0.6272 -0.3203 -2.5971
 9400SOL     OW39658   0.203   3.894  12.264 -0.0572  0.1350  0.6124
 9400SOL    HW139659   0.248   3.925  12.185 -0.9554 -0.6634 -0.2149
 9400SOL    HW239660   0.269   3.906  12.333  0.3115 -0.6807  0.3958
 9401SOL     OW39661   1.555   2.966  13.560 -0.0530  0.1382  0.5604
 9401SOL    HW139662   1.512   3.027  13.499  0.0770 -1.1788 -0.8428
 9401SOL    HW239663   1.484   2.914  13.596 -1.7382  0.9664 -1.5603
 9402SOL     OW39664   1.790   1.506   3.241  0.3179 -0.7711 -0.0559
 9402SOL    HW139665   1.789   1.461   3.325  0.0351  0.9294  0.8478
 9402SOL    HW239666   1.886   1.510   3.234  0.3664 -0.8255  0.6468
 9403SOL     OW39667   4.069   2.358  11.842  0.0056  0.2627  0.2384
 9403SOL    HW139668   3.979   2.328  11.838 -0.2170  1.3368 -2.7927
 9403SOL    HW239669   4.101   2.332  11.928 -0.0389 -3.0116 -0.7670
 9404SOL     OW39670   0.337   3.314   8.107 -0.7748 -0.4122 -0.2816
 9404SOL    HW139671   0.410   3.253   8.114 -1.5769 -1.4820 -1.1226
 9404SOL    HW239672   0.371   3.375   8.042  1.0866 -1.7984 -0.6064
 9405SOL     OW39673   2.784   1.334  15.838 -0.8133  0.1449  0.1629
 9405SOL    HW139674   2.879   1.342  15.827 -0.9449  1.9089  0.2742
 9405SOL    HW239675   2.757   1.413  15.885 -0.1329 -0.6295  1.8768
 9406SOL     OW39676   3.794   3.274   9.026 -0.7451  0.2675 -1.1289
 9406SOL    HW139677   3.740   3.344   9.063 -0.1192  0.6392 -0.9064
 9406SOL    HW239678   3.725   3.221   8.988 -1.2254  0.8983 -1.1441
 9407SOL     OW39679   4.203   2.118   1.243 -0.3707 -0.5508  0.0390
 9407SOL    HW139680   4.230   2.053   1.308 -0.2975 -0.9670 -0.4061
 9407SOL    HW239681   4.248   2.199   1.266  2.0189 -1.8623 -0.0720
 9408SOL     OW39682   0.753   3.627   1.549 -0.4317 -0.0749 -0.0695
 9408SOL    HW139683   0.788   3.693   1.609 -0.3339 -0.0477 -0.1558
 9408SOL    HW239684   0.731   3.551   1.602 -0.8539 -0.8120 -1.3097
 9409SOL     OW39685   4.173   1.633  17.689 -0.3926 -0.0273 -0.1358
 9409SOL    HW139686   4.104   1.569   0.009 -0.7676  0.7425  1.0420
 9409SOL    HW239687   4.198   1.668   0.075  2.0852 -1.1594 -0.4088
 9410SOL     OW39688   2.425   2.070   5.681  0.1832  0.4067  0.2463
 9410SOL    HW139689   2.345   2.117   5.704 -1.5642 -1.9590 -1.0334
 9410SOL    HW239690   2.398   1.981   5.703  0.1345  0.4052  0.1803
 9411SOL     OW39691   2.100   4.700  14.432  0.0501  1.0122 -0.7085
 9411SOL    HW139692   2.074   4.649  14.508  2.3837  1.1098  0.1558
 9411SOL    HW239693   2.028   0.038  14.422 -0.5958  0.5645  1.2514
 9412SOL     OW39694   0.570   4.408   1.803  0.5188  0.2286  0.1170
 9412SOL    HW139695   0.617   4.418   1.720  0.1329 -1.5041 -0.3035
 9412SOL    HW239696   0.518   4.488   1.816 -1.5466 -0.7148 -2.3364
 9413SOL     OW39697   3.395   2.956   6.081  0.2161 -0.8673 -0.4753
 9413SOL    HW139698   3.334   2.999   6.141  1.7799  0.0241  0.4946
 9413SOL    HW239699   3.329   2.928   6.018 -1.4407 -1.0932  1.3781
 9414SOL     OW39700   3.018   1.323  14.384  0.1270 -0.0285  0.2242
 9414SOL    HW139701   3.088   1.364  14.435 -0.5651  0.1287  1.0460
 9414SOL    HW239702   2.979   1.262  14.447  0.1031 -0.1444  0.0963
 9415SOL     OW39703   1.074   0.811  16.111 -0.0798 -0.1642 -0.8047
 9415SOL    HW139704   0.996   0.769  16.147  0.0674  1.0265  0.8946
 9415SOL    HW239705   1.048   0.836  16.023 -0.7797  0.4267 -0.4268
 9416SOL     OW39706   3.225   3.380   2.951  0.2651  0.0348 -0.1889
 9416SOL    HW139707   3.281   3.338   2.885  2.6290 -0.5719  2.2206
 9416SOL    HW239708   3.192   3.308   3.004  0.0308 -0.9153 -1.6140
 9417SOL     OW39709   2.272   3.330   4.469  0.0640 -0.4481 -0.1066
 9417SOL    HW139710   2.342   3.395   4.458  0.1017 -0.9465 -2.7490
 9417SOL    HW239711   2.221   3.383   4.531  0.8070 -1.1914  1.1300
 9418SOL     OW39712   4.695   1.907   5.995  0.1823 -0.1041  0.2262
 9418SOL    HW139713   0.030   1.922   5.922 -0.5566  0.4566 -0.2685
 9418SOL    HW239714   0.017   1.932   6.074 -2.7524  2.0396  1.3054
 9419SOL     OW39715   1.904   2.241  15.942  0.1410 -0.2358 -0.2307
 9419SOL    HW139716   1.963   2.251  15.867 -1.2819  1.2258 -1.1615
 9419SOL    HW239717   1.866   2.329  15.941 -1.7668 -1.0579  0.5487
 9420SOL     OW39718   0.736   1.047   6.275 -0.5158 -0.0830  0.2877
 9420SOL    HW139719   0.752   1.141   6.263  0.4036 -0.2088  0.4923
 9420SOL    HW239720   0.651   1.037   6.233 -0.0574 -2.2889 -0.1458
 9421SOL     OW39721   2.270   0.291   9.136 -0.5775  0.0551  0.1905
 9421SOL    HW139722   2.317   0.217   9.175 -1.0538  0.4138  1.4754
 9421SOL    HW239723   2.211   0.313   9.209  2.2666 -1.3132  2.9231
 9422SOL     OW39724   1.344   3.290   2.582  0.1083  0.1030 -0.0902
 9422SOL    HW139725   1.302   3.325   2.504 -0.5399  0.6333  0.4952
 9422SOL    HW239726   1.268   3.280   2.640 -0.6963  2.3043 -0.7595
 9423SOL     OW39727   1.056   2.400  16.117  0.5356 -0.0688  0.2959
 9423SOL    HW139728   1.063   2.439  16.204 -2.2651 -2.9536  1.7872
 9423SOL    HW239729   1.076   2.479  16.066 -1.9581  0.5251  0.2477
 9424SOL     OW39730   1.101   3.043   0.875 -0.1447 -0.5870 -0.0235
 9424SOL    HW139731   1.151   3.026   0.954 -0.3211  1.9288  0.6368
 9424SOL    HW239732   1.042   2.970   0.890 -1.9361  1.7055  4.0287
 9425SOL     OW39733   4.454   4.504   5.560 -0.0584 -0.0239  0.0880
 9425SOL    HW139734   4.390   4.559   5.606 -0.1690 -1.0466  1.1400
 9425SOL    HW239735   4.403   4.423   5.556 -1.0001  0.5805 -0.2283
 9426SOL     OW39736   1.886   1.992   5.943 -0.0112  0.4173  0.5273
 9426SOL    HW139737   1.934   2.036   6.013 -1.5644  1.0372  1.2149
 9426SOL    HW239738   1.935   2.032   5.871  0.5205 -2.6082 -0.7694
 9427SOL     OW39739   2.854   2.605   4.474  0.4036 -0.0668 -0.4827
 9427SOL    HW139740   2.791   2.622   4.404  1.9162 -0.0314 -1.8242
 9427SOL    HW239741   2.806   2.544   4.530  0.2967 -0.7185 -1.2815
 9428SOL     OW39742   1.986   0.982  13.907  0.2661  0.4289  0.6711
 9428SOL    HW139743   1.896   0.952  13.919  0.7568 -0.9405  0.8949
 9428SOL    HW239744   2.034   0.933  13.974 -0.8454 -2.2305 -0.4681
 9429SOL     OW39745   4.242   0.036   8.782 -0.2009 -0.1211 -0.8357
 9429SOL    HW139746   4.187   0.102   8.740 -0.3370 -0.1936 -0.7726
 9429SOL    HW239747   4.314   0.091   8.813 -2.4751  2.7560 -0.6537
 9430SOL     OW39748   3.580   0.282   5.287 -0.4151  1.1856 -0.5051
 9430SOL    HW139749   3.559   0.318   5.201  0.3060  2.4491 -0.1694
 9430SOL    HW239750   3.643   0.350   5.312 -1.2048  1.2941  1.2197
 9431SOL     OW39751   1.210   0.379  11.301 -0.0874  0.2540  0.3562
 9431SOL    HW139752   1.169   0.322  11.366 -1.5387 -0.9806 -1.6516
 9431SOL    HW239753   1.290   0.406  11.347  0.3434 -1.6392  0.7078
 9432SOL     OW39754   4.206   3.201  16.056  0.1522  0.1150  0.0052
 9432SOL    HW139755   4.199   3.172  15.965 -0.3419  1.4459 -0.3889
 9432SOL    HW239756   4.278   3.264  16.044  0.4950 -0.3499 -0.3608
 9433SOL     OW39757   0.413   2.300  16.341 -0.1286 -0.3269 -0.0388
 9433SOL    HW139758   0.321   2.274  16.343 -0.0634 -0.6297 -1.5994
 9433SOL    HW239759   0.416   2.396  16.343  1.6471 -0.3316 -2.7316
 9434SOL     OW39760   4.460   2.302  15.567  0.2761  0.1267  0.4635
 9434SOL    HW139761   4.397   2.231  15.552  2.1181 -1.3264 -0.4789
 9434SOL    HW239762   4.503   2.296  15.652  0.2186  0.3751  0.5111
 9435SOL     OW39763   4.481   3.254   7.554  0.5280  0.2585  0.1017
 9435SOL    HW139764   4.405   3.267   7.498  0.2903 -3.1485 -0.3661
 9435SOL    HW239765   4.443   3.282   7.637 -1.4467 -0.6929 -0.4668
 9436SOL     OW39766   1.317   3.949  16.670  0.0209  0.4547  0.1698
 9436SOL    HW139767   1.407   3.922  16.655 -0.4118  0.3663 -2.2877
 9436SOL    HW239768   1.268   3.867  16.672  0.2286  0.4064  3.1610
 9437SOL     OW39769   4.591   3.945   3.115 -0.2868 -0.3451 -0.7210
 9437SOL    HW139770   4.645   4.003   3.061  2.1023 -0.7260  1.2225
 9437SOL    HW239771   4.506   3.953   3.072 -0.4883  1.1153 -0.0432
 9438SOL     OW39772   2.051   1.347  11.532 -0.6959 -0.4134 -0.0112
 9438SOL    HW139773   2.081   1.257  11.546  1.5769  0.3595  0.1928
 9438SOL    HW239774   2.106   1.372  11.458 -0.8028  0.9101  0.3667
 9439SOL     OW39775   0.061   2.650   8.489 -0.2828  0.1531 -0.1000
 9439SOL    HW139776   0.077   2.653   8.583  1.0023 -0.1295 -0.3105
 9439SOL    HW239777   4.721   2.721   8.480 -0.1141  0.5020  1.3863
 9440SOL     OW39778   1.385   0.299   3.023  0.1769  0.2837 -0.4493
 9440SOL    HW139779   1.433   0.350   2.958 -0.2493  2.0784  0.6438
 9440SOL    HW239780   1.377   0.373   3.082 -0.7855 -0.6651  0.6152
 9441SOL     OW39781   0.499   4.160   2.532 -0.7267 -0.1334 -0.2053
 9441SOL    HW139782   0.526   4.157   2.623 -0.6908  1.3933 -0.1621
 9441SOL    HW239783   0.484   4.068   2.513 -0.4032 -0.3395  0.5748
 9442SOL     OW39784   2.286   1.820   2.435 -0.1532  0.4966  0.2440
 9442SOL    HW139785   2.212   1.872   2.465  0.8344  0.7999  2.1371
 9442SOL    HW239786   2.346   1.889   2.407  0.3184  0.1301  0.3422
 9443SOL     OW39787   3.880   0.338  12.345  0.3289 -0.6659  0.4332
 9443SOL    HW139788   3.947   0.377  12.289 -0.6424  1.4106  0.7474
 9443SOL    HW239789   3.831   0.283  12.284  1.2374  0.7842 -1.5812
 9444SOL     OW39790   3.306   2.885  12.862  0.1271  0.2182  0.5053
 9444SOL    HW139791   3.233   2.946  12.851 -0.0563  0.1988  1.5761
 9444SOL    HW239792   3.267   2.809  12.819  1.9507  0.1886 -1.1036
 9445SOL     OW39793   2.085   2.185   9.112  0.0492 -0.3055 -0.4912
 9445SOL    HW139794   2.158   2.146   9.160  1.2874  1.1152 -1.2287
 9445SOL    HW239795   2.091   2.275   9.146 -0.2108 -0.6272  0.4100
 9446SOL     OW39796   1.827   1.494   0.207 -0.3842  0.0378 -0.0817
 9446SOL    HW139797   1.739   1.482   0.171 -1.3464  2.0250  1.5908
 9446SOL    HW239798   1.859   1.579   0.178 -2.0553  0.2153 -1.3998
 9447SOL     OW39799   4.117   3.980   8.164 -0.1823 -0.2383  0.0837
 9447SOL    HW139800   4.114   4.047   8.232  0.9419 -0.6759  0.5550
 9447SOL    HW239801   4.045   3.924   8.194  0.3593  0.4482  2.6040
 9448SOL     OW39802   1.313   2.279   6.796 -0.1564  0.4406  0.0832
 9448SOL    HW139803   1.342   2.199   6.840 -3.0982 -1.3151 -1.2385
 9448SOL    HW239804   1.348   2.360   6.834 -0.5864  0.4183  0.5147
 9449SOL     OW39805   4.700   0.361   9.802 -0.4860 -0.0097 -0.1438
 9449SOL    HW139806   4.681   0.272   9.832 -1.4296  0.3490  0.3273
 9449SOL    HW239807   4.636   0.411   9.853  1.5826  1.9264  0.5319
 9450SOL     OW39808   2.284   3.083   3.324  0.0220  0.2297  0.1693
 9450SOL    HW139809   2.254   3.158   3.375 -0.7392  0.2462 -0.3068
 9450SOL    HW239810   2.220   3.070   3.254 -0.7528  0.0522  0.9120
 9451SOL     OW39811   1.177   2.820   0.355 -0.1688 -0.5300  0.2207
 9451SOL    HW139812   1.139   2.816   0.267  0.2940  0.7754 -0.0412
 9451SOL    HW239813   1.121   2.753   0.393 -2.4048  0.1621 -1.8768
 9452SOL     OW39814   3.236   2.204   9.624 -0.5271  0.8513 -0.7366
 9452SOL    HW139815   3.253   2.134   9.561 -0.2892 -0.6549  0.9925
 9452SOL    HW239816   3.257   2.169   9.711 -2.3441  0.6057 -0.4025
 9453SOL     OW39817   4.684   4.208  10.435  0.1295  0.0296  0.2627
 9453SOL    HW139818   4.635   4.290  10.438 -1.3245 -0.7877 -1.0392
 9453SOL    HW239819   0.004   4.218  10.519  0.6191 -1.2454  0.1513
 9454SOL     OW39820   4.568   0.299   2.502 -1.3545 -0.1260 -0.3675
 9454SOL    HW139821   4.558   0.362   2.431  2.5444  1.4855  0.5087
 9454SOL    HW239822   4.551   0.357   2.577 -0.0550 -0.4269  0.1585
 9455SOL     OW39823   1.966   3.133   1.248 -0.0228 -0.3420 -0.0454
 9455SOL    HW139824   1.961   3.038   1.238 -1.2287 -0.3147  0.3347
 9455SOL    HW239825   2.008   3.166   1.169 -0.9913  0.8018 -0.0915
 9456SOL     OW39826   0.970   1.019  11.098  0.1511 -0.5430  0.3923
 9456SOL    HW139827   0.901   1.045  11.038 -0.3545 -0.7958  0.8611
 9456SOL    HW239828   0.951   0.925  11.093 -2.1012  0.0004 -1.1052
 9457SOL     OW39829   0.529   1.723  13.225 -0.3416  0.5988 -0.2353
 9457SOL    HW139830   0.473   1.799  13.210 -2.2538 -0.3156  2.3072
 9457SOL    HW239831   0.533   1.685  13.137 -0.1561  1.8789 -0.7674
 9458SOL     OW39832   2.785   2.982   4.934 -0.0729 -0.0244  0.2453
 9458SOL    HW139833   2.712   2.959   4.992 -0.6665 -0.6785 -0.7706
 9458SOL    HW239834   2.748   2.940   4.857 -0.1944  2.5911 -1.1165
 9459SOL     OW39835   0.748   1.454  13.365 -0.0881  0.8321 -0.9782
 9459SOL    HW139836   0.791   1.434  13.282 -0.6862 -0.1754 -1.0510
 9459SOL    HW239837   0.811   1.414  13.426 -0.1977 -0.8198 -1.9593
 9460SOL     OW39838   3.025   3.654  12.248  0.6333  0.2802 -0.0898
 9460SOL    HW139839   2.973   3.584  12.287 -0.2500  0.6400 -0.6231
 9460SOL    HW239840   3.026   3.620  12.159  0.9259 -1.5539  0.5959
 9461SOL     OW39841   1.852   0.345   2.220  0.2024 -0.1427 -0.1937
 9461SOL    HW139842   1.887   0.317   2.305 -1.5942 -2.8805 -0.3683
 9461SOL    HW239843   1.789   0.412   2.245  0.2258  0.7798 -2.6249
 9462SOL     OW39844   2.106   0.880   4.244 -0.1960 -0.2698  0.3775
 9462SOL    HW139845   2.146   0.809   4.293 -2.0651  0.2212  2.6299
 9462SOL    HW239846   2.030   0.892   4.301 -2.1941  4.0581 -3.1546
 9463SOL     OW39847   2.190   3.442   6.468 -0.2786 -0.6740 -0.6154
 9463SOL    HW139848   2.177   3.414   6.559  0.5141  0.6088 -0.1143
 9463SOL    HW239849   2.236   3.524   6.486  0.4593 -0.9058 -1.4560
 9464SOL     OW39850   2.247   2.819   0.852  0.5672 -0.3364  0.4795
 9464SOL    HW139851   2.311   2.850   0.916  0.8568 -1.0303  0.5224
 9464SOL    HW239852   2.294   2.743   0.816  2.3525  1.4293 -0.8781
 9465SOL     OW39853   4.578   3.423   7.314 -0.5845  0.4285  0.1942
 9465SOL    HW139854   4.526   3.465   7.383 -3.0812 -1.6992 -0.3975
 9465SOL    HW239855   4.663   3.411   7.355 -0.9401 -1.9627  0.2236
 9466SOL     OW39856   4.293   3.379   6.362  0.3963  0.0910  0.1578
 9466SOL    HW139857   4.329   3.309   6.307 -0.9151 -0.0908 -0.4688
 9466SOL    HW239858   4.199   3.363   6.354  0.5986 -1.2308  0.3873
 9467SOL     OW39859   4.645   2.944   5.698 -0.6985 -0.1325  0.2974
 9467SOL    HW139860   0.010   2.913   5.694 -1.3579 -1.5798 -3.2551
 9467SOL    HW239861   4.615   2.896   5.776  1.6368 -1.2593  0.4848
 9468SOL     OW39862   4.381   2.404   5.299 -0.4565  0.1404  0.0043
 9468SOL    HW139863   4.317   2.443   5.239  1.3702  3.3881  0.1899
 9468SOL    HW239864   4.397   2.324   5.249  0.5170 -0.2763  0.9674
 9469SOL     OW39865   4.463   0.085   5.926 -0.0956 -0.0569  0.0583
 9469SOL    HW139866   4.404   0.154   5.896  1.1130  0.4768 -1.0762
 9469SOL    HW239867   4.396   0.028   5.963 -1.2794  1.1560 -0.1880
 9470SOL     OW39868   4.292   1.394   1.125 -0.4789  0.0747 -0.4937
 9470SOL    HW139869   4.371   1.430   1.084  0.8359 -1.6615  0.4963
 9470SOL    HW239870   4.220   1.402   1.062  0.2789 -0.9921 -1.4999
 9471SOL     OW39871   1.320   4.656   7.142 -0.5179 -0.4871 -0.1827
 9471SOL    HW139872   1.244   4.701   7.178 -1.2017 -1.5294 -0.3539
 9471SOL    HW239873   1.284   4.568   7.136  0.2473 -0.9550  1.9316
 9472SOL     OW39874   3.359   3.472   6.457 -0.2478  0.6022 -0.1049
 9472SOL    HW139875   3.334   3.560   6.430 -1.2403 -0.5269 -2.8654
 9472SOL    HW239876   3.372   3.423   6.376 -0.9964  0.0506  0.1074
 9473SOL     OW39877   2.731   1.940  11.205  0.2070  0.3435  0.3591
 9473SOL    HW139878   2.635   1.935  11.213  0.1259  1.2586 -0.0377
 9473SOL    HW239879   2.761   1.901  11.123  1.0157  0.6757  0.5051
 9474SOL     OW39880   3.177   3.129   8.840  0.0001  0.5261  0.9752
 9474SOL    HW139881   3.162   3.223   8.851  3.1608  1.0736  0.6085
 9474SOL    HW239882   3.256   3.136   8.786 -1.4158  0.0787 -1.1603
 9475SOL     OW39883   0.068   0.907   3.662 -0.0139  0.2172  0.3144
 9475SOL    HW139884   4.721   0.971   3.656  0.2055  0.1571 -2.8711
 9475SOL    HW239885   0.136   0.945   3.718  1.1216 -0.6230 -0.5021
 9476SOL     OW39886   0.615   1.878   9.605  0.0274  0.4060 -0.2383
 9476SOL    HW139887   0.554   1.951   9.609 -0.0653  0.2970  0.3366
 9476SOL    HW239888   0.642   1.877   9.697 -0.8924 -0.5449  0.0266
 9477SOL     OW39889   3.730   0.022   4.591  0.1718  0.1558 -0.1026
 9477SOL    HW139890   3.714   0.006   4.498  1.4985 -3.8175  0.3452
 9477SOL    HW239891   3.811   4.696   4.597 -0.8150 -1.7342 -2.5316
 9478SOL     OW39892   1.308   3.105   6.538 -0.1900 -0.2138 -0.1859
 9478SOL    HW139893   1.327   3.035   6.601  1.9369  2.0413  1.6318
 9478SOL    HW239894   1.280   3.183   6.586  0.6777  0.3311 -0.5720
 9479SOL     OW39895   3.750   3.075   6.504 -0.1224  0.3678  0.3711
 9479SOL    HW139896   3.774   3.011   6.437 -0.9586  0.6557 -0.2064
 9479SOL    HW239897   3.722   3.152   6.455  2.1249  0.4631 -0.7850
 9480SOL     OW39898   1.174   3.985   9.321  0.0733  0.5711 -0.3409
 9480SOL    HW139899   1.174   4.079   9.302  0.5310  0.8132  0.8089
 9480SOL    HW239900   1.169   3.945   9.234 -0.6913  0.9995 -0.4935
 9481SOL     OW39901   3.811   3.092   3.258  0.1768 -0.0337 -0.0693
 9481SOL    HW139902   3.718   3.115   3.264 -0.5094 -3.5232  2.3198
 9481SOL    HW239903   3.798   3.027   3.189 -0.9845  0.3736 -0.2314
 9482SOL     OW39904   2.925   3.284   7.169 -0.0135  0.2943  0.3982
 9482SOL    HW139905   2.860   3.217   7.191 -0.8744  1.1400  0.4602
 9482SOL    HW239906   2.881   3.362   7.203 -0.4885  0.1464  0.1165
 9483SOL     OW39907   1.144   4.577   6.810 -0.0446 -0.3369 -0.2949
 9483SOL    HW139908   1.132   4.482   6.803 -1.2542 -0.3210  1.6648
 9483SOL    HW239909   1.063   4.599   6.855  1.7481  0.9954  2.2373
 9484SOL     OW39910   3.124   3.991   4.958 -0.3770  0.0749  0.1440
 9484SOL    HW139911   3.054   4.056   4.963 -0.2066  0.3234 -0.7411
 9484SOL    HW239912   3.113   3.935   5.035  0.6354  0.3585  0.4853
 9485SOL     OW39913   1.563   0.486  12.670 -0.2953 -0.4197 -0.4041
 9485SOL    HW139914   1.565   0.469  12.765  0.4793 -0.4171 -0.4189
 9485SOL    HW239915   1.469   0.482  12.651 -0.3961 -0.5440  0.1096
 9486SOL     OW39916   1.120   3.975   2.815  0.0921  0.0370  0.3879
 9486SOL    HW139917   1.048   3.923   2.779  0.1239  0.4880 -0.3325
 9486SOL    HW239918   1.152   4.030   2.743 -2.1954 -0.1784 -0.7938
 9487SOL     OW39919   3.153   2.750  10.158 -0.6698 -0.0424  0.0505
 9487SOL    HW139920   3.091   2.822  10.151  0.0489  0.8978  3.2066
 9487SOL    HW239921   3.196   2.755  10.073 -1.8012  0.6490 -0.4868
 9488SOL     OW39922   2.958   4.140   8.935  0.0144  0.0676 -0.1617
 9488SOL    HW139923   2.886   4.182   8.888  1.1052  0.0096 -1.8969
 9488SOL    HW239924   2.916   4.073   8.989 -0.9155  1.0326  0.3176
 9489SOL     OW39925   4.192   0.169   0.043  0.2182 -0.0239 -0.4926
 9489SOL    HW139926   4.287   0.182   0.052  0.1554 -0.7732  1.2505
 9489SOL    HW239927   4.187   0.090  17.689 -0.1094 -0.2622 -0.1136
 9490SOL     OW39928   0.967   2.403   1.289  0.2241 -0.5746 -0.4384
 9490SOL    HW139929   1.048   2.371   1.251  1.5329  1.1223  0.9368
 9490SOL    HW239930   0.899   2.395   1.222 -0.4539 -1.5738  0.3595
 9491SOL     OW39931   0.152   0.877  13.310  0.6777  0.0224  0.1858
 9491SOL    HW139932   0.146   0.787  13.279 -0.6648 -0.1935  1.0911
 9491SOL    HW239933   0.172   0.920  13.227  0.1726 -0.2872 -0.0953
 9492SOL     OW39934   2.730   2.815   9.813 -0.1970 -0.2596  0.1350
 9492SOL    HW139935   2.820   2.803   9.844 -0.0548 -3.2710 -1.3983
 9492SOL    HW239936   2.687   2.833   9.897 -2.7542  1.0985 -1.4954
 9493SOL     OW39937   2.580   4.637   9.811 -0.4629 -0.2143 -0.0711
 9493SOL    HW139938   2.624   4.552   9.808  2.7220  1.3894  0.3463
 9493SOL    HW239939   2.558   4.655   9.720 -4.1207  0.5267  0.9457
 9494SOL     OW39940   1.030   3.179   1.903  0.3333  0.2179  0.3284
 9494SOL    HW139941   0.992   3.104   1.948  0.2788  1.0289  1.6400
 9494SOL    HW239942   1.007   3.242   1.971  1.3405  1.6946 -0.6895
 9495SOL     OW39943   1.369   2.958   8.697  0.0044  0.6579 -0.1915
 9495SOL    HW139944   1.343   3.048   8.679 -1.2965  0.3720  0.2336
 9495SOL    HW239945   1.328   2.957   8.784 -0.2893 -0.0079 -0.3337
 9496SOL     OW39946   2.240   4.138   8.589  0.3295 -0.0564 -0.8519
 9496SOL    HW139947   2.192   4.218   8.569  1.1301  0.6144 -0.0849
 9496SOL    HW239948   2.218   4.071   8.525  1.3212 -2.6124  1.4506
 9497SOL     OW39949   4.136   0.298   1.808  0.6465  0.0330  0.0913
 9497SOL    HW139950   4.117   0.374   1.862  0.9157 -0.9061  1.4982
 9497SOL    HW239951   4.071   0.234   1.839 -0.0187  0.4947 -0.3432
 9498SOL     OW39952   2.317   1.488   6.030 -0.0914 -0.3936 -0.7015
 9498SOL    HW139953   2.269   1.531   6.100  1.6180  1.3019 -0.5746
 9498SOL    HW239954   2.255   1.416   6.015  0.9019 -0.9390 -2.1991
 9499SOL     OW39955   1.968   3.548   6.375  0.0349  0.1881  0.0107
 9499SOL    HW139956   2.036   3.481   6.368 -0.5665 -0.4658  0.4738
 9499SOL    HW239957   1.922   3.510   6.450  3.1814  0.5868  2.1351
 9500SOL     OW39958   0.221   1.462  15.241 -0.1860  0.3249 -0.4909
 9500SOL    HW139959   0.167   1.431  15.168 -1.5322 -1.0510  1.0889
 9500SOL    HW239960   0.160   1.514  15.293  0.3089 -0.4673  0.8623
 9501SOL     OW39961   0.913   3.888   7.289  0.1306 -0.7175  0.1570
 9501SOL    HW139962   0.971   3.811   7.294 -1.2787 -1.7795  0.0522
 9501SOL    HW239963   0.946   3.925   7.207 -1.2513 -0.7041 -0.3839
 9502SOL     OW39964   2.725   1.691   4.108 -0.4842 -0.0233 -0.0948
 9502SOL    HW139965   2.663   1.645   4.164  0.3778 -1.4344 -0.3081
 9502SOL    HW239966   2.787   1.620   4.093 -1.1334 -0.4071 -0.9605
 9503SOL     OW39967   3.169   4.436   7.448 -0.0069 -0.3572 -0.8082
 9503SOL    HW139968   3.130   4.378   7.383  1.6160 -0.2686 -1.8603
 9503SOL    HW239969   3.149   4.525   7.419  0.0280  0.2105  0.8945
 9504SOL     OW39970   4.548   0.099   2.164  0.0447  0.0607 -0.2731
 9504SOL    HW139971   4.533   0.138   2.077  2.0872 -0.3106 -0.7940
 9504SOL    HW239972   4.605   0.024   2.152  0.6021  0.9357 -3.1628
 9505SOL     OW39973   0.518   0.410   2.715 -0.1953  0.2701 -0.2266
 9505SOL    HW139974   0.512   0.357   2.637  1.2438 -0.1304 -0.0685
 9505SOL    HW239975   0.609   0.439   2.728  0.5918 -2.4819  0.3870
 9506SOL     OW39976   3.755   2.045  12.194 -0.7518  0.5404 -0.1679
 9506SOL    HW139977   3.677   2.019  12.242  0.0191 -0.3589  0.5858
 9506SOL    HW239978   3.801   1.962  12.190 -0.6570  0.6685 -1.8634
 9507SOL     OW39979   0.154   2.902   2.887  0.1978 -0.1557  0.4494
 9507SOL    HW139980   0.081   2.934   2.941  0.5940  1.0594  0.2580
 9507SOL    HW239981   0.212   2.977   2.875 -1.2808  1.1115  1.2327
 9508SOL     OW39982   0.372   0.936   4.359 -0.3301  0.0640  0.7576
 9508SOL    HW139983   0.323   0.854   4.351  1.4409 -0.9168 -0.0536
 9508SOL    HW239984   0.466   0.921   4.360 -0.5067 -1.0944  0.1031
 9509SOL     OW39985   2.278   2.122   1.755  0.6539  0.6524  0.1345
 9509SOL    HW139986   2.344   2.184   1.724  0.4185  0.8051 -0.0543
 9509SOL    HW239987   2.324   2.066   1.818  0.6406  2.0039  1.3521
 9510SOL     OW39988   0.631   2.012  12.954  0.2174 -0.1699 -0.2109
 9510SOL    HW139989   0.650   1.926  12.916  3.2115  0.8434 -0.9735
 9510SOL    HW239990   0.544   1.987  12.985  0.0708 -0.0683 -0.5510
 9511SOL     OW39991   2.361   2.180   6.115  0.0342  0.5586  0.4905
 9511SOL    HW139992   2.316   2.262   6.132  0.2029  0.3817  1.7905
 9511SOL    HW239993   2.306   2.115   6.158  0.1805  0.4311  0.4838
 9512SOL     OW39994   0.532   1.652   6.994  0.0705  0.1033 -0.3275
 9512SOL    HW139995   0.535   1.728   7.052  1.0339  0.5980 -1.0175
 9512SOL    HW239996   0.614   1.673   6.950 -0.4507  1.4214 -0.6812
 9513SOL     OW39997   1.273   2.278   2.353 -0.8113 -0.1304  0.1110
 9513SOL    HW139998   1.270   2.246   2.263  1.9845  1.5446 -0.5997
 9513SOL    HW239999   1.326   2.204   2.385  2.5272  1.4526 -1.8466
 9514SOL     OW40000   0.922   3.489   9.882  0.1129 -0.1022  0.3614
 9514SOL    HW140001   1.016   3.502   9.870 -0.2335  2.4104  0.4262
 9514SOL    HW240002   0.924   3.419   9.947  2.3777 -0.3155  0.0559
 9515SOL     OW40003   1.091   3.261   6.870  0.6818  0.2175 -0.0480
 9515SOL    HW140004   1.004   3.224   6.856  0.7837 -0.0477  0.0108
 9515SOL    HW240005   1.067   3.328   6.934  1.2927  0.3096  0.0809
 9516SOL     OW40006   4.522   2.337   1.855  0.1871  0.3068 -0.5149
 9516SOL    HW140007   4.606   2.383   1.857  0.4052  0.0108 -3.3158
 9516SOL    HW240008   4.544   2.256   1.902  0.3576 -0.4615 -1.9210
 9517SOL     OW40009   2.054   2.549  13.191  0.1922 -0.1442 -0.6630
 9517SOL    HW140010   2.003   2.595  13.257  1.7645 -1.1390  1.2679
 9517SOL    HW240011   2.129   2.608  13.186  1.1311 -1.4330 -2.0658
 9518SOL     OW40012   1.795   2.935   0.707 -0.1695  0.5030 -0.8180
 9518SOL    HW140013   1.705   2.923   0.734  0.7004 -0.2504  1.7010
 9518SOL    HW240014   1.832   2.919   0.794  0.8402 -2.7121 -1.8411
 9519SOL     OW40015   4.588   0.943  10.500 -0.5064 -0.1234  0.3250
 9519SOL    HW140016   4.502   0.907  10.520 -0.0391 -0.6076  1.4612
 9519SOL    HW240017   4.581   0.980  10.412 -1.7503 -0.1500  0.4199
 9520SOL     OW40018   3.404   1.205  16.458  0.0044 -0.8371  0.6794
 9520SOL    HW140019   3.394   1.183  16.366 -0.9314  3.0596 -0.1479
 9520SOL    HW240020   3.496   1.188  16.477  0.2440 -2.4398 -1.9467
 9521SOL     OW40021   0.512   1.623   3.009  0.4709 -0.0661  0.4159
 9521SOL    HW140022   0.554   1.559   2.952 -0.0067  0.7120 -0.8047
 9521SOL    HW240023   0.577   1.690   3.029 -0.8301  2.3051 -3.3727
 9522SOL     OW40024   3.900   3.492   7.655 -0.3952  0.2133  0.7221
 9522SOL    HW140025   3.922   3.428   7.724 -1.5664  0.3925  1.2630
 9522SOL    HW240026   3.919   3.567   7.712  0.0150  1.0221 -0.4897
 9523SOL     OW40027   1.051   0.532   2.402  0.2802 -0.3417 -0.8728
 9523SOL    HW140028   0.958   0.553   2.396  0.2649  0.7254  2.9069
 9523SOL    HW240029   1.086   0.610   2.360  0.6850 -0.1734 -0.2359
 9524SOL     OW40030   4.260   3.852   5.921  0.1032 -0.7256 -0.0554
 9524SOL    HW140031   4.258   3.879   6.013  1.7323 -1.8613  0.3003
 9524SOL    HW240032   4.239   3.759   5.920  0.4523 -0.7539 -3.9374
 9525SOL     OW40033   1.824   0.185  12.724  0.1622  0.0467 -0.1826
 9525SOL    HW140034   1.754   0.171  12.788  0.8525 -1.8220  0.1673
 9525SOL    HW240035   1.889   0.247  12.756 -0.0210 -0.3377  0.9511
 9526SOL     OW40036   2.653   1.845   2.400  0.3044 -0.2100 -0.4155
 9526SOL    HW140037   2.730   1.790   2.383 -0.4713 -0.3690 -3.3945
 9526SOL    HW240038   2.587   1.780   2.378 -0.2494  0.0653  0.4577
 9527SOL     OW40039   0.798   4.658   2.355 -0.0362 -0.0005 -0.2482
 9527SOL    HW140040   0.862   4.640   2.424 -1.2757 -2.7610  0.1785
 9527SOL    HW240041   0.801   0.029   2.355  0.1785 -0.0062 -1.5703
 9528SOL     OW40042   4.150   0.582  14.347  0.3546  0.0794 -0.5159
 9528SOL    HW140043   4.157   0.487  14.360 -0.1053 -0.0714 -1.3495
 9528SOL    HW240044   4.171   0.587  14.254  1.4073 -0.3109 -0.3007
 9529SOL     OW40045   0.647   3.339  13.012  0.7121 -0.4469 -0.7820
 9529SOL    HW140046   0.732   3.329  13.055 -0.7549 -1.1848  1.9240
 9529SOL    HW240047   0.675   3.371  12.926  1.1614  0.8329 -0.1638
 9530SOL     OW40048   2.472   3.640   1.309  0.3094  0.0767  0.6333
 9530SOL    HW140049   2.558   3.604   1.331  0.4398  0.0222  0.0080
 9530SOL    HW240050   2.459   3.695   1.386  0.0077  0.5917  0.2077
 9531SOL     OW40051   1.143   3.824  11.334 -0.1191  0.0970 -0.3423
 9531SOL    HW140052   1.150   3.826  11.430 -3.3613  2.6267 -0.1533
 9531SOL    HW240053   1.070   3.887  11.329 -0.0659  0.3461  1.7046
 9532SOL     OW40054   1.583   0.204   3.307  0.1497  0.0717  0.7982
 9532SOL    HW140055   1.603   0.297   3.302 -0.6748  0.3402  2.3038
 9532SOL    HW240056   1.624   0.169   3.228 -1.6435  0.4993 -0.3306
 9533SOL     OW40057   1.618   0.062   2.529  0.3920  0.1568  0.1803
 9533SOL    HW140058   1.704   0.071   2.571  0.9672 -0.6057 -0.8485
 9533SOL    HW240059   1.642   4.716   2.469 -1.8461 -1.1827  0.8836
 9534SOL     OW40060   4.107   4.119   5.449 -0.0351  0.0168 -0.2038
 9534SOL    HW140061   4.107   4.043   5.390 -0.2099 -0.5933  0.5813
 9534SOL    HW240062   4.077   4.079   5.531 -0.6953  1.4570  0.2657
 9535SOL     OW40063   0.276   1.729   3.988  0.7159  0.6074  0.5004
 9535SOL    HW140064   0.214   1.733   4.060 -1.7132  1.2702 -1.6513
 9535SOL    HW240065   0.205   1.715   3.926  1.3555  2.9183 -0.7572
 9536SOL     OW40066   3.245   2.325   0.589  0.0517  0.3002 -0.0424
 9536SOL    HW140067   3.170   2.383   0.593 -1.6635 -1.9011 -0.0715
 9536SOL    HW240068   3.300   2.377   0.530  2.5475 -1.0709  1.0237
 9537SOL     OW40069   0.402   1.678  13.504  0.5248 -0.7519 -0.1261
 9537SOL    HW140070   0.430   1.660  13.594  1.3319  0.1349 -0.1965
 9537SOL    HW240071   0.488   1.694  13.465  0.4060 -1.8776 -0.8718
 9538SOL     OW40072   0.246   3.604   6.963 -0.1914  0.4032  0.3689
 9538SOL    HW140073   0.280   3.674   7.019  1.8356 -0.1065 -0.2378
 9538SOL    HW240074   0.184   3.570   7.028 -1.3629 -0.4420 -1.1832
 9539SOL     OW40075   2.481   4.505   5.165 -0.4998  0.2553 -0.8593
 9539SOL    HW140076   2.514   4.519   5.076  0.9263  0.4545 -0.3030
 9539SOL    HW240077   2.411   4.569   5.179 -1.4704 -1.4434  1.9805
 9540SOL     OW40078   3.798   2.552  14.754  0.2100  0.1602 -0.1248
 9540SOL    HW140079   3.750   2.522  14.676  2.9099  1.0533 -2.1170
 9540SOL    HW240080   3.730   2.564  14.821  1.0312 -0.0503  0.7398
 9541SOL     OW40081   3.314   3.770  16.773 -0.2305  0.6929  0.1222
 9541SOL    HW140082   3.229   3.791  16.734  0.0045  1.7814  0.2094
 9541SOL    HW240083   3.342   3.686  16.737 -2.6955  0.2413 -0.7363
 9542SOL     OW40084   4.692   0.309  15.507 -0.8432 -0.0208 -0.0121
 9542SOL    HW140085   0.023   0.379  15.473 -2.2859  1.6642  1.0604
 9542SOL    HW240086   4.719   0.242  15.445 -1.8484 -2.0641  1.7629
 9543SOL     OW40087   2.388   0.632   3.100 -0.3187  0.4003  0.6663
 9543SOL    HW140088   2.375   0.615   3.193 -0.7389  1.1186  0.7375
 9543SOL    HW240089   2.482   0.617   3.089 -0.7854  1.3267 -4.7085
 9544SOL     OW40090   0.795   0.348   2.558 -0.6668  1.0705 -0.2209
 9544SOL    HW140091   0.867   0.286   2.546 -0.8083  0.6682  1.0672
 9544SOL    HW240092   0.810   0.359   2.651 -1.2461  2.4151 -0.2773
 9545SOL     OW40093   3.876   2.156   4.696  0.0834 -0.2528  0.3029
 9545SOL    HW140094   3.833   2.147   4.781 -0.1873 -2.2372 -0.0308
 9545SOL    HW240095   3.845   2.073   4.658 -2.0397 -0.3731  2.2943
 9546SOL     OW40096   1.212   0.810   3.630  0.0509  0.0675  0.2056
 9546SOL    HW140097   1.191   0.799   3.537  1.7268 -0.7449 -0.0931
 9546SOL    HW240098   1.301   0.777   3.643 -0.3368 -0.9998  0.1171
 9547SOL     OW40099   2.698   1.564  15.978  0.5900 -0.1283 -0.1427
 9547SOL    HW140100   2.640   1.562  15.902 -2.5124 -3.1447  2.3150
 9547SOL    HW240101   2.756   1.630  15.939 -0.0462 -0.2264 -1.2590
 9548SOL     OW40102   2.847   4.064   4.405  0.1245 -0.1934  0.0367
 9548SOL    HW140103   2.913   4.106   4.460 -0.2135  0.5681 -0.1472
 9548SOL    HW240104   2.778   4.129   4.416  1.6987  1.5773 -0.6783
 9549SOL     OW40105   4.282   1.300   3.583  0.2976 -0.2136 -0.3460
 9549SOL    HW140106   4.344   1.365   3.551 -1.4016  2.8752  2.6520
 9549SOL    HW240107   4.312   1.217   3.543  1.6283  1.0359 -1.9557
 9550SOL     OW40108   1.254   3.760   9.737  0.3686 -0.4638 -0.0033
 9550SOL    HW140109   1.220   3.690   9.793 -2.2141  2.2694  1.8996
 9550SOL    HW240110   1.339   3.780   9.776 -1.1506  1.0207  2.5602
 9551SOL     OW40111   3.122   4.138  17.430  0.5704 -0.8024  0.3451
 9551SOL    HW140112   3.208   4.164  17.460 -0.2146  0.1240  1.7899
 9551SOL    HW240113   3.095   4.066  17.488 -0.7947 -0.8065 -0.2903
 9552SOL     OW40114   0.786   3.722   4.865  0.3168  0.5169 -0.4177
 9552SOL    HW140115   0.805   3.732   4.958  0.6954 -1.0468 -0.3215
 9552SOL    HW240116   0.710   3.781   4.866  1.6199  2.1568  1.1280
 9553SOL     OW40117   2.739   4.517   3.800 -0.0624 -0.5827 -0.2266
 9553SOL    HW140118   2.785   4.437   3.825  0.1946 -0.5213 -0.4933
 9553SOL    HW240119   2.656   4.515   3.846  0.6292 -1.7818  0.9571
 9554SOL     OW40120   3.012   3.266   1.383 -0.0938  0.0035 -1.0246
 9554SOL    HW140121   2.982   3.208   1.312 -1.9330  0.1927 -0.4043
 9554SOL    HW240122   2.937   3.263   1.441  2.6867 -0.5329  2.5255
 9555SOL     OW40123   3.143   0.243   8.834  0.3633  0.7077 -0.2920
 9555SOL    HW140124   3.138   0.252   8.929 -3.4334  0.2575 -0.4428
 9555SOL    HW240125   3.230   0.208   8.814  1.0245  1.6578  0.9166
 9556SOL     OW40126   3.692   2.777   3.695 -0.2048 -0.4521 -0.4809
 9556SOL    HW140127   3.730   2.860   3.723  1.2361 -1.3746  0.2565
 9556SOL    HW240128   3.651   2.800   3.611  1.0465 -1.1047 -1.2714
 9557SOL     OW40129   0.538   3.804  13.592 -0.1347 -0.0630  0.5897
 9557SOL    HW140130   0.497   3.890  13.597  3.1178  1.4492  0.9945
 9557SOL    HW240131   0.553   3.798  13.497 -0.8712 -0.5100  0.5017
 9558SOL     OW40132   0.312   0.761   6.181  0.2049  0.6372 -0.0077
 9558SOL    HW140133   0.324   0.678   6.135  0.0404  0.8487 -0.4342
 9558SOL    HW240134   0.259   0.734   6.256 -0.3361  0.3417 -0.4917
 9559SOL     OW40135   4.091   0.526  13.165  0.6027 -0.3842 -0.0670
 9559SOL    HW140136   4.180   0.551  13.191  1.0682 -1.2705 -0.8034
 9559SOL    HW240137   4.097   0.551  13.073 -0.0617 -1.5269 -0.4179
 9560SOL     OW40138   3.870   0.162   7.192 -0.0643  0.0618 -0.2290
 9560SOL    HW140139   3.944   0.197   7.242 -0.0830 -0.9768  0.5142
 9560SOL    HW240140   3.914   0.132   7.112  1.0294 -1.9580  1.1269
 9561SOL     OW40141   4.412   0.240   7.419  0.1148 -0.1345  0.9957
 9561SOL    HW140142   4.348   0.185   7.462 -0.9100  1.4078  1.4407
 9561SOL    HW240143   4.475   0.173   7.392  0.3891  0.3257  0.4852
 9562SOL     OW40144   0.578   2.903  13.546  1.0704 -0.1613 -0.2335
 9562SOL    HW140145   0.645   2.949  13.495  0.9725 -0.1718 -0.3696
 9562SOL    HW240146   0.512   2.970  13.564  1.0287 -0.0090 -0.9737
 9563SOL     OW40147   0.334   4.450   6.164  0.1371 -0.2069  0.4773
 9563SOL    HW140148   0.381   4.368   6.149  2.4426  1.0053  1.1116
 9563SOL    HW240149   0.257   4.442   6.106  0.6805  0.0714 -0.2813
 9564SOL     OW40150   3.741   1.472   3.654  0.1537  0.0867  0.4273
 9564SOL    HW140151   3.754   1.421   3.734  0.3939 -1.8252 -0.8340
 9564SOL    HW240152   3.648   1.494   3.656  0.4938  1.6500 -0.9596
 9565SOL     OW40153   1.188   4.550   8.020  0.1180 -0.2115  0.4174
 9565SOL    HW140154   1.169   4.503   8.101 -1.1009 -0.8450 -0.2303
 9565SOL    HW240155   1.226   4.633   8.047 -1.0734  0.3334  0.3972
   4.72463   4.72463  17.70001
