Membrane in water
40155
    1TCq1    O1    1   4.537   4.390  11.240 -0.5193 -0.3139  0.1986
    1TCq1    C1    2   4.614   4.313  11.310  0.8890 -0.0390  0.2074
    1TCq1    O2    3   0.006   4.338  11.334 -0.1778 -0.4083  0.3037
    1TCq1    C2    4   4.530   4.242  11.393  0.1363 -0.4312  0.0237
    1TCq1    C3    5   4.448   4.154  11.328  0.1069 -0.1484 -0.2121
    1TCq1    C4    6   4.409   4.043  11.400 -0.5241  0.4597 -0.5563
    1TCq1    C5    7   4.454   4.014  11.524 -0.1633  0.6723 -0.6566
    1TCq1    C6    8   4.540   4.101  11.583  0.0013  0.8297  0.2959
    1TCq1    C7    9   4.575   4.218  11.522 -0.1935  0.3237 -0.0175
    1TCq1    C8   10   4.591   4.077  11.722 -0.2613 -0.0219 -0.3004
    1TCq1    O4   11   4.638   4.175  11.778  0.1281 -0.4533 -0.5554
    1TCq1    C9   12   4.326   3.943  11.332  0.1704  0.7838  0.2388
    1TCq1    O5   13   4.308   3.833  11.391 -0.5530  0.2088 -0.1124
    1TCq1    O6   14   4.317   3.959  11.206  0.4452 -0.6627  0.3591
    1TCq1    H1   15   4.441   4.374  11.258 -0.8081  1.2351  0.0576
    1TCq1    H2   16   4.431   4.161  11.222 -0.8858 -0.2916 -0.0644
    1TCq1    H3   17   4.415   3.924  11.570  0.7991  1.4327  1.6507
    1TCq1    H4   18   4.659   4.273  11.563  0.1596  0.4696 -0.9520
    2MPD2     C   19   4.604   3.852  12.187 -0.1274  0.5755  0.3619
    2MPD2    C1   20   4.623   3.981  12.149 -0.4043  0.4353  0.3664
    2MPD2    C2   21   4.615   4.010  12.014  0.1194  0.0282  0.1552
    2MPD2    C3   22   4.590   3.917  11.915  0.1575  0.3008  0.4448
    2MPD2    C4   23   4.578   3.789  11.962 -0.3559  0.5582 -0.2045
    2MPD2    C5   24   4.585   3.760  12.090  0.3288  0.1568 -0.2883
    2MPD2     H   25   4.629   4.112  11.979 -1.9603  0.5932  0.9206
    2MPD2    H1   26   4.574   3.700  11.900 -1.4358  0.7703 -0.4437
    2MPD2    H2   27   4.604   3.813  12.288 -0.4592 -1.5997 -0.4699
    2MPD2    H3   28   4.588   3.659  12.131  0.6161 -0.1053 -0.9604
    2MPD2     N   29   4.574   3.945  11.773  0.2960 -0.9127 -0.0195
    2MPD2    H5   30   4.549   3.869  11.711 -1.1206 -1.0228  0.6659
    2MPD2    N1   31   4.639   4.092  12.235  0.1566 -0.2886  0.0848
    2MPD2    H7   32   4.647   4.183  12.192  0.3094 -0.8942 -1.1748
    3TCq1    O1   33   4.189   0.933  10.628 -0.1489  0.5992 -0.1824
    3TCq1    C1   34   4.219   0.983  10.744  0.3406 -1.0122  0.3336
    3TCq1    O2   35   4.263   0.921  10.844  0.2261  0.3575 -0.2500
    3TCq1    C2   36   4.180   1.119  10.752  0.8836 -0.2511  0.1143
    3TCq1    C3   37   4.230   1.207  10.657  0.3275  0.6163 -0.4242
    3TCq1    C4   38   4.208   1.338  10.668 -0.2776 -0.0844 -0.7577
    3TCq1    C5   39   4.141   1.388  10.779 -0.0689  0.0053  0.1952
    3TCq1    C6   40   4.093   1.306  10.874  0.5257  0.4003  0.6425
    3TCq1    C7   41   4.116   1.168  10.858 -0.9379 -0.3468  0.3446
    3TCq1    C8   42   4.026   1.360  10.996 -0.7132 -0.4921  0.3830
    3TCq1    O4   43   4.021   1.272  11.079  0.9778 -0.6955 -0.4684
    3TCq1    C9   44   4.265   1.434  10.577 -0.1606  0.2705 -0.1478
    3TCq1    O5   45   4.321   1.391  10.472  0.2311  0.1925  0.0953
    3TCq1    O6   46   4.294   1.543  10.626 -0.5322  0.0167 -0.5222
    3TCq1    H1   47   4.155   0.996  10.561 -0.7107  0.7286  0.2175
    3TCq1    H2   48   4.297   1.172  10.579  0.8078 -0.0569  0.2953
    3TCq1    H3   49   4.141   1.496  10.784  0.0522 -0.0206  0.7628
    3TCq1    H4   50   4.085   1.097  10.933  0.2975 -0.9472  0.2888
    4MPD2     C   51   3.894   1.718  11.334 -0.1707  0.1894  0.4438
    4MPD2    C1   52   3.898   1.770  11.201  0.0450  0.4856  0.3782
    4MPD2    C2   53   3.936   1.686  11.098 -0.4950  0.4911  0.6831
    4MPD2    C3   54   3.971   1.561  11.119 -0.4444 -0.1389 -0.5200
    4MPD2    C4   55   3.968   1.508  11.243 -0.0192 -0.7240 -0.1452
    4MPD2    C5   56   3.940   1.589  11.352 -0.0146 -0.0291  0.3244
    4MPD2     H   57   3.956   1.732  11.001 -0.3749 -1.4408 -0.1970
    4MPD2    H1   58   3.998   1.407  11.270  1.5436 -0.2502 -0.1424
    4MPD2    H2   59   3.859   1.782  11.414  1.0200  4.0497 -2.1594
    4MPD2    H3   60   3.938   1.541  11.449  0.1223  1.5845  1.1101
    4MPD2     N   61   4.002   1.490  10.999 -0.6949 -0.0453 -0.0936
    4MPD2    H5   62   3.987   1.545  10.915  1.8362  0.8975  0.0669
    4MPD2    N1   63   3.862   1.902  11.175  0.7995  0.2998 -0.6155
    4MPD2    H7   64   3.876   1.942  11.083  2.1889  0.9782 -0.1083
    5TCq1    O1   65   4.347   3.037  12.127 -0.1335  0.6943  0.2522
    5TCq1    C1   66   4.215   3.042  12.151  0.2755  0.0296 -0.0323
    5TCq1    O2   67   4.168   2.984  12.246  0.6358 -0.1820 -1.1863
    5TCq1    C2   68   4.142   3.043  12.021 -0.4343 -0.2924 -0.7252
    5TCq1    C3   69   4.007   3.054  12.039 -0.1724 -0.7174  0.8064
    5TCq1    C4   70   3.930   3.045  11.926 -0.1282  0.8372  0.1318
    5TCq1    C5   71   3.988   3.043  11.802 -0.0090 -0.3939 -0.6443
    5TCq1    C6   72   4.126   3.034  11.789  0.4478 -0.0392 -0.0845
    5TCq1    C7   73   4.207   3.030  11.899 -0.4717  0.5809  0.1859
    5TCq1    C8   74   4.186   3.041  11.657  0.1300 -0.3356  0.1223
    5TCq1    O4   75   4.300   3.004  11.652  0.3771 -0.2993 -0.9412
    5TCq1    C9   76   3.791   3.038  11.945 -0.2581  0.0234 -0.6532
    5TCq1    O5   77   3.756   3.034  12.065  0.2329  0.3374 -0.4478
    5TCq1    O6   78   3.728   2.988  11.847 -0.1564 -0.1586 -0.1660
    5TCq1    H1   79   4.374   3.087  12.047  0.9780 -0.6897 -0.2450
    5TCq1    H2   80   3.957   3.071  12.134 -1.7755  0.9821 -0.3709
    5TCq1    H3   81   3.926   3.050  11.713  1.6621  5.1066 -1.3654
    5TCq1    H4   82   4.313   3.024  11.880 -0.5376  1.5574 -0.4727
    6MPD2     C   83   4.073   3.216  11.345 -0.2201  0.5427 -0.1590
    6MPD2    C1   84   4.166   3.151  11.431  0.4866 -0.9700  0.4192
    6MPD2    C2   85   4.294   3.124  11.390  0.1126  0.0570 -0.3837
    6MPD2    C3   86   4.330   3.153  11.262 -0.0061 -0.5802  0.2076
    6MPD2    C4   87   4.240   3.217  11.178  0.1688  0.1314 -0.6068
    6MPD2    C5   88   4.116   3.261  11.224 -0.2441  0.3634 -0.3455
    6MPD2     H   89   4.361   3.062  11.449  0.2720  0.3804 -0.2264
    6MPD2    H1   90   4.268   3.248  11.078 -0.1337  1.1294 -0.3863
    6MPD2    H2   91   3.971   3.229  11.379 -0.2287  0.2415 -0.0743
    6MPD2    H3   92   4.050   3.309  11.152  1.1517  1.5935 -0.8185
    6MPD2     N   93   4.468   3.125  11.221  0.0297 -0.1684  0.5786
    6MPD2    H5   94   4.523   3.066  11.283 -1.4062 -2.9943 -0.8264
    6MPD2    N1   95   4.120   3.121  11.563  0.5840 -1.0410  0.3562
    6MPD2    H7   96   4.027   3.147  11.593  0.9274 -1.1000  1.4641
    7TCq1    O1   97   1.755   2.833  12.697  0.2869  0.3122  0.2127
    7TCq1    C1   98   1.879   2.897  12.712 -0.8688 -0.3058  0.1943
    7TCq1    O2   99   1.904   3.014  12.684 -0.4273 -0.0811 -0.3101
    7TCq1    C2  100   1.958   2.792  12.660 -0.4048 -0.1871 -0.4024
    7TCq1    C3  101   1.939   2.745  12.535  0.1504 -0.3564  0.1129
    7TCq1    C4  102   1.986   2.624  12.499 -0.0950  0.5257 -1.1954
    7TCq1    C5  103   2.034   2.539  12.592  0.5576  0.0729 -0.1066
    7TCq1    C6  104   2.035   2.583  12.721  0.2295  1.0843  0.7040
    7TCq1    C7  105   1.996   2.709  12.764  0.3488 -0.0423 -0.6682
    7TCq1    C8  106   2.123   2.510  12.811 -0.2434  0.2326 -0.3287
    7TCq1    O4  107   2.154   2.395  12.782  0.2211 -0.1081  0.1293
    7TCq1    C9  108   1.989   2.582  12.358  0.3265  0.0356 -0.2546
    7TCq1    O5  109   1.957   2.460  12.332 -0.0103 -0.0512  0.6192
    7TCq1    O6  110   2.002   2.667  12.267  0.0498  0.0033  0.1995
    7TCq1    H1  111   1.762   2.736  12.706 -1.7602 -0.0975 -2.6097
    7TCq1    H2  112   1.900   2.808  12.456 -1.5158 -2.6836 -0.9401
    7TCq1    H3  113   2.064   2.438  12.570 -0.2813 -0.1169 -0.4002
    7TCq1    H4  114   1.974   2.733  12.867 -2.2594  0.1061 -1.2550
    8MPD2     C  115   2.324   2.495  13.273 -0.1648 -0.4904 -0.2791
    8MPD2    C1  116   2.328   2.400  13.176 -0.1766 -0.4903  0.0607
    8MPD2    C2  117   2.279   2.433  13.050 -0.6109  0.5138  0.0856
    8MPD2    C3  118   2.226   2.560  13.028  0.0203  0.3501  0.2718
    8MPD2    C4  119   2.235   2.655  13.126  0.1830 -0.7099 -0.4278
    8MPD2    C5  120   2.278   2.627  13.252 -0.2383 -0.0731  0.7868
    8MPD2     H  121   2.276   2.355  12.975 -1.6037 -1.2135  1.9333
    8MPD2    H1  122   2.203   2.758  13.112 -1.5550 -1.1682  0.0871
    8MPD2    H2  123   2.353   2.470  13.374 -0.3659  0.2945 -0.0334
    8MPD2    H3  124   2.301   2.709  13.319  0.7628  0.2779  0.0089
    8MPD2     N  125   2.164   2.598  12.911 -0.8472 -0.1873 -0.3711
    8MPD2    H5  126   2.129   2.693  12.909  0.8207  0.4362 -0.2097
    8MPD2    N1  127   2.354   2.260  13.200  0.1109 -0.7065 -0.0323
    8MPD2    H7  128   2.339   2.189  13.130  0.5654  1.0858 -1.9539
    9TCq1    O1  129   4.299   1.644  11.408  0.2323  0.6041 -0.0101
    9TCq1    C1  130   4.230   1.582  11.511 -0.6240  0.0963  0.2309
    9TCq1    O2  131   4.208   1.619  11.625 -0.7110  0.8385  0.2558
    9TCq1    C2  132   4.235   1.445  11.478  0.2156 -0.1903 -0.1635
    9TCq1    C3  133   4.356   1.393  11.439  0.1874  0.5017 -0.7257
    9TCq1    C4  134   4.374   1.260  11.473  0.0200  0.2951  0.1228
    9TCq1    C5  135   4.285   1.182  11.542  0.9722 -0.0567 -0.0602
    9TCq1    C6  136   4.166   1.238  11.575  0.7851 -0.2399 -0.0881
    9TCq1    C7  137   4.140   1.362  11.541  0.3909 -0.1012  0.1928
    9TCq1    C8  138   4.065   1.161  11.652 -0.9117 -0.2311  0.0980
    9TCq1    O4  139   3.962   1.220  11.686  0.5121 -0.4803 -0.1815
    9TCq1    C9  140   4.504   1.202  11.449 -0.1010 -0.0548 -0.7118
    9TCq1    O5  141   4.572   1.263  11.363  0.7347 -0.3486  0.0517
    9TCq1    O6  142   4.532   1.083  11.483  0.0320 -0.3095  0.1115
    9TCq1    H1  143   4.291   1.604  11.319 -1.1093 -0.8568  0.7634
    9TCq1    H2  144   4.439   1.456  11.406  1.5002  0.5045  2.6072
    9TCq1    H3  145   4.321   1.082  11.561 -0.2994 -0.8401 -1.7062
    9TCq1    H4  146   4.046   1.409  11.565  0.2543 -1.6241  2.6850
   10MPD2     C  147   3.887   0.962  11.790 -0.9560 -0.2509 -0.0115
   10MPD2    C1  148   4.012   0.933  11.735  0.4159 -0.6712  0.9107
   10MPD2    C2  149   4.066   0.807  11.732  0.2140  0.0771  0.6342
   10MPD2    C3  150   3.999   0.699  11.784 -0.3840 -0.1549  0.0316
   10MPD2    C4  151   3.872   0.723  11.843  0.3414 -0.3435  0.2307
   10MPD2    C5  152   3.819   0.853  11.844 -0.4086 -0.2801 -0.4990
   10MPD2     H  153   4.166   0.793  11.691 -0.6986 -0.0305 -1.4924
   10MPD2    H1  154   3.818   0.636  11.879 -1.4382  1.0427  0.9285
   10MPD2    H2  155   3.829   1.054  11.784 -1.8047 -0.8062 -0.3799
   10MPD2    H3  156   3.726   0.869  11.899  0.1843 -2.5483  1.1343
   10MPD2     N  157   4.048   0.567  11.776 -0.5205  0.4318 -0.4103
   10MPD2    H5  158   3.997   0.495  11.826  1.5981 -1.0400 -0.3859
   10MPD2    N1  159   4.101   1.029  11.674 -0.0382 -0.3274 -0.3151
   10MPD2    H7  160   4.188   0.995  11.635  0.5608 -1.6070  2.1066
   11TCq1    O1  161   0.762   0.882  13.298 -0.6260 -0.2529  0.1357
   11TCq1    C1  162   0.883   0.948  13.309 -0.4915  0.0789  0.1301
   11TCq1    O2  163   0.982   0.911  13.245 -0.4193  0.6012 -0.2547
   11TCq1    C2  164   0.903   0.969  13.453  1.1028  0.0282  0.1678
   11TCq1    C3  165   1.031   0.992  13.486 -0.2205  0.7090 -0.4651
   11TCq1    C4  166   1.075   0.954  13.613  0.0815 -0.7698 -0.2899
   11TCq1    C5  167   0.991   0.901  13.704  0.7459 -0.1418 -0.0654
   11TCq1    C6  168   0.862   0.882  13.667  0.5213 -0.6813  0.2260
   11TCq1    C7  169   0.814   0.925  13.546 -0.3195  0.2762 -0.3503
   11TCq1    C8  170   0.774   0.839  13.771 -0.3485 -0.3106  0.1265
   11TCq1    O4  171   0.816   0.866  13.881 -0.2517 -0.3242 -0.6212
   11TCq1    C9  172   1.208   0.998  13.648  0.0190 -0.0951 -0.5455
   11TCq1    O5  173   1.292   1.023  13.558  0.5668 -0.0594 -0.5638
   11TCq1    O6  174   1.239   0.978  13.772 -0.6046  0.2928  0.0353
   11TCq1    H1  175   0.688   0.931  13.341  0.5755  1.3434  0.3723
   11TCq1    H2  176   1.099   1.052  13.427  2.2569 -0.9399  0.7361
   11TCq1    H3  177   1.033   0.871  13.799 -0.7107 -0.0704  0.5877
   11TCq1    H4  178   0.708   0.929  13.526 -0.5493  1.2955  1.0934
   12MPD2     C  179   0.536   0.770  13.946 -0.7646  0.3127 -0.8869
   12MPD2    C1  180   0.551   0.739  13.811 -0.3304  0.0646  0.8374
   12MPD2    C2  181   0.452   0.667  13.752 -0.1549  0.2279  0.5636
   12MPD2    C3  182   0.348   0.613  13.816 -0.3149  0.7558 -0.2626
   12MPD2    C4  183   0.342   0.642  13.949 -0.2697  0.3917  0.1351
   12MPD2    C5  184   0.426   0.722  14.013 -0.5421 -0.1335  0.4606
   12MPD2     H  185   0.462   0.644  13.647 -2.0471  0.2093  0.3919
   12MPD2    H1  186   0.262   0.599  14.009 -0.2413  0.8259  0.4805
   12MPD2    H2  187   0.612   0.831  13.994  0.5813 -1.6807 -0.4849
   12MPD2    H3  188   0.418   0.750  14.118 -0.9652  2.0169 -0.1511
   12MPD2     N  189   0.255   0.523  13.764 -0.2904 -0.0425 -0.3512
   12MPD2    H5  190   0.190   0.484  13.832 -0.6963 -1.2001 -1.3892
   12MPD2    N1  191   0.657   0.782  13.732 -0.4849  0.3506 -0.0745
   12MPD2    H7  192   0.648   0.776  13.631  0.0982  0.3444 -0.1260
   13TCq1    O1  193   4.603   0.349  10.182 -0.1953  0.0558 -0.5540
   13TCq1    C1  194   4.479   0.319  10.221 -0.2081  0.1443 -0.6515
   13TCq1    O2  195   4.417   0.227  10.169 -0.1514 -0.4511 -0.0312
   13TCq1    C2  196   4.473   0.342  10.359 -0.2245 -0.5160  0.1440
   13TCq1    C3  197   4.436   0.242  10.439  0.0533 -0.4900  0.3416
   13TCq1    C4  198   4.439   0.265  10.573 -0.8216  0.2766  0.5630
   13TCq1    C5  199   4.472   0.384  10.629 -0.3786 -0.2596 -0.3399
   13TCq1    C6  200   4.522   0.477  10.547 -0.1127 -0.8533  0.1420
   13TCq1    C7  201   4.514   0.460  10.413  0.0267 -0.5336  0.2728
   13TCq1    C8  202   4.547   0.617  10.589 -1.0952 -0.1592  0.0657
   13TCq1    O4  203   4.505   0.638  10.705  0.1771 -0.0867 -0.0449
   13TCq1    C9  204   4.382   0.163  10.649 -0.2176 -0.0048 -0.1288
   13TCq1    O5  205   4.338   0.059  10.600 -0.4115  0.0150  0.6042
   13TCq1    O6  206   4.347   0.202  10.764 -0.5554  0.4356 -0.2284
   13TCq1    H1  207   4.652   0.425  10.219 -0.1893  0.4755 -1.4123
   13TCq1    H2  208   4.407   0.144  10.400 -0.1330 -0.8547  1.4127
   13TCq1    H3  209   4.466   0.394  10.737 -0.7954 -0.2663 -0.3624
   13TCq1    H4  210   4.527   0.544  10.345  0.4374 -1.1850 -0.4612
   14MPD2     C  211   4.683   0.911  10.395  0.6128  0.4759 -0.0945
   14MPD2    C1  212   4.620   0.843  10.500 -0.2661 -0.0269 -0.9753
   14MPD2    C2  213   4.572   0.914  10.603  0.6716 -0.0944  0.4105
   14MPD2    C3  214   4.595   1.050  10.605 -0.5213  0.0441  0.4070
   14MPD2    C4  215   4.663   1.108  10.505 -0.0994  0.2147  0.4010
   14MPD2    C5  216   4.707   1.045  10.397 -0.3011  0.3660 -0.4138
   14MPD2     H  217   4.534   0.863  10.691 -3.3482  1.0890 -0.6732
   14MPD2    H1  218   4.689   1.213  10.506  0.2002  0.1668 -2.1763
   14MPD2    H2  219   4.716   0.856  10.308 -0.5182  0.4066 -0.4797
   14MPD2    H3  220   0.033   1.099  10.318  0.5702  1.8411  1.1407
   14MPD2     N  221   4.552   1.104  10.724 -0.3543  0.2463  0.0170
   14MPD2    H5  222   4.513   1.036  10.788 -1.7513  0.1227 -0.9634
   14MPD2    N1  223   4.606   0.702  10.495 -0.3768  0.4350 -0.6021
   14MPD2    H7  224   4.659   0.650  10.425  0.0939  0.2796 -0.1407
   15TCq1    O1  225   1.457   4.496   2.893 -0.4036 -0.4175  0.1183
   15TCq1    C1  226   1.489   4.394   2.805  0.6812  0.0103 -0.6093
   15TCq1    O2  227   1.586   4.315   2.813 -0.4947 -0.1313 -0.0582
   15TCq1    C2  228   1.389   4.382   2.702 -0.1636  0.7050 -0.4499
   15TCq1    C3  229   1.267   4.448   2.714  0.0485  0.1009 -0.8088
   15TCq1    C4  230   1.177   4.432   2.616  0.2691 -1.0184  0.2380
   15TCq1    C5  231   1.206   4.365   2.498 -0.3431  0.4541 -0.7386
   15TCq1    C6  232   1.328   4.298   2.490  0.5121 -1.1970  0.1748
   15TCq1    C7  233   1.418   4.303   2.594 -0.1188  0.3465 -0.1435
   15TCq1    C8  234   1.367   4.239   2.363 -0.2871  0.2936 -0.1462
   15TCq1    O4  235   1.477   4.174   2.368  0.7813 -0.7555  0.1213
   15TCq1    C9  236   1.060   4.517   2.616  0.0253 -0.1220 -0.3328
   15TCq1    O5  237   1.056   4.597   2.706 -0.3468 -0.6043 -0.2288
   15TCq1    O6  238   0.976   4.502   2.525  0.0415 -0.2121  0.0960
   15TCq1    H1  239   1.397   4.563   2.855  1.1336 -0.5043 -2.4354
   15TCq1    H2  240   1.237   4.494   2.808  1.7699  1.2116 -0.7871
   15TCq1    H3  241   1.140   4.374   2.413  0.6421  1.7542 -1.3671
   15TCq1    H4  242   1.513   4.252   2.593 -0.5837 -0.5242  1.0322
   16MPD2     C  243   1.166   4.249   2.051 -0.3707 -0.1622 -0.2801
   16MPD2    C1  244   1.272   4.216   2.132  0.1478  0.1143  0.2644
   16MPD2    C2  245   1.373   4.130   2.091  0.6243 -0.2462 -0.1987
   16MPD2    C3  246   1.363   4.073   1.970 -0.6298 -0.0032  0.1711
   16MPD2    C4  247   1.255   4.108   1.883  0.8658 -0.0613 -0.4613
   16MPD2    C5  248   1.155   4.189   1.926 -0.0670 -0.2959  0.2989
   16MPD2     H  249   1.462   4.110   2.149  0.3071  1.9332  1.0550
   16MPD2    H1  250   1.238   4.069   1.783 -0.3553 -1.0287  0.1246
   16MPD2    H2  251   1.090   4.317   2.087  2.0430  2.1668  0.4817
   16MPD2    H3  252   1.071   4.198   1.858 -0.1305 -2.2904  0.1172
   16MPD2     N  253   1.468   3.984   1.937 -0.1650 -0.1813  0.1858
   16MPD2    H5  254   1.547   3.966   1.998  0.4162  0.6577 -0.3285
   16MPD2    N1  255   1.272   4.259   2.266  0.3706 -0.5537 -0.0816
   16MPD2    H7  256   1.191   4.318   2.282  0.5518 -1.0472  2.5421
   17TCq1    O1  257   4.135   3.951  11.028  0.2009  0.2245 -0.4896
   17TCq1    C1  258   4.126   4.043  10.926 -0.1330  1.0546 -1.2303
   17TCq1    O2  259   4.025   4.071  10.860 -0.2860  0.1964 -0.0032
   17TCq1    C2  260   4.238   4.136  10.934 -0.3132  0.1442 -0.0664
   17TCq1    C3  261   4.210   4.273  10.936  0.1288  0.3169 -0.0460
   17TCq1    C4  262   4.321   4.346  10.922  1.0639  0.4351  0.1705
   17TCq1    C5  263   4.447   4.295  10.918 -0.3650  0.4821 -0.2221
   17TCq1    C6  264   4.464   4.158  10.919  0.5024  0.3058  0.2633
   17TCq1    C7  265   4.357   4.077  10.932  1.3200 -0.3043  0.1975
   17TCq1    C8  266   4.591   4.096  10.900 -0.3849  0.5979  0.5826
   17TCq1    O4  267   4.605   3.973  10.893  0.3819  0.1648 -0.9669
   17TCq1    C9  268   4.295   4.486  10.910  0.2341  0.3896  0.2912
   17TCq1    O5  269   4.175   4.526  10.926 -0.0880  0.0292  0.5013
   17TCq1    O6  270   4.379   4.562  10.854 -0.0205 -0.0177  0.2740
   17TCq1    H1  271   4.217   3.978  11.074  0.2260 -0.9351  0.1472
   17TCq1    H2  272   4.105   4.301  10.935  0.8001  2.8351  0.2739
   17TCq1    H3  273   4.516   4.376  10.941 -0.9310  0.3286  2.0271
   17TCq1    H4  274   4.371   3.970  10.932  0.8200 -0.3680 -0.1131
   18MPD2     C  275   0.141   4.059  10.800  0.1706 -0.5653  0.0845
   18MPD2    C1  276   0.082   4.181  10.821  0.3937  0.0636 -0.0508
   18MPD2    C2  277   0.148   4.300  10.796  0.3901  0.2261 -0.3659
   18MPD2    C3  278   0.277   4.301  10.751  0.1175  0.1904  0.0466
   18MPD2    C4  279   0.334   4.179  10.728 -0.1425  0.5545  0.6345
   18MPD2    C5  280   0.270   4.056  10.754 -0.7047 -0.3514  0.3189
   18MPD2     H  281   0.095   4.391  10.822 -0.1769 -0.6194  1.4690
   18MPD2    H1  282   0.436   4.172  10.691  0.2310  0.6023  1.6785
   18MPD2    H2  283   0.086   3.968  10.820 -1.7141  0.5413 -0.0048
   18MPD2    H3  284   0.310   3.958  10.732 -0.4245 -0.1834  0.0720
   18MPD2     N  285   0.347   4.424  10.740  0.0365 -0.4570  0.4818
   18MPD2    H5  286   0.297   4.503  10.779  2.2627  2.0350 -1.6896
   18MPD2    N1  287   4.679   4.195  10.872  0.2574  0.2857  0.5674
   18MPD2    H7  288   4.647   4.291  10.880 -1.2714 -0.0701 -1.4298
   19TMC2    C1  289   1.230   0.109  14.020 -0.2130  0.5034  0.1033
   19TMC2    C2  290   1.184   0.121  13.890  0.5529 -0.2652  0.8882
   19TMC2    C3  291   1.070   0.059  13.858  0.1849 -0.8070 -0.0409
   19TMC2    C4  292   1.154   0.047  14.116 -0.0845 -0.1412 -0.6716
   19TMC2    C5  293   1.042   4.708  14.077  0.0663 -0.4149  0.6139
   19TMC2    C6  294   1.002   4.705  13.949  0.2495 -0.1034  0.0525
   19TMC2     C  295   1.343   0.197  14.059  0.4686  0.4412 -0.0435
   19TMC2     O  296   1.370   0.279  13.972  0.0408 -0.7452 -0.3437
   19TMC2     H  297   1.244   0.176  13.819  1.0434 -0.0481  1.4718
   19TMC2    H1  298   1.178   0.053  14.222  3.5669  0.2572 -1.5240
   19TMC2    H2  299   0.913   4.652  13.916 -1.2776  2.0820  0.6284
   19TMC2    C7  300   0.946   4.645  14.170  0.5734 -0.0672 -0.1678
   19TMC2    C8  301   1.001   0.088  13.737  0.5354 -0.4162  0.1328
   19TMC2    O1  302   0.838   4.623  14.120 -0.3112 -0.4771  0.8596
   19TMC2    O2  303   0.891   0.146  13.737  0.2161  0.3594 -0.1318
   19TMC2    O5  304   1.101   0.084  13.638 -1.0610 -0.2141 -0.0499
   19TMC2    H5  305   1.188   0.046  13.663 -0.1362  2.0572  0.0937
   20MPD2     C  306   1.612   0.300  14.139  0.6104  0.1021  0.2848
   20MPD2    C1  307   1.534   0.205  14.205 -0.6357  0.3410 -0.3577
   20MPD2    C2  308   1.588   0.137  14.309  0.0556 -0.0034  0.6178
   20MPD2    C3  309   1.715   0.181  14.360 -1.1841  0.1013 -0.0650
   20MPD2    C4  310   1.783   0.280  14.301  0.8681  0.3392  0.1147
   20MPD2    C5  311   1.732   0.336  14.183 -0.5187  0.6204  0.0492
   20MPD2     H  312   1.530   0.059  14.358  0.4919  0.6544  2.1924
   20MPD2    H1  313   1.880   0.316  14.334  0.6145  1.4495 -0.3669
   20MPD2    H2  314   1.572   0.353  14.053 -1.1548 -0.8533  0.5209
   20MPD2    H3  315   1.789   0.418  14.139 -1.3501  0.2689 -1.6876
   20MPD2     N  316   1.763   0.122  14.481  0.7639  0.1504 -0.1277
   20MPD2    H5  317   1.849   0.164  14.516  0.0204  1.2826  0.3389
   20MPD2    N1  318   1.406   0.166  14.175  0.2249 -0.0362 -0.8848
   20MPD2    H7  319   1.370   0.092  14.234  0.0577  0.2002 -0.6924
   21MPD2     C  320   3.644   0.749  13.832  0.0821 -0.0956 -0.4072
   21MPD2    C1  321   3.740   0.784  13.925  0.2344 -0.0358 -0.5293
   21MPD2    C2  322   3.707   0.777  14.057  0.1899  0.3228 -0.5196
   21MPD2    C3  323   3.576   0.751  14.096 -0.4007  0.6689  0.0744
   21MPD2    C4  324   3.481   0.716  14.005  0.2906  0.0899 -0.4182
   21MPD2    C5  325   3.517   0.716  13.873 -0.0452 -0.1898  0.2948
   21MPD2     H  326   3.789   0.790  14.126 -0.1994  1.9025 -0.3519
   21MPD2    H1  327   3.382   0.681  14.031  0.0562  0.2138 -1.1524
   21MPD2    H2  328   3.669   0.740  13.727 -0.0059 -0.7177 -0.3717
   21MPD2    H3  329   3.440   0.692  13.801 -0.6671  0.8402  0.6192
   21MPD2     N  330   3.556   0.760  14.229 -0.0855  0.0103  0.2636
   21MPD2    H5  331   3.633   0.762  14.296 -1.1872 -0.4088  1.5456
   21MPD2    N1  332   3.871   0.829  13.898 -0.1059  0.2019  0.0034
   21MPD2    H7  333   3.917   0.866  13.982  0.0028  0.3434 -0.1175
   22TCq2    C1  334   3.430   0.781  14.278  0.3981  0.4050  0.3879
   22TCq2    O2  335   3.335   0.814  14.212 -0.1473 -0.3883 -0.6970
   22TCq2    C2  336   3.423   0.756  14.422  0.3177 -0.7880  0.8904
   22TCq2    C3  337   3.520   0.676  14.478  0.1384  0.5549  1.1201
   22TCq2    C4  338   3.524   0.666  14.610  0.5288  0.5120 -0.2440
   22TCq2    C5  339   3.433   0.739  14.689 -0.7163 -0.4999 -0.7979
   22TCq2    C6  340   3.328   0.814  14.630  0.9760  0.2349 -0.0543
   22TCq2    C7  341   3.327   0.827  14.493  0.3556  1.0839  0.7002
   22TCq2    C8  342   3.248   0.894  14.719  0.1255  0.0517 -0.2371
   22TCq2    O4  343   3.276   0.889  14.841  0.5867  0.1995 -0.1792
   22TCq2    C9  344   3.627   0.583  14.669  0.4244 -0.0745 -0.8253
   22TCq2    O5  345   3.694   0.508  14.593  0.9791 -0.7100  0.3038
   22TCq2    O6  346   3.650   0.589  14.791  0.3734 -0.2893 -0.0923
   22TCq2    H2  347   3.590   0.616  14.422 -2.7160 -0.7399 -1.0845
   22TCq2    H3  348   3.445   0.725  14.796 -0.5928  0.4906 -0.6753
   22TCq2    H4  349   3.255   0.886  14.438  1.6592  1.0264 -1.0595
   23MPD2     C  350   0.452   1.355  14.097 -0.6182  0.1445  0.0432
   23MPD2    C1  351   0.409   1.426  14.210  0.0787 -0.1703  0.9713
   23MPD2    C2  352   0.307   1.511  14.198 -0.0790 -0.1515  0.0486
   23MPD2    C3  353   0.236   1.534  14.080 -0.6308 -0.5795 -0.1191
   23MPD2    C4  354   0.273   1.457  13.974  0.1097  0.0955  0.0638
   23MPD2    C5  355   0.378   1.372  13.977  0.1955 -0.0881  0.7908
   23MPD2     H  356   0.279   1.563  14.289  1.2036  1.6407 -0.5660
   23MPD2    H1  357   0.226   1.458  13.877  0.2597  1.2282  0.0096
   23MPD2    H2  358   0.543   1.296  14.094 -0.7650 -0.0899  0.1991
   23MPD2    H3  359   0.398   1.313  13.889 -2.3656  1.2015 -0.6527
   23MPD2     N  360   0.129   1.627  14.066 -0.8947  0.5566  0.1652
   23MPD2    H5  361   0.091   1.646  13.973  0.0188  0.9634 -0.1216
   23MPD2    N1  362   0.456   1.402  14.344 -0.8320  0.0120  0.0187
   23MPD2    H7  363   0.414   1.456  14.420 -2.5495 -1.8544  0.3867
   24TCq2    C1  364   0.097   1.726  14.159  0.4393  0.2492 -0.3585
   24TCq2    O2  365   0.161   1.750  14.261  0.5897  0.0414 -0.1572
   24TCq2    C2  366   4.705   1.812  14.125 -0.4691  0.4148 -0.7061
   24TCq2    C3  367   4.683   1.929  14.199  0.0375 -0.0655  0.5227
   24TCq2    C4  368   4.575   2.005  14.170 -0.3173  0.2453  0.3144
   24TCq2    C5  369   4.495   1.981  14.061 -0.2890  0.5076  0.0493
   24TCq2    C6  370   4.527   1.875  13.984 -0.2235 -0.5049 -0.0474
   24TCq2    C7  371   4.624   1.787  14.015 -0.2319  0.1395 -0.1556
   24TCq2    C8  372   4.432   1.831  13.880  0.4445 -0.0340 -0.3645
   24TCq2    O4  373   4.473   1.753  13.794  0.3343 -0.1656 -0.1740
   24TCq2    C9  374   4.534   2.117  14.252  0.1422  0.0109  0.7829
   24TCq2    O5  375   4.615   2.158  14.340 -0.1354 -0.0958 -0.1229
   24TCq2    O6  376   4.414   2.154  14.243 -0.3458  0.1811  0.0862
   24TCq2    H2  377   0.023   1.946  14.285  0.3077 -0.2635  0.3619
   24TCq2    H3  378   4.423   2.057  14.034  0.6490  1.0518 -0.8906
   24TCq2    H4  379   4.640   1.701  13.952 -0.8870 -0.4269  0.4548
   25TMC2    C1  380   4.006   4.135  11.529  0.3552 -0.0203 -0.3137
   25TMC2    C2  381   4.126   4.182  11.591  0.7425 -0.0587 -0.2267
   25TMC2    C3  382   4.151   4.172  11.721  0.7195  0.0548 -0.2296
   25TMC2    C4  383   3.912   4.075  11.612 -0.1609 -0.0257  0.1022
   25TMC2    C5  384   3.946   4.066  11.748 -0.7266  0.3136  0.4408
   25TMC2    C6  385   4.063   4.112  11.803  0.4306 -0.3478 -0.5482
   25TMC2     C  386   3.988   4.176  11.388 -0.2008  0.3513  0.5828
   25TMC2     O  387   4.072   4.250  11.348 -0.0762  0.1453 -0.4215
   25TMC2     H  388   4.200   4.240  11.537  1.2541 -1.2760 -0.8298
   25TMC2    H1  389   3.821   4.030  11.575 -0.2447 -0.1003  0.4019
   25TMC2    H2  390   4.074   4.102  11.911  0.2297 -1.3115 -0.6238
   25TMC2    C7  391   3.836   4.023  11.832  0.3181 -0.6428  0.1243
   25TMC2    C8  392   4.246   4.262  11.780  0.1692  0.1940  0.4772
   25TMC2    O1  393   3.822   4.093  11.933 -1.0863 -0.6900 -0.2771
   25TMC2    O2  394   4.286   4.364  11.723 -0.4891  0.3345 -0.1919
   25TMC2    O5  395   4.328   4.189  11.851  0.3188  0.1386  0.4895
   25TMC2    H5  396   4.286   4.103  11.872 -1.8951  1.0384 -0.3636
   26MPD2     C  397   3.686   4.277  10.998 -0.0468 -0.5266 -0.2428
   26MPD2    C1  398   3.617   4.184  11.073 -0.9043  0.2496 -0.7111
   26MPD2    C2  399   3.683   4.142  11.184  0.3918 -0.3783  0.3514
   26MPD2    C3  400   3.804   4.194  11.219  0.2189 -0.0672 -1.3140
   26MPD2    C4  401   3.865   4.293  11.146  0.3831 -0.2507 -0.0339
   26MPD2    C5  402   3.805   4.332  11.030  1.1832 -0.0416 -0.9038
   26MPD2     H  403   3.645   4.073  11.259 -0.7012 -0.1899 -0.0286
   26MPD2    H1  404   3.963   4.330  11.172 -0.1181  1.0602 -0.0131
   26MPD2    H2  405   3.637   4.322  10.912  0.7381  0.3441 -0.2405
   26MPD2    H3  406   3.843   4.424  10.987  0.5299  0.5046 -0.3244
   26MPD2     N  407   3.867   4.134  11.332  0.0433  0.2441  0.0379
   26MPD2    H5  408   3.810   4.058  11.369  1.5080 -0.6200  0.4795
   26MPD2    N1  409   3.478   4.165  11.036 -0.2486  0.5018 -0.1099
   26MPD2    H7  410   3.443   4.213  10.954  2.2054  0.8773 -0.9456
   27TMC2    C1  411   3.490   1.793  11.764 -0.2706  0.4245 -0.6275
   27TMC2    C2  412   3.477   1.889  11.666  0.2388 -0.1389  0.4701
   27TMC2    C3  413   3.450   2.021  11.702  0.6141  0.2790 -0.2786
   27TMC2    C4  414   3.469   1.829  11.897  0.2086  0.2323  0.4686
   27TMC2    C5  415   3.408   1.949  11.918 -0.1307  0.5986  0.8372
   27TMC2    C6  416   3.410   2.053  11.828  0.4106  0.8732  0.0223
   27TMC2     C  417   3.398   1.683  11.729 -0.0746 -0.1189  0.7120
   27TMC2     O  418   3.424   1.573  11.782  0.3404  0.3823 -0.1078
   27TMC2     H  419   3.491   1.854  11.564  1.5590 -0.9257  0.9193
   27TMC2    H1  420   3.463   1.754  11.975 -1.8493  2.3662  2.3727
   27TMC2    H2  421   3.383   2.153  11.861 -2.1627  0.4413 -0.7412
   27TMC2    C7  422   3.278   1.939  11.979 -0.1107  0.4409  0.2094
   27TMC2    C8  423   3.337   2.063  11.627 -0.4038  0.2891  0.5157
   27TMC2    O1  424   3.270   1.855  12.066 -0.2632  0.6592  0.1379
   27TMC2    O2  425   3.227   2.006  11.641  0.2814 -0.3452  0.5588
   27TMC2    O5  426   3.399   2.068  11.507 -0.2948  0.1628 -0.2106
   27TMC2    H5  427   3.480   2.124  11.505 -0.5177  0.5016  0.3869
   28MPD2     C  428   2.906   1.515  11.701 -0.6140  0.1897  0.0362
   28MPD2    C1  429   2.912   1.659  11.687 -0.3648  0.1101 -0.1080
   28MPD2    C2  430   3.036   1.725  11.680  0.4156 -0.1270 -0.7299
   28MPD2    C3  431   3.150   1.653  11.696 -0.5220 -0.1210 -0.1802
   28MPD2    C4  432   3.145   1.520  11.718 -0.1951  0.2380 -0.0933
   28MPD2    C5  433   3.025   1.451  11.705  0.3002  1.0761  0.0795
   28MPD2     H  434   3.043   1.831  11.659  0.4000  0.2149  0.9863
   28MPD2    H1  435   3.226   1.453  11.742 -0.5261  0.2906  1.2134
   28MPD2    H2  436   2.811   1.462  11.694  1.0011 -2.6347 -0.5182
   28MPD2    H3  437   3.022   1.343  11.717  1.1946  1.4573  3.6217
   28MPD2     N  438   3.273   1.731  11.693 -0.2013 -0.3489  0.5437
   28MPD2    H5  439   3.258   1.832  11.691 -0.9229 -0.4815 -1.0432
   28MPD2    N1  440   2.789   1.726  11.695  0.0521 -0.1917  0.2365
   28MPD2    H7  441   2.707   1.668  11.707  1.1528 -1.8900 -0.5596
   29MPD2     C  442   1.818   3.638  14.458 -0.6217 -0.2094 -0.3896
   29MPD2    C1  443   1.901   3.608  14.565  0.7537  0.1710  0.1089
   29MPD2    C2  444   1.933   3.706  14.660  0.3194  0.1433 -0.5177
   29MPD2    C3  445   1.882   3.837  14.645  0.2307  0.5109  0.3044
   29MPD2    C4  446   1.806   3.864  14.537  0.2273 -0.5118  0.1721
   29MPD2    C5  447   1.764   3.764  14.453  0.1470 -0.2148 -0.5946
   29MPD2     H  448   2.008   3.683  14.734  0.6108 -0.9224 -1.1547
   29MPD2    H1  449   1.794   3.967  14.505 -1.1122 -0.4493  0.8763
   29MPD2    H2  450   1.793   3.577  14.372 -1.7738 -0.5748  0.2084
   29MPD2    H3  451   1.704   3.780  14.364 -0.0114  1.1565 -0.2508
   29MPD2     N  452   1.921   3.949  14.726 -0.1126  0.4869 -0.3638
   29MPD2    H5  453   1.890   4.039  14.693 -1.5376  0.5743  1.1916
   29MPD2    N1  454   1.970   3.484  14.588  0.2241  0.2978 -0.4078
   29MPD2    H7  455   2.032   3.473  14.667 -1.8409 -0.6145  1.0951
   30TCq2    C1  456   1.983   3.938  14.845  0.3182 -0.6571  0.4177
   30TCq2    O2  457   2.030   3.837  14.902  0.2735  0.5147 -0.0637
   30TCq2    C2  458   2.025   4.066  14.890 -0.7023 -0.6502  0.2010
   30TCq2    C3  459   2.061   4.076  15.024 -0.0394  0.4036 -0.2435
   30TCq2    C4  460   2.120   4.193  15.061  0.2617  1.0844 -0.3890
   30TCq2    C5  461   2.140   4.295  14.973  0.0067  0.2391 -0.0782
   30TCq2    C6  462   2.114   4.272  14.846  0.2899  0.0320  0.4787
   30TCq2    C7  463   2.044   4.163  14.795 -0.0403  0.1217  0.2483
   30TCq2    C8  464   2.129   4.377  14.749  0.3498  0.1038 -0.1942
   30TCq2    O4  465   2.038   4.396  14.667  0.6912  0.0196 -0.6418
   30TCq2    C9  466   2.147   4.215  15.196  0.4800 -0.1590  0.0821
   30TCq2    O5  467   2.195   4.321  15.247 -0.1563  0.0523 -0.5799
   30TCq2    O6  468   2.163   4.112  15.267 -0.4590  0.3044 -0.2291
   30TCq2    H2  469   2.046   3.988  15.085 -0.9466  1.0930  0.5344
   30TCq2    H3  470   2.197   4.379  15.012 -1.0213  1.2854 -0.8058
   30TCq2    H4  471   2.048   4.143  14.688  1.7761  0.5799  0.2308
   31MPD2     C  472   0.068   2.565  15.029 -0.7612  0.4822  0.7679
   31MPD2    C1  473   4.678   2.645  15.022  0.0979  0.2519 -0.3239
   31MPD2    C2  474   4.595   2.631  15.132 -0.0823 -0.3767  0.1502
   31MPD2    C3  475   4.621   2.542  15.244 -0.5092  0.2888 -0.9711
   31MPD2    C4  476   0.012   2.466  15.240  0.2745  0.5526  0.7613
   31MPD2    C5  477   0.100   2.483  15.132 -0.1637  0.5324 -0.0260
   31MPD2     H  478   4.503   2.687  15.137  0.5758  0.9502 -2.4620
   31MPD2    H1  479   0.044   2.406  15.324  0.4703  1.3166  1.2356
   31MPD2    H2  480   0.153   2.572  14.963 -0.1938 -1.2964  1.2946
   31MPD2    H3  481   0.200   2.442  15.139 -0.1696  0.6073  0.4952
   31MPD2     N  482   4.545   2.516  15.362  0.1583 -0.0309 -0.7354
   31MPD2    H5  483   4.585   2.446  15.425  2.7537  0.8899 -1.3913
   31MPD2    N1  484   4.660   2.737  14.913  0.0171 -0.2806 -0.6384
   31MPD2    H7  485   0.013   2.743  14.847 -0.0586 -1.5103 -0.8307
   32TCq2    C1  486   4.423   2.578  15.390  0.1252 -0.1832  0.6509
   32TCq2    O2  487   4.353   2.646  15.316  0.3249 -0.4550 -0.6683
   32TCq2    C2  488   4.368   2.542  15.521 -0.5264  0.2216  0.0781
   32TCq2    C3  489   4.253   2.606  15.554 -0.1319  0.0063 -0.4649
   32TCq2    C4  490   4.211   2.606  15.688 -0.3261 -0.0001  0.2397
   32TCq2    C5  491   4.290   2.564  15.791 -0.1027  0.0276 -0.1736
   32TCq2    C6  492   4.411   2.509  15.755 -0.4407  0.4455 -0.1717
   32TCq2    C7  493   4.444   2.492  15.622  0.7595  1.0061 -0.7774
   32TCq2    C8  494   4.506   2.492  15.868 -0.3513 -0.2833 -0.2485
   32TCq2    O4  495   4.572   2.390  15.869 -0.9336  0.2949 -0.4319
   32TCq2    C9  496   4.081   2.663  15.719  0.6671 -0.0528 -0.7087
   32TCq2    O5  497   4.040   2.753  15.640  0.1793  0.3231 -0.0539
   32TCq2    O6  498   4.050   2.658  15.837  0.4172  0.9010  0.4841
   32TCq2    H2  499   4.176   2.636  15.484 -2.8652 -3.6288  1.0213
   32TCq2    H3  500   4.263   2.565  15.896  0.4816  1.1141 -0.0349
   32TCq2    H4  501   4.541   2.448  15.598  0.7979  1.5397 -1.6243
   33MPD2     C  502   0.064   0.207  10.885 -0.1384  0.4220 -0.2647
   33MPD2    C1  503   0.165   0.264  10.811 -0.0231  0.2686  0.2115
   33MPD2    C2  504   0.170   0.397  10.797  0.1547 -0.0208  0.1020
   33MPD2    C3  505   0.074   0.477  10.862  0.0447 -0.2221 -0.1872
   33MPD2    C4  506   4.704   0.417  10.943 -0.3133  0.2714 -0.9570
   33MPD2    C5  507   4.690   0.281  10.939 -0.2176 -0.0096 -0.0082
   33MPD2     H  508   0.256   0.445  10.751  0.0125 -1.2756 -1.5011
   33MPD2    H1  509   4.648   0.479  11.011  0.7582  0.8738 -0.6389
   33MPD2    H2  510   0.052   0.100  10.894  2.7623  0.0640 -0.7445
   33MPD2    H3  511   4.615   0.227  10.995 -0.8814 -0.0661 -0.9576
   33MPD2     N  512   0.064   0.613  10.852  0.0046  0.2438 -0.2098
   33MPD2    H5  513   0.007   0.665  10.918 -0.3966 -0.0212 -0.3468
   33MPD2    N1  514   0.252   0.173  10.752  0.2316 -0.7578 -0.6338
   33MPD2    H7  515   0.220   0.077  10.756  0.1761 -0.7072  0.2529
   34TCq2    C1  516   0.139   0.699  10.775 -0.2708  0.7596  0.0141
   34TCq2    O2  517   0.192   0.674  10.664  0.1567  0.2575 -0.2328
   34TCq2    C2  518   0.123   0.840  10.822  0.5345  0.1261  0.8439
   34TCq2    C3  519   0.093   0.868  10.956 -0.2088 -0.0382  0.1678
   34TCq2    C4  520   0.109   0.996  10.995  0.1167 -0.2933 -0.4490
   34TCq2    C5  521   0.144   1.109  10.921  0.0899  0.6412  0.1485
   34TCq2    C6  522   0.189   1.066  10.794 -0.3812  0.1282  0.3097
   34TCq2    C7  523   0.182   0.941  10.745  0.1195 -0.0212  0.0945
   34TCq2    C8  524   0.223   1.168  10.694  0.4077  0.7411  0.2795
   34TCq2    O4  525   0.277   1.137  10.588 -0.0895  0.0408 -0.6945
   34TCq2    C9  526   0.092   1.022  11.137 -0.3334  0.1298 -1.2117
   34TCq2    O5  527   0.015   0.941  11.198  0.6369  0.3115  0.0716
   34TCq2    O6  528   0.122   1.140  11.182 -0.2902 -0.0183 -0.5153
   34TCq2    H2  529   0.049   0.795  11.023 -2.3291  0.8637 -0.2645
   34TCq2    H3  530   0.164   1.206  10.966 -0.2678  0.5923  0.4125
   34TCq2    H4  531   0.210   0.914  10.644 -0.8603  1.8443 -0.6588
   35MPD2     C  532   2.183   1.640  11.513  0.4336  0.1723  0.4706
   35MPD2    C1  533   2.127   1.553  11.601  0.4036  0.0096  0.0884
   35MPD2    C2  534   1.993   1.541  11.601  0.5051 -0.2681  0.8068
   35MPD2    C3  535   1.912   1.628  11.531 -0.4465 -0.5277 -0.2825
   35MPD2    C4  536   1.970   1.728  11.450  0.0009  0.4798 -0.8833
   35MPD2    C5  537   2.109   1.732  11.441  0.1095 -0.1590 -0.6248
   35MPD2     H  538   1.952   1.470  11.671  1.5359 -1.6137  0.0382
   35MPD2    H1  539   1.919   1.808  11.399  0.8391  0.3571 -1.9163
   35MPD2    H2  540   2.289   1.645  11.491  0.2092  0.6701 -0.4824
   35MPD2    H3  541   2.151   1.812  11.382 -0.1252 -0.1487 -0.7788
   35MPD2     N  542   1.773   1.618  11.555  0.7278  0.2604 -0.4760
   35MPD2    H5  543   1.744   1.572  11.640  0.9693 -0.0868 -0.5800
   35MPD2    N1  544   2.224   1.483  11.675 -0.1872 -0.3522 -0.3022
   35MPD2    H7  545   2.321   1.489  11.646  0.3558  0.8809  1.7462
   36TCq2    C1  546   1.690   1.696  11.476  0.1673  0.3663 -0.1992
   36TCq2    O2  547   1.708   1.734  11.361 -0.0592  0.3179  0.1346
   36TCq2    C2  548   1.568   1.739  11.543 -0.4732  1.0651 -0.8221
   36TCq2    C3  549   1.507   1.855  11.505 -0.2858 -0.0392 -0.4933
   36TCq2    C4  550   1.371   1.873  11.528  0.2552  0.1209 -0.7951
   36TCq2    C5  551   1.301   1.769  11.586 -0.1776  0.0737 -0.5818
   36TCq2    C6  552   1.369   1.658  11.631  0.2198 -0.4695 -0.4773
   36TCq2    C7  553   1.503   1.643  11.608 -0.7234  0.3190 -0.0445
   36TCq2    C8  554   1.302   1.556  11.714  0.6991  0.1542 -0.0588
   36TCq2    O4  555   1.180   1.543  11.703  0.3131 -0.0660  0.4984
   36TCq2    C9  556   1.322   2.002  11.494 -0.1151 -0.5027 -0.4498
   36TCq2    O5  557   1.407   2.094  11.483 -0.2174 -0.2066  0.1289
   36TCq2    O6  558   1.198   2.018  11.492 -0.0762 -0.0342 -0.3422
   36TCq2    H2  559   1.561   1.936  11.458 -3.0055  1.8384 -0.4071
   36TCq2    H3  560   1.202   1.802  11.616  0.3098  0.5700  0.5017
   36TCq2    H4  561   1.550   1.547  11.622 -0.5812  0.6208  1.5519
   37TMC2    C1  562   4.355   2.045  11.482 -0.7761  0.5260 -0.1929
   37TMC2    C2  563   4.403   1.943  11.411 -0.5719 -0.1418  0.2122
   37TMC2    C3  564   4.537   1.911  11.444 -0.1327 -0.6759  0.8137
   37TMC2    C4  565   4.423   2.100  11.588 -0.4519  0.2711  0.0505
   37TMC2    C5  566   4.537   2.044  11.629 -0.2522  0.1318 -0.3947
   37TMC2    C6  567   4.605   1.954  11.549  0.4880 -0.4433  0.2616
   37TMC2     C  568   4.219   2.043  11.507  0.1341 -0.3536  0.0307
   37TMC2     O  569   4.141   2.022  11.414 -0.0514 -0.2621  0.1237
   37TMC2     H  570   4.338   1.888  11.344  0.0755 -0.3169 -0.2800
   37TMC2    H1  571   4.381   2.192  11.629  1.3282  0.5541  1.2180
   37TMC2    H2  572   4.704   1.916  11.572 -0.1681 -0.8345  2.4701
   37TMC2    C7  573   4.597   2.104  11.735  0.2794 -0.3191  0.1725
   37TMC2    C8  574   4.600   1.807  11.373  0.1297 -0.5215 -0.1068
   37TMC2    O1  575   4.523   2.182  11.792  0.0082 -0.1034  0.4261
   37TMC2    O2  576   4.681   1.734  11.430  0.4662  0.0322 -0.7112
   37TMC2    O5  577   4.559   1.808  11.247  0.1890  0.6013  0.0942
   37TMC2    H5  578   4.522   1.895  11.222 -0.1828  0.0627 -1.2620
   38MPD2     C  579   3.832   1.973  11.839  0.1821  0.2418  0.1141
   38MPD2    C1  580   3.951   1.941  11.900  0.2373 -0.1822 -0.3006
   38MPD2    C2  581   4.068   1.960  11.828  0.7774  0.3779  0.2821
   38MPD2    C3  582   4.066   2.010  11.702 -0.9695 -0.3693  0.2472
   38MPD2    C4  583   3.943   2.021  11.644  0.0954  0.3443  0.5185
   38MPD2    C5  584   3.829   1.997  11.709  0.1738 -0.9875  0.5694
   38MPD2     H  585   4.161   1.943  11.881  0.7851 -0.0469  0.1287
   38MPD2    H1  586   3.931   2.059  11.544  0.6679 -0.6953  0.0604
   38MPD2    H2  587   3.736   1.962  11.888  1.0325  0.3968  1.7990
   38MPD2    H3  588   3.733   2.015  11.663  0.3740  0.1848  0.6054
   38MPD2     N  589   4.194   2.027  11.642 -0.5491  0.5142 -0.3003
   38MPD2    H5  590   4.270   2.031  11.709 -1.1586 -3.0977  0.6435
   38MPD2    N1  591   3.976   1.894  12.029 -0.4511 -0.3482  0.3515
   38MPD2    H7  592   4.072   1.873  12.057 -1.2769 -3.6519  0.7359
   39MPD2     C  593   1.812   3.311   2.033 -0.0692  0.3528 -0.5233
   39MPD2    C1  594   1.773   3.428   2.083  0.1411 -0.1998  0.0623
   39MPD2    C2  595   1.648   3.474   2.059  0.5079 -0.0851  0.0201
   39MPD2    C3  596   1.559   3.405   1.979  0.0863  0.4220 -0.1622
   39MPD2    C4  597   1.607   3.296   1.911  0.1369 -0.1172  0.1206
   39MPD2    C5  598   1.729   3.247   1.948  0.9344  0.3055 -0.2443
   39MPD2     H  599   1.618   3.562   2.115 -1.4092  0.5521 -2.0179
   39MPD2    H1  600   1.541   3.241   1.845  2.4159 -1.2999 -1.1880
   39MPD2    H2  601   1.912   3.273   2.051 -1.1486 -1.3360  1.8859
   39MPD2    H3  602   1.766   3.157   1.900  0.1651 -0.9623  1.5589
   39MPD2     N  603   1.436   3.461   1.942  0.1955  0.2692  0.7056
   39MPD2    H5  604   1.383   3.401   1.880 -1.0720  1.4678  0.6197
   39MPD2    N1  605   1.857   3.503   2.165  0.0967 -0.4379  0.4883
   39MPD2    H7  606   1.946   3.459   2.188  0.8786  0.9206  0.0520
   40TCq2    C1  607   1.842   3.634   2.201 -0.1470 -0.1254 -0.9877
   40TCq2    O2  608   1.763   3.716   2.168 -0.5699 -0.7586  0.2328
   40TCq2    C2  609   1.920   3.653   2.317 -0.0172  0.2087  0.3804
   40TCq2    C3  610   1.919   3.565   2.419 -0.2785 -0.4746 -0.1971
   40TCq2    C4  611   1.932   3.619   2.547 -0.3023 -0.2674 -0.4046
   40TCq2    C5  612   1.972   3.747   2.568 -0.4761  0.4641  0.4700
   40TCq2    C6  613   1.995   3.827   2.462 -0.7823 -0.4283  0.3230
   40TCq2    C7  614   1.964   3.781   2.335 -0.4781  0.1932 -0.0342
   40TCq2    C8  615   2.074   3.949   2.475  0.3630  0.2895 -0.7211
   40TCq2    O4  616   2.104   4.001   2.366  0.3314  0.1782 -0.4689
   40TCq2    C9  617   1.925   3.520   2.662 -0.5927  0.0525  1.4978
   40TCq2    O5  618   1.925   3.396   2.637 -0.1060  0.4021  0.2612
   40TCq2    O6  619   1.965   3.562   2.771  0.1868  0.1486  0.3103
   40TCq2    H2  620   1.886   3.462   2.413 -2.8692  0.4119 -1.0451
   40TCq2    H3  621   1.963   3.785   2.669  2.8996  0.1547  0.8912
   40TCq2    H4  622   1.975   3.843   2.247  1.3951  0.3388  0.3056
   41TMC2    C1  623   0.532   1.718  13.960 -0.8847  0.7299  0.0952
   41TMC2    C2  624   0.487   1.818  14.045  0.3530 -0.0128 -0.4586
   41TMC2    C3  625   0.383   1.899  13.997 -0.1106 -0.4249  0.4780
   41TMC2    C4  626   0.489   1.697  13.833  1.2988 -0.5659 -0.3081
   41TMC2    C5  627   0.390   1.787  13.792  0.0428  0.5337 -0.4622
   41TMC2    C6  628   0.334   1.888  13.869  0.1426 -0.2103 -0.6000
   41TMC2     C  629   0.647   1.647  13.998  0.5799 -0.2790  0.1449
   41TMC2     O  630   0.707   1.599  13.906  0.1845  0.4271  0.6244
   41TMC2     H  631   0.510   1.816  14.151 -1.9822  0.8264  0.0528
   41TMC2    H1  632   0.517   1.608  13.778  1.9310  0.4824 -1.6797
   41TMC2    H2  633   0.261   1.956  13.825  0.5403  0.4024 -0.3093
   41TMC2    C7  634   0.359   1.797  13.651 -0.0891 -0.0045  0.4157
   41TMC2    C8  635   0.351   2.022  14.054  0.0752 -0.1044 -0.2751
   41TMC2    O1  636   0.240   1.805  13.624  0.1443 -0.4829  0.1058
   41TMC2    O2  637   0.258   2.096  14.020  0.0172 -0.1642  0.2226
   41TMC2    O5  638   0.481   2.067  14.074 -0.1916  0.3376 -0.3219
   41TMC2    H5  639   0.546   1.997  14.096  1.2547  1.0492 -2.3551
   42MPD2     C  640   0.812   1.437  14.119  0.7972 -1.4107 -0.1489
   42MPD2    C1  641   0.775   1.551  14.188  0.2624  0.1013 -0.5063
   42MPD2    C2  642   0.813   1.571  14.316 -0.3359  0.2017  0.1586
   42MPD2    C3  643   0.884   1.474  14.386 -0.8118  0.1566  0.4247
   42MPD2    C4  644   0.920   1.361  14.319  0.1842  0.3161 -0.2408
   42MPD2    C5  645   0.886   1.350  14.189  0.2424  0.0718  0.5075
   42MPD2     H  646   0.776   1.658  14.370  1.4993  1.2453 -0.2652
   42MPD2    H1  647   0.984   1.283  14.361 -0.0171  0.5739  0.5476
   42MPD2    H2  648   0.769   1.405  14.025  1.5573 -2.7755 -0.0380
   42MPD2    H3  649   0.910   1.256  14.141  1.5619  1.2384 -1.1229
   42MPD2     N  650   0.930   1.490  14.520  0.2686  0.2879  0.4044
   42MPD2    H5  651   0.978   1.408  14.556  0.4089  0.8088  1.4284
   42MPD2    N1  652   0.679   1.639  14.128 -0.0747 -0.4937  0.5897
   42MPD2    H7  653   0.624   1.691  14.195  2.8938  0.8864  1.9876
   43MPD2     C  654   2.282   4.628   0.961  0.4666  0.4820  0.0814
   43MPD2    C1  655   2.343   4.522   1.030  0.6591  0.4259  0.2924
   43MPD2    C2  656   2.324   4.513   1.168  0.4033 -0.1928  0.0752
   43MPD2    C3  657   2.240   4.593   1.238 -0.5720  0.1615  0.4389
   43MPD2    C4  658   2.169   4.684   1.166 -0.1654 -0.8696  0.1081
   43MPD2    C5  659   2.191   4.698   1.034 -0.1871  0.7009 -0.3969
   43MPD2     H  660   2.363   4.423   1.215  0.9574 -0.1074 -0.2130
   43MPD2    H1  661   2.091   0.029   1.198  1.4840  2.0212 -2.0544
   43MPD2    H2  662   2.293   4.656   0.857 -1.8852  1.6981  0.1656
   43MPD2    H3  663   2.133   0.046   0.976  0.1768  0.8370 -0.5990
   43MPD2     N  664   2.214   4.567   1.380  0.0113 -0.2906 -0.1167
   43MPD2    H5  665   2.135   4.619   1.416  1.0884  1.5117 -0.3731
   43MPD2    N1  666   2.420   4.424   0.961  0.8381  0.5384  0.2426
   43MPD2    H7  667   2.444   4.338   1.009  0.8675  0.7423  0.5954
   44TCq2    C1  668   2.293   4.538   1.947  0.1514  0.5967  0.2526
   44TCq2    O2  669   2.403   4.582   1.931  0.0477  0.2524 -0.1036
   44TCq2    C2  670   2.224   4.510   1.821 -0.6720 -0.0456  0.5370
   44TCq2    C3  671   2.091   4.486   1.826 -1.3955  0.2000  0.5537
   44TCq2    C4  672   2.021   4.472   1.712  0.6436  0.1206 -0.2866
   44TCq2    C5  673   2.088   4.485   1.594  0.0318 -0.1690  0.3636
   44TCq2    C6  674   2.223   4.487   1.593 -0.0906 -0.5812  0.2876
   44TCq2    C7  675   2.288   4.511   1.704 -0.1953  0.3377 -0.2775
   44TCq2    C8  676   2.285   4.484   1.461  0.3542  0.1156 -0.0010
   44TCq2    O4  677   2.395   4.436   1.446 -0.2952 -0.3918  0.4986
   44TCq2    C9  678   1.873   4.449   1.709 -0.1229 -0.0115 -0.6596
   44TCq2    O5  679   1.822   4.445   1.597 -0.8443 -0.3739  0.0716
   44TCq2    O6  680   1.810   4.421   1.818  0.6294  0.0556 -0.1998
   44TCq2    H2  681   2.036   4.474   1.919  0.2067  1.0483  1.6233
   44TCq2    H3  682   2.033   4.467   1.502 -0.7011 -0.5153  0.8758
   44TCq2    H4  683   2.396   4.513   1.704 -0.1636 -1.5496  1.3221
   45TMC2    C1  684   2.473   2.990   9.194 -0.0723  0.6078 -0.8705
   45TMC2    C2  685   2.372   2.964   9.100  0.5362  1.1678  0.3652
   45TMC2    C3  686   2.270   3.047   9.081  0.3833  0.3494 -0.2656
   45TMC2    C4  687   2.464   3.104   9.267  0.0632  0.7979 -0.5706
   45TMC2    C5  688   2.362   3.189   9.239 -0.6224  0.1638 -0.0383
   45TMC2    C6  689   2.254   3.159   9.158  0.1606 -0.2272  0.0879
   45TMC2     C  690   2.558   2.886   9.241  0.3814  0.4098 -0.1344
   45TMC2     O  691   2.665   2.917   9.291 -0.2124 -0.3609 -0.0654
   45TMC2     H  692   2.387   2.890   9.022  0.8284  1.3967  0.2006
   45TMC2    H1  693   2.531   3.118   9.351 -0.0757 -1.2238 -0.1350
   45TMC2    H2  694   2.176   3.230   9.132  0.1199 -0.5656 -0.6993
   45TMC2    C7  695   2.347   3.308   9.313  0.0754 -0.4951 -0.6109
   45TMC2    C8  696   2.203   3.033   8.949  0.4819  0.2369 -0.1157
   45TMC2    O1  697   2.236   3.358   9.308 -0.4684 -0.1057  0.2014
   45TMC2    O2  698   2.267   3.031   8.845 -0.3213 -0.3436  0.1709
   45TMC2    O5  699   2.075   3.081   8.968 -0.0974 -0.6419  0.5828
   45TMC2    H5  700   2.041   3.072   9.059 -0.8207  0.0317  0.3799
   46MPD2     C  701   2.698   2.630   9.269  0.2696  0.1689 -0.7099
   46MPD2    C1  702   2.567   2.645   9.230 -0.4017  0.1389  0.5045
   46MPD2    C2  703   2.496   2.527   9.213  0.0996 -0.2896  0.4617
   46MPD2    C3  704   2.549   2.401   9.238 -0.1735  0.4334 -0.2796
   46MPD2    C4  705   2.676   2.392   9.291  0.5509  0.2545 -0.1817
   46MPD2    C5  706   2.752   2.506   9.304  0.2543 -0.4902  0.1115
   46MPD2     H  707   2.394   2.521   9.177  0.3844 -2.2237 -0.0101
   46MPD2    H1  708   2.720   2.300   9.328  2.0740  0.9028 -0.3820
   46MPD2    H2  709   2.765   2.713   9.288 -0.1879  0.3074  0.2821
   46MPD2    H3  710   2.852   2.504   9.347  0.7587 -3.0158 -1.1785
   46MPD2     N  711   2.452   2.297   9.239  0.1950  0.0830 -0.5020
   46MPD2    H5  712   2.353   2.314   9.225  0.1929  1.0259  0.6949
   46MPD2    N1  713   2.500   2.766   9.216 -0.0448  1.4400  0.0191
   46MPD2    H7  714   2.406   2.762   9.179 -0.7634  4.5238  1.4925
   47TMC2    C1  715   4.625   3.112   9.515 -0.5245  0.5709  0.5805
   47TMC2    C2  716   4.556   3.223   9.495  0.6673  0.2289  0.4843
   47TMC2    C3  717   4.436   3.233   9.557  0.2229 -0.0432  0.0860
   47TMC2    C4  718   4.591   3.018   9.611 -0.3129  0.5093  0.1890
   47TMC2    C5  719   4.474   3.044   9.684 -0.4055 -0.4659  0.2295
   47TMC2    C6  720   4.392   3.145   9.650  0.3890 -0.2016  0.7856
   47TMC2     C  721   0.014   3.092   9.417 -0.4485 -0.2446 -0.1984
   47TMC2     O  722   0.038   3.186   9.339 -0.5396 -0.0136 -0.1608
   47TMC2     H  723   4.593   3.294   9.423 -1.0366 -1.0369 -1.6354
   47TMC2    H1  724   4.646   2.929   9.638 -0.3732 -0.2766 -2.3166
   47TMC2    H2  725   4.304   3.176   9.706  0.8371  1.8315  0.3275
   47TMC2    C7  726   4.443   2.940   9.780  0.1041  0.0658  0.2550
   47TMC2    C8  727   4.339   3.336   9.530  0.1663  1.2227  0.0219
   47TMC2    O1  728   4.530   2.865   9.820 -0.3440  0.3368 -0.0125
   47TMC2    O2  729   4.216   3.320   9.536  0.1996  0.7539  0.5087
   47TMC2    O5  730   4.401   3.439   9.473 -0.5683  0.4778 -0.2879
   47TMC2    H5  731   4.499   3.438   9.474 -0.5538  3.9947  1.0439
   48MPD2     C  732   0.268   3.021   9.291 -0.1674  0.0601  0.4416
   48MPD2    C1  733   0.195   2.930   9.359  0.2509  0.2560 -0.7019
   48MPD2    C2  734   0.245   2.797   9.370 -0.0562  0.1690  0.5094
   48MPD2    C3  735   0.355   2.754   9.298 -0.4326  0.6402 -0.4517
   48MPD2    C4  736   0.413   2.848   9.213  0.2426 -0.1878  0.4666
   48MPD2    C5  737   0.383   2.982   9.228  0.3275 -0.9324 -0.5136
   48MPD2     H  738   0.190   2.734   9.439 -2.7176  2.5050  0.5635
   48MPD2    H1  739   0.495   2.827   9.145 -0.8676  0.3066 -1.0436
   48MPD2    H2  740   0.251   3.128   9.284  1.1053  0.2933  0.9559
   48MPD2    H3  741   0.440   3.052   9.167 -2.4981  0.6723 -1.3426
   48MPD2     N  742   0.406   2.626   9.318 -0.2169 -0.4635 -0.6023
   48MPD2    H5  743   0.336   2.573   9.370 -0.7305  2.7363  1.9787
   48MPD2    N1  744   0.075   2.968   9.433  0.1483 -0.6115 -0.2459
   48MPD2    H7  745   0.027   2.896   9.486 -1.7870 -0.0701 -1.2525
   49MPD2     C  746   3.734   4.225  10.267  0.3959  0.0629  0.0703
   49MPD2    C1  747   3.618   4.279  10.326  0.3319 -0.1436 -0.3559
   49MPD2    C2  748   3.622   4.352  10.444  0.4110 -0.5091 -0.0081
   49MPD2    C3  749   3.749   4.374  10.497  0.6562 -0.1390  0.1099
   49MPD2    C4  750   3.862   4.320  10.439  0.3714 -0.0645  0.3633
   49MPD2    C5  751   3.854   4.243  10.326 -0.7886  0.2322  0.5985
   49MPD2     H  752   3.529   4.387  10.486  0.0865 -1.9408  0.4680
   49MPD2    H1  753   3.957   4.341  10.486 -0.7628  0.6367  2.3667
   49MPD2    H2  754   3.743   4.167  10.176 -2.3240 -0.6870  0.2750
   49MPD2    H3  755   3.944   4.212  10.274 -2.4974 -2.3640 -0.8007
   49MPD2     N  756   3.775   4.458  10.605  0.3793  0.0805 -0.2543
   49MPD2    H5  757   3.870   4.470  10.640 -0.0851  1.1819  0.6328
   49MPD2    N1  758   3.490   4.268  10.259 -0.2946 -0.2213 -0.3341
   49MPD2    H7  759   3.407   4.315  10.293 -0.2176  0.0443 -0.5041
   50TCq2    C1  760   3.465   4.225  10.131  0.1646  0.5824  0.0536
   50TCq2    O2  761   3.528   4.151  10.057  0.3530  0.0483  0.0479
   50TCq2    C2  762   3.332   4.268  10.078  0.2641  0.5930 -0.0667
   50TCq2    C3  763   3.279   4.385  10.118  0.1251 -0.3729  0.2750
   50TCq2    C4  764   3.199   4.452  10.032 -1.1695  0.0934  0.6857
   50TCq2    C5  765   3.167   4.396   9.910  0.2284 -0.5876 -0.4906
   50TCq2    C6  766   3.219   4.270   9.880  0.2721  0.8217  0.5372
   50TCq2    C7  767   3.293   4.198   9.967 -0.6724  0.1941  0.3947
   50TCq2    C8  768   3.162   4.203   9.757  0.2231 -0.3528  0.1489
   50TCq2    O4  769   3.114   4.283   9.672 -0.3870 -0.1009  0.8573
   50TCq2    C9  770   3.160   4.583  10.070  0.1697 -0.3329  0.0617
   50TCq2    O5  771   3.199   4.635  10.178  0.5351 -0.2391  0.8064
   50TCq2    O6  772   3.125   4.655   9.970  0.2592  0.3523  0.0035
   50TCq2    H2  773   3.327   4.436  10.200  0.4716  0.1192 -0.2349
   50TCq2    H3  774   3.103   4.451   9.842  1.1194  0.7577 -0.2473
   50TCq2    H4  775   3.347   4.110   9.934 -1.5794  0.5716 -2.0391
   51MPD2     C  776   3.637   3.140   1.021  0.0055  0.2441  0.1657
   51MPD2    C1  777   3.749   3.074   0.975  0.6143 -0.0895  0.2395
   51MPD2    C2  778   3.877   3.111   1.011  0.3485  0.5477  0.7465
   51MPD2    C3  779   3.891   3.210   1.108  0.1452 -0.0636 -0.3204
   51MPD2    C4  780   3.784   3.287   1.147  0.3888 -0.2849 -0.3657
   51MPD2    C5  781   3.656   3.251   1.105  0.2886 -0.8925  0.3636
   51MPD2     H  782   3.962   3.052   0.979  1.5024  1.0883  2.8143
   51MPD2    H1  783   3.792   3.368   1.218 -0.6095  1.4028 -2.1849
   51MPD2    H2  784   3.538   3.125   0.980 -0.5985 -1.0262  2.1014
   51MPD2    H3  785   3.573   3.315   1.134  0.3796 -1.2371  1.3979
   51MPD2     N  786   4.019   3.241   1.172  0.0657 -0.1783 -0.0918
   51MPD2    H5  787   4.018   3.321   1.234 -0.6246  0.1004 -0.4561
   51MPD2    N1  788   3.738   2.964   0.885  0.4575 -0.0324 -0.8683
   51MPD2    H7  789   3.826   2.933   0.845  2.0241  0.9640  1.8442
   52TCq2    C1  790   4.136   3.170   1.147 -0.2526 -0.1477 -0.6272
   52TCq2    O2  791   4.158   3.073   1.075  0.4205 -0.3644 -0.2369
   52TCq2    C2  792   4.253   3.203   1.225  0.3993 -0.2728 -0.5383
   52TCq2    C3  793   4.372   3.145   1.189 -0.1476  0.2532  0.0766
   52TCq2    C4  794   4.482   3.141   1.275  0.7536 -0.4718  0.2537
   52TCq2    C5  795   4.464   3.185   1.400  0.4241 -0.4647  0.2013
   52TCq2    C6  796   4.338   3.218   1.442  0.2723 -0.0186  0.0266
   52TCq2    C7  797   4.233   3.239   1.359 -0.4891 -0.4860  0.4535
   52TCq2    C8  798   4.322   3.297   1.570 -0.1372 -0.1919 -0.4050
   52TCq2    O4  799   4.220   3.365   1.590  0.4588  0.2258  0.5010
   52TCq2    C9  800   4.615   3.103   1.220  0.4756 -0.1620  0.6205
   52TCq2    O5  801   4.617   3.073   1.097  0.3667  0.1520  0.2704
   52TCq2    O6  802   4.717   3.089   1.302 -0.1301  0.3002 -0.0511
   52TCq2    H2  803   4.386   3.123   1.084 -1.2022 -0.4279  0.0715
   52TCq2    H3  804   4.542   3.202   1.473 -0.1193  1.4516  0.3347
   52TCq2    H4  805   4.133   3.254   1.400 -0.8159 -0.4039 -0.3641
   53TMC2    C1  806   4.685   2.272  12.444 -0.1660  0.7110  0.0342
   53TMC2    C2  807   0.002   2.283  12.569  1.0469 -0.0103 -0.4056
   53TMC2    C3  808   4.633   2.285  12.666 -0.8720 -0.4823  0.2404
   53TMC2    C4  809   4.553   2.262  12.412 -0.1055  0.7208  0.1089
   53TMC2    C5  810   4.470   2.251  12.515 -0.3049  0.2197  0.0588
   53TMC2    C6  811   4.500   2.267  12.645 -0.0438  0.4930  0.4390
   53TMC2     C  812   0.065   2.246  12.344 -0.8674  0.0218  0.7733
   53TMC2     O  813   0.180   2.264  12.373 -0.0523  0.0866  0.2331
   53TMC2     H  814   0.108   2.290  12.589  0.7984 -0.4055  1.0451
   53TMC2    H1  815   4.514   2.218  12.321 -2.6438  1.8357  0.6707
   53TMC2    H2  816   4.432   2.248  12.727 -2.8892  2.1325 -1.5057
   53TMC2    C7  817   4.327   2.253  12.471  0.3335 -0.5635  0.3723
   53TMC2    C8  818   4.677   2.258  12.799 -0.1802  0.2386 -0.2915
   53TMC2    O1  819   4.302   2.295  12.361 -0.7669  0.7194  0.1123
   53TMC2    O2  820   0.049   2.185  12.826  0.2770 -0.1547  0.0850
   53TMC2    O5  821   4.583   2.295  12.888  0.5739 -0.5003 -0.1006
   53TMC2    H5  822   4.516   2.354  12.848  0.9521  0.7120  1.0385
   54MPD2     C  823   0.232   2.177  12.097  0.5932  0.4587  0.5906
   54MPD2    C1  824   0.091   2.179  12.100 -0.2554  0.1539  0.8259
   54MPD2    C2  825   0.016   2.147  11.993  0.3838  0.5402 -0.2887
   54MPD2    C3  826   0.077   2.112  11.874 -0.1335  0.9147 -0.5049
   54MPD2    C4  827   0.215   2.097  11.877  0.1363  0.8088  0.3321
   54MPD2    C5  828   0.290   2.124  11.986 -0.1738  0.5760 -0.0350
   54MPD2     H  829   4.633   2.145  12.009  0.4518  0.5607  0.1638
   54MPD2    H1  830   0.270   2.073  11.787  3.3448 -0.0494  2.5357
   54MPD2    H2  831   0.304   2.217  12.167  1.2698  1.4371 -0.6773
   54MPD2    H3  832   0.398   2.133  11.977 -0.1204  1.2416  1.1682
   54MPD2     N  833   0.009   2.071  11.759 -0.7962  0.1936  0.2670
   54MPD2    H5  834   0.063   2.021  11.690  0.7772  1.0513  0.8875
   54MPD2    N1  835   0.013   2.212  12.218  0.0497 -0.4462 -0.3050
   54MPD2    H7  836   4.636   2.222  12.205 -0.0661 -0.2472  0.7357
   55MPD2     C  837   4.713   4.452   0.949  0.0968  0.4706 -0.5718
   55MPD2    C1  838   4.606   4.365   0.959  0.6523 -0.5733  0.2580
   55MPD2    C2  839   4.473   4.422   0.962  0.1665  0.0120  0.0810
   55MPD2    C3  840   4.453   4.557   0.934 -0.4831  0.1708  0.1712
   55MPD2    C4  841   4.564   4.640   0.906 -0.1319  1.1710  0.0812
   55MPD2    C5  842   4.686   4.584   0.916 -0.0140  0.7657  0.4114
   55MPD2     H  843   4.382   4.365   0.972  1.1310 -1.4816  0.3562
   55MPD2    H1  844   4.558   0.020   0.874  0.2047  0.0005 -3.7055
   55MPD2    H2  845   0.087   4.405   0.945 -0.5499 -0.9139 -0.1594
   55MPD2    H3  846   0.047   4.646   0.889  0.7952 -0.7215 -0.4898
   55MPD2     N  847   4.315   4.589   0.921 -0.0095  0.1291 -0.1318
   55MPD2    H5  848   4.243   4.519   0.938 -0.7333  0.6106 -1.1544
   55MPD2    N1  849   4.640   4.233   0.972 -0.2629  0.7294  0.5319
   55MPD2    H7  850   0.017   4.217   0.965 -0.5127 -1.0952  0.8930
   56TCq2    C1  851   4.551   4.130   0.991  0.3736 -0.0985  0.2544
   56TCq2    O2  852   4.428   4.124   0.989  0.2177  0.0313  0.6542
   56TCq2    C2  853   4.618   3.997   0.966  0.1266 -0.8575  0.4677
   56TCq2    C3  854   0.019   3.992   0.900 -0.3886  0.7948  0.3223
   56TCq2    C4  855   0.079   3.871   0.878 -0.3070 -0.4145  0.0372
   56TCq2    C5  856   0.004   3.759   0.889  0.2603 -0.9062  0.0413
   56TCq2    C6  857   4.606   3.764   0.949  0.8849 -0.3138  0.4576
   56TCq2    C7  858   4.546   3.886   0.975  0.1374  1.0453 -0.7395
   56TCq2    C8  859   4.526   3.647   0.959  0.2117  0.3253  0.0368
   56TCq2    O4  860   4.586   3.543   0.937  0.1711 -0.5724 -0.9305
   56TCq2    C9  861   0.206   3.861   0.817  0.1365  0.0883 -0.5742
   56TCq2    O5  862   0.272   3.968   0.794 -0.2810  0.4423  0.4479
   56TCq2    O6  863   0.259   3.748   0.791  0.6866  0.2469 -0.1046
   56TCq2    H2  864   0.090   4.073   0.895  2.2893 -1.5686  0.0235
   56TCq2    H3  865   0.039   3.663   0.851 -0.6916 -1.3167  0.2039
   56TCq2    H4  866   4.451   3.896   1.026  1.1127  0.8999  1.0986
   57TMC2    C1  867   4.288   0.714  13.282 -0.2871 -0.1147  0.0769
   57TMC2    C2  868   4.334   0.683  13.410 -0.0430  0.0312 -0.0804
   57TMC2    C3  869   4.457   0.628  13.416 -0.0822  0.2304 -0.1297
   57TMC2    C4  870   4.361   0.697  13.166 -0.4248  0.9043  0.2270
   57TMC2    C5  871   4.490   0.651  13.186 -0.4263 -0.1911 -0.0776
   57TMC2    C6  872   4.541   0.619  13.309 -0.2207 -0.2670 -0.4601
   57TMC2     C  873   4.148   0.741  13.286 -0.2720  0.0240  0.3847
   57TMC2     O  874   4.114   0.772  13.398 -0.1659 -0.4219  0.0069
   57TMC2     H  875   4.285   0.701  13.505  0.0523 -0.2200  0.0144
   57TMC2    H1  876   4.332   0.738  13.069  2.4928  2.0777 -0.1580
   57TMC2    H2  877   4.640   0.583  13.334  0.1012  1.6396  0.8997
   57TMC2    C7  878   4.554   0.612  13.066 -0.3850 -0.2130  0.2216
   57TMC2    C8  879   4.493   0.560  13.532 -0.4136 -0.0015  0.7480
   57TMC2    O1  880   4.517   0.663  12.958 -0.1712  0.1794  0.4118
   57TMC2    O2  881   4.612   0.545  13.564  0.0188 -0.0554  0.4760
   57TMC2    O5  882   4.394   0.467  13.548  0.0041 -0.0522 -0.1031
   57TMC2    H5  883   4.312   0.496  13.502  0.8446 -0.1204 -1.6432
   58MPD2     C  884   3.661   0.724  13.138  0.5981  0.4663 -0.2648
   58MPD2    C1  885   3.720   0.772  13.257  0.6415  0.0158  0.4087
   58MPD2    C2  886   3.856   0.776  13.274 -0.1138 -0.1449 -0.2260
   58MPD2    C3  887   3.931   0.735  13.166  0.2082 -0.4548  0.3425
   58MPD2    C4  888   3.876   0.685  13.052  0.5027  0.6900 -0.2242
   58MPD2    C5  889   3.741   0.680  13.036  0.1575 -0.0841 -1.0712
   58MPD2     H  890   3.900   0.810  13.367 -0.7991  0.0910  0.0173
   58MPD2    H1  891   3.938   0.655  12.968  0.1762 -1.0690  0.1685
   58MPD2    H2  892   3.556   0.726  13.113  0.2240 -0.9244  1.2028
   58MPD2    H3  893   3.689   0.648  12.946 -0.7514  3.4002 -1.8006
   58MPD2     N  894   4.073   0.729  13.172 -0.4111  0.1892 -0.2107
   58MPD2    H5  895   4.123   0.698  13.090 -0.5302 -0.4547 -0.0349
   58MPD2    N1  896   3.647   0.811  13.377  0.4634 -0.8205  0.6063
   58MPD2    H7  897   3.705   0.851  13.451 -1.0836  0.1872  1.2687
   59MPD2     C  898   1.934   0.981  13.302  0.0898 -0.7295 -0.2067
   59MPD2    C1  899   1.997   1.007  13.185  0.5405 -0.5476  0.0981
   59MPD2    C2  900   2.113   1.083  13.192  0.9328 -0.2730 -0.0268
   59MPD2    C3  901   2.156   1.133  13.306  0.7483 -0.2528  0.4746
   59MPD2    C4  902   2.095   1.104  13.429  0.5933 -0.6140 -0.2566
   59MPD2    C5  903   1.981   1.027  13.424 -0.0164  0.4216 -0.2767
   59MPD2     H  904   2.150   1.100  13.091  0.3837  0.5165 -0.0888
   59MPD2    H1  905   2.144   1.135  13.521  1.3790  0.9913 -1.2164
   59MPD2    H2  906   1.853   0.911  13.317 -1.0987  0.9755  1.2421
   59MPD2    H3  907   1.924   0.988  13.508  1.4270  1.5542  1.2326
   59MPD2     N  908   2.267   1.220  13.307  1.0224  0.3054 -0.5921
   59MPD2    H5  909   2.310   1.235  13.398 -2.2528 -1.2224  1.2100
   59MPD2    N1  910   1.966   0.949  13.059  0.4360 -0.0526 -0.2029
   59MPD2    H7  911   2.029   0.978  12.985  3.4870 -0.1381  2.3917
   60TCq2    C1  912   1.890   0.838  13.032  0.2592  0.7771 -0.1433
   60TCq2    O2  913   1.813   0.784  13.112  0.0121  0.4495 -0.0518
   60TCq2    C2  914   1.862   0.809  12.897  0.0139  0.1588 -0.5902
   60TCq2    C3  915   1.842   0.681  12.866  0.1087 -0.4776 -0.1214
   60TCq2    C4  916   1.811   0.658  12.736 -0.5000 -0.4281 -0.6922
   60TCq2    C5  917   1.766   0.756  12.652 -0.0428  0.0119  0.5967
   60TCq2    C6  918   1.768   0.885  12.694 -0.2381 -1.0683 -0.3523
   60TCq2    C7  919   1.830   0.909  12.813 -0.4756 -0.3904  0.4016
   60TCq2    C8  920   1.682   0.988  12.642  0.3671 -0.3505 -0.5427
   60TCq2    O4  921   1.640   1.064  12.724 -0.9735  0.8194 -0.3806
   60TCq2    C9  922   1.789   0.524  12.689  0.4528 -0.3803  0.1027
   60TCq2    O5  923   1.794   0.435  12.778 -0.2345  0.2757  0.0463
   60TCq2    O6  924   1.731   0.518  12.580  0.7755  0.0077 -0.3974
   60TCq2    H2  925   1.866   0.604  12.938  0.0399  1.8338  2.3788
   60TCq2    H3  926   1.713   0.740  12.559  0.1954 -0.5815  0.5669
   60TCq2    H4  927   1.823   1.010  12.852  1.1013 -0.1188 -0.0155
   61MPD2     C  928   1.219   1.972  14.817  0.1724 -0.5538 -0.3083
   61MPD2    C1  929   1.258   2.096  14.868  0.0030  0.0786  0.1088
   61MPD2    C2  930   1.252   2.216  14.794  0.0404  0.5927 -0.7766
   61MPD2    C3  931   1.184   2.220  14.676 -0.6834 -0.1582  0.1473
   61MPD2    C4  932   1.134   2.094  14.625 -0.3102 -0.1622  0.4140
   61MPD2    C5  933   1.152   1.978  14.693  0.3442  0.0468 -0.2703
   61MPD2     H  934   1.300   2.303  14.838 -1.0875 -0.6229  2.8098
   61MPD2    H1  935   1.080   2.089  14.531 -0.1361  2.4477  0.1639
   61MPD2    H2  936   1.248   1.881  14.866 -0.1668 -0.9869 -0.9063
   61MPD2    H3  937   1.115   1.892  14.639  1.5951 -1.0433  0.6305
   61MPD2     N  938   1.146   2.339  14.604 -0.2251 -0.7078 -0.3476
   61MPD2    H5  939   1.104   2.309  14.517  1.0544  0.1029 -1.2491
   61MPD2    N1  940   1.315   2.093  15.000  0.3490  0.1807 -0.0799
   61MPD2    H7  941   1.314   2.006  15.052 -1.4055 -0.3104 -0.9617
   62TCq2    C1  942   1.351   2.200  15.076 -0.3258  0.2615  0.3383
   62TCq2    O2  943   1.370   2.318  15.055 -0.5082  0.1892  0.0906
   62TCq2    C2  944   1.365   2.167  15.219 -0.4776  0.3263 -0.0218
   62TCq2    C3  945   1.404   2.046  15.250  0.9986 -0.5013  0.0790
   62TCq2    C4  946   1.409   2.015  15.383 -0.0212 -0.5559  0.0434
   62TCq2    C5  947   1.365   2.101  15.478  0.3489  0.4373 -0.2469
   62TCq2    C6  948   1.330   2.223  15.441 -0.1774  0.5405  0.9782
   62TCq2    C7  949   1.330   2.265  15.311  0.4147 -0.4387  0.9176
   62TCq2    C8  950   1.260   2.304  15.534 -0.8090  0.5657  0.7578
   62TCq2    O4  951   1.208   2.254  15.630  0.3875 -0.8890  0.0416
   62TCq2    C9  952   1.473   1.890  15.424  0.7388 -0.0951  0.6895
   62TCq2    O5  953   1.441   1.834  15.533 -0.2591  0.1562 -1.2698
   62TCq2    O6  954   1.560   1.846  15.345 -0.0325  0.5838 -0.0291
   62TCq2    H2  955   1.433   1.967  15.182 -1.0325  2.1004 -3.7855
   62TCq2    H3  956   1.360   2.073  15.583  4.7867  0.4144 -0.0431
   62TCq2    H4  957   1.294   2.360  15.273  1.2910 -0.4321  0.1069
   63TMC2    C1  958   1.239   2.510  11.077  0.1173  0.4800  0.0509
   63TMC2    C2  959   1.366   2.484  11.134 -0.0221 -0.6461  0.4843
   63TMC2    C3  960   1.484   2.533  11.079  0.7696 -0.7499 -0.0148
   63TMC2    C4  961   1.225   2.602  10.979  0.1340 -0.8110 -0.1374
   63TMC2    C5  962   1.342   2.655  10.933  0.3695 -0.4289 -0.6435
   63TMC2    C6  963   1.467   2.626  10.982 -0.2649 -0.2503  0.9742
   63TMC2     C  964   1.148   2.395  11.070 -0.0972  0.1841 -0.4105
   63TMC2     O  965   1.152   2.310  11.152  0.2031  0.0291  0.0828
   63TMC2     H  966   1.369   2.406  11.210 -0.1567 -0.5821  0.5564
   63TMC2    H1  967   1.132   2.642  10.941  0.6072  1.1532  0.7668
   63TMC2    H2  968   1.555   2.655  10.925 -0.8326  0.5069  0.5018
   63TMC2    C7  969   1.323   2.708  10.795 -0.3996 -0.4818 -0.0932
   63TMC2    C8  970   1.611   2.531  11.157  0.7373 -0.1099  0.0043
   63TMC2    O1  971   1.222   2.663  10.742 -0.5250  0.0530  0.1693
   63TMC2    O2  972   1.700   2.615  11.145 -0.3288 -1.0932  0.0045
   63TMC2    O5  973   1.606   2.449  11.262 -0.1885  0.2727  0.1755
   63TMC2    H5  974   1.562   2.362  11.256 -1.0372  0.8272 -1.7592
   64MPD2     C  975   0.764   2.131  10.835  0.3055  0.4849  0.7502
   64MPD2    C1  976   0.843   2.190  10.740 -0.5045 -0.8591 -0.1992
   64MPD2    C2  977   0.940   2.274  10.784  0.0076 -0.1254  0.0992
   64MPD2    C3  978   0.965   2.312  10.913  0.5389  0.4649 -0.0663
   64MPD2    C4  979   0.878   2.265  11.002  0.4875  0.0841  0.0456
   64MPD2    C5  980   0.783   2.178  10.965 -0.1770  0.3393  0.0244
   64MPD2     H  981   1.012   2.314  10.714  0.7150  1.1486  1.5575
   64MPD2    H1  982   0.868   2.285  11.108  0.1918 -1.9686  0.3929
   64MPD2    H2  983   0.684   2.061  10.816 -0.7601  1.2167  2.5369
   64MPD2    H3  984   0.718   2.131  11.037 -1.2603  0.3496 -0.9575
   64MPD2     N  985   1.080   2.393  10.945  0.0494 -0.3731 -0.0552
   64MPD2    H5  986   1.102   2.452  10.865  1.1994  0.6002  0.9723
   64MPD2    N1  987   0.827   2.170  10.598 -1.0139  0.0210 -0.6255
   64MPD2    H7  988   0.895   2.216  10.539 -1.6647  3.1049  1.0418
   65MPD2     C  989   1.958   1.594  15.935 -0.0565  0.0502 -0.1776
   65MPD2    C1  990   1.967   1.629  15.799 -0.1396  0.0746 -0.0375
   65MPD2    C2  991   1.970   1.532  15.699  0.4407 -0.3314 -0.5829
   65MPD2    C3  992   1.969   1.399  15.739 -0.2104  0.8176  0.1603
   65MPD2    C4  993   1.969   1.367  15.875 -0.0031 -0.1804  0.0793
   65MPD2    C5  994   1.973   1.463  15.975 -0.4715 -0.1932 -0.1158
   65MPD2     H  995   1.965   1.576  15.600  1.6864  1.3147  0.0762
   65MPD2    H1  996   1.983   1.263  15.902  0.6737 -0.1035  0.0336
   65MPD2    H2  997   1.941   1.655  16.024 -0.0690 -0.9024  0.4703
   65MPD2    H3  998   1.960   1.429  16.077  0.5739 -1.2892 -0.3508
   65MPD2     N  999   1.955   1.293  15.652  0.1195  0.3614 -0.1339
   65MPD2    H5 1000   1.943   1.200  15.692  0.9619 -0.5748 -2.0663
   65MPD2    N1 1001   1.962   1.762  15.759 -0.5526 -0.6234  0.4558
   65MPD2    H7 1002   1.963   1.783  15.659 -1.1830 -0.1353  0.5482
   66TCq2    C1 1003   1.915   1.867  15.822 -0.1855  0.1659 -0.3298
   66TCq2    O2 1004   1.872   1.871  15.939  0.7908 -0.0873  0.0134
   66TCq2    C2 1005   1.899   1.979  15.736 -0.5308 -0.7880  0.3654
   66TCq2    C3 1006   1.967   1.974  15.608 -0.0362 -0.8825  0.1696
   66TCq2    C4 1007   1.915   2.058  15.515 -0.4499 -0.0221 -0.4374
   66TCq2    C5 1008   1.795   2.123  15.536  0.1493 -0.6282  0.1342
   66TCq2    C6 1009   1.724   2.110  15.654 -0.6492  0.0905  0.2139
   66TCq2    C7 1010   1.780   2.040  15.757  0.0968  0.3434  0.3192
   66TCq2    C8 1011   1.630   2.211  15.690  0.7814  0.8840 -1.0390
   66TCq2    O4 1012   1.576   2.275  15.601  0.0739  0.2354  0.2272
   66TCq2    C9 1013   1.975   2.068  15.383  0.2882  0.2787  0.2837
   66TCq2    O5 1014   2.022   1.959  15.337  0.2934 -0.2099  0.1100
   66TCq2    O6 1015   1.926   2.159  15.314  0.6060 -0.7353  0.6010
   66TCq2    H2 1016   2.061   1.923  15.595 -0.4361 -1.5320 -0.1776
   66TCq2    H3 1017   1.748   2.185  15.461  1.1831  0.7753  0.6510
   66TCq2    H4 1018   1.728   2.040  15.853 -0.0843  4.3413  0.2069
   67MPD2     C 1019   2.256   1.046  14.284 -0.0876 -0.4645  0.1012
   67MPD2    C1 1020   2.213   1.178  14.272 -0.0032 -0.4059  0.1806
   67MPD2    C2 1021   2.128   1.200  14.169 -0.0446 -0.0416  0.2232
   67MPD2    C3 1022   2.086   1.101  14.074 -0.1068  0.5178 -0.3356
   67MPD2    C4 1023   2.122   0.972  14.101  0.7979  0.4139  0.5282
   67MPD2    C5 1024   2.200   0.944  14.209  0.4160  0.4401  0.8873
   67MPD2     H 1025   2.100   1.301  14.141  1.5953  0.2411 -0.4681
   67MPD2    H1 1026   2.092   0.888  14.039 -0.6439  0.0838  1.6547
   67MPD2    H2 1027   2.313   1.012  14.369  0.1897  3.9335  1.6804
   67MPD2    H3 1028   2.222   0.838  14.222  0.0629  0.5828  2.6449
   67MPD2     N 1029   2.013   1.146  13.958  0.3825  0.4524  0.2607
   67MPD2    H5 1030   1.999   1.247  13.954 -1.1568  0.2129 -0.3941
   67MPD2    N1 1031   2.249   1.281  14.360 -0.7218  0.2306  0.1756
   67MPD2    H7 1032   2.188   1.361  14.352 -1.0001  0.0463  0.4270
   68TCq2    C1 1033   2.350   1.270  14.448  0.8213 -0.0021  0.2976
   68TCq2    O2 1034   2.444   1.196  14.433 -0.0557 -0.3070 -0.3987
   68TCq2    C2 1035   2.353   1.370  14.554 -0.5140 -0.1192  0.9802
   68TCq2    C3 1036   2.264   1.472  14.568 -0.6168 -0.6459 -0.6076
   68TCq2    C4 1037   2.263   1.547  14.683 -0.7787 -0.1679 -0.0365
   68TCq2    C5 1038   2.368   1.544  14.769 -0.0258 -0.5667  0.1884
   68TCq2    C6 1039   2.468   1.445  14.748 -0.5945 -0.1874 -0.5876
   68TCq2    C7 1040   2.458   1.356  14.645  0.4686  0.9271 -0.3696
   68TCq2    C8 1041   2.567   1.418  14.849 -0.1165  0.1354  0.2557
   68TCq2    O4 1042   2.668   1.388  14.789 -0.4148  0.3406 -0.1606
   68TCq2    C9 1043   2.157   1.650  14.700  0.2883 -0.4553 -0.6116
   68TCq2    O5 1044   2.082   1.667  14.601  0.2907  0.4055  0.5961
   68TCq2    O6 1045   2.125   1.680  14.819  0.2249 -0.5784 -0.2191
   68TCq2    H2 1046   2.186   1.479  14.493 -1.6686 -0.0093  0.5571
   68TCq2    H3 1047   2.378   1.618  14.848 -2.7296 -2.1408  2.0078
   68TCq2    H4 1048   2.525   1.275  14.623 -0.4841  0.7329 -2.5124
   69TMC2    C1 1049   3.776   2.699  11.995  0.2963  0.2173 -0.4610
   69TMC2    C2 1050   3.673   2.675  11.914  0.1737  0.1603 -0.0716
   69TMC2    C3 1051   3.692   2.674  11.780 -0.1619 -0.5274  0.9704
   69TMC2    C4 1052   3.902   2.717  11.955  0.1698 -0.2283  0.2859
   69TMC2    C5 1053   3.917   2.717  11.818 -0.1659 -0.4110  0.1529
   69TMC2    C6 1054   3.815   2.712  11.732 -0.2725  0.0064 -0.1373
   69TMC2     C 1055   3.762   2.685  12.138 -0.1482  0.3405 -0.3628
   69TMC2     O 1056   3.753   2.568  12.172 -0.1528  0.2336 -0.6612
   69TMC2     H 1057   3.568   2.671  11.944  0.8543 -0.9085  2.1934
   69TMC2    H1 1058   3.987   2.723  12.023  1.1800 -2.1119 -0.7866
   69TMC2    H2 1059   3.833   2.718  11.625  0.9212 -0.4222  0.0398
   69TMC2    C7 1060   4.056   2.706  11.780 -0.3944 -0.7007  0.0221
   69TMC2    C8 1061   3.578   2.723  11.709 -0.7357  0.0459  0.8347
   69TMC2    O1 1062   4.136   2.713  11.875  0.2926 -0.2366  0.0329
   69TMC2    O2 1063   3.517   2.633  11.652 -0.1821 -0.2891 -0.6126
   69TMC2    O5 1064   3.629   2.834  11.652  0.0987  0.8019  0.6644
   69TMC2    H5 1065   3.672   2.892  11.719  1.3085 -1.2485  1.6616
   70MPD2     C 1066   3.879   2.923  12.397  1.1097 -0.2295  0.5234
   70MPD2    C1 1067   3.829   2.807  12.344  0.5457  0.7100 -0.3468
   70MPD2    C2 1068   3.822   2.700  12.423  0.1620  0.6811  0.2120
   70MPD2    C3 1069   3.839   2.700  12.558  0.3401  0.6685 -0.0672
   70MPD2    C4 1070   3.882   2.811  12.616  0.2066 -0.1629  0.2886
   70MPD2    C5 1071   3.898   2.923  12.532  0.6122  0.0540 -0.3032
   70MPD2     H 1072   3.789   2.603  12.389 -0.5597  0.9983  0.0180
   70MPD2    H1 1073   3.888   2.824  12.723  1.5423 -0.1701  0.2147
   70MPD2    H2 1074   3.906   3.009  12.336  0.2439 -1.2916 -1.3687
   70MPD2    H3 1075   3.942   3.016  12.564  0.8393 -0.1742  0.0552
   70MPD2     N 1076   3.824   2.586  12.639 -0.3455  0.1604  0.1433
   70MPD2    H5 1077   3.849   2.592  12.737 -0.7192 -0.7979  0.2977
   70MPD2    N1 1078   3.794   2.803  12.208  0.2648 -0.8218  0.9795
   70MPD2    H7 1079   3.795   2.891  12.157  0.6875 -0.4706  1.5936
   71TMC2    C1 1080   1.666   3.072   2.333  0.7581  0.7552  0.1744
   71TMC2    C2 1081   1.736   3.040   2.446  0.1726  0.0022  0.4953
   71TMC2    C3 1082   1.745   3.133   2.539  0.2753  0.0629 -0.1024
   71TMC2    C4 1083   1.621   3.201   2.304 -0.1165  0.1261 -0.6846
   71TMC2    C5 1084   1.632   3.292   2.401  0.4883 -0.2535  0.0598
   71TMC2    C6 1085   1.686   3.257   2.523  0.2283 -0.6002  0.3051
   71TMC2     C 1086   1.633   2.976   2.233  0.4082 -0.6779  0.4993
   71TMC2     O 1087   1.609   3.021   2.119 -0.3605 -0.4527  0.2751
   71TMC2     H 1088   1.771   2.940   2.467 -1.5602 -0.6374  0.2730
   71TMC2    H1 1089   1.565   3.227   2.214 -0.3870  4.3792  0.7251
   71TMC2    H2 1090   1.667   3.315   2.612  1.4074  1.2320 -0.6500
   71TMC2    C7 1091   1.544   3.411   2.403 -0.3944 -0.4641 -0.5160
   71TMC2    C8 1092   1.785   3.085   2.674 -0.0670 -0.1707 -0.3468
   71TMC2    O1 1093   1.584   3.492   2.485 -0.3779  0.4944 -0.1217
   71TMC2    O2 1094   1.775   2.972   2.714  0.0616 -0.3042  0.5466
   71TMC2    O5 1095   1.822   3.191   2.746 -0.5636  0.2434 -0.1868
   71TMC2    H5 1096   1.844   3.269   2.691  0.2117  2.2580  3.0097
   72MPD2     C 1097   1.644   2.508   2.017  0.2582  0.1576 -0.1927
   72MPD2    C1 1098   1.645   2.637   1.969 -0.7192 -0.7003 -0.2630
   72MPD2    C2 1099   1.624   2.740   2.054 -0.4385 -0.6027 -0.3127
   72MPD2    C3 1100   1.631   2.730   2.185 -0.1372  0.7572 -0.0107
   72MPD2    C4 1101   1.662   2.603   2.237 -0.3118  0.2960 -0.2369
   72MPD2    C5 1102   1.652   2.496   2.156 -0.7312  0.7282 -1.0739
   72MPD2     H 1103   1.591   2.828   2.001  3.7787  1.8278  1.1130
   72MPD2    H1 1104   1.692   2.595   2.341  1.4410 -1.8956 -0.9083
   72MPD2    H2 1105   1.624   2.417   1.961 -1.1846 -0.3311  1.0985
   72MPD2    H3 1106   1.648   2.400   2.206 -0.4585  1.6761  0.7822
   72MPD2     N 1107   1.638   2.843   2.275  0.1688 -0.9239  0.0019
   72MPD2    H5 1108   1.679   2.826   2.366 -1.8275 -3.1162  0.4992
   72MPD2    N1 1109   1.654   2.671   1.834  1.1706  0.1262 -0.1166
   72MPD2    H7 1110   1.640   2.770   1.813 -4.6837 -0.9094 -1.1618
   73TMC2    C1 1111   1.071   4.220  14.003 -0.1940 -0.7085 -0.4491
   73TMC2    C2 1112   1.049   4.137  14.106  0.0356  0.2595 -0.0409
   73TMC2    C3 1113   1.092   4.166  14.230  0.5421  0.1774  0.8814
   73TMC2    C4 1114   1.122   4.347  14.039 -0.0050  0.5931  0.3537
   73TMC2    C5 1115   1.193   4.365  14.159  0.3664 -0.0140 -0.0606
   73TMC2    C6 1116   1.180   4.272  14.255 -0.0421 -0.6988 -0.4667
   73TMC2     C 1117   1.114   4.185  13.864 -0.1314  0.0284  0.4080
   73TMC2     O 1118   1.168   4.274  13.800  0.5121 -0.0467 -0.9707
   73TMC2     H 1119   1.018   4.035  14.086 -1.6576  0.8894 -0.6542
   73TMC2    H1 1120   1.117   4.419  13.958  1.3236  1.6728  1.2319
   73TMC2    H2 1121   1.228   4.285  14.351  0.3784  1.9549 -1.0390
   73TMC2    C7 1122   1.324   4.417  14.142  0.4480 -0.0843 -0.0410
   73TMC2    C8 1123   1.015   4.104  14.337  0.4275  0.4260 -0.3037
   73TMC2    O1 1124   1.388   4.451  14.241  0.4097 -0.2465  0.7398
   73TMC2    O2 1125   0.897   4.072  14.335  0.5129 -0.4213 -0.5120
   73TMC2    O5 1126   1.102   4.037  14.411 -0.4295  0.4643 -0.3029
   73TMC2    H5 1127   1.192   4.040  14.372 -0.0730 -0.3578  0.4567
   74MPD2     C 1128   1.262   3.834  13.521  0.6381 -0.3883  0.2536
   74MPD2    C1 1129   1.293   3.966  13.524 -0.1330 -0.0269  0.6436
   74MPD2    C2 1130   1.234   4.043  13.621 -0.3234 -0.6031  0.4768
   74MPD2    C3 1131   1.152   3.983  13.719  0.9114 -0.1299 -0.1676
   74MPD2    C4 1132   1.123   3.845  13.712  0.4268 -0.0718 -0.1307
   74MPD2    C5 1133   1.181   3.773  13.612 -0.1072 -0.6595  0.3436
   74MPD2     H 1134   1.241   4.151  13.619  0.8302 -0.6540  1.8712
   74MPD2    H1 1135   1.057   3.794  13.781 -1.0905  0.6289 -1.0497
   74MPD2    H2 1136   1.292   3.762  13.446 -0.0734 -1.7233  1.2528
   74MPD2    H3 1137   1.155   3.668  13.598  1.3111 -0.8979 -0.4704
   74MPD2     N 1138   1.094   4.052  13.826 -0.6807 -0.0506  0.2793
   74MPD2    H5 1139   1.036   3.990  13.883 -0.9199  1.6562  1.9221
   74MPD2    N1 1140   1.384   4.010  13.428  0.1299 -0.1234  0.6536
   74MPD2    H7 1141   1.434   3.932  13.386  0.5644  0.4367  0.1472
   75TCq2    C1 1142   1.962   1.069  13.861  0.6016  0.0710  0.2117
   75TCq2    O2 1143   1.963   0.946  13.852 -0.6309  0.4581  0.5534
   75TCq2    C2 1144   1.891   1.147  13.767  0.1183  0.0104 -0.4937
   75TCq2    C3 1145   1.792   1.079  13.702  0.3098  0.5201  0.0742
   75TCq2    C4 1146   1.728   1.142  13.595  1.1204  0.4269  0.6829
   75TCq2    C5 1147   1.765   1.264  13.550 -0.7700 -0.6197 -0.2188
   75TCq2    C6 1148   1.878   1.317  13.609  0.1282 -0.4721 -0.2054
   75TCq2    C7 1149   1.936   1.265  13.717  0.0089 -0.2825 -0.5297
   75TCq2    C8 1150   1.918   1.452  13.577 -0.3385  0.0281  0.6373
   75TCq2    O4 1151   1.991   1.513  13.651 -0.3895  0.4646 -0.0502
   75TCq2    C9 1152   1.625   1.069  13.526  0.8615 -0.2732 -0.0514
   75TCq2    O5 1153   1.587   0.961  13.579 -0.4217  0.3553 -0.2091
   75TCq2    O6 1154   1.561   1.126  13.433  0.0727 -0.0195  0.1893
   75TCq2    H2 1155   1.764   0.979  13.735  0.0351  0.8579  0.8735
   75TCq2    H3 1156   1.697   1.300  13.474 -0.0319 -0.8060 -0.9677
   75TCq2    H4 1157   2.024   1.316  13.756 -0.6734 -0.4476  1.1913
   76MPD2     C 1158   0.450   2.564  12.269 -0.0144  0.4761 -0.4966
   76MPD2    C1 1159   0.450   2.481  12.157  0.0419 -0.6377  0.0520
   76MPD2    C2 1160   0.553   2.388  12.138 -0.5744 -0.4090  0.4685
   76MPD2    C3 1161   0.666   2.391  12.220 -0.1024  0.3267 -0.4448
   76MPD2    C4 1162   0.665   2.473  12.328  0.5426 -0.3427 -0.0244
   76MPD2    C5 1163   0.556   2.555  12.357  0.7517 -0.3769 -0.9456
   76MPD2     H 1164   0.555   2.326  12.049  1.5696 -0.8695  0.8455
   76MPD2    H1 1165   0.753   2.489  12.390  1.1243  0.9659 -1.1691
   76MPD2    H2 1166   0.380   2.646  12.279 -1.8536 -0.9422 -1.4525
   76MPD2    H3 1167   0.549   2.621  12.443 -2.0927 -0.8276 -0.8578
   76MPD2     N 1168   0.786   2.322  12.194 -0.3463 -0.6032 -0.4893
   76MPD2    H5 1169   0.864   2.340  12.257 -2.0348  1.3970  1.0477
   76MPD2    N1 1170   0.354   2.496  12.060  0.6103 -0.2274  0.6543
   76MPD2    H7 1171   0.364   2.430  11.984  0.8049  0.3109  0.2124
   77TCq2    C1 1172   0.804   2.242  12.088  0.2890  0.0875  0.1823
   77TCq2    O2 1173   0.744   2.241  11.980  0.5753  0.2527 -0.3780
   77TCq2    C2 1174   0.941   2.206  12.076 -0.3034  0.0431  0.2038
   77TCq2    C3 1175   0.992   2.199  11.949 -0.5524 -0.0783 -0.2003
   77TCq2    C4 1176   1.122   2.194  11.923  0.7865 -0.4428 -0.4927
   77TCq2    C5 1177   1.211   2.183  12.019 -0.5916 -0.2596 -0.9329
   77TCq2    C6 1178   1.163   2.176  12.149 -0.1660 -0.4632 -0.8905
   77TCq2    C7 1179   1.031   2.191  12.178  0.1548  0.2417  0.7171
   77TCq2    C8 1180   1.261   2.152  12.259 -0.4299  0.3572 -0.2344
   77TCq2    O4 1181   1.374   2.203  12.230  0.5825  0.2835 -0.3482
   77TCq2    C9 1182   1.167   2.205  11.786  0.3420 -0.1068 -0.3569
   77TCq2    O5 1183   1.083   2.210  11.696 -0.5235  0.3121  0.0430
   77TCq2    O6 1184   1.293   2.219  11.773 -0.1448 -0.2445  0.5380
   77TCq2    H2 1185   0.928   2.204  11.862  0.7136  2.2382 -1.0160
   77TCq2    H3 1186   1.317   2.174  11.999 -0.0555  1.4682  1.0838
   77TCq2    H4 1187   1.005   2.206  12.282 -2.2373  1.2926 -0.0395
   78MPD1     C 1188   2.050   0.272   2.559  0.3213 -0.5014 -0.0578
   78MPD1    C1 1189   2.151   0.328   2.475  0.1457 -0.2876  0.0257
   78MPD1    C2 1190   2.114   0.382   2.356 -0.5143 -0.3936 -0.4134
   78MPD1    C3 1191   1.986   0.357   2.299  0.1792 -0.5784 -0.1410
   78MPD1    C4 1192   1.895   0.296   2.377 -0.0978  0.2528 -0.5437
   78MPD1    C5 1193   1.925   0.248   2.503  0.0445 -0.4828  0.2249
   78MPD1     H 1194   2.181   0.458   2.315 -3.6827  2.7965  0.3243
   78MPD1    H1 1195   1.800   0.290   2.326  0.6538  1.6043 -2.0863
   78MPD1    H2 1196   2.067   0.241   2.661 -2.3984  0.0859  0.5779
   78MPD1    H3 1197   1.850   0.197   2.562  0.1264 -1.3245 -0.3946
   78MPD1     N 1198   1.945   0.421   2.177  0.2906  0.1124 -0.2893
   78MPD1    H5 1199   1.849   0.412   2.148 -0.0829 -0.2315  1.0330
   78MPD1    N1 1200   2.272   0.359   2.541 -0.2286 -0.1935 -0.1694
   78MPD1    H6 1201   2.352   0.369   2.479 -2.4615 -1.7575 -3.3620
   78MPD1    H7 1202   2.290   0.294   2.617 -0.5778  1.9012  1.7016
   79TCq2    C1 1203   2.036   0.472   2.084  0.1055 -0.4367 -0.9299
   79TCq2    O2 1204   2.159   0.481   2.093 -0.2070 -0.0570 -0.5361
   79TCq2    C2 1205   1.974   0.528   1.968 -0.4550  0.2792 -0.4119
   79TCq2    C3 1206   1.839   0.518   1.952  0.3210 -0.7045 -0.3556
   79TCq2    C4 1207   1.781   0.608   1.872  0.2430  0.1162  0.6083
   79TCq2    C5 1208   1.858   0.699   1.806 -0.6248  0.0594 -0.6914
   79TCq2    C6 1209   1.991   0.691   1.805  0.2107  0.2387 -0.1944
   79TCq2    C7 1210   2.057   0.601   1.884  0.4668 -0.1316  0.1767
   79TCq2    C8 1211   2.066   0.788   1.722  0.2683 -0.6390 -0.1002
   79TCq2    O4 1212   2.186   0.794   1.746  0.3276 -0.3152 -0.5676
   79TCq2    C9 1213   1.639   0.600   1.848 -0.1679  0.0890 -0.3622
   79TCq2    O5 1214   1.594   0.674   1.759  0.4819 -0.1900  0.3851
   79TCq2    O6 1215   1.572   0.526   1.921 -0.4977 -0.0132  1.1230
   79TCq2    H2 1216   1.781   0.439   1.999  0.2370 -0.9856 -0.9424
   79TCq2    H3 1217   1.798   0.772   1.753  0.3024  0.1431 -1.6397
   79TCq2    H4 1218   2.164   0.609   1.902  0.2006  3.1318  0.1936
   80MPD2     C 1219   4.708   1.927  12.611  0.0991  0.3032  1.2743
   80MPD2    C1 1220   4.677   1.919  12.479 -0.1285  0.2052  0.2056
   80MPD2    C2 1221   4.551   1.904  12.440  0.1495  0.3410 -0.0009
   80MPD2    C3 1222   4.451   1.889  12.528  0.0287 -0.3501  0.4373
   80MPD2    C4 1223   4.477   1.897  12.664 -0.0288  0.4047  0.6860
   80MPD2    C5 1224   4.612   1.918  12.705  0.1956 -0.2686  0.3444
   80MPD2     H 1225   4.535   1.904  12.333  1.1213 -3.3383 -0.1441
   80MPD2    H1 1226   4.398   1.886  12.738  0.8069 -1.1457  1.3374
   80MPD2    H2 1227   0.086   1.932  12.648  0.4652  2.5515 -0.0880
   80MPD2    H3 1228   4.643   1.941  12.806  1.5684  0.2574 -0.1957
   80MPD2     N 1229   4.315   1.862  12.483  0.4698  0.2403  0.1643
   80MPD2    H5 1230   4.246   1.843  12.554 -1.4846  0.5778 -1.6351
   80MPD2    N1 1231   0.055   1.923  12.379 -0.0796  0.5476  0.0961
   80MPD2    H7 1232   0.033   1.920  12.280  1.4430 -0.0266 -0.2246
   81TCq2    C1 1233   0.188   1.920  12.406 -0.2341  0.5727  0.2301
   81TCq2    O2 1234   0.252   1.937  12.510 -0.1258 -0.1857 -0.1225
   81TCq2    C2 1235   0.269   1.893  12.289  0.5837  0.6351 -0.1221
   81TCq2    C3 1236   0.403   1.915  12.296  0.2705  0.1243  0.0536
   81TCq2    C4 1237   0.484   1.890  12.189  0.1823 -0.5431  0.3105
   81TCq2    C5 1238   0.432   1.838  12.074 -0.2399  0.7913  0.2345
   81TCq2    C6 1239   0.299   1.814  12.069  0.0582 -0.4584  0.1688
   81TCq2    C7 1240   0.218   1.827  12.181 -0.6072  0.7214  0.5239
   81TCq2    C8 1241   0.255   1.735  11.954 -0.3150 -0.3606 -0.3860
   81TCq2    O4 1242   0.327   1.655  11.903  0.4446  0.3656 -0.2418
   81TCq2    C9 1243   0.626   1.915  12.197  0.3179  1.0246  0.4589
   81TCq2    O5 1244   0.696   1.905  12.094  0.1998  0.2115  0.2360
   81TCq2    O6 1245   0.667   1.956  12.313  0.4177  0.5468 -0.0080
   81TCq2    H2 1246   0.454   1.949  12.385  1.0675 -1.6378  0.2691
   81TCq2    H3 1247   0.499   1.823  11.990 -0.1968 -3.1273  0.9698
   81TCq2    H4 1248   0.119   1.783  12.180 -0.5959  0.7144  0.0046
   82MPD2     C 1249   1.282   1.503  10.528  0.1866 -0.0783  0.1354
   82MPD2    C1 1250   1.404   1.527  10.581  0.5996 -0.6871  0.1480
   82MPD2    C2 1251   1.419   1.541  10.718 -0.6315 -0.1547 -0.7480
   82MPD2    C3 1252   1.313   1.535  10.807  0.1373 -0.0103 -0.2450
   82MPD2    C4 1253   1.185   1.516  10.751  0.3048  0.0271 -0.0368
   82MPD2    C5 1254   1.174   1.509  10.617 -0.6665  0.0084 -0.7045
   82MPD2     H 1255   1.517   1.555  10.761 -0.2826 -1.7716 -1.0496
   82MPD2    H1 1256   1.099   1.538  10.813  0.0283  0.8126 -0.6961
   82MPD2    H2 1257   1.262   1.480  10.424 -0.3930 -1.0338  0.4618
   82MPD2    H3 1258   1.077   1.498  10.570 -0.7745 -1.7458 -0.0645
   82MPD2     N 1259   1.332   1.536  10.950  0.2580 -0.3091 -0.1397
   82MPD2    H5 1260   1.250   1.523  11.008  0.0541 -0.3201 -0.4291
   82MPD2    N1 1261   1.511   1.510  10.491  0.7275  0.1518  0.8483
   82MPD2    H7 1262   1.484   1.485  10.397  0.6608  1.8302  0.4191
   83TCq2    C1 1263   1.451   1.552  11.015  0.4780 -0.6261  0.4521
   83TCq2    O2 1264   1.564   1.563  10.971  0.4662  0.2404 -0.5802
   83TCq2    C2 1265   1.432   1.524  11.154 -0.3370  0.2724 -0.2985
   83TCq2    C3 1266   1.310   1.515  11.209 -0.7168 -0.4948 -0.7032
   83TCq2    C4 1267   1.299   1.467  11.332 -0.1396 -0.2831  1.0108
   83TCq2    C5 1268   1.401   1.416  11.404 -0.3103 -0.3655  0.1242
   83TCq2    C6 1269   1.524   1.408  11.343  0.6757  0.3228 -0.1506
   83TCq2    C7 1270   1.538   1.454  11.212  0.3116  0.7715  1.0022
   83TCq2    C8 1271   1.634   1.357  11.419  0.3064  0.0841  0.0389
   83TCq2    O4 1272   1.616   1.320  11.535 -0.4382 -0.4001  0.2840
   83TCq2    C9 1273   1.168   1.456  11.393  0.9191 -0.2340  0.2958
   83TCq2    O5 1274   1.160   1.363  11.478 -0.0027 -0.3812  0.1965
   83TCq2    O6 1275   1.070   1.523  11.346 -0.5139  0.0549  0.7434
   83TCq2    H2 1276   1.221   1.566  11.172  0.1345  0.6726 -1.1587
   83TCq2    H3 1277   1.388   1.363  11.497  2.6436 -1.2999  0.0049
   83TCq2    H4 1278   1.629   1.443  11.154 -0.0696  1.0451  0.3522
   84TCq2    C1 1279   3.677   4.517  10.669  0.3600 -0.2503  0.6337
   84TCq2    O2 1280   3.558   4.506  10.673 -0.6044  0.1121 -0.0629
   84TCq2    C2 1281   3.719   4.607  10.766 -0.1071  0.1702 -0.0103
   84TCq2    C3 1282   3.833   4.681  10.748  0.4535  0.5254  0.2237
   84TCq2    C4 1283   3.878   0.019  10.857 -0.2425 -0.9801 -0.7406
   84TCq2    C5 1284   3.819   0.026  10.978  0.0072 -0.6168  0.6475
   84TCq2    C6 1285   3.695   4.693  10.990 -0.0878  0.5669 -0.3417
   84TCq2    C7 1286   3.644   4.625  10.884  0.1118 -0.3129 -0.0335
   84TCq2    C8 1287   3.652   4.640  11.117  1.3896 -0.2140 -0.3447
   84TCq2    O4 1288   3.538   4.599  11.132  0.4186 -0.0034 -0.4393
   84TCq2    C9 1289   4.007   0.079  10.853 -0.3335 -0.1165 -0.7208
   84TCq2    O5 1290   4.062   0.114  10.956  0.1776  0.0294  0.5019
   84TCq2    O6 1291   4.075   0.060  10.751  0.0028 -0.2301  0.3077
   84TCq2    H2 1292   3.892   4.676  10.657  1.5657  1.6942  0.8889
   84TCq2    H3 1293   3.867   0.071  11.064  1.3727 -0.3998 -0.2388
   84TCq2    H4 1294   3.554   4.567  10.894  0.9518 -1.6264 -0.1755
   85MPD2     C 1295   3.884   2.741  16.537  0.6664 -0.4605 -0.0756
   85MPD2    C1 1296   3.850   2.707  16.408  0.0770  0.0454 -0.6977
   85MPD2    C2 1297   3.886   2.794  16.304  0.3508  0.0189  0.2489
   85MPD2    C3 1298   3.946   2.913  16.326  0.2265  0.0671  0.0713
   85MPD2    C4 1299   3.975   2.949  16.462  0.2945  0.1078 -0.2888
   85MPD2    C5 1300   3.939   2.862  16.567 -0.2050 -0.2923  0.1069
   85MPD2     H 1301   3.860   2.753  16.207  0.4712 -0.1971  0.3072
   85MPD2    H1 1302   4.017   3.045  16.490  1.3246 -0.1971 -0.7922
   85MPD2    H2 1303   3.869   2.690  16.631 -1.8158  0.6354  0.1273
   85MPD2    H3 1304   3.946   2.899  16.668 -1.6525  0.1559  0.0554
   85MPD2     N 1305   3.975   2.987  16.211  0.4673 -0.3048  0.4000
   85MPD2    H5 1306   3.939   2.958  16.121 -1.0687  1.5018  0.4367
   85MPD2    N1 1307   3.791   2.589  16.370 -0.2649 -0.3608 -0.1187
   85MPD2    H7 1308   3.755   2.590  16.275 -1.0112  1.3536  0.1745
   86TCq2    C1 1309   4.071   3.084  16.208  0.6042  0.5928 -0.4870
   86TCq2    O2 1310   4.138   3.133  16.298  0.1017 -0.7751  0.5183
   86TCq2    C2 1311   4.092   3.148  16.082 -0.3943 -1.2386 -0.0440
   86TCq2    C3 1312   4.019   3.118  15.967  0.4742  0.4529 -0.2147
   86TCq2    C4 1313   4.024   3.212  15.862  0.7897 -0.8857 -0.4701
   86TCq2    C5 1314   4.097   3.325  15.866  1.3819 -0.1315  0.1515
   86TCq2    C6 1315   4.166   3.357  15.982  0.1449 -0.5812 -0.1819
   86TCq2    C7 1316   4.168   3.262  16.079  0.4392 -0.3761  0.3984
   86TCq2    C8 1317   4.261   3.461  15.994  0.4056 -0.0140 -0.2858
   86TCq2    O4 1318   4.348   3.451  16.077  0.1694 -0.2654 -0.4912
   86TCq2    C9 1319   3.965   3.179  15.735  0.0509 -0.1633  0.0576
   86TCq2    O5 1320   3.967   3.062  15.701 -0.1821  0.3028 -0.2644
   86TCq2    O6 1321   3.929   3.268  15.656 -0.0279  0.2352  0.1234
   86TCq2    H2 1322   3.973   3.022  15.947 -0.5682  1.3371 -2.1408
   86TCq2    H3 1323   4.105   3.372  15.769 -2.1166 -2.2457 -1.1759
   86TCq2    H4 1324   4.228   3.275  16.168 -0.8477  0.8597  1.0760
   87MPD2     C 1325   0.765   1.193   1.703  0.1818 -0.3659 -0.2484
   87MPD2    C1 1326   0.831   1.140   1.593  0.3607  0.0876  0.3046
   87MPD2    C2 1327   0.811   1.203   1.471 -0.6138 -0.2470  0.5543
   87MPD2    C3 1328   0.731   1.314   1.453  0.3334  0.4498 -0.2465
   87MPD2    C4 1329   0.661   1.365   1.569 -0.1450  0.1990  0.3675
   87MPD2    C5 1330   0.679   1.297   1.686  0.2530 -0.3724  0.4288
   87MPD2     H 1331   0.863   1.160   1.386 -0.5601  0.4220  0.2520
   87MPD2    H1 1332   0.585   1.442   1.564 -0.8900 -0.6193 -0.9400
   87MPD2    H2 1333   0.784   1.156   1.803 -0.7618 -3.5496 -1.2556
   87MPD2    H3 1334   0.617   1.320   1.772 -0.9225  1.1815 -0.8476
   87MPD2     N 1335   0.728   1.389   1.330 -0.6490 -0.0309 -0.4522
   87MPD2    H5 1336   0.686   1.481   1.328  1.0488  0.8814  4.7766
   87MPD2    N1 1337   0.924   1.039   1.619 -0.1222 -0.1257  0.1672
   87MPD2    H7 1338   0.935   1.013   1.717 -2.5744  0.9715  0.7316
   88TCq2    C1 1339   0.991   0.964   1.531  0.5954 -0.3160  0.5167
   88TCq2    O2 1340   0.998   0.974   1.407 -0.0843 -0.2818  0.4205
   88TCq2    C2 1341   1.070   0.857   1.587  0.4501 -0.1851  0.6999
   88TCq2    C3 1342   1.072   0.841   1.726  0.5727 -0.2616 -0.1840
   88TCq2    C4 1343   1.169   0.765   1.783  0.8114  0.2420 -0.3184
   88TCq2    C5 1344   1.276   0.716   1.707  0.1288  0.3436  0.0280
   88TCq2    C6 1345   1.278   0.735   1.575 -0.9185  1.5912  0.0071
   88TCq2    C7 1346   1.177   0.801   1.510 -0.2770 -0.1879  1.1457
   88TCq2    C8 1347   1.382   0.667   1.495 -0.5491  0.0329 -0.6537
   88TCq2    O4 1348   1.413   0.729   1.394  0.1379 -0.0811  0.1767
   88TCq2    C9 1349   1.152   0.746   1.923 -0.1100 -0.2903  0.2961
   88TCq2    O5 1350   1.237   0.668   1.978  0.1684  0.6793  0.0451
   88TCq2    O6 1351   1.079   0.823   1.985 -0.0077  0.0442  0.0826
   88TCq2    H2 1352   0.994   0.859   1.799 -0.7308 -0.0714 -1.6049
   88TCq2    H3 1353   1.364   0.674   1.754 -0.3555 -1.1375 -0.4108
   88TCq2    H4 1354   1.172   0.811   1.402 -0.1718 -2.6391  0.9260
   89MPD2     C 1355   2.195   4.124   2.767  0.1220  0.5494 -0.4864
   89MPD2    C1 1356   2.189   4.092   2.640 -0.0444  0.0556 -0.5637
   89MPD2    C2 1357   2.272   4.163   2.557  0.2448 -0.5133 -0.0127
   89MPD2    C3 1358   2.356   4.259   2.601 -0.7242  0.2331 -0.3023
   89MPD2    C4 1359   2.350   4.301   2.726 -0.3664 -0.4991 -0.5949
   89MPD2    C5 1360   2.270   4.231   2.810 -0.3834 -0.4817 -0.2596
   89MPD2     H 1361   2.279   4.146   2.450  0.2808  0.8576 -0.2246
   89MPD2    H1 1362   2.408   4.382   2.768  0.7930 -1.4963 -0.2817
   89MPD2    H2 1363   2.117   4.088   2.832  0.4776  0.2779 -0.2162
   89MPD2    H3 1364   2.250   4.269   2.910 -0.6999 -1.6499  0.1242
   89MPD2     N 1365   2.442   4.305   2.503  0.1258  0.6061  0.0876
   89MPD2    H5 1366   2.430   4.248   2.419  0.8078 -0.6742  0.8476
   89MPD2    N1 1367   2.113   3.978   2.604  0.3683  0.3384  0.4330
   89MPD2    H7 1368   2.070   3.933   2.684  0.8915 -0.4042  0.3025
   90TCq2    C1 1369   2.515   4.417   2.506  0.1322 -0.2835 -0.3605
   90TCq2    O2 1370   2.531   4.492   2.605  0.4191 -0.6950  0.1098
   90TCq2    C2 1371   2.600   4.443   2.386  0.5094 -0.4387 -0.1223
   90TCq2    C3 1372   2.611   4.354   2.285  0.0366 -1.0011 -0.1543
   90TCq2    C4 1373   2.663   4.395   2.167 -0.2835 -0.1131 -0.8954
   90TCq2    C5 1374   2.717   4.523   2.156 -0.2501  0.2058 -0.6043
   90TCq2    C6 1375   2.717   4.603   2.265  0.0330 -0.2727  0.1938
   90TCq2    C7 1376   2.665   4.560   2.388  0.8219  0.6527 -0.2578
   90TCq2    C8 1377   2.731   0.018   2.250 -0.1429  0.2936 -0.4239
   90TCq2    O4 1378   2.744   0.081   2.351 -0.0233  0.0846  0.2210
   90TCq2    C9 1379   2.646   4.319   2.044  0.0288 -0.2403 -0.2138
   90TCq2    O5 1380   2.675   4.380   1.937 -0.4003 -0.1026  0.2846
   90TCq2    O6 1381   2.578   4.214   2.065  0.2195 -0.3678 -0.2909
   90TCq2    H2 1382   2.592   4.248   2.296  0.6304 -1.1765 -0.8234
   90TCq2    H3 1383   2.773   4.554   2.069  3.6946  1.9517  2.5295
   90TCq2    H4 1384   2.645   4.631   2.467 -0.1091 -0.4077  0.4596
   91TMC2    C1 1385   3.947   4.003  16.711 -0.9079 -0.7230  0.2439
   91TMC2    C2 1386   4.012   4.024  16.590 -0.8906 -0.5413  0.3993
   91TMC2    C3 1387   3.935   4.013  16.478 -0.1876  0.9890 -0.4815
   91TMC2    C4 1388   3.817   3.950  16.712 -1.4431 -0.3046 -0.2798
   91TMC2    C5 1389   3.753   3.934  16.593  0.4334  0.4657 -0.4318
   91TMC2    C6 1390   3.804   3.971  16.473  0.1584 -0.6030  0.0286
   91TMC2     C 1391   4.024   3.983  16.833  0.2960  0.2835 -0.1087
   91TMC2     O 1392   3.959   3.960  16.934  0.1532  0.3253 -0.5395
   91TMC2     H 1393   4.117   4.051  16.584 -0.4392 -2.4835 -0.4584
   91TMC2    H1 1394   3.787   3.912  16.808 -1.0904 -0.4512 -0.2274
   91TMC2    H2 1395   3.741   3.988  16.387  0.6245 -1.1332 -0.4144
   91TMC2    C7 1396   3.644   3.851  16.598 -0.2089  0.3720 -0.4695
   91TMC2    C8 1397   3.965   4.112  16.370 -0.3188  0.0780  0.0033
   91TMC2    O1 1398   3.576   3.857  16.699 -0.0617 -0.1143 -0.0219
   91TMC2    O2 1399   3.877   4.152  16.297 -0.4381 -0.3182 -0.4193
   91TMC2    O5 1400   4.090   4.091  16.332 -0.2382 -0.1380  0.4687
   91TMC2    H5 1401   4.152   4.048  16.394  0.5714  3.4162  2.0875
   92MPD2     C 1402   4.218   3.928  17.050  0.4489 -0.1340  0.1233
   92MPD2    C1 1403   4.256   3.973  16.926  0.7419  1.0223 -0.3515
   92MPD2    C2 1404   4.388   3.991  16.891  0.1379  0.5520  0.4049
   92MPD2    C3 1405   4.490   3.956  16.979  0.7284 -0.2386  0.3835
   92MPD2    C4 1406   4.455   3.898  17.102  0.0028 -0.2613  0.0621
   92MPD2    C5 1407   4.319   3.885  17.134  0.1402 -0.5914 -0.5784
   92MPD2     H 1408   4.406   4.027  16.790  0.5334  0.4630  0.4449
   92MPD2    H1 1409   4.531   3.858  17.168  0.2093 -0.3923 -0.2537
   92MPD2    H2 1410   4.115   3.920  17.081  0.2576  2.1027  0.0298
   92MPD2    H3 1411   4.287   3.866  17.236 -0.9294  3.2429 -0.2043
   92MPD2     N 1412   4.624   3.993  16.945  0.0862  0.3889  0.7755
   92MPD2    H5 1413   4.643   4.041  16.857 -2.9477 -0.7117 -0.4984
   92MPD2    N1 1414   4.160   3.991  16.825 -0.5059  0.5424  0.1152
   92MPD2    H7 1415   4.189   4.030  16.736 -0.3620  0.7272  0.2441
   93MPD2     C 1416   1.409   3.547  13.795 -0.2054 -0.1446  0.1545
   93MPD2    C1 1417   1.344   3.592  13.907  0.0339 -0.7356  0.0893
   93MPD2    C2 1418   1.211   3.583  13.922 -0.1168  0.0231 -1.0562
   93MPD2    C3 1419   1.144   3.492  13.837  0.1701 -0.4834 -0.3946
   93MPD2    C4 1420   1.216   3.430  13.735 -0.0253 -0.6593 -0.4084
   93MPD2    C5 1421   1.340   3.468  13.711  0.4456 -0.1393 -0.2001
   93MPD2     H 1422   1.154   3.634  13.999 -3.5766 -2.2283 -2.0876
   93MPD2    H1 1423   1.173   3.367  13.658 -1.6761 -0.0171 -0.0140
   93MPD2    H2 1424   1.515   3.554  13.778 -0.3280 -0.5798 -0.7912
   93MPD2    H3 1425   1.406   3.419  13.640 -0.4186  0.5605 -1.4899
   93MPD2     N 1426   1.005   3.464  13.848 -0.1664 -0.2668  0.1832
   93MPD2    H5 1427   0.969   3.388  13.792 -1.2048  0.4267 -0.1118
   93MPD2    N1 1428   1.410   3.668  14.007 -0.5393  0.1016 -0.2134
   93MPD2    H7 1429   1.350   3.726  14.065  1.2457  0.3403  1.4062
   94TCq2    C1 1430   1.549   3.678  14.016 -0.7878  0.0221  0.0301
   94TCq2    O2 1431   1.627   3.599  13.966 -0.0486  0.4084  0.4885
   94TCq2    C2 1432   1.597   3.780  14.103  0.3250  0.6693 -0.2496
   94TCq2    C3 1433   1.505   3.841  14.186 -0.1535 -0.6274  0.1996
   94TCq2    C4 1434   1.538   3.968  14.227  0.4035  0.6611  0.8368
   94TCq2    C5 1435   1.657   4.035  14.193  0.0901 -1.1189 -0.5582
   94TCq2    C6 1436   1.745   3.967  14.115 -0.6192 -0.2591 -0.0586
   94TCq2    C7 1437   1.713   3.841  14.066 -0.2411 -0.3056 -0.3031
   94TCq2    C8 1438   1.875   4.026  14.103  0.3240  0.0795  0.3863
   94TCq2    O4 1439   1.949   3.954  14.038  0.2369  0.8942 -0.5996
   94TCq2    C9 1440   1.457   4.034  14.318  0.8126 -0.8856  0.0442
   94TCq2    O5 1441   1.516   4.126  14.379 -0.2208 -0.3971 -0.5219
   94TCq2    O6 1442   1.334   3.999  14.322  0.6947 -0.0586 -0.4672
   94TCq2    H2 1443   1.415   3.793  14.221 -2.2473  2.0007 -1.6025
   94TCq2    H3 1444   1.658   4.141  14.217  3.4654 -1.3882  0.4505
   94TCq2    H4 1445   1.778   3.787  13.997  0.2304 -0.3448  0.1699
   95TMC2    C1 1446   1.615   0.325  15.821  0.4681 -1.3185 -0.7018
   95TMC2    C2 1447   1.610   0.197  15.778 -0.2371  0.3924  0.3839
   95TMC2    C3 1448   1.507   0.130  15.824 -0.3004 -0.3743  0.5898
   95TMC2    C4 1449   1.516   0.390  15.896 -0.2348  0.3097  0.2602
   95TMC2    C5 1450   1.419   0.310  15.939  0.0284  1.0066 -0.7382
   95TMC2    C6 1451   1.411   0.179  15.905 -0.0130 -0.0430 -0.3627
   95TMC2     C 1452   1.710   0.413  15.758  0.8722 -0.4248 -0.0529
   95TMC2     O 1453   1.698   0.533  15.779 -1.2077 -0.1603  0.5843
   95TMC2     H 1454   1.671   0.148  15.703 -1.0572  1.1128 -0.7537
   95TMC2    H1 1455   1.539   0.491  15.931 -0.5936  0.4580  0.0661
   95TMC2    H2 1456   1.330   0.121  15.947 -0.9337  1.9376  0.5967
   95TMC2    C7 1457   1.318   0.361  16.028 -0.4022 -0.1890  0.1802
   95TMC2    C8 1458   1.497   4.712  15.830 -0.3005  0.1551 -0.1092
   95TMC2    O1 1459   1.273   0.281  16.107  0.3869 -0.4277  0.3389
   95TMC2    O2 1460   1.395   4.646  15.847 -0.6270  0.4033 -0.1369
   95TMC2    O5 1461   1.623   4.671  15.829 -0.9638  0.1085  0.2509
   95TMC2    H5 1462   1.695   0.013  15.821 -0.5092 -0.6646 -1.9479
   96MPD2     C 1463   2.119   0.513  15.469 -0.1938 -0.1914  0.0632
   96MPD2    C1 1464   2.021   0.594  15.515 -0.8945 -0.6018  0.6633
   96MPD2    C2 1465   1.920   0.538  15.588 -0.0487  0.4053  0.3655
   96MPD2    C3 1466   1.920   0.404  15.620 -1.2075  0.1738  0.8259
   96MPD2    C4 1467   2.029   0.324  15.576 -0.3531  0.3299  0.4507
   96MPD2    C5 1468   2.125   0.378  15.496  0.4271  0.2924  0.9515
   96MPD2     H 1469   1.839   0.601  15.622 -1.4564 -1.6411  0.7784
   96MPD2    H1 1470   2.032   0.219  15.602 -0.8954 -0.2646 -1.8189
   96MPD2    H2 1471   2.198   0.550  15.404 -1.9520 -0.1635 -2.0360
   96MPD2    H3 1472   2.213   0.318  15.476  0.9452  0.5156  2.5547
   96MPD2     N 1473   1.819   0.347  15.700 -0.4755 -0.9314  0.7437
   96MPD2    H5 1474   1.840   0.250  15.718  0.8081 -1.0649 -1.3383
   96MPD2    N1 1475   2.025   0.719  15.462  0.1983  0.1934  0.5880
   96MPD2    H7 1476   2.095   0.737  15.391 -0.2986 -0.1947  0.0022
   97MPD2     C 1477   2.946   2.476   1.070 -0.4401  0.5277  0.3571
   97MPD2    C1 1478   3.050   2.562   1.076 -0.3688 -0.1601  0.4315
   97MPD2    C2 1479   3.086   2.625   0.960 -0.6094 -0.8658 -0.3783
   97MPD2    C3 1480   3.022   2.604   0.843 -0.2357  0.3526 -0.2270
   97MPD2    C4 1481   2.905   2.526   0.842  0.7186  0.1058  0.2905
   97MPD2    C5 1482   2.875   2.458   0.957  0.4178  0.0727 -0.0853
   97MPD2     H 1483   3.175   2.685   0.974 -0.9669 -1.0167  2.6984
   97MPD2    H1 1484   2.842   2.510   0.755  0.9142  0.3402  0.1062
   97MPD2    H2 1485   2.917   2.414   1.154 -1.1803  0.8632  0.3496
   97MPD2    H3 1486   2.785   2.397   0.953 -0.3630  1.1458  0.8692
   97MPD2     N 1487   3.053   2.679   0.725 -0.0586  0.2957  0.0580
   97MPD2    H5 1488   3.003   2.655   0.640  1.8448  1.4504 -1.3905
   97MPD2    N1 1489   3.098   2.599   1.200  0.0923 -0.1502 -0.0395
   97MPD2    H7 1490   3.050   2.562   1.282  1.4948 -1.2984  0.2696
   98TCq2    C1 1491   3.153   2.769   0.713 -0.0650 -0.2268  0.6798
   98TCq2    O2 1492   3.221   2.816   0.806 -0.2828  0.5800  0.1528
   98TCq2    C2 1493   3.174   2.812   0.578 -0.2019 -0.1183 -0.9401
   98TCq2    C3 1494   3.111   2.744   0.478 -0.1828 -0.0353  0.5421
   98TCq2    C4 1495   3.114   2.793   0.351  0.0473 -0.2631  0.2587
   98TCq2    C5 1496   3.164   2.922   0.330 -0.1759  0.1505  0.6342
   98TCq2    C6 1497   3.229   2.988   0.435 -0.4223 -0.5882  0.0292
   98TCq2    C7 1498   3.236   2.937   0.559  0.4589 -0.4632 -0.7381
   98TCq2    C8 1499   3.262   3.128   0.411  0.0541  0.7670  0.6386
   98TCq2    O4 1500   3.332   3.173   0.500  0.6984 -0.0556  0.0529
   98TCq2    C9 1501   3.060   2.717   0.242  0.0646 -0.3179 -0.6283
   98TCq2    O5 1502   3.030   2.597   0.266  0.5499 -0.0920  0.7960
   98TCq2    O6 1503   3.031   2.780   0.134 -0.5037  0.0667 -0.1787
   98TCq2    H2 1504   3.075   2.642   0.489 -2.0708  0.8071  2.2887
   98TCq2    H3 1505   3.166   2.960   0.229  2.1512 -0.5895  0.4102
   98TCq2    H4 1506   3.288   2.985   0.642 -1.1114 -0.5889  0.3218
   99MPD2     C 1507   2.298   4.668   2.450 -0.5410 -0.2647  0.0183
   99MPD2    C1 1508   2.190   4.581   2.416 -0.8713 -0.3504 -0.2030
   99MPD2    C2 1509   2.171   4.548   2.285 -0.2043  0.6389 -0.0984
   99MPD2    C3 1510   2.250   4.587   2.183  0.2068  0.6303 -0.9777
   99MPD2    C4 1511   2.363   4.664   2.210  0.3720  0.3045 -0.3334
   99MPD2    C5 1512   2.381   4.703   2.343 -0.7401 -0.7397 -1.5300
   99MPD2     H 1513   2.083   4.487   2.263  0.2693  0.5528 -1.7452
   99MPD2    H1 1514   2.438   4.693   2.138  1.4516  1.2672  1.1665
   99MPD2    H2 1515   2.316   4.710   2.549  1.1600 -1.6087  0.2836
   99MPD2    H3 1516   2.462   0.050   2.356  0.5630 -2.6365  0.5474
   99MPD2     N 1517   2.217   4.534   2.059 -0.1776  0.3218  0.0735
   99MPD2    H5 1518   2.124   4.497   2.045  0.0865 -0.6784  0.9820
   99MPD2    N1 1519   2.095   4.554   2.516  0.1193  0.4630  0.1084
   99MPD2    H7 1520   2.008   4.520   2.476 -1.4225  1.3625  2.7227
  100TCq2    C1 1521   2.111   4.578   2.648  0.0747  0.2404 -0.6653
  100TCq2    O2 1522   2.196   4.627   2.720 -0.1890 -0.4375  0.1071
  100TCq2    C2 1523   1.983   4.573   2.714 -0.3233 -0.2271 -0.3275
  100TCq2    C3 1524   1.985   4.560   2.853  0.3924  0.1278  0.3621
  100TCq2    C4 1525   1.880   4.608   2.920  0.1066  1.2691 -0.4607
  100TCq2    C5 1526   1.772   4.664   2.856 -0.2331 -0.2433 -0.7829
  100TCq2    C6 1527   1.771   4.681   2.720 -0.3649 -0.3555 -1.2233
  100TCq2    C7 1528   1.873   4.632   2.646  0.7813  0.6884 -0.8001
  100TCq2    C8 1529   1.642   4.703   2.655 -0.1992  0.1719 -0.3538
  100TCq2    O4 1530   1.559   0.013   2.741  0.1912 -0.2966 -0.6538
  100TCq2    C9 1531   1.883   4.607   3.065  0.0500  0.1800 -0.8966
  100TCq2    O5 1532   1.979   4.559   3.128  0.0119 -0.1030 -0.0757
  100TCq2    O6 1533   1.794   4.678   3.122 -0.6072  0.0305 -0.1801
  100TCq2    H2 1534   2.080   4.526   2.892 -0.0121 -2.1495 -0.5873
  100TCq2    H3 1535   1.687   4.702   2.912 -1.1204 -3.1237 -0.1583
  100TCq2    H4 1536   1.889   4.660   2.543  0.4182 -0.3760 -1.1502
  101MPD2     C 1537   2.818   1.727  12.582  1.0202  0.0933 -0.7102
  101MPD2    C1 1538   2.706   1.790  12.635 -0.7562  0.4828 -0.4732
  101MPD2    C2 1539   2.644   1.739  12.751 -1.8047 -0.6590  0.3213
  101MPD2    C3 1540   2.705   1.630  12.818  0.6025 -0.1525  0.1738
  101MPD2    C4 1541   2.824   1.575  12.773 -0.1526  0.4395  0.2769
  101MPD2    C5 1542   2.875   1.626  12.657 -0.1795  0.1963  0.2473
  101MPD2     H 1543   2.556   1.784  12.793 -1.7218 -2.8393  2.8617
  101MPD2    H1 1544   2.878   1.498  12.827 -0.5859  0.6151  0.9514
  101MPD2    H2 1545   2.874   1.760  12.495  1.1561 -0.5469 -0.8656
  101MPD2    H3 1546   2.958   1.578  12.607  0.5650  0.0167  1.6446
  101MPD2     N 1547   2.642   1.584  12.933 -0.3158  0.6844  0.2118
  101MPD2    H5 1548   2.560   1.637  12.959 -0.7352 -0.3764  1.0275
  101MPD2    N1 1549   2.668   1.924  12.591 -0.2832  0.4794 -0.3599
  101MPD2    H7 1550   2.736   1.954  12.522  0.9582 -2.4170 -0.3924
  102TCq2    C1 1551   2.787   2.313  12.357 -0.0366  0.8207  0.9470
  102TCq2    O2 1552   2.886   2.242  12.381  0.0498  0.9100  0.3066
  102TCq2    C2 1553   2.664   2.278  12.426 -1.1499  0.4125 -0.5736
  102TCq2    C3 1554   2.543   2.326  12.376  0.5970  1.0060  0.1615
  102TCq2    C4 1555   2.428   2.283  12.437  0.3803  0.2973  0.1148
  102TCq2    C5 1556   2.435   2.176  12.526  0.0137  0.1393  0.3371
  102TCq2    C6 1557   2.556   2.122  12.557  0.4501  0.0610  0.0548
  102TCq2    C7 1558   2.671   2.181  12.511  0.4766 -0.3810  0.2266
  102TCq2    C8 1559   2.559   2.000  12.638  0.5912 -0.2192  0.0425
  102TCq2    O4 1560   2.453   1.957  12.683  0.1916  0.3574  0.6910
  102TCq2    C9 1561   2.296   2.328  12.392  0.5996  0.7075  0.3572
  102TCq2    O5 1562   2.196   2.278  12.448 -0.5751 -0.4049 -0.5467
  102TCq2    O6 1563   2.288   2.422  12.309 -0.3775  0.4314  0.1975
  102TCq2    H2 1564   2.531   2.392  12.292  1.0334  1.8998  0.7979
  102TCq2    H3 1565   2.342   2.127  12.554 -0.9252 -0.0021 -2.9189
  102TCq2    H4 1566   2.766   2.152  12.553  1.5837  1.2096 -1.1867
  103TMC2    C1 1567   1.069   1.869  12.967  0.6258 -0.8967 -0.0377
  103TMC2    C2 1568   1.164   1.778  12.990  0.8786  0.8356 -0.1233
  103TMC2    C3 1569   1.138   1.674  13.080  0.1290 -0.4221 -0.3783
  103TMC2    C4 1570   0.948   1.856  13.023  0.3993  0.9561  0.2561
  103TMC2    C5 1571   0.926   1.753  13.112  0.0599  0.1424 -0.1396
  103TMC2    C6 1572   1.027   1.671  13.154 -0.2892 -0.0912 -0.1104
  103TMC2     C 1573   1.091   1.943  12.845 -0.2010  0.0743  0.1625
  103TMC2     O 1574   0.993   1.952  12.773 -0.1264 -0.2781  0.6259
  103TMC2     H 1575   1.257   1.768  12.936  0.7912  1.5101 -0.3984
  103TMC2    H1 1576   0.872   1.929  12.996  1.0622  1.4064 -0.4258
  103TMC2    H2 1577   1.011   1.605  13.238 -2.9838  1.9999  1.0571
  103TMC2    C7 1578   0.827   1.766  13.213 -0.5371 -0.0773  0.5820
  103TMC2    C8 1579   1.221   1.553  13.080  0.2554  0.8752 -0.5508
  103TMC2    O1 1580   0.868   1.751  13.325 -0.0349  0.3972  0.5182
  103TMC2    O2 1581   1.182   1.434  13.091 -0.2803 -0.0752  0.3800
  103TMC2    O5 1582   1.353   1.588  13.072  0.4271 -0.2330  0.0356
  103TMC2    H5 1583   1.373   1.679  13.101  0.3891  0.0322 -0.7605
  104MPD2     C 1584   1.429   1.990  12.711 -0.4358 -0.2908 -0.2741
  104MPD2    C1 1585   1.287   1.984  12.707 -0.1180  0.1082 -0.5270
  104MPD2    C2 1586   1.226   2.014  12.588 -0.4669  0.2917 -0.0074
  104MPD2    C3 1587   1.294   2.058  12.479 -0.6002 -0.1241 -0.5180
  104MPD2    C4 1588   1.430   2.072  12.487  0.0336 -0.0783  0.2832
  104MPD2    C5 1589   1.493   2.040  12.600  0.2779 -0.5921  0.5070
  104MPD2     H 1590   1.118   2.015  12.578 -0.2437 -1.8091 -2.3352
  104MPD2    H1 1591   1.493   2.095  12.403 -3.2417  1.0104 -1.8596
  104MPD2    H2 1592   1.488   1.945  12.790 -1.1625  0.2903  0.6048
  104MPD2    H3 1593   1.600   2.045  12.615  0.3506 -0.4799 -0.0405
  104MPD2     N 1594   1.213   2.086  12.368 -0.0434  0.2868 -0.1257
  104MPD2    H5 1595   1.112   2.081  12.377  0.1207 -0.1318  1.4077
  104MPD2    N1 1596   1.226   1.952  12.827  1.0570 -0.2502  0.0353
  104MPD2    H7 1597   1.285   1.941  12.909  2.1935 -0.9561 -0.8906
  105MPD2     C 1598   2.387   0.370   0.325 -0.2401  0.2709 -0.2480
  105MPD2    C1 1599   2.337   0.493   0.328 -0.8843  0.4611 -0.3850
  105MPD2    C2 1600   2.238   0.532   0.418  0.2944 -0.9501 -0.2850
  105MPD2    C3 1601   2.200   0.440   0.521 -0.1376 -0.0976  0.2330
  105MPD2    C4 1602   2.270   0.322   0.529 -0.0300 -0.2662 -0.6594
  105MPD2    C5 1603   2.368   0.294   0.441 -0.1415 -0.6689 -0.9603
  105MPD2     H 1604   2.186   0.626   0.408  1.2323 -0.1111  2.6500
  105MPD2    H1 1605   2.262   0.240   0.600 -3.4655 -0.5917 -1.3951
  105MPD2    H2 1606   2.470   0.331   0.267 -2.6192 -1.6552 -2.3976
  105MPD2    H3 1607   2.412   0.195   0.450 -0.2931 -0.5674  0.9151
  105MPD2     N 1608   2.083   0.468   0.594 -0.4952 -0.1295  1.1288
  105MPD2    H5 1609   2.020   0.533   0.550 -0.1565 -0.4051  0.2227
  105MPD2    N1 1610   2.377   0.593   0.233 -0.4213  1.0062 -0.2324
  105MPD2    H7 1611   2.326   0.681   0.232 -0.4292  0.9944 -0.9855
  106TCq2    C1 1612   2.042   0.394   0.704 -0.4387  0.4038  0.3100
  106TCq2    O2 1613   2.102   0.308   0.767 -0.4566  0.0870  0.0780
  106TCq2    C2 1614   1.905   0.425   0.759 -0.3160 -0.4073 -0.4160
  106TCq2    C3 1615   1.834   0.542   0.721 -1.0726  0.4139  0.5126
  106TCq2    C4 1616   1.747   0.599   0.812 -0.1845 -0.2296  0.2187
  106TCq2    C5 1617   1.724   0.546   0.938  0.6926  0.3178  0.3968
  106TCq2    C6 1618   1.783   0.422   0.958  0.7056 -0.3401 -0.5930
  106TCq2    C7 1619   1.869   0.360   0.871  0.3743  0.3534 -0.1261
  106TCq2    C8 1620   1.783   0.359   1.092  0.3446 -0.4912 -0.6154
  106TCq2    O4 1621   1.863   0.266   1.119 -0.4211 -0.2922  0.3280
  106TCq2    C9 1622   1.678   0.717   0.782 -0.4857 -0.2496 -0.0141
  106TCq2    O5 1623   1.633   0.784   0.880 -0.0056  0.1174  0.4023
  106TCq2    O6 1624   1.665   0.743   0.664  0.3395  0.2934 -0.2472
  106TCq2    H2 1625   1.865   0.600   0.635 -1.8761 -2.4475 -1.7081
  106TCq2    H3 1626   1.648   0.595   0.996  1.4215  0.5981  1.1154
  106TCq2    H4 1627   1.923   0.275   0.911 -2.2525 -1.1907  0.1376
  107TMC2    C1 1628   3.230   0.077  11.886 -0.4311  0.2058  0.0158
  107TMC2    C2 1629   3.139   0.107  11.793  0.4845 -0.1476 -0.1440
  107TMC2    C3 1630   3.150   0.047  11.673 -0.2561 -0.2381 -0.4693
  107TMC2    C4 1631   3.307   4.685  11.877 -0.0241 -0.4196 -0.0774
  107TMC2    C5 1632   3.306   4.618  11.754  0.6573  0.1793  0.3754
  107TMC2    C6 1633   3.233   4.667  11.643  0.5488  0.3207  0.0519
  107TMC2     C 1634   3.224   0.146  12.010  0.2629  0.2760  0.2319
  107TMC2     O 1635   3.126   0.215  12.029  0.6457  0.1990 -0.1082
  107TMC2     H 1636   3.076   0.195  11.803 -2.2812 -2.0444 -0.8079
  107TMC2    H1 1637   3.367   4.650  11.960  0.0728  0.9593  0.4365
  107TMC2    H2 1638   3.229   4.628  11.542 -0.7069  0.1198  0.1742
  107TMC2    C7 1639   3.433   4.546  11.727 -0.4998 -0.3602  0.1000
  107TMC2    C8 1640   3.085   0.119  11.566 -0.2560  0.0680  0.4538
  107TMC2    O1 1641   3.478   4.485  11.824  0.0011 -0.1538  0.2230
  107TMC2    O2 1642   2.967   0.148  11.577 -0.1218  0.0025  0.1386
  107TMC2    O5 1643   3.153   0.106  11.449  0.4271 -0.1524  0.6176
  107TMC2    H5 1644   3.246   0.122  11.475 -0.0144  2.4348  0.5728
  108MPD2     C 1645   3.468   0.210  12.269 -0.0178 -0.2989 -0.0366
  108MPD2    C1 1646   3.347   0.190  12.210  0.1771 -0.6832 -0.2905
  108MPD2    C2 1647   3.234   0.200  12.299 -0.2015  0.0575  0.5301
  108MPD2    C3 1648   3.248   0.260  12.423 -1.1480 -0.1891  0.1804
  108MPD2    C4 1649   3.375   0.280  12.476 -0.4160 -0.4644 -0.6783
  108MPD2    C5 1650   3.485   0.250  12.401  0.7405 -0.6840 -0.7394
  108MPD2     H 1651   3.135   0.176  12.262  0.1752  1.9883 -1.7602
  108MPD2    H1 1652   3.386   0.321  12.576 -2.2706 -0.7208 -0.3677
  108MPD2    H2 1653   3.557   0.181  12.215 -1.3442 -0.4626 -2.1442
  108MPD2    H3 1654   3.578   0.247  12.456  0.2473 -2.1882  0.0041
  108MPD2     N 1655   3.138   0.287  12.504  0.1158  0.1040  0.2117
  108MPD2    H5 1656   3.146   0.328  12.596  0.9051 -0.9143  0.5953
  108MPD2    N1 1657   3.340   0.141  12.076  0.1801 -0.1203 -0.2416
  108MPD2    H7 1658   3.421   0.112  12.022  2.5566  0.2613  3.0525
  109MPD2     C 1659   2.728   1.345   2.134 -0.5011  0.0545  0.1891
  109MPD2    C1 1660   2.774   1.418   2.031 -0.0132  0.6797  0.0696
  109MPD2    C2 1661   2.870   1.521   2.045  0.2686  0.7724  0.5176
  109MPD2    C3 1662   2.914   1.544   2.176  0.3888  0.0613  0.0657
  109MPD2    C4 1663   2.874   1.458   2.281 -0.0180 -1.6100 -0.2657
  109MPD2    C5 1664   2.781   1.359   2.259 -0.1952  0.4911 -0.3110
  109MPD2     H 1665   2.896   1.587   1.963 -4.3622 -0.1800 -1.7334
  109MPD2    H1 1666   2.912   1.467   2.382 -1.3400 -0.5658  0.1427
  109MPD2    H2 1667   2.660   1.263   2.119 -1.0089  0.5424 -0.1780
  109MPD2    H3 1668   2.757   1.301   2.347 -3.1680 -1.8256 -2.6383
  109MPD2     N 1669   3.010   1.653   2.187 -0.0250 -0.5069 -0.1209
  109MPD2    H5 1670   3.030   1.686   2.093 -0.8324 -0.0864 -0.1484
  109MPD2    N1 1671   2.726   1.381   1.908  0.0595  0.1076 -0.0767
  109MPD2    H7 1672   2.643   1.323   1.907 -0.9797  1.5994 -1.9470
  110TCq2    C1 1673   3.074   1.698   2.301  0.4876  0.2543  0.0377
  110TCq2    O2 1674   3.082   1.639   2.411  0.0822 -0.1841  0.2505
  110TCq2    C2 1675   3.156   1.820   2.289 -0.2534  0.0878 -0.0619
  110TCq2    C3 1676   3.258   1.840   2.376  0.5211 -0.4210  0.2516
  110TCq2    C4 1677   3.335   1.955   2.364 -0.5847  0.2083 -0.6747
  110TCq2    C5 1678   3.307   2.055   2.273  0.3983 -0.1711 -0.8649
  110TCq2    C6 1679   3.211   2.021   2.181 -1.0740  0.1251 -0.5396
  110TCq2    C7 1680   3.130   1.908   2.189  0.3485 -0.1358  0.0644
  110TCq2    C8 1681   3.197   2.102   2.062 -0.3026  0.1123 -0.2051
  110TCq2    O4 1682   3.270   2.196   2.053 -0.1165  0.4167 -0.7544
  110TCq2    C9 1683   3.431   1.979   2.471 -0.2252  0.3427 -0.0172
  110TCq2    O5 1684   3.511   2.076   2.452  0.6363 -0.4339  0.4251
  110TCq2    O6 1685   3.450   1.892   2.560  0.5701 -0.8246 -0.2692
  110TCq2    H2 1686   3.292   1.769   2.452  1.7258  0.1493  0.2514
  110TCq2    H3 1687   3.372   2.142   2.267  0.1946  0.1257  1.2906
  110TCq2    H4 1688   3.060   1.869   2.116  1.0037  0.8211 -1.0718
  111TMC2    C1 1689   3.711   2.672  11.075  0.5629  0.3735 -0.1044
  111TMC2    C2 1690   3.830   2.677  11.008  0.0683 -0.2700 -1.0679
  111TMC2    C3 1691   3.936   2.610  11.062 -0.0394 -0.5812  0.8721
  111TMC2    C4 1692   3.694   2.601  11.194 -0.6329 -0.0171  0.1721
  111TMC2    C5 1693   3.805   2.537  11.244 -0.2856  0.6087 -1.3360
  111TMC2    C6 1694   3.927   2.544  11.181  0.6725  0.2199 -0.2124
  111TMC2     C 1695   3.591   2.700  10.993  0.1750  0.0477 -0.4914
  111TMC2     O 1696   3.602   2.708  10.875  0.1514 -0.0996  0.2904
  111TMC2     H 1697   3.844   2.732  10.915  1.0137  2.0844  0.4639
  111TMC2    H1 1698   3.590   2.578  11.216  0.2700 -6.2818 -1.9751
  111TMC2    H2 1699   4.019   2.505  11.223 -0.8904 -1.1555  1.8828
  111TMC2    C7 1700   3.801   2.500  11.385  0.4972  0.2892 -0.6710
  111TMC2    C8 1701   4.069   2.613  11.001  0.3202  0.4965 -0.2244
  111TMC2    O1 1702   3.699   2.536  11.446  0.7717 -0.2457 -0.0710
  111TMC2    O2 1703   4.153   2.686  11.050 -0.5434 -0.6322  0.0588
  111TMC2    O5 1704   4.044   2.582  10.874 -0.0365 -0.0135 -0.2629
  111TMC2    H5 1705   3.968   2.520  10.870 -0.9233  0.9322  1.8802
  112MPD2     C 1706   3.080   2.739  10.952  0.5953  0.1657 -0.1005
  112MPD2    C1 1707   3.179   2.752  10.858  0.2438 -0.7264 -0.4243
  112MPD2    C2 1708   3.308   2.747  10.899 -0.3235  0.1323 -0.4964
  112MPD2    C3 1709   3.339   2.731  11.030 -0.4487  0.3004  0.3653
  112MPD2    C4 1710   3.243   2.734  11.130  0.2292 -0.1629 -0.4452
  112MPD2    C5 1711   3.115   2.728  11.084  0.0811  0.1671  0.0012
  112MPD2     H 1712   3.380   2.772  10.823  0.6139 -1.6612 -0.2039
  112MPD2    H1 1713   3.269   2.717  11.234 -1.5207  1.2497  0.2106
  112MPD2    H2 1714   2.975   2.743  10.925  0.4904  2.6390  0.7383
  112MPD2    H3 1715   3.032   2.704  11.148  0.4573 -0.7454  0.1462
  112MPD2     N 1716   3.476   2.716  11.072  0.5193 -0.0915  0.2352
  112MPD2    H5 1717   3.489   2.694  11.170  0.4250 -1.9143 -0.1628
  112MPD2    N1 1718   3.146   2.775  10.723  0.3667  0.4580  0.4512
  112MPD2    H7 1719   3.221   2.809  10.664 -1.0220  0.2075 -1.4558
  113MPD2     C 1720   1.369   4.384   1.195 -0.1940  0.0629  0.7919
  113MPD2    C1 1721   1.276   4.434   1.278  0.3649 -0.8722 -0.0160
  113MPD2    C2 1722   1.138   4.411   1.255  0.5267  0.1074 -0.2683
  113MPD2    C3 1723   1.091   4.346   1.140 -0.3078  0.2117 -0.4568
  113MPD2    C4 1724   1.195   4.290   1.065  0.6448  0.0745  0.0216
  113MPD2    C5 1725   1.324   4.315   1.098  0.1760 -1.4315 -0.1474
  113MPD2     H 1726   1.061   4.448   1.322 -1.3005  0.5095 -2.6321
  113MPD2    H1 1727   1.175   4.247   0.967  1.2226 -1.0833  0.4127
  113MPD2    H2 1728   1.477   4.394   1.201 -0.4173  2.8053  0.0564
  113MPD2    H3 1729   1.393   4.285   1.021  1.0309  1.7214 -0.6139
  113MPD2     N 1730   0.956   4.326   1.100  0.2299 -0.1166 -0.3952
  113MPD2    H5 1731   0.942   4.258   1.026 -0.5193  1.4956 -1.7352
  113MPD2    N1 1732   1.308   4.524   1.379 -0.6824  0.3898  0.3862
  113MPD2    H7 1733   1.230   4.564   1.431 -1.3474  1.1202 -1.1644
  114TCq2    C1 1734   0.848   4.344   1.185 -0.4725 -0.0463 -0.1015
  114TCq2    O2 1735   0.850   4.393   1.296  0.3183  0.0010  0.4969
  114TCq2    C2 1736   0.721   4.293   1.128  0.0971  0.5323  0.2415
  114TCq2    C3 1737   0.720   4.266   0.999 -0.8572  0.2412 -0.8892
  114TCq2    C4 1738   0.631   4.176   0.940  0.2799 -0.3141 -0.0912
  114TCq2    C5 1739   0.547   4.105   1.018 -0.4034  0.1970  0.1158
  114TCq2    C6 1740   0.558   4.122   1.156  0.1719 -0.3990  0.2839
  114TCq2    C7 1741   0.642   4.213   1.210 -0.4438 -0.5666 -0.2307
  114TCq2    C8 1742   0.472   4.048   1.244  0.4258  0.1986  0.3007
  114TCq2    O4 1743   0.421   3.948   1.200 -0.1999  0.4954  0.4356
  114TCq2    C9 1744   0.638   4.149   0.795  0.1962  0.6875 -0.2014
  114TCq2    O5 1745   0.745   4.175   0.737  0.2717 -0.1471  0.8435
  114TCq2    O6 1746   0.548   4.072   0.758  0.4684 -0.0230  0.1528
  114TCq2    H2 1747   0.785   4.315   0.927 -0.2959 -0.7990 -1.0917
  114TCq2    H3 1748   0.477   4.036   0.972  3.0647 -1.3509 -2.8469
  114TCq2    H4 1749   0.650   4.231   1.317 -0.8131  0.6072 -0.4039
  115TMC2    C1 1750   2.067   2.914   0.514 -0.2096 -0.5352  1.6289
  115TMC2    C2 1751   2.115   2.956   0.634  0.7620  0.2318  0.3563
  115TMC2    C3 1752   2.158   3.088   0.627 -0.6834  0.3017 -0.3486
  115TMC2    C4 1753   2.069   2.986   0.402 -0.6557  0.2701  0.4257
  115TMC2    C5 1754   2.104   3.119   0.401 -0.3566  0.2559  0.0010
  115TMC2    C6 1755   2.140   3.169   0.517  0.6745 -0.4082 -0.0991
  115TMC2     C 1756   1.976   2.795   0.515 -0.3760 -0.3815 -0.2313
  115TMC2     O 1757   1.955   2.756   0.399 -0.3974  0.0582 -0.1764
  115TMC2     H 1758   2.145   2.888   0.712  1.4699 -0.0287 -0.1429
  115TMC2    H1 1759   2.031   2.945   0.309  3.6358 -0.9629 -0.8176
  115TMC2    H2 1760   2.154   3.275   0.533  2.9712 -0.9234  1.3808
  115TMC2    C7 1761   2.029   3.199   0.306 -0.1557  0.6055  0.0207
  115TMC2    C8 1762   2.196   3.167   0.750  0.1858  0.3468  0.9647
  115TMC2    O1 1763   1.922   3.159   0.266  0.2017  0.2018 -0.8554
  115TMC2    O2 1764   2.248   3.274   0.742  0.0469 -0.1090 -0.1302
  115TMC2    O5 1765   2.144   3.107   0.859  0.0357 -0.5015 -0.0753
  115TMC2    H5 1766   2.074   3.044   0.834 -1.3415  1.4380 -1.0575
  116MPD2     C 1767   1.604   2.504   0.719 -0.3171  0.1370  0.7825
  116MPD2    C1 1768   1.646   2.526   0.590  0.4752  0.1106  0.2932
  116MPD2    C2 1769   1.755   2.600   0.567 -0.3788 -0.6512  0.6608
  116MPD2    C3 1770   1.816   2.674   0.664 -0.1277  0.0469  0.4558
  116MPD2    C4 1771   1.779   2.649   0.794 -0.1078 -1.0441  0.4333
  116MPD2    C5 1772   1.675   2.568   0.818 -0.0290  0.2565  0.1704
  116MPD2     H 1773   1.791   2.614   0.466 -2.5416  0.6306  0.0620
  116MPD2    H1 1774   1.819   2.703   0.878 -1.6617  0.2562  0.3518
  116MPD2    H2 1775   1.520   2.442   0.746 -2.2241  2.4218  0.1483
  116MPD2    H3 1776   1.637   2.553   0.919 -0.6010 -0.8847 -0.2119
  116MPD2     N 1777   1.918   2.762   0.637 -0.1531  0.3280 -0.1672
  116MPD2    H5 1778   1.962   2.802   0.719  0.9742 -3.4354  1.0397
  116MPD2    N1 1779   1.569   2.456   0.491  0.1210 -0.4597 -0.9272
  116MPD2    H7 1780   1.500   2.387   0.519  1.2938 -1.5034 -0.6316
  117TMC2    C1 1781   0.175   4.268  14.366  0.5422 -0.3464 -0.5196
  117TMC2    C2 1782   0.163   4.176  14.471  0.1358 -0.0561  0.1338
  117TMC2    C3 1783   0.278   4.159  14.549 -0.2423  0.4616 -0.0235
  117TMC2    C4 1784   0.298   4.325  14.333 -0.3491 -0.5478  0.0100
  117TMC2    C5 1785   0.408   4.301  14.415 -0.7563 -0.1341  0.2105
  117TMC2    C6 1786   0.393   4.225  14.530 -0.5261  0.5719 -0.4600
  117TMC2     C 1787   0.082   4.255  14.248 -0.0368  0.3557 -0.3308
  117TMC2     O 1788   4.720   4.166  14.261  0.3678  0.3966  0.2587
  117TMC2     H 1789   0.067   4.127  14.484 -1.1742  2.1801 -1.1376
  117TMC2    H1 1790   0.302   4.382  14.241  0.1026 -1.0500 -0.2833
  117TMC2    H2 1791   0.473   4.217  14.603 -1.9701 -0.7899  0.9582
  117TMC2    C7 1792   0.538   4.351  14.383  0.4995  0.2047  0.2337
  117TMC2    C8 1793   0.250   4.120  14.682 -0.0558  0.1001 -0.1071
  117TMC2    O1 1794   0.535   4.431  14.292  0.3037  0.0581  0.4394
  117TMC2    O2 1795   0.318   4.151  14.780 -0.4889  0.1169 -0.3294
  117TMC2    O5 1796   0.176   4.014  14.679 -0.3710 -0.3596 -0.1401
  117TMC2    H5 1797   0.159   3.983  14.587 -3.9780 -0.5702  0.6031
  118MPD2     C 1798   0.852   4.328  14.569  0.6090  0.3676 -0.4443
  118MPD2    C1 1799   0.769   4.372  14.472 -0.0994 -0.8077  0.0113
  118MPD2    C2 1800   0.816   4.462  14.379  0.6082 -0.4892 -0.0067
  118MPD2    C3 1801   0.945   4.515  14.383 -0.2360  0.6356  0.2840
  118MPD2    C4 1802   1.025   4.476  14.491 -0.4556  0.4739  0.2331
  118MPD2    C5 1803   0.978   4.380  14.580  0.7668 -0.9333  0.6086
  118MPD2     H 1804   0.758   4.494  14.293 -0.1782 -1.1142  0.2826
  118MPD2    H1 1805   1.127   4.509  14.507 -0.3937  0.3599  0.0662
  118MPD2    H2 1806   0.830   4.248  14.639 -1.5330  1.0092 -0.3967
  118MPD2    H3 1807   1.044   4.358  14.663  0.6439  0.7760  1.1614
  118MPD2     N 1808   1.006   4.606  14.289  0.6350 -0.6567  0.4686
  118MPD2    H5 1809   1.104   4.627  14.305  0.0464  0.0556  3.1926
  118MPD2    N1 1810   0.641   4.313  14.465  0.0252 -0.0527 -0.2017
  118MPD2    H7 1811   0.623   4.238  14.531  2.2427  1.3706  2.0208
  119MPD2     C 1812   3.861   1.164  13.499  0.6864  0.4944 -0.1717
  119MPD2    C1 1813   3.728   1.168  13.534 -0.3046  0.0187  0.9186
  119MPD2    C2 1814   3.632   1.171  13.439 -0.2332  0.3686 -0.1369
  119MPD2    C3 1815   3.665   1.155  13.308 -0.1864 -0.8527 -0.0235
  119MPD2    C4 1816   3.792   1.154  13.269 -0.0747 -0.4484  0.5586
  119MPD2    C5 1817   3.894   1.157  13.365 -0.3478 -0.1478 -0.2580
  119MPD2     H 1818   3.526   1.179  13.457 -0.2121 -1.8403  1.0019
  119MPD2    H1 1819   3.822   1.139  13.166 -2.2489 -2.2199  0.1724
  119MPD2    H2 1820   3.938   1.177  13.574  0.0445  0.5827  0.4669
  119MPD2    H3 1821   3.998   1.165  13.335 -0.9454 -1.5051 -2.6866
  119MPD2     N 1822   3.580   1.123  13.207 -0.9383  0.0034 -0.5352
  119MPD2    H5 1823   3.620   1.082  13.123 -1.0793 -2.3952  0.5939
  119MPD2    N1 1824   3.698   1.167  13.670  0.5355 -0.0880 -0.0706
  119MPD2    H7 1825   3.771   1.197  13.734  2.6234 -2.2930 -1.3989
  120TCq2    C1 1826   3.440   1.107  13.215 -0.3304 -0.1269  0.5419
  120TCq2    O2 1827   3.363   1.141  13.305 -0.3516 -0.1330 -0.0555
  120TCq2    C2 1828   3.381   1.053  13.092 -0.2306 -0.0793  0.4279
  120TCq2    C3 1829   3.462   1.040  12.983  0.6945  0.0559  0.0838
  120TCq2    C4 1830   3.442   0.943  12.895 -0.5700 -0.0204  0.0778
  120TCq2    C5 1831   3.342   0.848  12.913 -0.3708  0.8327  0.8192
  120TCq2    C6 1832   3.268   0.860  13.030 -0.3475 -0.1396  0.5687
  120TCq2    C7 1833   3.277   0.966  13.118  0.6697 -0.2842  0.1041
  120TCq2    C8 1834   3.205   0.732  13.065 -0.2724  0.2329 -0.2033
  120TCq2    O4 1835   3.232   0.638  12.988 -0.4945 -0.3563 -0.6880
  120TCq2    C9 1836   3.532   0.936  12.788  0.2285 -0.0534 -0.3875
  120TCq2    O5 1837   3.499   0.864  12.691 -0.2827  0.1304  0.1334
  120TCq2    O6 1838   3.627   1.010  12.780 -0.1351  0.3952 -0.3781
  120TCq2    H2 1839   3.541   1.112  12.961 -0.4789  1.6030  0.9393
  120TCq2    H3 1840   3.336   0.769  12.839  0.4654  1.6526 -0.1245
  120TCq2    H4 1841   3.233   0.965  13.217 -0.2467  1.6094 -0.2785
  121TMC2    C1 1842   0.366   2.643  14.303  0.2297 -0.3798  0.4130
  121TMC2    C2 1843   0.306   2.670  14.422  0.0975 -1.0401 -0.3081
  121TMC2    C3 1844   0.194   2.597  14.456 -0.3297 -0.5984  0.4132
  121TMC2    C4 1845   0.299   2.575  14.196 -0.2670 -1.0125 -0.0234
  121TMC2    C5 1846   0.172   2.527  14.227  1.0064 -0.2247 -0.0083
  121TMC2    C6 1847   0.119   2.538  14.353  0.0400 -0.3928  0.8849
  121TMC2     C 1848   0.513   2.657  14.302 -0.0265  0.9038  0.2968
  121TMC2     O 1849   0.567   2.685  14.409  0.3367 -0.1725 -0.4188
  121TMC2     H 1850   0.361   2.733  14.491 -1.8503  1.7113 -1.2736
  121TMC2    H1 1851   0.356   2.539  14.111 -0.8339 -0.5323 -0.6096
  121TMC2    H2 1852   0.043   2.464  14.376  0.2126 -0.6902  0.4936
  121TMC2    C7 1853   0.102   2.451  14.127 -0.0813 -0.7099  0.4496
  121TMC2    C8 1854   0.122   2.638  14.578 -0.6110  0.2184  0.2364
  121TMC2    O1 1855   0.172   2.383  14.053 -0.3346 -0.2208 -0.0966
  121TMC2    O2 1856   0.170   2.682  14.682  0.7742 -1.0360 -0.0554
  121TMC2    O5 1857   4.721   2.652  14.539 -0.1389 -0.5333 -0.0600
  121TMC2    H5 1858   4.704   2.636  14.443 -0.2955 -0.2689 -0.0776
  122MPD2     C 1859   0.801   2.726  14.250  0.8476 -0.0319  0.1794
  122MPD2    C1 1860   0.705   2.725  14.151  0.2010 -0.2273 -0.1098
  122MPD2    C2 1861   0.740   2.753  14.021 -0.3363 -0.4223  0.1780
  122MPD2    C3 1862   0.868   2.794  13.991 -0.2064  0.1708 -0.1290
  122MPD2    C4 1863   0.968   2.782  14.088  0.1081 -0.2737  0.2357
  122MPD2    C5 1864   0.929   2.750  14.212  0.0131  0.3043  0.0245
  122MPD2     H 1865   0.662   2.745  13.947 -0.4952  0.2291  0.2785
  122MPD2    H1 1866   1.064   2.828  14.065 -2.0018  2.6684 -2.7972
  122MPD2    H2 1867   0.791   2.701  14.355  1.0304 -0.8613  0.0002
  122MPD2    H3 1868   0.998   2.741  14.295  1.0058 -0.3052 -0.8756
  122MPD2     N 1869   0.906   2.849  13.867  0.4223  0.0723 -0.9424
  122MPD2    H5 1870   1.004   2.870  13.856  0.5830 -0.2617 -0.1594
  122MPD2    N1 1871   0.566   2.681  14.177 -0.5980  0.1775  0.4359
  122MPD2    H7 1872   0.502   2.691  14.099  1.0016  1.2830 -0.7378
  123MPD2     C 1873   3.823   1.663  10.275  0.0506 -0.5673 -0.1321
  123MPD2    C1 1874   3.707   1.601  10.227 -0.6165  0.1513 -0.3314
  123MPD2    C2 1875   3.644   1.671  10.128  0.0492 -0.0979  0.5524
  123MPD2    C3 1876   3.692   1.789  10.082  0.0817  0.2716 -0.5871
  123MPD2    C4 1877   3.800   1.850  10.136 -0.1088  0.1191 -0.0134
  123MPD2    C5 1878   3.865   1.783  10.230  0.0760  0.8306 -0.4693
  123MPD2     H 1879   3.552   1.628  10.090  0.3172 -0.3966  0.2415
  123MPD2    H1 1880   3.844   1.941  10.096  0.0037 -0.9228 -2.2359
  123MPD2    H2 1881   3.873   1.611  10.357  0.2013 -0.5053 -0.1839
  123MPD2    H3 1882   3.960   1.824  10.261  0.9831 -1.3735 -0.3505
  123MPD2     N 1883   3.611   1.851   9.974 -0.8764  0.2464  0.2699
  123MPD2    H5 1884   3.530   1.793   9.953 -1.0259  0.8851 -0.9033
  123MPD2    N1 1885   3.654   1.489  10.299  0.1875  0.4642  0.0666
  123MPD2    H7 1886   3.702   1.471  10.387 -0.5410  0.4324  0.4540
  124TCq2    C1 1887   3.620   1.977   9.927 -0.2875  0.4200 -0.3269
  124TCq2    O2 1888   3.689   2.065   9.969  0.1280 -0.3466  0.3078
  124TCq2    C2 1889   3.517   2.009   9.832 -0.1803 -0.2285  0.7768
  124TCq2    C3 1890   3.540   2.128   9.760 -0.0345  0.4176 -0.2984
  124TCq2    C4 1891   3.457   2.166   9.662  0.4966  0.0656 -0.1181
  124TCq2    C5 1892   3.349   2.090   9.634  0.0448 -0.5160 -0.7410
  124TCq2    C6 1893   3.327   1.970   9.700  0.0234 -0.6716  0.2663
  124TCq2    C7 1894   3.407   1.930   9.802 -0.1117  0.4787 -0.5751
  124TCq2    C8 1895   3.249   1.867   9.631 -0.3903  0.2958  0.2573
  124TCq2    O4 1896   3.246   1.756   9.685 -0.2063 -0.5789  0.0434
  124TCq2    C9 1897   3.484   2.287   9.583  0.1169  0.0506 -0.4597
  124TCq2    O5 1898   3.574   2.361   9.634  0.5414  0.4397  0.3376
  124TCq2    O6 1899   3.400   2.329   9.501 -0.4917 -0.0523 -0.4447
  124TCq2    H2 1900   3.625   2.190   9.785 -0.3854  0.8877 -0.2811
  124TCq2    H3 1901   3.281   2.132   9.561 -2.7502 -0.1174  2.1147
  124TCq2    H4 1902   3.380   1.843   9.862  0.1131 -0.9460 -2.5383
  125TMC2    C1 1903   3.464   2.769  10.221 -0.1523  0.0052  0.5780
  125TMC2    C2 1904   3.426   2.868  10.128 -0.1547  1.0901 -0.2766
  125TMC2    C3 1905   3.525   2.926  10.046  0.3764  0.2088 -0.1026
  125TMC2    C4 1906   3.597   2.731  10.220 -0.0781  0.3015 -0.2851
  125TMC2    C5 1907   3.694   2.794  10.144 -0.2040 -0.3343 -0.0524
  125TMC2    C6 1908   3.656   2.897  10.054 -0.3952  0.0374 -0.1309
  125TMC2     C 1909   3.359   2.697  10.285 -0.0781  0.2447  0.8738
  125TMC2     O 1910   3.249   2.728  10.245 -0.1888 -0.7296 -0.2168
  125TMC2     H 1911   3.327   2.912  10.127  0.0902  1.6494  0.4427
  125TMC2    H1 1912   3.627   2.654  10.290  0.0930 -0.5869 -1.3341
  125TMC2    H2 1913   3.725   2.956   9.996 -1.6358  1.1516 -0.4692
  125TMC2    C7 1914   3.828   2.743  10.161  0.1898  0.1907 -0.0682
  125TMC2    C8 1915   3.490   3.032   9.953  0.0327 -0.8172  0.5314
  125TMC2    O1 1916   3.866   2.679  10.258  0.0522  0.2227  0.0933
  125TMC2    O2 1917   3.576   3.102   9.904  0.1757 -0.7157  0.1213
  125TMC2    O5 1918   3.398   2.957   9.886  0.4868  0.0917 -0.0643
  125TMC2    H5 1919   3.380   2.868   9.922  2.3589 -0.1471  0.2560
  126MPD1     C 1920   3.159   2.384  10.633  0.0991  0.1046  0.1312
  126MPD1    C1 1921   3.269   2.443  10.690  0.0871  0.4852  0.4793
  126MPD1    C2 1922   3.346   2.523  10.614  0.2903 -0.6715  0.5788
  126MPD1    C3 1923   3.311   2.553  10.478 -0.9500  0.3924  0.2350
  126MPD1    C4 1924   3.201   2.498  10.425  0.7463 -0.7041  0.6048
  126MPD1    C5 1925   3.130   2.403  10.497 -0.8624 -0.0606 -0.1462
  126MPD1     H 1926   3.430   2.574  10.660 -0.6627  1.2772  0.1632
  126MPD1    H1 1927   3.169   2.530  10.326  2.0017  1.9254  1.0576
  126MPD1    H2 1928   3.092   2.323  10.693 -0.3713 -0.0387 -0.5346
  126MPD1    H3 1929   3.045   2.350  10.456  1.2786 -2.9593 -0.8935
  126MPD1     N 1930   3.392   2.629  10.401 -0.1599 -0.1910 -0.2432
  126MPD1    H5 1931   3.488   2.633  10.434 -0.5149 -0.5166  0.8222
  126MPD1    N1 1932   3.297   2.421  10.825 -0.2588 -0.1593 -0.5368
  126MPD1    H6 1933   3.209   2.424  10.877 -1.0643  0.8499 -1.9706
  126MPD1    H7 1934   3.354   2.490  10.873  0.3865 -1.4614  0.5777
  127MPD2     C 1935   0.018   1.785   9.459 -0.0745 -0.4130 -0.1787
  127MPD2    C1 1936   0.134   1.788   9.534 -0.3588 -0.6237  0.2601
  127MPD2    C2 1937   0.238   1.870   9.501 -0.4055  0.1485 -0.0271
  127MPD2    C3 1938   0.222   1.962   9.407  0.1986 -0.3754  0.3469
  127MPD2    C4 1939   0.103   1.962   9.330 -0.0959 -0.5869 -0.1970
  127MPD2    C5 1940   0.005   1.872   9.357 -0.6109 -0.6523 -0.4137
  127MPD2     H 1941   0.324   1.873   9.567 -1.0999 -0.1432  0.8924
  127MPD2    H1 1942   0.093   2.029   9.245 -0.8378 -0.9823 -0.4238
  127MPD2    H2 1943   4.653   1.732   9.492 -0.0890 -1.0187 -1.2007
  127MPD2    H3 1944   4.635   1.865   9.303 -0.8707 -0.0329 -0.0492
  127MPD2     N 1945   0.338   2.048   9.375 -0.8693  0.4329 -0.3764
  127MPD2    H5 1946   0.425   2.040   9.427 -0.9687  0.2383 -0.2379
  127MPD2    N1 1947   0.134   1.711   9.651 -0.2401  0.2343  0.6029
  127MPD2    H7 1948   0.047   1.663   9.671  0.7479 -2.0813 -0.5959
  128TCq2    C1 1949   0.230   1.704   9.747  0.9350 -0.0405 -0.0721
  128TCq2    O2 1950   0.334   1.759   9.768  0.5852 -0.1446  0.4578
  128TCq2    C2 1951   0.176   1.621   9.858 -0.9955  0.0636 -0.4340
  128TCq2    C3 1952   0.125   1.495   9.834 -0.1598 -0.1113 -0.1294
  128TCq2    C4 1953   0.122   1.404   9.933  0.2972 -0.2051 -0.1108
  128TCq2    C5 1954   0.164   1.439  10.054 -0.1369  0.0688  0.2665
  128TCq2    C6 1955   0.202   1.566  10.082  0.2837  0.3283  0.2257
  128TCq2    C7 1956   0.212   1.657   9.985  0.1943  0.1851  0.2340
  128TCq2    C8 1957   0.208   1.614  10.223  0.7207 -0.1546 -0.2303
  128TCq2    O4 1958   0.192   1.734  10.249 -0.7768 -0.7253 -0.5690
  128TCq2    C9 1959   0.060   1.279   9.906 -0.5044 -0.8274  0.0871
  128TCq2    O5 1960   0.042   1.202  10.009  0.2737 -0.7473 -0.1471
  128TCq2    O6 1961   0.007   1.263   9.795 -0.0972 -0.1857 -0.0559
  128TCq2    H2 1962   0.091   1.471   9.734  0.7385  1.0718 -0.7060
  128TCq2    H3 1963   0.154   1.365  10.133  2.1814 -1.6570 -1.0431
  128TCq2    H4 1964   0.253   1.755  10.004  1.1580 -0.2519  0.4383
  129MPD2     C 1965   3.186   2.216   1.186  0.3096  0.1434  1.3613
  129MPD2    C1 1966   3.300   2.265   1.246  0.5757 -0.9892 -0.0062
  129MPD2    C2 1967   3.378   2.341   1.170 -0.4071  0.0278 -0.0828
  129MPD2    C3 1968   3.352   2.368   1.037 -0.3614  0.3098 -0.1815
  129MPD2    C4 1969   3.245   2.307   0.975  0.2564  0.7496  0.4239
  129MPD2    C5 1970   3.160   2.228   1.048 -0.2587 -0.6048  0.2276
  129MPD2     H 1971   3.469   2.383   1.211 -2.2445  2.6662  1.2540
  129MPD2    H1 1972   3.217   2.307   0.870 -0.0037  0.4008  0.4926
  129MPD2    H2 1973   3.127   2.137   1.232 -2.1349  0.9625 -0.3917
  129MPD2    H3 1974   3.076   2.191   0.990 -1.3953  1.8832  0.3041
  129MPD2     N 1975   3.442   2.451   0.968 -0.2876  0.5220 -0.3231
  129MPD2    H5 1976   3.515   2.489   1.028  0.6461  1.3260 -1.9907
  129MPD2    N1 1977   3.350   2.229   1.374  0.7952 -0.5176 -0.8200
  129MPD2    H7 1978   3.434   2.274   1.408  0.4560 -1.0685  0.7330
  130TCq2    C1 1979   3.280   2.155   1.471 -0.1937 -0.5173 -0.1964
  130TCq2    O2 1980   3.183   2.085   1.438 -0.0372  0.0735 -0.1694
  130TCq2    C2 1981   3.356   2.123   1.587  0.3075  0.2982  0.7320
  130TCq2    C3 1982   3.422   2.232   1.650  0.1485 -0.2208 -0.3819
  130TCq2    C4 1983   3.482   2.197   1.767 -0.0909 -0.2702  0.6059
  130TCq2    C5 1984   3.485   2.070   1.815 -0.9805  0.0831 -0.2054
  130TCq2    C6 1985   3.415   1.973   1.755  0.5340  0.0548  0.4431
  130TCq2    C7 1986   3.335   1.996   1.640 -0.0818  0.3802 -0.4145
  130TCq2    C8 1987   3.395   1.839   1.818  0.2575  0.5595  0.2288
  130TCq2    O4 1988   3.314   1.763   1.766 -0.6257  0.3947  0.0305
  130TCq2    C9 1989   3.565   2.299   1.830 -0.1390 -0.4046 -0.1912
  130TCq2    O5 1990   3.573   2.415   1.780  0.1040 -0.1148 -0.4457
  130TCq2    O6 1991   3.622   2.275   1.944  0.9314  0.9119  0.4087
  130TCq2    H2 1992   3.440   2.332   1.615  2.3400 -1.2373 -2.1452
  130TCq2    H3 1993   3.531   2.056   1.913 -0.6949 -0.8753 -0.4696
  130TCq2    H4 1994   3.281   1.921   1.584 -0.2215  0.5576 -0.5208
  131MPD2     C 1995   2.754   1.109  10.295  0.2718  0.1966 -0.6791
  131MPD2    C1 1996   2.831   1.182  10.214 -0.1924 -0.1529 -0.1129
  131MPD2    C2 1997   2.961   1.212  10.252 -0.4168  0.8580 -0.6841
  131MPD2    C3 1998   3.010   1.164  10.373 -0.0845  0.4512  0.3519
  131MPD2    C4 1999   2.926   1.099  10.460 -0.2886  0.4551 -0.2401
  131MPD2    C5 2000   2.801   1.069  10.415 -0.2666 -0.0970  1.1432
  131MPD2     H 2001   3.027   1.269  10.187 -1.3153  1.5637 -0.9869
  131MPD2    H1 2002   2.965   1.055  10.551  1.2277 -1.4000 -1.7951
  131MPD2    H2 2003   2.652   1.084  10.269  0.1921 -1.5130  1.2467
  131MPD2    H3 2004   2.729   1.016  10.477 -3.0446  0.1771 -1.8352
  131MPD2     N 2005   3.151   1.175  10.388 -0.4874  0.1486  0.0441
  131MPD2    H5 2006   3.201   1.220  10.312 -1.0656  3.3528  1.5627
  131MPD2    N1 2007   2.770   1.229  10.095  0.2417  0.1253  0.1011
  131MPD2    H7 2008   2.686   1.180  10.068  0.2223  0.3930 -0.3173
  132TCq2    C1 2009   2.688   1.665   9.701  0.3554 -0.4366  0.1353
  132TCq2    O2 2010   2.615   1.680   9.605 -0.3510 -0.5655 -0.5732
  132TCq2    C2 2011   2.672   1.537   9.762  0.8622 -0.4605  0.6318
  132TCq2    C3 2012   2.569   1.459   9.716 -0.0256 -0.0050  0.5372
  132TCq2    C4 2013   2.556   1.335   9.769  0.8852 -0.0869 -0.4063
  132TCq2    C5 2014   2.640   1.284   9.860 -1.0160 -0.2160 -0.0016
  132TCq2    C6 2015   2.736   1.366   9.908 -0.1546 -0.6684 -0.0742
  132TCq2    C7 2016   2.760   1.492   9.853  0.1361  1.0160  0.3441
  132TCq2    C8 2017   2.830   1.310  10.005  0.0009 -0.1936 -0.2854
  132TCq2    O4 2018   2.931   1.378  10.021 -0.1789  0.0164 -0.3296
  132TCq2    C9 2019   2.446   1.257   9.726 -0.5968  0.0550  0.7251
  132TCq2    O5 2020   2.423   1.157   9.801  0.2357 -0.0391  0.2116
  132TCq2    O6 2021   2.383   1.292   9.619  0.3362  0.0483 -0.3747
  132TCq2    H2 2022   2.501   1.494   9.639 -0.7576 -0.2810  1.0562
  132TCq2    H3 2023   2.627   1.180   9.887  2.9139 -1.5624 -3.3006
  132TCq2    H4 2024   2.836   1.556   9.896  0.6882  1.2726 -1.0203
  133MPD2     C 2025   1.943   1.328   9.158  0.7961 -0.3186  0.3919
  133MPD2    C1 2026   2.042   1.393   9.079 -0.1742  0.2892 -0.4507
  133MPD2    C2 2027   2.106   1.504   9.126 -0.1079 -0.0657 -0.2625
  133MPD2    C3 2028   2.072   1.559   9.247  0.6418 -0.3014  0.6087
  133MPD2    C4 2029   1.966   1.500   9.314  0.5809 -0.2455  0.5506
  133MPD2    C5 2030   1.894   1.395   9.268  0.3762  0.3503 -0.2877
  133MPD2     H 2031   2.192   1.546   9.075 -0.7208  2.8330  1.1220
  133MPD2    H1 2032   1.931   1.536   9.410 -0.4714 -2.5288  1.0196
  133MPD2    H2 2033   1.899   1.232   9.133 -1.4290  1.1949 -1.5200
  133MPD2    H3 2034   1.807   1.351   9.317  1.1487  0.3814  1.1101
  133MPD2     N 2035   2.132   1.680   9.298  0.4654 -0.2700  0.0819
  133MPD2    H5 2036   2.102   1.697   9.393 -1.0405  0.0394 -0.4472
  133MPD2    N1 2037   2.078   1.333   8.959  0.3565 -0.3717 -0.4176
  133MPD2    H7 2038   2.043   1.239   8.943 -3.5906  0.9655  0.2331
  134TCq2    C1 2039   2.127   1.396   8.850  0.2674 -0.1808 -0.4750
  134TCq2    O2 2040   2.130   1.517   8.825 -0.7813 -0.6845 -0.0013
  134TCq2    C2 2041   2.162   1.295   8.752  0.3895  0.0415  0.1497
  134TCq2    C3 2042   2.237   1.191   8.791 -0.4960  0.2392 -0.1674
  134TCq2    C4 2043   2.309   1.126   8.696 -0.2666  0.4935 -0.4726
  134TCq2    C5 2044   2.327   1.161   8.568  0.3191  0.7489  0.4619
  134TCq2    C6 2045   2.249   1.270   8.535 -0.0809  0.7899 -0.2385
  134TCq2    C7 2046   2.179   1.336   8.627  0.2714 -0.3113 -0.2158
  134TCq2    C8 2047   2.265   1.330   8.401 -0.5952  0.4157  0.7637
  134TCq2    O4 2048   2.211   1.438   8.373  0.2043  0.6166 -0.2105
  134TCq2    C9 2049   2.359   0.998   8.732 -0.2468 -0.1988  0.1970
  134TCq2    O5 2050   2.307   0.943   8.830 -0.3005  0.0836  0.1985
  134TCq2    O6 2051   2.449   0.945   8.662 -0.3115  0.8031  0.0747
  134TCq2    H2 2052   2.231   1.156   8.893  0.1574  0.1973 -0.1426
  134TCq2    H3 2053   2.395   1.108   8.502 -0.7872  0.6428 -0.5988
  134TCq2    H4 2054   2.124   1.428   8.605 -1.3971 -1.4002 -0.5957
  135MPD2     C 2055   0.124   3.842   9.750  0.2395 -0.0351  0.6058
  135MPD2    C1 2056   0.169   3.725   9.704  0.2938  0.2420 -0.0698
  135MPD2    C2 2057   0.272   3.718   9.613 -0.2206 -0.0128  0.0099
  135MPD2    C3 2058   0.328   3.836   9.562  0.2832  0.1135 -0.1396
  135MPD2    C4 2059   0.272   3.957   9.603 -0.6255  0.4261  0.5678
  135MPD2    C5 2060   0.171   3.961   9.695  0.0099  0.4238 -0.4230
  135MPD2     H 2061   0.319   3.622   9.595  1.6527  1.0508 -0.8008
  135MPD2    H1 2062   0.294   4.056   9.567 -0.3228  0.3142  0.4401
  135MPD2    H2 2063   0.041   3.855   9.818  0.5771  3.3589  0.3760
  135MPD2    H3 2064   0.118   4.051   9.725 -2.1876 -0.7136 -0.9178
  135MPD2     N 2065   0.439   3.840   9.470  0.2523 -0.1484  0.1239
  135MPD2    H5 2066   0.481   3.926   9.437 -2.4835  0.5533 -1.5655
  135MPD2    N1 2067   0.106   3.604   9.742  0.3629  0.0423  0.1883
  135MPD2    H7 2068   0.137   3.521   9.692 -0.5070  0.4651 -1.0432
  136TCq2    C1 2069   0.000   3.590   9.839 -0.3264 -0.0978  0.2516
  136TCq2    O2 2070   4.643   3.676   9.871  0.6976  0.4416 -0.2313
  136TCq2    C2 2071   4.695   3.453   9.864 -0.0653  0.2104  0.3654
  136TCq2    C3 2072   0.075   3.362   9.878  0.3478  1.3154 -0.3295
  136TCq2    C4 2073   0.044   3.238   9.929 -0.3445 -0.1635  0.3488
  136TCq2    C5 2074   4.641   3.205   9.968 -0.0566  0.2188  0.4192
  136TCq2    C6 2075   4.545   3.305   9.961 -0.6863 -0.9229 -0.0587
  136TCq2    C7 2076   4.568   3.434   9.901  0.6166 -0.0921  0.1367
  136TCq2    C8 2077   4.402   3.285   9.982  0.2158 -0.0172  0.5771
  136TCq2    O4 2078   4.323   3.357   9.925  0.3622 -0.2308 -0.1397
  136TCq2    C9 2079   0.148   3.141   9.926 -0.3913 -0.6934  0.3382
  136TCq2    O5 2080   0.128   3.022   9.966  0.0090  0.3225 -0.0143
  136TCq2    O6 2081   0.256   3.178   9.876 -0.4391 -0.5129  0.6651
  136TCq2    H2 2082   0.174   3.387   9.842 -0.4676  1.3408 -2.5485
  136TCq2    H3 2083   4.624   3.103  10.002 -2.9030 -0.4301 -3.0349
  136TCq2    H4 2084   4.495   3.514   9.900 -0.1429 -0.7730  1.6249
  137MPD2     C 2085   4.274   3.061   9.309  0.3581 -0.1378  0.8911
  137MPD2    C1 2086   4.193   2.995   9.401  0.1980  0.9079 -0.0912
  137MPD2    C2 2087   4.236   2.874   9.455 -0.2188 -0.4119 -0.0430
  137MPD2    C3 2088   4.361   2.824   9.435 -0.4716  0.1225 -0.2197
  137MPD2    C4 2089   4.437   2.892   9.343  0.4637  0.0535  0.0309
  137MPD2    C5 2090   4.391   3.000   9.278 -1.0801 -0.5562 -0.1660
  137MPD2     H 2091   4.167   2.816   9.516 -1.8053  2.6948  1.1266
  137MPD2    H1 2092   4.531   2.847   9.314 -0.2533 -1.0132 -0.6373
  137MPD2    H2 2093   4.259   3.162   9.273 -0.0979 -0.7691 -0.6920
  137MPD2    H3 2094   4.462   3.051   9.213  2.1365 -1.1227  2.8910
  137MPD2     N 2095   4.408   2.717   9.520 -0.0798 -0.3278  0.5408
  137MPD2    H5 2096   4.340   2.676   9.583  0.7448 -1.2623  0.8182
  137MPD2    N1 2097   4.068   3.055   9.431  0.1782 -0.0490  0.7048
  137MPD2    H7 2098   4.054   3.141   9.380  2.8949 -0.5697 -0.9476
  138TCq2    C1 2099   3.961   2.999   9.501  0.3055  0.2509  0.2743
  138TCq2    O2 2100   3.950   2.888   9.554 -0.0167 -0.1984  0.2580
  138TCq2    C2 2101   3.841   3.075   9.469 -0.2085  1.2383  0.7424
  138TCq2    C3 2102   3.840   3.211   9.465 -0.5438  0.3737  0.5324
  138TCq2    C4 2103   3.731   3.276   9.422 -0.0065  0.3313  0.3331
  138TCq2    C5 2104   3.616   3.214   9.384 -0.3581  0.0735 -0.0289
  138TCq2    C6 2105   3.619   3.077   9.402 -0.1856  0.0741 -0.1481
  138TCq2    C7 2106   3.723   3.007   9.445  0.1748  0.2905 -0.6272
  138TCq2    C8 2107   3.489   3.023   9.385 -0.5642 -0.5748 -0.2754
  138TCq2    O4 2108   3.419   3.073   9.301 -0.2178  0.0572  0.2475
  138TCq2    C9 2109   3.728   3.417   9.436  0.0927 -0.2102  0.3138
  138TCq2    O5 2110   3.629   3.481   9.390  0.4268  0.3073 -0.3384
  138TCq2    O6 2111   3.838   3.462   9.471  0.5321 -0.4150  0.5556
  138TCq2    H2 2112   3.930   3.268   9.486 -0.4472  0.2363  0.4909
  138TCq2    H3 2113   3.532   3.277   9.354  0.3793  0.4622 -1.2882
  138TCq2    H4 2114   3.715   2.899   9.447 -0.4282  0.3422 -0.1587
  139TMC2    C1 2115   0.542   0.532  13.224 -0.1815 -0.1426  0.1647
  139TMC2    C2 2116   0.632   0.586  13.131 -0.7083  0.0106 -0.1650
  139TMC2    C3 2117   0.586   0.688  13.054  0.0572 -0.0754 -0.0664
  139TMC2    C4 2118   0.414   0.583  13.240 -0.2191  0.5458 -0.7546
  139TMC2    C5 2119   0.376   0.683  13.154 -0.4135 -0.4384  0.2085
  139TMC2    C6 2120   0.462   0.736  13.064 -0.0836 -0.1735 -0.2753
  139TMC2     C 2121   0.572   0.394  13.251 -0.4545 -0.8903 -0.2005
  139TMC2     O 2122   0.625   0.332  13.158  0.3724 -0.1729  0.2415
  139TMC2     H 2123   0.732   0.544  13.134 -0.2065  1.1341 -1.8946
  139TMC2    H1 2124   0.346   0.542  13.313 -3.8154  2.5390 -2.9930
  139TMC2    H2 2125   0.424   0.814  12.999 -1.0740 -2.1975 -2.1532
  139TMC2    C7 2126   0.252   0.756  13.185  0.2678  0.7402 -0.1280
  139TMC2    C8 2127   0.673   0.732  12.955 -0.0102  0.1185  0.6128
  139TMC2    O1 2128   0.200   0.820  13.091 -0.2080 -0.0191  0.7374
  139TMC2    O2 2129   0.735   0.658  12.876 -0.1321  0.0507  0.1387
  139TMC2    O5 2130   0.708   0.864  12.977 -0.3000  0.4596 -0.0357
  139TMC2    H5 2131   0.647   0.906  13.041 -3.6667 -1.3117 -2.0812
  140MPD2     C 2132   0.460   0.176  13.517  0.4243 -0.0374  0.8566
  140MPD2    C1 2133   0.548   0.227  13.426 -0.5774  0.5973 -0.1672
  140MPD2    C2 2134   0.669   0.155  13.396 -0.0893  0.4563 -0.1574
  140MPD2    C3 2135   0.692   0.031  13.451  0.6051 -0.8808 -0.1857
  140MPD2    C4 2136   0.598   4.704  13.543 -0.3350 -0.3039  0.1970
  140MPD2    C5 2137   0.484   0.057  13.577  0.2364  0.2291 -0.1073
  140MPD2     H 2138   0.748   0.190  13.330  1.2246 -0.4351  0.9412
  140MPD2    H1 2139   0.613   4.606  13.586 -1.4073 -1.3172 -1.7410
  140MPD2    H2 2140   0.366   0.224  13.543  0.3990  0.5863 -0.3689
  140MPD2    H3 2141   0.414   0.011  13.646 -1.8486  0.0906 -2.3253
  140MPD2     N 2142   0.809   4.682  13.413  0.2762  0.1370  0.3307
  140MPD2    H5 2143   0.866   0.008  13.346  0.7594  0.7709  1.2104
  140MPD2    N1 2144   0.514   0.352  13.371  0.0255 -0.3505 -0.3607
  140MPD2    H7 2145   0.442   0.405  13.419  0.0457  0.7604 -1.5457
  141TCq2    C1 2146   0.914   1.601  14.601 -0.2444 -0.8000  0.0550
  141TCq2    O2 2147   0.854   1.702  14.573 -0.2019  0.1489 -0.1250
  141TCq2    C2 2148   0.964   1.580  14.742 -0.0120 -0.3094 -0.1634
  141TCq2    C3 2149   0.988   1.449  14.779 -0.2143 -0.2647  0.4368
  141TCq2    C4 2150   0.944   1.408  14.905  0.6471  0.3962 -0.0113
  141TCq2    C5 2151   0.900   1.501  14.997 -0.5430  0.0134  0.6049
  141TCq2    C6 2152   0.889   1.632  14.961  0.4810  0.0585  0.5472
  141TCq2    C7 2153   0.920   1.673  14.835 -0.8124  0.1247 -0.2843
  141TCq2    C8 2154   0.880   1.729  15.069 -0.5291 -0.4034 -0.1498
  141TCq2    O4 2155   0.849   1.687  15.180 -0.4982  0.0446  0.6788
  141TCq2    C9 2156   0.944   1.268  14.945  0.7549  0.5443 -0.2541
  141TCq2    O5 2157   0.923   1.255  15.068 -0.5351  0.2382 -0.2853
  141TCq2    O6 2158   0.998   1.182  14.865 -0.0052 -0.4129 -0.1911
  141TCq2    H2 2159   1.032   1.371  14.717 -1.5052  0.0555 -0.8914
  141TCq2    H3 2160   0.878   1.475  15.100 -3.0846  0.3076  0.1427
  141TCq2    H4 2161   0.875   1.761  14.791 -0.0232  1.6922  2.0785
  142MPD2     C 2162   2.973   0.802  10.166 -0.3873 -0.1219 -0.4081
  142MPD2    C1 2163   2.868   0.760  10.090 -0.2358 -0.3400  0.1712
  142MPD2    C2 2164   2.843   0.835   9.971 -0.3275 -0.2810  0.9480
  142MPD2    C3 2165   2.923   0.945   9.938 -0.4826 -0.0759 -0.0151
  142MPD2    C4 2166   3.035   0.976  10.021  0.2914  0.0866  0.6438
  142MPD2    C5 2167   3.061   0.900  10.133 -0.0773 -0.0827  0.1090
  142MPD2     H 2168   2.762   0.810   9.903 -0.1727 -0.9348  0.9980
  142MPD2    H1 2169   3.083   1.068   9.993  1.0875 -0.2627  0.8579
  142MPD2    H2 2170   2.993   0.746  10.256 -0.8748  0.9437  0.3607
  142MPD2    H3 2171   3.130   0.933  10.210  1.1150 -1.0147 -0.5657
  142MPD2     N 2172   2.910   1.023   9.816  0.1213  0.3448 -0.1913
  142MPD2    H5 2173   2.972   1.102   9.801  0.9473 -0.5223 -1.3901
  142MPD2    N1 2174   2.807   0.633  10.126  0.8294  0.3967  0.7634
  142MPD2    H7 2175   2.837   0.594  10.214  1.5873  0.6081  0.5965
  143TCq2    C1 2176   2.830   0.994   9.713 -0.5899 -0.8865  0.0882
  143TCq2    O2 2177   2.762   0.892   9.698 -0.4393  0.3492 -0.0214
  143TCq2    C2 2178   2.812   1.097   9.609 -0.2117 -0.4882  0.5486
  143TCq2    C3 2179   2.707   1.086   9.517  0.7838 -0.8062  0.0877
  143TCq2    C4 2180   2.673   1.185   9.431  0.4546 -0.4104 -0.2040
  143TCq2    C5 2181   2.747   1.298   9.425  0.1413 -0.0346 -0.3459
  143TCq2    C6 2182   2.833   1.321   9.530 -0.4282 -0.3592 -0.2844
  143TCq2    C7 2183   2.874   1.219   9.617  0.2272 -0.3898  0.1501
  143TCq2    C8 2184   2.921   1.434   9.524  0.1245 -0.1641  0.6083
  143TCq2    O4 2185   2.996   1.445   9.617  0.1137 -0.3065 -0.5483
  143TCq2    C9 2186   2.582   1.154   9.325  0.4166  0.4584 -0.3776
  143TCq2    O5 2187   2.586   1.215   9.217  0.0869 -0.5543  0.5308
  143TCq2    O6 2188   2.498   1.065   9.356 -0.1966 -0.2435 -0.1556
  143TCq2    H2 2189   2.652   0.992   9.509 -2.4914  1.2117 -0.9408
  143TCq2    H3 2190   2.718   1.370   9.349  0.7805  1.9476  1.2782
  143TCq2    H4 2191   2.957   1.232   9.686  1.5069  2.9206 -2.0392
  144MPD2     C 2192   1.271   4.107   0.653 -0.1774 -0.4725 -0.7143
  144MPD2    C1 2193   1.252   3.974   0.627  0.2110 -0.7463  0.0781
  144MPD2    C2 2194   1.324   3.886   0.701 -0.1728  0.2027 -0.4621
  144MPD2    C3 2195   1.398   3.928   0.811  0.3581 -0.1525 -0.3216
  144MPD2    C4 2196   1.419   4.060   0.836  0.1544  0.7182  0.0013
  144MPD2    C5 2197   1.361   4.155   0.750  0.3373  0.0039  0.4086
  144MPD2     H 2198   1.299   3.782   0.682  0.9557 -0.2408  0.4824
  144MPD2    H1 2199   1.482   4.094   0.917 -1.1034 -0.3672  1.4451
  144MPD2    H2 2200   1.222   4.183   0.594  3.1929  2.5446  0.3825
  144MPD2    H3 2201   1.380   4.259   0.773  0.1085 -0.0920  1.0249
  144MPD2     N 2202   1.459   3.844   0.908  0.5668 -0.0192 -0.3555
  144MPD2    H5 2203   1.523   3.890   0.972  0.8591 -0.8520 -0.0482
  144MPD2    N1 2204   1.174   3.916   0.523  0.2832  0.0912 -0.3404
  144MPD2    H7 2205   1.155   3.817   0.537  1.1359 -0.1887 -1.2187
  145TCq2    C1 2206   1.454   3.704   0.922 -0.5700 -0.3646  0.7660
  145TCq2    O2 2207   1.386   3.617   0.865 -0.1351 -0.4658  0.4227
  145TCq2    C2 2208   1.544   3.648   1.016  0.1325  0.1828 -0.3970
  145TCq2    C3 2209   1.578   3.516   1.005 -0.2496  0.1224 -0.3841
  145TCq2    C4 2210   1.678   3.461   1.080  0.1137 -0.4935 -0.0796
  145TCq2    C5 2211   1.741   3.538   1.168 -0.4015 -0.0219 -0.1366
  145TCq2    C6 2212   1.701   3.671   1.185  0.5423 -0.2482 -0.4866
  145TCq2    C7 2213   1.598   3.729   1.109 -0.0157 -0.0824 -0.2852
  145TCq2    C8 2214   1.773   3.742   1.287 -0.0293 -0.2234 -0.1510
  145TCq2    O4 2215   1.878   3.689   1.313 -0.0813 -0.5438 -0.1743
  145TCq2    C9 2216   1.718   3.325   1.059 -0.5038 -0.1995 -0.9558
  145TCq2    O5 2217   1.812   3.284   1.134  0.8543  0.2364 -0.9015
  145TCq2    O6 2218   1.671   3.261   0.965 -0.2817  0.0015 -0.1522
  145TCq2    H2 2219   1.531   3.453   0.929 -0.5335  0.2795 -0.3371
  145TCq2    H3 2220   1.834   3.500   1.210 -0.7281 -2.0896 -1.3144
  145TCq2    H4 2221   1.556   3.829   1.117 -0.7812 -0.4408  0.2087
  146TMC2    C1 2222   2.575   3.114  12.307 -0.4826 -0.9588 -0.7435
  146TMC2    C2 2223   2.489   3.174  12.223  0.0896  0.6171 -0.2924
  146TMC2    C3 2224   2.488   3.133  12.091  0.4305 -0.0482  0.6642
  146TMC2    C4 2225   2.676   3.031  12.264  0.1358 -0.1152 -0.9714
  146TMC2    C5 2226   2.674   2.997  12.134 -0.4355  0.2033 -0.2485
  146TMC2    C6 2227   2.584   3.049  12.044 -0.1832 -0.6065  0.6268
  146TMC2     C 2228   2.590   3.181  12.434  1.0049 -0.2235 -0.1417
  146TMC2     O 2229   2.585   3.304  12.416 -0.0313  0.6183  0.1083
  146TMC2     H 2230   2.403   3.230  12.258 -0.6960 -0.2440 -0.8671
  146TMC2    H1 2231   2.749   2.994  12.335 -1.9839 -2.5998 -0.1046
  146TMC2    H2 2232   2.573   3.008  11.944  0.0067 -1.3766  0.9222
  146TMC2    C7 2233   2.796   2.945  12.072  0.4322 -0.0554 -0.1299
  146TMC2    C8 2234   2.384   3.182  12.011  0.6220 -0.3529 -0.3922
  146TMC2    O1 2235   2.810   2.973  11.955 -0.2890 -0.0752 -0.0060
  146TMC2    O2 2236   2.357   3.302  12.006  0.0509  0.5051  0.6546
  146TMC2    O5 2237   2.302   3.088  12.051 -0.3757  0.5751 -0.3857
  146TMC2    H5 2238   2.345   3.002  12.070  0.9340  1.8297  2.4369
  147MPD2     C 2239   3.271   2.756  12.117 -0.1445  0.1049 -0.6505
  147MPD2    C1 2240   3.202   2.728  12.233 -0.6462 -0.3234  0.7631
  147MPD2    C2 2241   3.068   2.772  12.238 -0.1306 -0.2858 -0.0154
  147MPD2    C3 2242   3.000   2.823  12.128 -0.4288  0.2312 -0.1033
  147MPD2    C4 2243   3.072   2.841  12.011 -0.6446 -0.5498 -0.3129
  147MPD2    C5 2244   3.205   2.811  12.009 -0.8137 -0.0774  0.1386
  147MPD2     H 2245   3.000   2.763  12.322 -0.7429 -0.2665 -0.5131
  147MPD2    H1 2246   3.026   2.881  11.922  1.8634  1.5168 -0.6960
  147MPD2    H2 2247   3.377   2.735  12.104 -1.0447 -2.8016 -3.2204
  147MPD2    H3 2248   3.258   2.830  11.916 -1.4582  1.5127  0.0947
  147MPD2     N 2249   2.867   2.862  12.156  0.3907  0.4964 -0.4309
  147MPD2    H5 2250   2.830   2.843  12.249 -2.5936  0.2315 -1.6732
  147MPD2    N1 2251   3.273   2.670  12.337  0.5652 -0.4353  0.5751
  147MPD2    H7 2252   3.373   2.651  12.331  0.6050 -1.1559  3.2983
  148MPD2     C 2253   2.881   1.503  11.042  0.4772 -0.3008 -0.3508
  148MPD2    C1 2254   2.931   1.589  10.946 -0.3163 -0.4485 -0.1303
  148MPD2    C2 2255   2.849   1.649  10.854  0.4811 -0.2459 -0.5649
  148MPD2    C3 2256   2.708   1.615  10.848 -0.1967  0.0285  0.3528
  148MPD2    C4 2257   2.652   1.553  10.966 -0.3635 -0.7631  0.7283
  148MPD2    C5 2258   2.741   1.492  11.052 -0.0520  0.6954  0.1441
  148MPD2     H 2259   2.888   1.729  10.793 -0.8066 -0.2349 -1.3834
  148MPD2    H1 2260   2.544   1.547  10.975 -0.6537 -0.9040 -2.9868
  148MPD2    H2 2261   2.945   1.460  11.118 -0.4485  1.9096  1.6825
  148MPD2    H3 2262   2.694   1.423  11.120 -2.0288  3.1926  1.3251
  148MPD2     N 2263   2.618   1.665  10.758  0.0956 -0.0446  0.4460
  148MPD2    H5 2264   2.520   1.654  10.780  0.3724 -1.5277  0.9562
  148MPD2    N1 2265   3.068   1.630  10.946 -0.3614  0.3303 -0.4406
  148MPD2    H7 2266   3.089   1.707  10.885 -2.2049  1.0996 -0.1087
  149TCq2    C1 2267   3.161   1.572  11.026  0.3202 -0.2132 -0.0800
  149TCq2    O2 2268   3.169   1.452  11.058  0.5216 -0.4843  0.2834
  149TCq2    C2 2269   3.285   1.647  11.007 -0.4105 -0.5139 -0.8171
  149TCq2    C3 2270   3.284   1.785  11.003  0.2940  0.0235  0.4379
  149TCq2    C4 2271   3.405   1.840  10.972 -0.2309 -0.3384 -0.6671
  149TCq2    C5 2272   3.505   1.764  10.913  0.5285  0.3953  0.1791
  149TCq2    C6 2273   3.491   1.633  10.882 -0.1336 -0.2774 -0.5389
  149TCq2    C7 2274   3.386   1.574  10.953 -0.5852 -0.3537  0.1887
  149TCq2    C8 2275   3.465   1.612  10.744 -0.4212 -0.3643  0.3484
  149TCq2    O4 2276   3.390   1.522  10.730 -0.2320  0.6361  0.0822
  149TCq2    C9 2277   3.406   1.973  10.960 -0.1148 -0.1141  0.1719
  149TCq2    O5 2278   3.505   2.039  10.915  0.1493 -0.3778  0.4128
  149TCq2    O6 2279   3.295   2.029  10.960 -0.0786 -0.5173 -0.2916
  149TCq2    H2 2280   3.204   1.848  11.041  0.0715 -0.4072  0.6831
  149TCq2    H3 2281   3.582   1.824  10.865  1.1016 -0.1295  0.4403
  149TCq2    H4 2282   3.375   1.466  10.959  3.8159 -0.7106  2.0160
  150MPD2     C 2283   0.150   0.236  11.913  0.1425 -0.3479  0.1706
  150MPD2    C1 2284   0.061   0.316  11.844 -0.3247 -0.9810 -0.0588
  150MPD2    C2 2285   0.125   0.431  11.790  0.0890 -0.1722 -0.0834
  150MPD2    C3 2286   0.251   0.480  11.828 -0.1321 -0.2224  0.1708
  150MPD2    C4 2287   0.323   0.405  11.917  0.0441  0.2161 -0.7345
  150MPD2    C5 2288   0.276   0.274  11.950  0.4788 -0.4021 -0.4303
  150MPD2     H 2289   0.074   0.493  11.717 -1.0740 -1.0355 -0.0096
  150MPD2    H1 2290   0.413   0.442  11.963 -0.4964 -1.5990  1.7774
  150MPD2    H2 2291   0.113   0.137  11.940  0.6547 -0.5121  0.2607
  150MPD2    H3 2292   0.326   0.210  12.021  0.4101  0.4564  0.3898
  150MPD2     N 2293   0.285   0.615  11.786  0.0938  0.0421 -0.3698
  150MPD2    H5 2294   0.204   0.661  11.745 -0.4173 -1.2177 -0.7964
  150MPD2    N1 2295   4.650   0.274  11.816 -0.1690  0.3161  0.1187
  150MPD2    H7 2296   4.615   0.190  11.862 -1.0216  0.0023 -1.1115
  151TCq2    C1 2297   0.400   0.687  11.815 -0.6773  0.2476  0.3892
  151TCq2    O2 2298   0.504   0.659  11.873  0.0109 -0.1905 -0.0354
  151TCq2    C2 2299   0.370   0.830  11.799  0.1378  0.0993 -0.2619
  151TCq2    C3 2300   0.301   0.876  11.687 -1.2038  0.1579  0.2780
  151TCq2    C4 2301   0.294   1.013  11.671 -0.1235  0.5405 -0.3050
  151TCq2    C5 2302   0.371   1.099  11.750 -1.0712  0.7355 -0.1929
  151TCq2    C6 2303   0.433   1.056  11.861  0.1751  0.4177 -0.4145
  151TCq2    C7 2304   0.441   0.917  11.880 -1.2578  0.3251  0.6303
  151TCq2    C8 2305   0.536   1.134  11.918 -1.1627 -0.1902  0.1830
  151TCq2    O4 2306   0.581   1.228  11.855 -0.7023  0.2790  0.0320
  151TCq2    C9 2307   0.213   1.070  11.568  0.1319  0.5793  0.0373
  151TCq2    O5 2308   0.140   0.996  11.497  0.3364  0.2709  0.2757
  151TCq2    O6 2309   0.207   1.198  11.565  0.0529 -0.3710  0.0526
  151TCq2    H2 2310   0.250   0.810  11.617 -1.4555  1.6735 -0.9659
  151TCq2    H3 2311   0.370   1.205  11.729  0.4415  0.9973  1.0516
  151TCq2    H4 2312   0.513   0.877  11.949 -0.1017 -0.1255 -0.8453
  152MPD2     C 2313   0.506   0.709  12.294  0.0923 -0.5212 -0.4217
  152MPD2    C1 2314   0.469   0.835  12.323  0.0290  0.4235 -0.0704
  152MPD2    C2 2315   0.341   0.879  12.280  0.2885  0.4193 -0.3315
  152MPD2    C3 2316   0.269   0.812  12.185 -0.7857 -0.0746 -0.1117
  152MPD2    C4 2317   0.319   0.684  12.150  0.3164  0.4584  0.1800
  152MPD2    C5 2318   0.425   0.633  12.210 -0.0021  0.2200  0.4445
  152MPD2     H 2319   0.302   0.973  12.319  1.4421  0.5292  0.5475
  152MPD2    H1 2320   0.261   0.619  12.086  2.4938  1.0431 -2.3902
  152MPD2    H2 2321   0.590   0.654  12.335 -0.2747 -0.8960 -0.1751
  152MPD2    H3 2322   0.462   0.534  12.188 -0.1030  0.6010 -1.3925
  152MPD2     N 2323   0.153   0.873  12.123 -1.0719 -0.1850 -0.0029
  152MPD2    H5 2324   0.132   0.965  12.158 -0.3125 -0.7633  1.9846
  152MPD2    N1 2325   0.559   0.909  12.400  0.2900 -0.6133 -0.2257
  152MPD2    H7 2326   0.650   0.866  12.411 -1.1609 -2.7660  3.1506
  153TCq2    C1 2327   0.542   1.039  12.437  0.6248  0.2536 -0.1324
  153TCq2    O2 2328   0.464   1.123  12.394 -0.4406 -0.4181  0.1887
  153TCq2    C2 2329   0.656   1.094  12.513  0.4477  0.0330  0.1810
  153TCq2    C3 2330   0.735   1.015  12.582  0.3231 -0.5606 -0.1865
  153TCq2    C4 2331   0.846   1.055  12.652  0.4341  0.0236 -0.2994
  153TCq2    C5 2332   0.893   1.178  12.620  0.0945 -0.0379 -0.2803
  153TCq2    C6 2333   0.810   1.270  12.550  0.4122 -0.7659 -0.1255
  153TCq2    C7 2334   0.692   1.227  12.500  0.3272 -0.1577  0.4518
  153TCq2    C8 2335   0.870   1.386  12.486 -0.0194 -0.6372  0.1370
  153TCq2    O4 2336   0.807   1.451  12.403 -0.5661  0.0271 -0.3542
  153TCq2    C9 2337   0.927   0.954  12.720 -0.6604  0.7366  0.1823
  153TCq2    O5 2338   0.889   0.838  12.705 -0.3271 -0.1047  0.5592
  153TCq2    O6 2339   1.015   0.988  12.800  0.3925 -0.1186 -0.0732
  153TCq2    H2 2340   0.703   0.913  12.601 -0.1132  0.3137  3.8412
  153TCq2    H3 2341   0.989   1.200  12.664  0.5200 -2.4066 -0.0358
  153TCq2    H4 2342   0.634   1.298  12.441 -0.8225 -0.3854  1.3131
  154MPD2     C 2343   1.925   0.174   0.427 -0.3892 -0.1768  0.2616
  154MPD2    C1 2344   1.860   0.129   0.542  0.2289  0.1989  1.0817
  154MPD2    C2 2345   1.751   0.201   0.596 -0.6657 -0.6868 -0.0405
  154MPD2    C3 2346   1.697   0.303   0.526 -0.6858  0.0454  0.8372
  154MPD2    C4 2347   1.758   0.340   0.404 -0.4318 -0.4525  0.2082
  154MPD2    C5 2348   1.863   0.273   0.354  0.3787  0.3916  0.9857
  154MPD2     H 2349   1.702   0.182   0.691 -0.1577 -3.5411 -0.3435
  154MPD2    H1 2350   1.715   0.418   0.342 -0.7987  0.9075  2.1791
  154MPD2    H2 2351   2.019   0.132   0.393 -0.0395  1.1759 -0.4464
  154MPD2    H3 2352   1.909   0.318   0.267  1.0183 -1.2359  0.4930
  154MPD2     N 2353   1.592   0.375   0.586 -0.0454 -0.5679 -0.2973
  154MPD2    H5 2354   1.567   0.336   0.677  1.3828  0.5118  0.5545
  154MPD2    N1 2355   1.916   0.016   0.599 -0.6427  0.2694  0.2636
  154MPD2    H7 2356   2.006   4.717   0.558 -0.1226  0.9655  1.0219
  155TCq2    C1 2357   1.873   4.676   0.710 -0.5727  0.0008 -0.0339
  155TCq2    O2 2358   1.772   4.694   0.776  0.1800  0.1818 -0.9915
  155TCq2    C2 2359   1.962   4.563   0.737 -0.3575 -0.0050 -0.1912
  155TCq2    C3 2360   1.939   4.505   0.859  0.0430  1.0269  0.3556
  155TCq2    C4 2361   2.007   4.390   0.883  0.0365  0.0923 -0.4612
  155TCq2    C5 2362   2.089   4.340   0.788 -0.2961 -0.3709 -0.3735
  155TCq2    C6 2363   2.112   4.397   0.667  0.3719 -0.3182 -0.1032
  155TCq2    C7 2364   2.048   4.511   0.643  0.2876  0.1593  0.3791
  155TCq2    C8 2365   2.192   4.325   0.564  0.3584  0.0492 -0.1144
  155TCq2    O4 2366   2.191   4.387   0.459 -0.0609  0.5755 -0.5069
  155TCq2    C9 2367   1.971   4.315   1.003  0.9028  0.2529 -0.1046
  155TCq2    O5 2368   2.030   4.210   1.027 -0.1792 -0.3171  0.0022
  155TCq2    O6 2369   1.887   4.355   1.088  0.4651 -0.7055  0.2377
  155TCq2    H2 2370   1.860   4.530   0.929  0.8932  3.3436  0.4859
  155TCq2    H3 2371   2.137   4.245   0.809  0.1711  0.1643  1.0184
  155TCq2    H4 2372   2.070   4.569   0.554 -0.9020  0.1274  0.0708
  156MPD2     C 2373   0.671   2.859  12.208 -0.2201 -0.3323 -0.0807
  156MPD2    C1 2374   0.550   2.879  12.144 -0.2967  0.1733  0.1286
  156MPD2    C2 2375   0.445   2.917  12.223 -0.2065  0.2675 -0.6350
  156MPD2    C3 2376   0.460   2.948  12.358 -0.0980  0.0432 -0.0663
  156MPD2    C4 2377   0.583   2.929  12.420 -0.4679  0.1976 -0.2911
  156MPD2    C5 2378   0.686   2.883  12.342 -0.1515  0.1180 -0.0588
  156MPD2     H 2379   0.351   2.939  12.174 -0.3696  2.9420  0.8735
  156MPD2    H1 2380   0.597   2.971  12.519 -1.9184  0.7396 -0.3134
  156MPD2    H2 2381   0.754   2.819  12.151  1.3263  1.2139  1.0870
  156MPD2    H3 2382   0.786   2.875  12.384  0.5308  0.6416 -1.5616
  156MPD2     N 2383   0.344   3.000  12.420  0.8820  0.1834 -0.2341
  156MPD2    H5 2384   0.262   2.991  12.361  1.3246 -2.3860 -0.4562
  156MPD2    N1 2385   0.550   2.863  12.004 -0.2204  0.1817 -0.2293
  156MPD2    H7 2386   0.637   2.839  11.956 -0.6210 -0.2615 -0.7343
  157TCq2    C1 2387   0.436   2.895  11.924  0.8554  0.0228  0.5133
  157TCq2    O2 2388   0.320   2.926  11.951 -0.2230 -0.6338  0.1034
  157TCq2    C2 2389   0.469   2.908  11.783 -0.7324  0.8098 -0.1776
  157TCq2    C3 2390   0.596   2.881  11.737 -0.5562 -0.1294  0.1570
  157TCq2    C4 2391   0.649   2.949  11.629  0.2905  0.4537 -0.3084
  157TCq2    C5 2392   0.574   3.042  11.562 -0.2339  0.4916  0.0287
  157TCq2    C6 2393   0.442   3.061  11.599  0.0122 -0.0385  0.1108
  157TCq2    C7 2394   0.398   3.002  11.713 -0.4776 -0.7634  0.4247
  157TCq2    C8 2395   0.366   3.172  11.544 -0.4513 -0.4677 -0.1433
  157TCq2    O4 2396   0.430   3.257  11.487 -0.6453  0.4875  0.8529
  157TCq2    C9 2397   0.787   2.921  11.596 -0.2717  0.7836  0.2028
  157TCq2    O5 2398   0.840   3.007  11.518  0.6336 -0.2502  0.3050
  157TCq2    O6 2399   0.850   2.848  11.675 -0.9451 -0.1666 -0.1550
  157TCq2    H2 2400   0.653   2.802  11.784  2.5434  0.0181 -3.3775
  157TCq2    H3 2401   0.605   3.102  11.477 -1.3822  1.4837  0.3133
  157TCq2    H4 2402   0.297   3.018  11.751 -0.2591  0.8559  0.3282
  158TMC2    C1 2403   0.723   1.386  13.232 -0.0509  0.2705  0.0271
  158TMC2    C2 2404   0.817   1.371  13.132  0.1765 -0.4123  0.4959
  158TMC2    C3 2405   0.779   1.407  13.003  0.3255  0.8073  0.5752
  158TMC2    C4 2406   0.593   1.424  13.205  0.7204  0.1883  0.2766
  158TMC2    C5 2407   0.568   1.463  13.077 -0.6840 -0.7097  0.6219
  158TMC2    C6 2408   0.657   1.456  12.977  0.5645  0.0350  0.0096
  158TMC2     C 2409   0.769   1.369  13.366 -0.5411  0.5292  0.7092
  158TMC2     O 2410   0.891   1.371  13.384  0.3366 -0.1708  0.5183
  158TMC2     H 2411   0.919   1.342  13.157  0.6944  1.5753  0.6606
  158TMC2    H1 2412   0.512   1.436  13.276  0.3152  0.0793 -0.1648
  158TMC2    H2 2413   0.634   1.459  12.871  1.8531 -0.2449 -0.2760
  158TMC2    C7 2414   0.440   1.525  13.037  0.3176 -0.3037  0.6070
  158TMC2    C8 2415   0.883   1.441  12.900 -0.3262  0.1272  0.4650
  158TMC2    O1 2416   0.433   1.572  12.921 -0.5545  0.2960  0.1610
  158TMC2    O2 2417   0.869   1.532  12.819 -0.2436 -0.0976  0.1639
  158TMC2    O5 2418   0.975   1.346  12.893  0.5852 -0.1066  0.5074
  158TMC2    H5 2419   0.943   1.265  12.938 -1.9507  0.7687  0.2622
  159MPD2     C 2420   0.741   1.175  13.842  0.2780  0.3470 -0.4121
  159MPD2    C1 2421   0.618   1.161  13.778 -0.4887  0.0347  0.1726
  159MPD2    C2 2422   0.594   1.218  13.652 -0.3701  1.0328 -0.5003
  159MPD2    C3 2423   0.695   1.283  13.582  0.0620  0.3119 -0.3678
  159MPD2    C4 2424   0.818   1.288  13.642  0.5288  0.1526  0.0089
  159MPD2    C5 2425   0.837   1.238  13.768  0.8955 -0.5836  0.1276
  159MPD2     H 2426   0.497   1.207  13.606 -0.4528 -2.9850  0.6363
  159MPD2    H1 2427   0.907   1.330  13.595  1.6827 -1.7051  0.5313
  159MPD2    H2 2428   0.766   1.125  13.935  0.3108 -0.6675 -0.9714
  159MPD2    H3 2429   0.940   1.243  13.802  1.3174 -3.7498 -0.6754
  159MPD2     N 2430   0.671   1.333  13.455 -0.4031 -0.1388  0.6719
  159MPD2    H5 2431   0.574   1.337  13.425 -0.0133 -0.9039 -0.7124
  159MPD2    N1 2432   0.514   1.092  13.848 -0.0418  0.5101  0.0931
  159MPD2    H7 2433   0.533   1.074  13.946 -2.2050 -0.9645  0.2435
  160TMC2    C1 2434   0.060   4.327   1.500 -0.3451 -0.0475 -0.5583
  160TMC2    C2 2435   0.011   4.208   1.517  0.2274  0.4162 -0.8931
  160TMC2    C3 2436   0.018   4.120   1.410 -0.0661 -0.2089  0.7819
  160TMC2    C4 2437   0.129   4.363   1.385  0.1026 -0.2067 -0.3933
  160TMC2    C5 2438   0.150   4.265   1.285  0.3854  0.1926  0.3395
  160TMC2    C6 2439   0.088   4.144   1.293 -0.2121  0.1812  0.0563
  160TMC2     C 2440   0.037   4.427   1.604  0.0452 -0.5209  0.6534
  160TMC2     O 2441   0.031   4.400   1.722 -0.2413 -0.5637  0.0697
  160TMC2     H 2442   4.685   4.171   1.606  0.4872  0.8212 -0.5782
  160TMC2    H1 2443   0.158   4.466   1.366  0.1984 -0.1104  0.3009
  160TMC2    H2 2444   0.085   4.084   1.203  2.2665 -0.8977  0.7026
  160TMC2    C7 2445   0.228   4.302   1.165 -0.6750 -0.3244  0.2575
  160TMC2    C8 2446   4.671   3.994   1.431  0.5815  0.9874 -0.2861
  160TMC2    O1 2447   0.205   4.235   1.065  0.5845 -0.2702 -0.3714
  160TMC2    O2 2448   4.584   3.977   1.511  0.0356 -0.1703  0.1776
  160TMC2    O5 2449   4.656   3.952   1.306  0.4256  0.1939 -0.0136
  160TMC2    H5 2450   0.013   3.908   1.272 -0.2378 -0.3830 -0.8509
  161MPD2     C 2451   4.716   4.667   1.737 -0.3606  0.1025 -0.4237
  161MPD2    C1 2452   4.660   4.645   1.613  0.0138  0.2766 -0.2552
  161MPD2    C2 2453   4.564   0.009   1.554 -0.7617 -0.5440 -0.3655
  161MPD2    C3 2454   4.499   0.109   1.630 -0.1616  0.3901  0.2617
  161MPD2    C4 2455   4.546   0.116   1.754 -0.9362 -0.1734  0.8210
  161MPD2    C5 2456   4.645   0.036   1.802  0.6023 -0.2611 -0.0183
  161MPD2     H 2457   4.529   4.711   1.454  0.1753  1.6571 -1.1687
  161MPD2    H1 2458   4.491   0.180   1.823 -1.4673 -0.3973  0.6115
  161MPD2    H2 2459   0.073   4.616   1.789 -0.5456  0.3115  0.0713
  161MPD2    H3 2460   4.675   0.067   1.901  0.4661 -0.8889  0.2239
  161MPD2     N 2461   4.389   0.194   1.595 -0.1401 -0.1431 -0.4006
  161MPD2    H5 2462   4.349   0.254   1.667  2.4848 -1.9337  2.5711
  161MPD2    N1 2463   4.708   4.537   1.538  0.0506 -0.1785 -0.4160
  161MPD2    H7 2464   4.694   4.540   1.437  0.9237  0.7312 -0.5043
  162TMC2    C1 2465   2.952   1.446   0.893  0.4293 -0.0225 -0.0552
  162TMC2    C2 2466   3.070   1.501   0.943 -0.1221 -0.5574  0.0250
  162TMC2    C3 2467   3.142   1.433   1.038 -0.2799 -0.2695  0.7697
  162TMC2    C4 2468   2.906   1.331   0.938  0.2094  0.3156  0.0193
  162TMC2    C5 2469   2.977   1.267   1.035  0.7555 -0.2017  0.2835
  162TMC2    C6 2470   3.092   1.319   1.090 -0.0192 -0.4738 -0.1944
  162TMC2     C 2471   2.878   1.527   0.801 -0.2183 -0.0306  0.0806
  162TMC2     O 2472   2.938   1.616   0.742 -0.4622  0.3057 -0.2353
  162TMC2     H 2473   3.097   1.602   0.914  0.6418 -0.9655 -0.6714
  162TMC2    H1 2474   2.827   1.276   0.887  0.5168 -0.5645  0.4940
  162TMC2    H2 2475   3.148   1.260   1.162  1.4949  2.0002  0.6871
  162TMC2    C7 2476   2.911   1.161   1.111  0.4269 -0.1356  0.1161
  162TMC2    C8 2477   3.277   1.473   1.064 -0.3487 -1.0913 -0.0310
  162TMC2    O1 2478   2.804   1.122   1.066  0.0373 -0.0222  0.3988
  162TMC2    O2 2479   3.347   1.443   1.159 -0.1960  0.0047 -0.5977
  162TMC2    O5 2480   3.315   1.563   0.971  0.2907 -0.2136 -0.3742
  162TMC2    H5 2481   3.257   1.574   0.893  0.3702  0.9899 -0.2630
  163MPD2     C 2482   2.479   1.566   0.474  0.3473 -0.9595 -0.1525
  163MPD2    C1 2483   2.605   1.624   0.466 -0.0236  0.0311  0.3409
  163MPD2    C2 2484   2.690   1.611   0.576 -0.1523 -0.3603  0.2258
  163MPD2    C3 2485   2.659   1.529   0.680 -0.5876  0.2045  0.0984
  163MPD2    C4 2486   2.533   1.475   0.689 -0.0364 -0.2601 -0.2116
  163MPD2    C5 2487   2.444   1.498   0.585 -0.2227 -0.1015  0.4431
  163MPD2     H 2488   2.782   1.668   0.589  1.3451 -2.3213 -1.7139
  163MPD2    H1 2489   2.509   1.405   0.768  3.1221 -1.0112  0.0834
  163MPD2    H2 2490   2.408   1.575   0.393  1.0613 -1.4481 -0.8295
  163MPD2    H3 2491   2.344   1.458   0.578 -0.4406  0.3947  0.7271
  163MPD2     N 2492   2.743   1.496   0.792  0.1764 -0.1254 -0.0439
  163MPD2    H5 2493   2.703   1.456   0.877  1.1649 -1.5523 -0.2478
  163MPD2    N1 2494   2.645   1.677   0.343 -0.1147 -0.3793  0.3749
  163MPD2    H7 2495   2.576   1.668   0.270 -0.1732  0.6624  0.3104
  164TCq2    C1 2496   3.813   1.991  11.266 -0.1282 -0.5529  0.1925
  164TCq2    O2 2497   3.758   1.974  11.374  0.0522 -0.3053 -0.0139
  164TCq2    C2 2498   3.792   2.128  11.214 -0.3229  0.1288 -0.8133
  164TCq2    C3 2499   3.866   2.154  11.096 -0.0985 -0.3771 -0.6297
  164TCq2    C4 2500   3.813   2.245  11.008 -0.4094 -0.8671 -0.5583
  164TCq2    C5 2501   3.698   2.314  11.031  0.1568 -0.3462  0.1031
  164TCq2    C6 2502   3.634   2.287  11.147  0.7670  0.8689  0.4179
  164TCq2    C7 2503   3.677   2.192  11.242 -0.5524  0.0950  0.4225
  164TCq2    C8 2504   3.495   2.325  11.158 -0.1799  0.2554  0.0902
  164TCq2    O4 2505   3.429   2.340  11.054  0.0695  0.0805  0.2235
  164TCq2    C9 2506   3.889   2.280  10.893 -0.7737 -0.0047 -0.0023
  164TCq2    O5 2507   3.989   2.205  10.856 -0.1327 -0.2700  0.2845
  164TCq2    O6 2508   3.874   2.399  10.851 -0.0539 -0.1851  0.4857
  164TCq2    H2 2509   3.962   2.111  11.069 -0.6809 -0.5955 -2.4114
  164TCq2    H3 2510   3.648   2.375  10.957 -3.7560 -3.1901  0.4317
  164TCq2    H4 2511   3.607   2.162  11.319  1.4933  0.3836  2.3955
  165MPD2     C 2512   4.510   3.241   1.889  0.1766  0.0348 -0.0911
  165MPD2    C1 2513   4.430   3.312   1.795 -0.2272  0.3085  0.2323
  165MPD2    C2 2514   4.369   3.429   1.830 -0.1230 -0.1964 -0.4807
  165MPD2    C3 2515   4.373   3.485   1.963  0.2288  1.3461  0.1329
  165MPD2    C4 2516   4.456   3.420   2.047 -0.0948  0.5353 -0.4664
  165MPD2    C5 2517   4.510   3.296   2.015  0.5414  0.1516 -0.2629
  165MPD2     H 2518   4.311   3.480   1.753 -2.1017  3.0819  3.1455
  165MPD2    H1 2519   4.474   3.457   2.147 -0.6310  1.0502 -0.5593
  165MPD2    H2 2520   4.560   3.149   1.860  0.5896 -0.5458  2.5306
  165MPD2    H3 2521   4.568   3.239   2.086 -0.0531  0.8229  0.7676
  165MPD2     N 2522   4.307   3.596   2.012 -0.4890  0.1225  0.5332
  165MPD2    H5 2523   4.327   3.616   2.110  0.4709  0.1688  0.3223
  165MPD2    N1 2524   4.415   3.259   1.669 -0.2787  0.5071  0.6389
  165MPD2    H7 2525   4.463   3.172   1.648  0.1265  0.9237 -0.1745
  166TCq2    C1 2526   4.217   3.666   1.931  0.2860  0.3871  0.0436
  166TCq2    O2 2527   4.172   3.641   1.819  0.3744 -0.1794  0.5655
  166TCq2    C2 2528   4.186   3.796   1.996 -0.7551 -0.2773  0.1903
  166TCq2    C3 2529   4.081   3.865   1.944 -0.3368 -0.6175  0.0005
  166TCq2    C4 2530   4.056   3.996   1.986  0.2504 -0.3595 -0.3391
  166TCq2    C5 2531   4.136   4.057   2.081 -0.1667 -0.3404 -0.9911
  166TCq2    C6 2532   4.244   3.982   2.121  0.0633 -0.4790 -0.6585
  166TCq2    C7 2533   4.270   3.848   2.091  0.7363  0.0389  0.3105
  166TCq2    C8 2534   4.338   4.041   2.209  0.4060 -0.6560  0.3427
  166TCq2    O4 2535   4.433   3.966   2.235  0.0775 -0.3162  0.4595
  166TCq2    C9 2536   3.965   4.087   1.920  0.8195 -0.4066 -0.5611
  166TCq2    O5 2537   3.964   4.205   1.957  0.6058  0.3155  0.1328
  166TCq2    O6 2538   3.875   4.023   1.861  0.7745  0.5147  0.2468
  166TCq2    H2 2539   4.024   3.830   1.859 -0.1680  0.5481 -0.5931
  166TCq2    H3 2540   4.106   4.152   2.124 -3.1472 -0.2706 -3.2077
  166TCq2    H4 2541   4.354   3.797   2.138  0.1596  0.6065  1.9346
  167TMC2    C1 2542   2.680   1.619  12.238  0.1693  0.3441  0.2719
  167TMC2    C2 2543   2.618   1.594  12.360 -0.2776  0.4072 -0.7600
  167TMC2    C3 2544   2.636   1.471  12.411 -0.0181  0.3967  0.3948
  167TMC2    C4 2545   2.745   1.521  12.174  0.3567  0.2574  0.3837
  167TMC2    C5 2546   2.774   1.402  12.238  0.4386  0.1153 -0.0609
  167TMC2    C6 2547   2.719   1.378  12.358  0.3444  0.7883 -0.5377
  167TMC2     C 2548   2.692   1.755  12.197  0.0137 -0.8177  0.4304
  167TMC2     O 2549   2.607   1.840  12.234  0.4923 -0.6306  0.3824
  167TMC2     H 2550   2.540   1.657  12.401  0.5552  0.8886  0.0783
  167TMC2    H1 2551   2.794   1.546  12.081  0.1299  0.8676  0.4313
  167TMC2    H2 2552   2.745   1.292  12.418  1.7793  0.9952 -0.8620
  167TMC2    C7 2553   2.812   1.284  12.167  0.3800 -0.5132 -0.5703
  167TMC2    C8 2554   2.552   1.422  12.517 -0.7305  0.0024 -0.4697
  167TMC2    O1 2555   2.794   1.180  12.222  0.7885  0.3624 -0.1555
  167TMC2    O2 2556   2.496   1.493  12.605  0.1639 -0.0087 -0.1126
  167TMC2    O5 2557   2.503   1.299  12.479 -0.2233  0.1437 -0.3239
  167TMC2    H5 2558   2.530   1.268  12.389  0.2390 -1.4235  0.3477
  168MPD2     C 2559   2.789   2.016  12.085 -0.5822  0.5809 -0.0322
  168MPD2    C1 2560   2.858   1.895  12.077  0.8050 -0.0802 -0.0209
  168MPD2    C2 2561   2.988   1.896  12.028  0.8029 -0.4185 -0.0107
  168MPD2    C3 2562   3.041   2.016  11.978 -0.2015  0.7846  0.0799
  168MPD2    C4 2563   2.958   2.126  11.982 -0.6117 -0.0080  0.0689
  168MPD2    C5 2564   2.834   2.128  12.033 -0.2052 -0.2949  0.9070
  168MPD2     H 2565   3.040   1.802  12.016  2.8252  0.9028 -1.6287
  168MPD2    H1 2566   2.994   2.220  11.942  1.5153  0.0128  2.0249
  168MPD2    H2 2567   2.691   2.021  12.132 -0.9185  0.6613 -0.7416
  168MPD2    H3 2568   2.767   2.212  12.022  1.2103  0.5223 -1.5956
  168MPD2     N 2569   3.178   2.026  11.935  0.1042 -0.2889  0.4777
  168MPD2    H5 2570   3.207   2.102  11.875  0.8374  0.5233  1.8637
  168MPD2    N1 2571   2.806   1.774  12.124 -0.2502 -0.2750  0.4826
  168MPD2    H7 2572   2.869   1.696  12.107  1.4611  1.1390  0.3078
  169MPD1     C 2573   4.501   0.725   9.628  0.3990 -0.2812  0.6101
  169MPD1    C1 2574   4.613   0.745   9.701 -0.2692  0.1175 -0.7369
  169MPD1    C2 2575   4.662   0.638   9.779  0.0009  0.3727  0.7844
  169MPD1    C3 2576   4.613   0.513   9.759  0.3916  0.4431  0.2452
  169MPD1    C4 2577   4.509   0.495   9.678 -0.3399 -0.3031  0.5322
  169MPD1    C5 2578   4.457   0.598   9.603  0.3269 -0.3076  0.4379
  169MPD1     H 2579   0.018   0.651   9.851 -2.0247 -0.9071  3.2400
  169MPD1    H1 2580   4.476   0.397   9.646  3.5697 -0.5116 -2.9105
  169MPD1    H2 2581   4.454   0.810   9.579  0.8857  0.4318  1.3942
  169MPD1    H3 2582   4.376   0.586   9.532  0.2624  0.1886  0.4248
  169MPD1     N 2583   4.672   0.405   9.830  0.5519  0.2550  0.5088
  169MPD1    H5 2584   0.022   0.417   9.899  0.8690  0.5620  0.1172
  169MPD1    N1 2585   4.686   0.864   9.688 -0.6082 -0.0501  0.4676
  169MPD1    H6 2586   4.635   0.946   9.654  2.2788  2.0981  1.3142
  169MPD1    H7 2587   4.720   0.893   9.779  0.7110  0.6776 -0.2479
  170MPD1     C 2588   4.252   3.865  12.904 -0.8507  0.0161 -0.4675
  170MPD1    C1 2589   4.179   3.969  12.954 -0.0284  0.4402  0.1673
  170MPD1    C2 2590   4.099   3.941  13.062  0.3692  0.2100  0.7471
  170MPD1    C3 2591   4.105   3.820  13.129 -0.2308 -0.2893  0.1598
  170MPD1    C4 2592   4.182   3.722  13.083  0.7013 -0.3554  0.5707
  170MPD1    C5 2593   4.253   3.746  12.970 -0.0840  0.0004  1.0519
  170MPD1     H 2594   4.025   4.013  13.095 -0.0883 -1.6951  3.9481
  170MPD1    H1 2595   4.194   3.619  13.117 -3.1989 -1.5622 -1.7511
  170MPD1    H2 2596   4.303   3.882  12.810  0.6067  1.3409  0.5465
  170MPD1    H3 2597   4.305   3.661  12.927  2.3707  1.8866  0.3293
  170MPD1     N 2598   4.023   3.795  13.243 -0.1545  0.3798 -0.2648
  170MPD1    H5 2599   3.967   3.872  13.278  0.4348  0.2339  1.0146
  170MPD1    N1 2600   4.154   4.079  12.869 -0.5490  0.0124  0.5054
  170MPD1    H6 2601   4.120   4.158  12.925 -2.2867 -0.7521  0.5300
  170MPD1    H7 2602   4.247   4.103  12.835 -0.4402  1.6973  1.9487
  171MPD1     C 2603   2.528   0.685  15.467  0.2262 -0.1538  0.2210
  171MPD1    C1 2604   2.498   0.581  15.386  0.0378 -0.7780  0.7767
  171MPD1    C2 2605   2.506   0.455  15.437 -0.0904 -0.1553  0.2346
  171MPD1    C3 2606   2.548   0.436  15.562 -0.4719  0.5364  0.0615
  171MPD1    C4 2607   2.579   0.541  15.645  0.6192  0.6429 -0.3831
  171MPD1    C5 2608   2.565   0.665  15.597 -0.3020  1.0145 -0.6380
  171MPD1     H 2609   2.471   0.375  15.371 -1.8711  0.9424 -0.1603
  171MPD1    H1 2610   2.621   0.521  15.743 -0.2574 -2.0468 -0.5693
  171MPD1    H2 2611   2.538   0.784  15.422  0.9267 -1.0670 -1.6533
  171MPD1    H3 2612   2.599   0.740  15.668  2.1330 -0.2625 -0.4740
  171MPD1     N 2613   2.570   0.308  15.618  1.1434  0.6434 -0.3492
  171MPD1    H5 2614   2.606   0.305  15.713  0.3828  2.1776 -0.0065
  171MPD1    N1 2615   2.461   0.608  15.253 -0.1089  0.8118 -0.5912
  171MPD1    H6 2616   2.429   0.519  15.214  0.9910 -0.9067  2.4252
  171MPD1    H7 2617   2.535   0.648  15.196  0.4665 -0.4535 -0.7394
  172MPD1     C 2618   1.436   3.590   0.111  0.0676  0.2177  0.4515
  172MPD1    C1 2619   1.375   3.705   0.066  0.2218  0.0437 -0.0043
  172MPD1    C2 2620   1.374   3.817   0.146  1.0968 -0.2923 -0.2735
  172MPD1    C3 2621   1.452   3.813   0.264  0.2345  0.6142  0.2378
  172MPD1    C4 2622   1.498   3.691   0.309 -0.3631 -0.4358  0.1379
  172MPD1    C5 2623   1.491   3.579   0.234  0.0140 -0.2308 -0.0261
  172MPD1     H 2624   1.339   3.908   0.099 -1.5109  0.3278  2.8439
  172MPD1    H1 2625   1.540   3.681   0.409 -2.4741 -0.7937  1.0068
  172MPD1    H2 2626   1.443   3.506   0.042 -0.0276  1.1440 -0.6983
  172MPD1    H3 2627   1.536   3.492   0.280  0.1893 -1.4104 -2.4908
  172MPD1     N 2628   1.466   3.929   0.352  0.4166 -0.1040  0.3386
  172MPD1    H5 2629   1.520   3.904   0.434  0.9570 -0.6910 -0.1994
  172MPD1    N1 2630   1.335   3.709  17.627  0.2392  0.3858 -0.3465
  172MPD1    H6 2631   1.314   3.612  17.600 -0.8973  1.1798 -2.3610
  172MPD1    H7 2632   1.253   3.769  17.628  0.4332  0.6564 -0.5960
  173MPD1     C 2633   2.776   4.504  14.605  0.0774  0.0429  0.1498
  173MPD1    C1 2634   2.688   4.436  14.525 -0.1454  0.0944  0.0373
  173MPD1    C2 2635   2.605   4.341  14.585 -0.0322  0.0339  0.6141
  173MPD1    C3 2636   2.621   4.304  14.721 -0.1349 -0.3959  0.3404
  173MPD1    C4 2637   2.711   4.380  14.799  0.1381  0.4668  0.0998
  173MPD1    C5 2638   2.774   4.485  14.736  0.2661 -0.1879 -0.4734
  173MPD1     H 2639   2.534   4.292  14.519 -1.4833  3.2455 -0.2058
  173MPD1    H1 2640   2.738   4.352  14.900  0.2928  0.8982  0.1797
  173MPD1    H2 2641   2.837   4.584  14.565 -1.0012  1.0024  0.4093
  173MPD1    H3 2642   2.832   4.555  14.795 -0.9409 -0.2198  0.7426
  173MPD1     N 2643   2.540   4.196  14.767 -0.1521  0.2133  0.1007
  173MPD1    H5 2644   2.481   4.153  14.697 -1.3621  0.0575  1.2061
  173MPD1    N1 2645   2.660   4.486  14.394 -0.8831 -0.1413  0.0145
  173MPD1    H6 2646   2.621   4.412  14.337 -1.6315 -1.3735  2.1339
  173MPD1    H7 2647   2.744   4.518  14.346  0.3722 -1.0211  1.6276
  174MPD1     C 2648   2.260   3.662  14.241 -0.6653  0.4551  0.5152
  174MPD1    C1 2649   2.324   3.588  14.333 -0.1002 -0.0049  0.0254
  174MPD1    C2 2650   2.314   3.638  14.464  0.5656  0.2542  0.1769
  174MPD1    C3 2651   2.238   3.752  14.497  0.4686 -1.1244 -0.8093
  174MPD1    C4 2652   2.162   3.811  14.398  0.1700 -0.1732 -0.3211
  174MPD1    C5 2653   2.176   3.765  14.269  0.7923  0.1630  0.6969
  174MPD1     H 2654   2.375   3.594  14.542 -3.4969 -1.4164  2.4279
  174MPD1    H1 2655   2.110   3.904  14.415 -2.0301 -1.4215 -0.1025
  174MPD1    H2 2656   2.275   3.643  14.135 -1.9880  1.1047  0.2012
  174MPD1    H3 2657   2.135   3.823  14.187 -0.0854 -0.4115  0.7405
  174MPD1     N 2658   2.246   3.817  14.628 -0.6676 -0.5646 -0.1450
  174MPD1    H5 2659   2.220   3.914  14.642  0.3060 -0.4229  0.6496
  174MPD1    N1 2660   2.429   3.498  14.302 -0.2634  0.5492 -0.6188
  174MPD1    H6 2661   2.404   3.435  14.226  2.0044  0.0480 -0.9540
  174MPD1    H7 2662   2.441   3.435  14.382  3.3133  1.9129 -0.0968
  175MPD1     C 2663   1.128   4.471  15.361 -0.1840 -0.4327  0.3496
  175MPD1    C1 2664   1.006   4.466  15.426  0.0746 -0.6612  0.0023
  175MPD1    C2 2665   1.006   4.501  15.568  0.2432  0.4262  0.2189
  175MPD1    C3 2666   1.115   4.555  15.634 -0.7181 -0.1627  0.6900
  175MPD1    C4 2667   1.228   4.566  15.554  0.4870  0.3399 -0.6943
  175MPD1    C5 2668   1.234   4.523  15.426 -0.6376  0.3266 -0.5466
  175MPD1     H 2669   0.925   4.480  15.637 -0.9932  0.2756 -1.2611
  175MPD1    H1 2670   1.324   4.590  15.598  0.7105 -0.5446 -0.7027
  175MPD1    H2 2671   1.152   4.427  15.265 -0.7871 -0.9832  0.4479
  175MPD1    H3 2672   1.326   4.527  15.368  0.0727  1.2671  0.6355
  175MPD1     N 2673   1.122   4.596  15.766  0.3900 -0.0609  0.4858
  175MPD1    H5 2674   1.211   4.608  15.813  1.4208  0.3888 -1.5841
  175MPD1    N1 2675   0.901   4.394  15.375  0.0858 -0.2988  0.0474
  175MPD1    H6 2676   0.825   4.413  15.440 -0.0290  0.0221 -0.1798
  175MPD1    H7 2677   0.910   4.293  15.365 -2.8947 -0.4922 -0.8102
  176MPD1     C 2678   2.897   1.513   0.029  0.2663  0.6567 -0.1625
  176MPD1    C1 2679   2.762   1.530   0.018 -0.3237  0.1813 -0.5137
  176MPD1    C2 2680   2.718   1.620  17.617  0.4635  0.1550 -0.4741
  176MPD1    C3 2681   2.799   1.709  17.548 -0.4315  0.2397 -0.3058
  176MPD1    C4 2682   2.931   1.711  17.580 -0.4397  0.3673 -0.9027
  176MPD1    C5 2683   2.975   1.611  17.662 -0.0737 -0.2375 -0.0053
  176MPD1     H 2684   2.614   1.644  17.599  0.0043 -0.1753  1.6945
  176MPD1    H1 2685   3.009   1.778  17.545 -1.2084  1.3103 -0.8089
  176MPD1    H2 2686   2.938   1.432   0.088 -0.7968 -0.1824 -0.5738
  176MPD1    H3 2687   3.082   1.608  17.679  0.0386 -1.4746 -0.8627
  176MPD1     N 2688   2.741   1.799  17.458  0.0700  0.6882 -0.3167
  176MPD1    H5 2689   2.643   1.779  17.441 -0.2212  0.8961  1.1646
  176MPD1    N1 2690   2.669   1.438   0.063 -0.0988  0.2139  0.4532
  176MPD1    H6 2691   2.579   1.482   0.079 -0.5879 -1.2138  1.5889
  176MPD1    H7 2692   2.702   1.403   0.153 -0.8867 -0.4911  0.4650
  177MPD1     C 2693   1.152   1.834   9.341  0.5483 -0.5007 -0.8412
  177MPD1    C1 2694   1.069   1.810   9.229 -0.2366 -0.2851 -0.0267
  177MPD1    C2 2695   0.956   1.886   9.220  0.3075 -0.5005 -0.4799
  177MPD1    C3 2696   0.928   1.987   9.310 -0.3669 -0.4977  0.5406
  177MPD1    C4 2697   1.010   2.006   9.421 -0.6042 -0.0769  0.2877
  177MPD1    C5 2698   1.119   1.922   9.430  0.0039  0.3192  0.3992
  177MPD1     H 2699   0.895   1.865   9.133 -1.9382  0.7842  0.7863
  177MPD1    H1 2700   0.995   2.086   9.492 -1.4080 -1.7227  1.9608
  177MPD1    H2 2701   1.229   1.760   9.361  0.6387 -0.7348 -2.0833
  177MPD1    H3 2702   1.185   1.930   9.515  0.7272  0.4932 -0.1808
  177MPD1     N 2703   0.816   2.070   9.276  0.2618  0.2686  0.1025
  177MPD1    H5 2704   0.757   2.054   9.194  0.7600 -0.1676 -0.1717
  177MPD1    N1 2705   1.087   1.703   9.141  0.4142  0.1195  0.0512
  177MPD1    H6 2706   1.034   1.715   9.054  1.2027  0.1377 -0.4274
  177MPD1    H7 2707   1.182   1.704   9.106  1.1413  0.2661  2.0438
  178MPD1     C 2708   3.463   2.742   0.373  0.0553 -0.0732 -0.0457
  178MPD1    C1 2709   3.422   2.657   0.277  0.6829 -0.1412 -1.4546
  178MPD1    C2 2710   3.471   2.685   0.155  0.3802  0.5948 -0.0991
  178MPD1    C3 2711   3.526   2.810   0.122  0.7477 -0.2219 -1.0282
  178MPD1    C4 2712   3.557   2.892   0.223 -0.5076  0.3890 -0.8694
  178MPD1    C5 2713   3.533   2.849   0.349  0.0075  0.5070  0.2628
  178MPD1     H 2714   3.465   2.609   0.079 -0.9476 -0.1310  0.7224
  178MPD1    H1 2715   3.615   2.983   0.212 -0.3699  0.4188  0.0812
  178MPD1    H2 2716   3.455   2.721   0.479  2.2191  1.5271  0.4374
  178MPD1    H3 2717   3.569   2.906   0.434 -0.4304  1.4539 -0.1981
  178MPD1     N 2718   3.554   2.856  17.688 -0.3631  0.0150 -0.4446
  178MPD1    H5 2719   3.604   2.944  17.678 -3.4424  1.7345 -0.6633
  178MPD1    N1 2720   3.382   2.522   0.307 -0.2286 -0.7518 -0.2004
  178MPD1    H6 2721   3.330   2.510   0.393  0.2602  3.1696  0.6210
  178MPD1    H7 2722   3.334   2.476   0.230 -0.3870  0.6109 -0.9065
  179MPD1     C 2723   3.517   1.498  15.577 -0.0500 -0.0664 -0.5936
  179MPD1    C1 2724   3.405   1.504  15.499 -0.7586  0.3998 -0.6850
  179MPD1    C2 2725   3.315   1.392  15.496 -0.0398  0.5950 -0.6458
  179MPD1    C3 2726   3.352   1.273  15.559  0.0094 -0.1281  0.2544
  179MPD1    C4 2727   3.454   1.275  15.644 -0.1854  0.5762 -0.0009
  179MPD1    C5 2728   3.538   1.384  15.649  0.1109  0.0852  0.2776
  179MPD1     H 2729   3.232   1.409  15.428 -2.7349 -2.1524  2.0057
  179MPD1    H1 2730   3.488   1.187  15.698  1.3832  1.2518  0.1060
  179MPD1    H2 2731   3.581   1.585  15.578 -0.7658  0.4648 -0.8925
  179MPD1    H3 2732   3.635   1.368  15.694  0.3296 -2.7440 -1.1818
  179MPD1     N 2733   3.263   1.157  15.560  0.4055  0.1082  0.0426
  179MPD1    H5 2734   3.295   1.085  15.624  0.6424 -2.0702 -2.5067
  179MPD1    N1 2735   3.373   1.632  15.455  0.3795  0.3146  0.0916
  179MPD1    H6 2736   3.454   1.680  15.419 -1.9303  2.5581 -2.0804
  179MPD1    H7 2737   3.308   1.632  15.377 -0.4910 -0.9925  0.8134
  180MPD1     C 2738   3.135   2.842  15.109  0.1003  0.0693 -0.1621
  180MPD1    C1 2739   3.169   2.918  14.994 -0.0148  0.3460 -0.5423
  180MPD1    C2 2740   3.113   2.878  14.873  0.0686 -0.3618 -0.1397
  180MPD1    C3 2741   3.003   2.783  14.870 -0.0698 -0.0394 -0.0162
  180MPD1    C4 2742   2.951   2.734  14.990 -0.0331 -0.1822  0.3730
  180MPD1    C5 2743   3.018   2.765  15.108  0.3113 -0.3750  0.0306
  180MPD1     H 2744   3.149   2.920  14.779 -2.4449  0.9242 -0.5231
  180MPD1    H1 2745   2.863   2.670  14.998 -0.1129 -0.0875  0.2518
  180MPD1    H2 2746   3.185   2.858  15.204  0.8707 -1.2444 -0.3530
  180MPD1    H3 2747   2.981   2.729  15.203  3.3566 -0.4003  1.2071
  180MPD1     N 2748   2.958   2.750  14.743  0.1358 -0.1018  0.1396
  180MPD1    H5 2749   3.012   2.777  14.662  1.4596  0.2034  1.1251
  180MPD1    N1 2750   3.280   3.004  14.999 -0.0283 -0.1986 -0.2956
  180MPD1    H6 2751   3.287   3.061  14.915  1.1710 -1.3337 -0.9746
  180MPD1    H7 2752   3.297   3.050  15.088  3.4388  1.2490 -1.6997
  181MPD1     C 2753   4.452   3.760  10.582  0.0903  0.2524  0.0911
  181MPD1    C1 2754   4.571   3.706  10.554 -0.4342  0.3712  0.3836
  181MPD1    C2 2755   4.669   3.796  10.503  0.5438 -0.2454  0.4861
  181MPD1    C3 2756   4.653   3.933  10.515 -0.2678  0.4923  0.2144
  181MPD1    C4 2757   4.528   3.983  10.557 -0.3615 -0.0445 -0.0868
  181MPD1    C5 2758   4.428   3.897  10.582 -0.6009  0.0217 -0.0035
  181MPD1     H 2759   0.031   3.748  10.457  0.2208  0.0658 -0.4414
  181MPD1    H1 2760   4.519   4.091  10.566 -2.8528 -0.3558  1.1466
  181MPD1    H2 2761   4.371   3.688  10.588  1.2810 -1.1393 -0.6483
  181MPD1    H3 2762   4.332   3.932  10.618 -1.4671 -0.6800 -1.6258
  181MPD1     N 2763   0.021   4.031  10.479 -0.0710  0.5412  0.5227
  181MPD1    H5 2764   4.721   4.129  10.475 -0.5240  0.3723 -0.9785
  181MPD1    N1 2765   4.575   3.563  10.526  0.0325  0.2462  1.0177
  181MPD1    H6 2766   4.663   3.517  10.547 -0.1484 -0.7622 -0.4369
  181MPD1    H7 2767   4.504   3.514  10.580  0.1020 -0.3781  0.5364
  182MPD1     C 2768   1.036   4.074   1.350  0.1406  0.4491  0.3444
  182MPD1    C1 2769   0.979   4.048   1.471  0.7146  0.1345  0.2571
  182MPD1    C2 2770   0.877   3.950   1.482 -0.3242  0.4217  0.6651
  182MPD1    C3 2771   0.819   3.896   1.371  0.5398  0.5117  0.4952
  182MPD1    C4 2772   0.870   3.940   1.248  0.7262  0.0701  0.3184
  182MPD1    C5 2773   0.982   4.025   1.241 -0.9536 -0.6077 -0.1154
  182MPD1     H 2774   0.839   3.922   1.580  1.6446  1.7380  1.8003
  182MPD1    H1 2775   0.848   3.903   1.149  0.1613 -1.6358  1.0842
  182MPD1    H2 2776   1.107   4.155   1.340 -0.5975  1.2172  1.3708
  182MPD1    H3 2777   1.030   4.051   1.147 -0.9340 -1.6437 -0.3858
  182MPD1     N 2778   0.725   3.790   1.372  0.2209 -0.8393 -0.4301
  182MPD1    H5 2779   0.685   3.756   1.286 -0.1242 -3.3932  0.7211
  182MPD1    N1 2780   1.043   4.086   1.592 -0.0705  0.0539  0.4000
  182MPD1    H6 2781   1.095   4.173   1.581  0.5350 -0.3684 -0.0017
  182MPD1    H7 2782   0.969   4.106   1.659  0.2076  2.5724 -0.0320
  183MPD1     C 2783   1.355   0.898   9.581  0.4913  0.2133 -0.8051
  183MPD1    C1 2784   1.245   0.825   9.633  0.2237 -0.2058 -0.4214
  183MPD1    C2 2785   1.268   0.699   9.687 -0.1615 -0.3064 -0.4298
  183MPD1    C3 2786   1.394   0.642   9.670 -0.8217 -0.6757  0.3533
  183MPD1    C4 2787   1.496   0.710   9.602  0.3005  0.4514 -0.4610
  183MPD1    C5 2788   1.474   0.836   9.559  0.0575  0.2377  0.1648
  183MPD1     H 2789   1.189   0.642   9.734 -1.8569  2.2118 -0.2558
  183MPD1    H1 2790   1.594   0.664   9.598  0.4085  0.6720 -0.4055
  183MPD1    H2 2791   1.344   1.000   9.547  1.5262  1.0165  1.2943
  183MPD1    H3 2792   1.563   0.895   9.537 -0.7792  1.3188 -0.3480
  183MPD1     N 2793   1.410   0.507   9.723  0.1639  0.1246  0.0325
  183MPD1    H5 2794   1.330   0.460   9.763 -0.2779  0.8913  0.0423
  183MPD1    N1 2795   1.118   0.892   9.628  0.0318  0.3333 -0.5221
  183MPD1    H6 2796   1.100   0.949   9.546  1.0162  0.5309 -0.5966
  183MPD1    H7 2797   1.043   0.825   9.643 -0.1219  0.2770 -1.5365
  184MPD1     C 2798   0.993   1.757   9.689  0.2941  0.3157 -0.2647
  184MPD1    C1 2799   0.881   1.752   9.608  0.2600  0.2476  0.1060
  184MPD1    C2 2800   0.794   1.859   9.609 -0.3006 -0.0191 -0.5438
  184MPD1    C3 2801   0.825   1.972   9.686 -0.5489 -0.5308 -0.0728
  184MPD1    C4 2802   0.940   1.976   9.758 -0.0070  0.2696  0.4990
  184MPD1    C5 2803   1.028   1.874   9.752 -0.1179 -0.5775  0.4025
  184MPD1     H 2804   0.714   1.865   9.537 -1.2703 -1.2577  0.4434
  184MPD1    H1 2805   0.970   2.070   9.802 -1.9471  1.4546 -0.6945
  184MPD1    H2 2806   1.059   1.671   9.692 -0.7301 -0.4442  0.5681
  184MPD1    H3 2807   1.129   1.883   9.791 -0.5377  0.3550  1.2587
  184MPD1     N 2808   0.748   2.091   9.691 -0.5887  0.0898  0.3444
  184MPD1    H5 2809   0.780   2.167   9.750  1.4655 -0.0938 -0.5060
  184MPD1    N1 2810   0.845   1.632   9.541  0.1156  0.1917  0.5431
  184MPD1    H6 2811   0.799   1.654   9.454  1.8203 -1.7371 -0.8485
  184MPD1    H7 2812   0.926   1.575   9.515 -1.3055 -1.0345 -1.1954
  185MPD1     C 2813   4.493   2.223   9.467 -0.1094 -0.5134 -0.0704
  185MPD1    C1 2814   4.555   2.340   9.433  0.6116  0.8833 -0.1395
  185MPD1    C2 2815   4.689   2.358   9.464 -0.6329 -0.0166  0.6738
  185MPD1    C3 2816   0.039   2.270   9.540  0.3206 -0.0496  0.1656
  185MPD1    C4 2817   4.697   2.161   9.580 -0.2863 -0.0198 -0.0958
  185MPD1    C5 2818   4.564   2.136   9.541  0.2837  0.4861  0.0959
  185MPD1     H 2819   0.015   2.443   9.417  1.2961 -1.0596  0.8116
  185MPD1    H1 2820   0.037   2.087   9.628  1.3039  0.1673 -1.9061
  185MPD1    H2 2821   4.390   2.201   9.443 -0.6226 -1.3002  2.8896
  185MPD1    H3 2822   4.522   2.041   9.573  1.1295  1.0776  2.8894
  185MPD1     N 2823   0.176   2.275   9.577  0.1771 -0.4590 -0.1359
  185MPD1    H5 2824   0.215   2.216   9.649  0.4701 -2.6445 -2.1108
  185MPD1    N1 2825   4.505   2.422   9.332 -0.1766  0.0829  0.2341
  185MPD1    H6 2826   4.552   2.512   9.334  0.2368 -0.1125 -0.6352
  185MPD1    H7 2827   4.404   2.430   9.325 -0.3260 -0.2913  2.0229
  186MPD1     C 2828   4.469   0.910  15.958 -0.1676  0.0660  0.7866
  186MPD1    C1 2829   4.375   0.864  16.042  0.0808 -0.0246 -1.3407
  186MPD1    C2 2830   4.278   0.948  16.078 -0.8351 -0.2701 -0.2265
  186MPD1    C3 2831   4.259   1.076  16.016  0.0822  0.4427 -0.3038
  186MPD1    C4 2832   4.354   1.112  15.920 -0.1492  0.4716 -0.0097
  186MPD1    C5 2833   4.461   1.034  15.902 -0.0336 -0.6956  0.1558
  186MPD1     H 2834   4.216   0.921  16.162  2.4155  2.7347  3.1491
  186MPD1    H1 2835   4.350   1.211  15.876 -0.1669  0.0262 -1.0153
  186MPD1    H2 2836   4.561   0.855  15.942 -0.0218  0.4483  0.2866
  186MPD1    H3 2837   4.545   1.067  15.842 -0.1236 -0.2693  0.2638
  186MPD1     N 2838   4.160   1.162  16.052  0.1182  0.9712  0.4836
  186MPD1    H5 2839   4.150   1.247  15.998 -0.2727  1.1548  0.8498
  186MPD1    N1 2840   4.397   0.736  16.099 -0.0513  0.5752 -0.3445
  186MPD1    H6 2841   4.315   0.687  16.132 -0.7762  1.0600 -1.4322
  186MPD1    H7 2842   4.449   0.674  16.036 -1.4827 -1.2797  0.3367
  187MPD1     C 2843   2.849   2.954   0.713  0.0905  0.5136 -0.5074
  187MPD1    C1 2844   2.879   3.087   0.710  0.4206 -0.0365 -0.5448
  187MPD1    C2 2845   2.861   3.161   0.591 -0.6986  0.0711 -0.3349
  187MPD1    C3 2846   2.820   3.096   0.473  0.6186 -0.6806 -0.4446
  187MPD1    C4 2847   2.808   2.957   0.476  0.0445 -0.3071  0.3386
  187MPD1    C5 2848   2.814   2.888   0.595  0.1661  1.2303  0.3980
  187MPD1     H 2849   2.882   3.267   0.592 -1.1473  0.1701 -1.2464
  187MPD1    H1 2850   2.772   2.900   0.392  0.8665  1.8555 -1.4709
  187MPD1    H2 2851   2.860   2.887   0.798  1.4969  1.0303 -0.2793
  187MPD1    H3 2852   2.780   2.785   0.600  1.2302  0.9855  3.0555
  187MPD1     N 2853   2.808   3.156   0.345 -0.4525 -0.1667 -0.1594
  187MPD1    H5 2854   2.782   3.098   0.265  0.5251 -0.3062 -0.3658
  187MPD1    N1 2855   2.913   3.151   0.828 -0.0426 -0.5317  0.4488
  187MPD1    H6 2856   2.952   3.090   0.900 -1.6765 -1.2121  0.7528
  187MPD1    H7 2857   2.970   3.235   0.826 -0.1065 -0.4587  1.6577
  188MPD1     C 2858   2.671   4.040  10.346 -0.2826 -0.0910  0.1661
  188MPD1    C1 2859   2.624   4.043  10.221 -0.6422  0.2333  0.0736
  188MPD1    C2 2860   2.645   3.929  10.143  0.1486  0.3681 -0.6031
  188MPD1    C3 2861   2.693   3.810  10.200 -0.3017  0.0684 -0.0934
  188MPD1    C4 2862   2.714   3.804  10.332  0.4989  0.0581  0.0225
  188MPD1    C5 2863   2.705   3.920  10.406 -0.1935  0.2997 -0.1864
  188MPD1     H 2864   2.621   3.934  10.037 -0.6264 -1.5281 -0.4987
  188MPD1    H1 2865   2.747   3.714  10.384 -0.6043 -1.3490 -1.7271
  188MPD1    H2 2866   2.658   4.117  10.421 -1.2004  0.8814 -0.9775
  188MPD1    H3 2867   2.726   3.907  10.512 -1.0131  2.1509  0.1926
  188MPD1     N 2868   2.676   3.681  10.141  0.4984  0.3216  0.3174
  188MPD1    H5 2869   2.725   3.607  10.191 -1.3012 -0.8018  0.4003
  188MPD1    N1 2870   2.591   4.166  10.163 -0.2355 -0.2532 -0.0126
  188MPD1    H6 2871   2.518   4.150  10.094  0.0380  2.2631 -0.8615
  188MPD1    H7 2872   2.547   4.224  10.233 -1.8105 -0.1761 -1.0699
  189MPD1     C 2873   4.464   3.772   0.629 -0.4351  0.2043  0.2458
  189MPD1    C1 2874   4.413   3.895   0.621  0.6509 -0.1304 -0.2246
  189MPD1    C2 2875   4.273   3.906   0.635 -0.0456 -0.0119  0.2802
  189MPD1    C3 2876   4.192   3.790   0.635 -1.4477 -0.0933 -0.0994
  189MPD1    C4 2877   4.250   3.667   0.632  0.5115 -0.3197  0.5810
  189MPD1    C5 2878   4.385   3.659   0.630 -0.4656  0.8392  0.2956
  189MPD1     H 2879   4.232   4.007   0.635  1.2434  0.5140 -0.2167
  189MPD1    H1 2880   4.194   3.575   0.627  2.0450 -1.2065 -0.0843
  189MPD1    H2 2881   4.572   3.763   0.643 -0.5108 -0.5510  0.3376
  189MPD1    H3 2882   4.425   3.559   0.646 -0.0968  0.8512 -0.5117
  189MPD1     N 2883   4.049   3.812   0.622  0.3053 -0.0992 -0.5985
  189MPD1    H5 2884   4.021   3.906   0.598 -0.1948  0.0386  0.4984
  189MPD1    N1 2885   4.485   4.017   0.626 -0.2675 -0.2258 -0.1377
  189MPD1    H6 2886   4.574   4.003   0.579  1.1857  0.6370  2.3590
  189MPD1    H7 2887   4.440   4.097   0.581 -0.9173 -0.5211 -0.0155
  190MPD1     C 2888   2.961   1.874  16.042  0.4986 -0.7708 -0.2755
  190MPD1    C1 2889   3.024   1.935  16.150  0.8021 -0.3588  0.9831
  190MPD1    C2 2890   3.107   2.049  16.133 -0.5064 -0.1048 -0.1153
  190MPD1    C3 2891   3.105   2.111  16.009  0.5748 -0.1367 -0.7661
  190MPD1    C4 2892   3.036   2.050  15.903 -0.0267 -0.7290 -0.3933
  190MPD1    C5 2893   2.968   1.938  15.920  0.1109 -0.0022  0.1803
  190MPD1     H 2894   3.166   2.080  16.218  1.3480  2.5204 -2.3854
  190MPD1    H1 2895   3.031   2.097  15.805 -2.3397  0.9179  0.5079
  190MPD1    H2 2896   2.911   1.779  16.048  0.7077 -0.9465 -1.3559
  190MPD1    H3 2897   2.917   1.896  15.834 -0.8014  1.1425  0.1616
  190MPD1     N 2898   3.190   2.230  16.002 -0.1871  0.1756  0.3273
  190MPD1    H5 2899   3.243   2.259  16.084 -0.7380 -1.6758  1.3575
  190MPD1    N1 2900   3.016   1.871  16.271  0.5694 -0.0355  0.6065
  190MPD1    H6 2901   2.925   1.825  16.275  1.1753 -1.2835  0.1807
  190MPD1    H7 2902   3.012   1.934  16.351  0.6959 -0.9620  1.3584
  191MPD1     C 2903   2.446   0.153  12.902  0.4799  0.5570  0.1881
  191MPD1    C1 2904   2.543   0.052  12.893  0.0640 -0.4078  0.0446
  191MPD1    C2 2905   2.604   0.030  12.764  0.1955 -0.2693 -0.5324
  191MPD1    C3 2906   2.568   0.105  12.656 -0.4051  0.4680 -0.4979
  191MPD1    C4 2907   2.476   0.212  12.671  0.5008 -0.0797 -0.4881
  191MPD1    C5 2908   2.416   0.231  12.796 -1.1954 -0.0913 -0.4229
  191MPD1     H 2909   2.670   4.668  12.748  0.1944 -0.9784  3.3675
  191MPD1    H1 2910   2.448   0.283  12.594  0.3787 -0.4852 -0.8218
  191MPD1    H2 2911   2.398   0.177  12.996  0.1018  1.2476 -0.1806
  191MPD1    H3 2912   2.344   0.311  12.810 -1.4204 -0.9296  3.2719
  191MPD1     N 2913   2.622   0.084  12.525 -0.3926 -0.0725 -0.0877
  191MPD1    H5 2914   2.687   0.006  12.521 -0.5418 -0.0154 -3.5110
  191MPD1    N1 2915   2.561   4.693  13.001  0.6501 -0.7348  0.0479
  191MPD1    H6 2916   2.651   4.647  12.987  0.6404  0.2861 -3.2203
  191MPD1    H7 2917   2.576   0.015  13.091 -0.8408  0.2539 -0.2151
  192MPD1     C 2918   2.464   4.681  11.464 -0.2600 -0.7467  1.0616
  192MPD1    C1 2919   2.479   0.081  11.519  0.6126  0.4859  0.2824
  192MPD1    C2 2920   2.514   0.105  11.649  0.4550  0.5541  0.0907
  192MPD1    C3 2921   2.547   4.714  11.727  0.2504  0.1577 -0.1036
  192MPD1    C4 2922   2.532   4.587  11.673  0.0065 -0.0453  0.3927
  192MPD1    C5 2923   2.494   4.569  11.544  0.6696 -0.3677  0.2529
  192MPD1     H 2924   2.527   0.208  11.680 -1.5733  1.0241 -0.5904
  192MPD1    H1 2925   2.555   4.497  11.728 -1.9315 -1.6466 -1.4347
  192MPD1    H2 2926   2.412   4.666  11.370 -0.0174  2.6864  0.3878
  192MPD1    H3 2927   2.491   4.471  11.498 -1.4796 -1.1870  2.1472
  192MPD1     N 2928   2.590   4.709  11.859  0.0950 -0.1403  0.4973
  192MPD1    H5 2929   2.599   4.616  11.900 -2.2827 -0.7189 -0.2506
  192MPD1    N1 2930   2.465   0.193  11.429  0.0149 -0.6934 -0.1918
  192MPD1    H6 2931   2.412   0.173  11.345  0.8836  0.5482 -1.0390
  192MPD1    H7 2932   2.411   0.270  11.469  0.1275  0.0840 -1.5258
  193MPD1     C 2933   1.832   0.118  16.551  0.7877  0.4757  0.3581
  193MPD1    C1 2934   1.850   0.245  16.603  0.1662 -0.5614  0.0490
  193MPD1    C2 2935   1.976   0.277  16.650 -0.0946  0.4379 -0.3336
  193MPD1    C3 2936   2.082   0.195  16.645  0.1119 -0.2842 -0.5748
  193MPD1    C4 2937   2.064   0.078  16.565 -0.1281  0.5715  0.5932
  193MPD1    C5 2938   1.939   0.035  16.528 -0.0646 -0.5548 -0.7714
  193MPD1     H 2939   1.986   0.372  16.703  1.9710  0.5857 -1.0021
  193MPD1    H1 2940   2.152   0.016  16.554 -0.8777 -0.8030  2.2670
  193MPD1    H2 2941   1.743   0.075  16.506 -0.0885  2.8130 -0.1427
  193MPD1    H3 2942   1.930   4.656  16.495  1.4909 -1.8693  2.7647
  193MPD1     N 2943   2.200   0.215  16.725  0.8865  0.3446  0.2450
  193MPD1    H5 2944   2.260   0.134  16.736  0.2394 -0.0942  0.5467
  193MPD1    N1 2945   1.742   0.328  16.633 -0.0190 -0.1555  1.0912
  193MPD1    H6 2946   1.767   0.427  16.640  0.4178 -0.1516 -0.5382
  193MPD1    H7 2947   1.663   0.321  16.571 -1.8443  0.8180  3.2821
  194MPD1     C 2948   4.578   1.953  16.779  0.3621  0.2115 -0.7218
  194MPD1    C1 2949   4.689   1.971  16.858  0.1266 -0.0971 -0.5424
  194MPD1    C2 2950   0.039   1.860  16.903 -0.0459  0.2047 -0.0869
  194MPD1    C3 2951   0.007   1.734  16.863 -0.2843 -0.3436  0.3682
  194MPD1    C4 2952   4.617   1.711  16.785 -0.6204  0.6121 -0.3605
  194MPD1    C5 2953   4.548   1.825  16.738  0.1263  0.6152  0.3690
  194MPD1     H 2954   0.122   1.884  16.969 -0.8962  0.3515  0.9298
  194MPD1    H1 2955   4.592   1.613  16.746 -3.0367  0.8946  0.5108
  194MPD1    H2 2956   4.519   2.039  16.751  0.0912  0.2970  0.1151
  194MPD1    H3 2957   4.458   1.811  16.680  1.6753 -3.5934 -0.9407
  194MPD1     N 2958   0.086   1.624  16.900  0.3218 -0.3475  0.2214
  194MPD1    H5 2959   0.060   1.535  16.858  1.5051 -0.7454  0.3352
  194MPD1    N1 2960   4.700   2.096  16.929 -0.5561  0.3773  0.4056
  194MPD1    H6 2961   0.073   2.115  16.951 -0.3528  0.7078 -0.7815
  194MPD1    H7 2962   4.675   2.177  16.873 -0.8495  0.3134  0.4414
  195MPD1     C 2963   2.520   3.345   0.499 -0.3730 -0.0132 -0.1712
  195MPD1    C1 2964   2.481   3.350   0.368  0.0713 -0.3851  0.8199
  195MPD1    C2 2965   2.451   3.235   0.306  0.2241  0.1347 -0.1045
  195MPD1    C3 2966   2.464   3.109   0.368 -0.6959  0.6908  0.2354
  195MPD1    C4 2967   2.510   3.103   0.497  0.0010  0.0068  0.1604
  195MPD1    C5 2968   2.535   3.223   0.562 -0.1673  0.0192 -0.1561
  195MPD1     H 2969   2.419   3.243   0.202  0.8491  0.5661 -0.2625
  195MPD1    H1 2970   2.523   3.006   0.543  1.1676 -0.9681 -2.1832
  195MPD1    H2 2971   2.545   3.432   0.559 -0.1662 -0.6415  0.6539
  195MPD1    H3 2972   2.578   3.229   0.661 -2.7955  0.5293  0.9784
  195MPD1     N 2973   2.428   2.987   0.304  0.0047  0.8767  0.0229
  195MPD1    H5 2974   2.444   2.906   0.363 -1.1168 -0.1937 -1.1354
  195MPD1    N1 2975   2.445   3.474   0.312  0.1669 -0.0239  0.2208
  195MPD1    H6 2976   2.515   3.543   0.342  1.1096 -1.1118  0.5127
  195MPD1    H7 2977   2.442   3.479   0.211  0.3428 -4.6217  0.0247
  196MPD1     C 2978   1.190   2.544   0.873 -0.2411  0.2117  0.0973
  196MPD1    C1 2979   1.209   2.464   0.985  0.0728  0.6637  0.5583
  196MPD1    C2 2980   1.311   2.485   1.077  0.9982 -0.2921  0.2937
  196MPD1    C3 2981   1.388   2.604   1.070 -0.2015 -0.7368 -0.0787
  196MPD1    C4 2982   1.362   2.689   0.964 -0.2108  0.4810  0.2786
  196MPD1    C5 2983   1.275   2.656   0.866  0.0878  0.0580 -0.0215
  196MPD1     H 2984   1.334   2.413   1.154  0.0707  1.6121  2.3837
  196MPD1    H1 2985   1.431   2.772   0.957 -0.8774  1.0612  0.5882
  196MPD1    H2 2986   1.120   2.517   0.795 -0.4307  0.2997  0.2355
  196MPD1    H3 2987   1.275   2.709   0.771 -0.6106  0.2751  0.1003
  196MPD1     N 2988   1.478   2.643   1.174 -0.5475  0.2441 -0.0431
  196MPD1    H5 2989   1.519   2.734   1.159 -1.2795  0.6507  0.4204
  196MPD1    N1 2990   1.153   2.340   0.978  0.3107  0.1441 -0.5670
  196MPD1    H6 2991   1.071   2.346   0.918  0.9292 -0.2937 -1.4541
  196MPD1    H7 2992   1.122   2.310   1.070 -0.6834 -1.2048 -1.3547
  197MPD1     C 2993   0.328   0.904  16.500  0.2630 -0.6761 -0.6724
  197MPD1    C1 2994   0.361   0.791  16.430  0.4427  0.3762 -0.1366
  197MPD1    C2 2995   0.455   0.708  16.486  0.3756  0.1028  0.9312
  197MPD1    C3 2996   0.505   0.735  16.613  0.1011 -0.4768  0.4039
  197MPD1    C4 2997   0.446   0.828  16.689 -0.5576  0.7115  0.6255
  197MPD1    C5 2998   0.358   0.912  16.631  0.4561 -0.3406 -0.8608
  197MPD1     H 2999   0.501   0.631  16.426  1.7948  2.4732 -1.0007
  197MPD1    H1 3000   0.475   0.851  16.791 -0.4466 -2.1669  1.2382
  197MPD1    H2 3001   0.255   0.974  16.460  0.0058 -0.2148  0.6079
  197MPD1    H3 3002   0.322   0.997  16.687 -0.6900 -1.0186 -0.5828
  197MPD1     N 3003   0.606   0.663  16.676 -0.2687  0.5102 -0.0154
  197MPD1    H5 3004   0.636   0.699  16.766 -0.4072  3.1345 -1.0058
  197MPD1    N1 3005   0.326   0.775  16.293  0.3656  0.1528 -0.2643
  197MPD1    H6 3006   0.248   0.837  16.275  0.9604  0.8251 -0.5315
  197MPD1    H7 3007   0.291   0.687  16.255 -1.4676  0.4659  0.7216
  198MPD1     C 3008   2.601   2.990  15.738 -0.5065  0.3968 -0.0419
  198MPD1    C1 3009   2.620   3.038  15.864  0.3903 -0.0403 -0.2368
  198MPD1    C2 3010   2.738   3.090  15.900 -0.0656  0.0265 -0.2534
  198MPD1    C3 3011   2.854   3.082  15.815 -0.0470  0.2591 -0.5087
  198MPD1    C4 3012   2.833   3.039  15.689  0.3866 -0.4780  0.0870
  198MPD1    C5 3013   2.710   2.987  15.651  0.5421 -0.5268 -0.0872
  198MPD1     H 3014   2.752   3.140  15.995  0.2525  0.7796 -0.6916
  198MPD1    H1 3015   2.912   3.052  15.615  2.1788 -0.5853  1.9836
  198MPD1    H2 3016   2.506   2.952  15.701  0.3563 -0.8908 -0.9318
  198MPD1    H3 3017   2.683   2.963  15.548 -0.1000  1.5222 -0.3956
  198MPD1     N 3018   2.967   3.146  15.861  0.3385 -1.3249 -0.0954
  198MPD1    H5 3019   2.963   3.200  15.947 -0.1971 -1.9784  0.2832
  198MPD1    N1 3020   2.513   3.040  15.947 -0.0523 -0.0705 -0.0813
  198MPD1    H6 3021   2.533   3.053  16.046 -1.0023  0.9857 -0.0329
  198MPD1    H7 3022   2.436   2.979  15.922 -0.7854  0.5284  0.7415
  199MPD1     C 3023   0.957   3.559   9.464 -0.2284 -0.1953 -0.2222
  199MPD1    C1 3024   0.978   3.662   9.552 -0.2858 -0.5731  0.0556
  199MPD1    C2 3025   0.878   3.696   9.639 -0.1434  0.0578  0.1214
  199MPD1    C3 3026   0.759   3.626   9.640  0.1835 -0.3235 -0.6947
  199MPD1    C4 3027   0.740   3.519   9.557  0.1257  0.5054 -0.3793
  199MPD1    C5 3028   0.838   3.488   9.468  0.2414 -0.1124 -0.7034
  199MPD1     H 3029   0.900   3.762   9.723  0.0088  1.5945 -1.1101
  199MPD1    H1 3030   0.652   3.457   9.559  1.7864 -1.8315  0.4075
  199MPD1    H2 3031   1.032   3.539   9.388 -2.4337 -2.1727 -1.8918
  199MPD1    H3 3032   0.820   3.406   9.400 -2.1100  0.1140 -0.3583
  199MPD1     N 3033   0.645   3.663   9.721 -0.2719  0.4447 -0.1750
  199MPD1    H5 3034   0.575   3.593   9.745 -0.6227  0.4260 -1.2717
  199MPD1    N1 3035   1.095   3.735   9.546 -0.0577  0.4947  0.7325
  199MPD1    H6 3036   1.133   3.764   9.636 -1.6930 -2.4283  2.3509
  199MPD1    H7 3037   1.163   3.692   9.483 -0.4630  0.5248  0.2777
  200MPD1     C 3038   4.457   0.088  14.863 -0.2742  0.6491  0.7474
  200MPD1    C1 3039   4.589   0.070  14.826 -0.6202 -0.3976  0.2490
  200MPD1    C2 3040   4.650   0.171  14.750 -0.7486  0.8242 -0.6695
  200MPD1    C3 3041   4.576   0.283  14.703 -0.6201  0.2795 -0.4685
  200MPD1    C4 3042   4.443   0.297  14.742  0.2611  0.4106 -0.9362
  200MPD1    C5 3043   4.385   0.203  14.826  0.0070 -0.3533  0.3453
  200MPD1     H 3044   0.031   0.156  14.728 -1.0111 -1.6688 -0.3274
  200MPD1    H1 3045   4.379   0.382  14.721  2.0718  1.9764 -0.0674
  200MPD1    H2 3046   4.407   0.018  14.929  1.0578 -2.0265 -1.0668
  200MPD1    H3 3047   4.282   0.205  14.857 -0.1155  0.5989 -0.1010
  200MPD1     N 3048   4.646   0.382  14.626 -0.3684  0.4518 -1.0904
  200MPD1    H5 3049   0.020   0.365  14.608 -0.6741 -0.2332 -2.0702
  200MPD1    N1 3050   4.672   4.692  14.874 -0.6740  0.7832  0.4266
  200MPD1    H6 3051   4.619   4.607  14.892  3.5921 -1.9224  0.3087
  200MPD1    H7 3052   0.017   4.665  14.804  0.0465  2.2009  0.5826
  201MPD1     C 3053   1.597   4.043  13.801  0.2437 -0.6478 -0.3313
  201MPD1    C1 3054   1.732   4.069  13.770 -0.4347 -0.2186  0.1536
  201MPD1    C2 3055   1.809   3.965  13.713  0.5113 -1.0270  0.5961
  201MPD1    C3 3056   1.748   3.849  13.670  0.5815  0.2131 -0.0777
  201MPD1    C4 3057   1.616   3.835  13.691  0.1646 -0.1034 -0.1507
  201MPD1    C5 3058   1.542   3.919  13.766 -0.1689  0.4474 -0.9509
  201MPD1     H 3059   1.917   3.971  13.706  0.4918  0.6280  1.6996
  201MPD1    H1 3060   1.560   3.751  13.652 -0.8292 -0.1080  1.2714
  201MPD1    H2 3061   1.541   4.116  13.859  1.0944  0.4892 -0.9234
  201MPD1    H3 3062   1.442   3.892  13.799  0.1908  0.7897  0.4005
  201MPD1     N 3063   1.827   3.767  13.582 -0.0953  0.2775  0.2126
  201MPD1    H5 3064   1.927   3.781  13.569 -0.3997  0.7998 -1.5881
  201MPD1    N1 3065   1.782   4.183  13.828 -0.2797  1.0183 -0.2766
  201MPD1    H6 3066   1.714   4.259  13.831 -0.1155  1.2264 -2.2757
  201MPD1    H7 3067   1.875   4.212  13.800  0.2117 -0.9886 -0.7446
  202MPD1     C 3068   1.545   3.631   9.345 -0.2622  0.3904 -0.0701
  202MPD1    C1 3069   1.496   3.738   9.414 -0.5062 -0.3538 -0.4313
  202MPD1    C2 3070   1.589   3.797   9.501  0.3174 -0.1129  0.5168
  202MPD1    C3 3071   1.698   3.730   9.550 -0.2721 -0.6455 -0.7650
  202MPD1    C4 3072   1.723   3.609   9.490 -0.0959 -0.0900 -0.0931
  202MPD1    C5 3073   1.655   3.563   9.384  0.6223 -0.5644 -0.5295
  202MPD1     H 3074   1.551   3.886   9.551  1.1662 -0.1097  1.1595
  202MPD1    H1 3075   1.811   3.557   9.527  1.1023  1.9875 -0.0120
  202MPD1    H2 3076   1.498   3.590   9.256 -1.3402  0.2215  0.5720
  202MPD1    H3 3077   1.685   3.476   9.326  1.6967 -1.4829  1.4246
  202MPD1     N 3078   1.780   3.768   9.660 -0.3070  0.4183  0.0143
  202MPD1    H5 3079   1.851   3.705   9.698  0.6998  1.1706 -0.6173
  202MPD1    N1 3080   1.404   3.823   9.350  0.4108  0.0241  0.7076
  202MPD1    H6 3081   1.369   3.898   9.409 -0.5986  1.0024 -1.1457
  202MPD1    H7 3082   1.329   3.765   9.315  1.4106 -1.3862  0.9109
  203MPD1     C 3083   0.198   3.663  12.903  0.2611 -1.1771 -0.1935
  203MPD1    C1 3084   0.275   3.691  13.012 -0.6983  0.5481  0.7547
  203MPD1    C2 3085   0.412   3.709  13.003  0.0162  0.1845 -0.1184
  203MPD1    C3 3086   0.477   3.670  12.890  0.5822 -0.0833 -0.3105
  203MPD1    C4 3087   0.403   3.616  12.789 -0.1562  0.4013  0.3585
  203MPD1    C5 3088   0.264   3.629  12.791 -0.4180 -0.1897 -0.4991
  203MPD1     H 3089   0.473   3.737  13.088  1.2576 -0.8202 -0.6781
  203MPD1    H1 3090   0.440   3.574  12.696 -1.9596  1.4303 -0.8290
  203MPD1    H2 3091   0.089   3.655  12.904  0.0295  2.0237 -0.9597
  203MPD1    H3 3092   0.208   3.605  12.702 -0.9314  0.8820 -0.4664
  203MPD1     N 3093   0.614   3.672  12.888 -0.1658  0.1691  0.7449
  203MPD1    H5 3094   0.671   3.695  12.969  0.1555  1.4549  0.1460
  203MPD1    N1 3095   0.218   3.739  13.130  0.7141 -0.2546  0.0987
  203MPD1    H6 3096   0.278   3.704  13.204 -0.1705 -0.7967  0.5527
  203MPD1    H7 3097   0.127   3.694  13.139  0.6032 -0.4845 -2.0836
  204MPD1     C 3098   4.590   0.418   0.600 -0.2718  0.2979 -0.0069
  204MPD1    C1 3099   4.500   0.316   0.585  0.6687  1.2265 -0.0836
  204MPD1    C2 3100   4.521   0.214   0.495 -0.2806 -0.4927 -0.0379
  204MPD1    C3 3101   4.639   0.216   0.418 -0.2900 -0.1872 -0.5750
  204MPD1    C4 3102   0.018   0.311   0.440 -0.0563 -0.3214  0.1959
  204MPD1    C5 3103   4.709   0.414   0.530 -0.1720 -0.3284 -0.6428
  204MPD1     H 3104   4.445   0.138   0.485  0.0125 -0.9174  0.9759
  204MPD1    H1 3105   0.116   0.305   0.394  0.9746  1.0496  2.2434
  204MPD1    H2 3106   4.577   0.491   0.678 -1.6667 -0.6977  0.6864
  204MPD1    H3 3107   0.053   0.499   0.544  0.0870 -0.8415  1.1628
  204MPD1     N 3108   4.656   0.104   0.331  0.1649  0.0897  0.4963
  204MPD1    H5 3109   4.570   0.055   0.311  0.7814 -0.5111 -0.6365
  204MPD1    N1 3110   4.378   0.298   0.659  0.4877  0.2324  0.8474
  204MPD1    H6 3111   4.370   0.208   0.705  0.3681 -0.3342 -0.2956
  204MPD1    H7 3112   4.362   0.375   0.725  0.5655  1.3146 -0.3970
  205MPD1     C 3113   4.295   3.462  17.037 -0.2586  0.3538  0.1474
  205MPD1    C1 3114   4.258   3.470  17.164  0.5268  0.1348 -0.5568
  205MPD1    C2 3115   4.341   3.512  17.268 -0.3056  0.2664 -0.1740
  205MPD1    C3 3116   4.471   3.542  17.237 -0.4937  0.1111 -0.4896
  205MPD1    C4 3117   4.511   3.535  17.102  0.4788 -0.4169  0.0057
  205MPD1    C5 3118   4.424   3.494  17.010 -0.1313 -1.0155 -1.1391
  205MPD1     H 3119   4.298   3.536  17.365  0.9932 -2.8197  1.1755
  205MPD1    H1 3120   4.615   3.556  17.080  0.1592  0.6713 -0.4924
  205MPD1    H2 3121   4.226   3.436  16.958 -0.5380 -2.1130  1.1977
  205MPD1    H3 3122   4.477   3.496  16.915  1.9674 -1.6212  0.0440
  205MPD1     N 3123   4.565   3.574  17.331 -0.1732 -0.2655  0.6030
  205MPD1    H5 3124   4.655   3.610  17.299 -0.9810 -0.7332 -2.2478
  205MPD1    N1 3125   4.126   3.434  17.193 -0.4038  0.1593 -0.7860
  205MPD1    H6 3126   4.114   3.389  17.283  1.2099 -2.8700 -2.0661
  205MPD1    H7 3127   4.085   3.370  17.125 -1.8984  0.9170 -0.5996
  206MPD1     C 3128   0.281   2.337  17.309  0.0394  0.4550  0.1940
  206MPD1    C1 3129   0.363   2.259  17.240 -0.8930 -0.0718  0.7038
  206MPD1    C2 3130   0.346   2.246  17.102  0.4609  0.7281  0.2996
  206MPD1    C3 3131   0.258   2.322  17.037 -0.0492  0.5269  0.4293
  206MPD1    C4 3132   0.179   2.414  17.109  0.0871 -0.6074  0.4437
  206MPD1    C5 3133   0.194   2.424  17.247 -0.0843 -0.2576  0.6044
  206MPD1     H 3134   0.414   2.178  17.051  1.5574  0.6825  1.7996
  206MPD1    H1 3135   0.108   2.480  17.061 -0.6838 -2.3097 -0.7620
  206MPD1    H2 3136   0.306   2.367  17.410 -3.4953 -0.8615  1.4643
  206MPD1    H3 3137   0.138   2.496  17.305 -1.0744 -0.6569  0.1448
  206MPD1     N 3138   0.234   2.303  16.899  0.5749 -0.1226 -0.4080
  206MPD1    H5 3139   0.174   2.371  16.854  0.2052 -0.0134  0.2392
  206MPD1    N1 3140   0.469   2.204  17.304 -0.0519 -0.4578 -0.7477
  206MPD1    H6 3141   0.491   2.116  17.257  3.4145  0.1686 -0.3050
  206MPD1    H7 3142   0.450   2.169  17.397 -2.1842 -2.4100 -1.8991
  207MPD1     C 3143   2.190   0.023   9.621  0.1197  0.2715 -0.2248
  207MPD1    C1 3144   2.176   4.721   9.752 -0.1289 -0.2940  0.0372
  207MPD1    C2 3145   2.267   0.045   9.843 -0.1200  1.1306  0.1285
  207MPD1    C3 3146   2.364   0.131   9.809 -0.6153 -0.1100  0.0161
  207MPD1    C4 3147   2.383   0.160   9.669  0.4568 -0.4528 -0.4167
  207MPD1    C5 3148   2.293   0.107   9.577  0.6431 -0.4975 -0.4334
  207MPD1     H 3149   2.252   0.023   9.948  0.5398  0.4512  0.0788
  207MPD1    H1 3150   2.441   0.244   9.632  0.3510 -0.2368 -0.0942
  207MPD1    H2 3151   2.122   4.718   9.542 -0.5810  0.5792  0.2689
  207MPD1    H3 3152   2.298   0.137   9.473 -1.0122  3.0379  0.5287
  207MPD1     N 3153   2.447   0.196   9.905  0.2121  0.2316 -1.0508
  207MPD1    H5 3154   2.527   0.242   9.863  0.6526  0.9561  0.5541
  207MPD1    N1 3155   2.083   4.622   9.789  0.1932 -0.2037 -0.2435
  207MPD1    H6 3156   2.003   4.626   9.727  0.9861 -0.7511 -1.3027
  207MPD1    H7 3157   2.047   4.627   9.884 -0.2842 -0.5791 -0.4030
  208MPD1     C 3158   1.717   3.451   0.560  1.2570 -0.1335 -0.6893
  208MPD1    C1 3159   1.614   3.529   0.613  0.0811  0.2176  0.2195
  208MPD1    C2 3160   1.478   3.478   0.608 -0.1287 -0.3010  0.2733
  208MPD1    C3 3161   1.451   3.355   0.550 -0.2078 -1.3314 -0.0236
  208MPD1    C4 3162   1.559   3.272   0.520 -0.5248 -0.3040 -0.3196
  208MPD1    C5 3163   1.689   3.320   0.522 -0.0674  0.7041 -0.2474
  208MPD1     H 3164   1.397   3.540   0.642 -1.6242 -1.5601 -0.9765
  208MPD1    H1 3165   1.541   3.176   0.475 -1.0798 -1.0148  1.4139
  208MPD1    H2 3166   1.817   3.493   0.564  0.0600  2.7175 -0.6212
  208MPD1    H3 3167   1.776   3.259   0.499  1.1267  1.6569  1.6983
  208MPD1     N 3168   1.311   3.326   0.541 -0.7768 -0.2460  0.2321
  208MPD1    H5 3169   1.251   3.396   0.583 -1.0491 -1.1991  1.4404
  208MPD1    N1 3170   1.630   3.659   0.653 -0.1805  0.3948  0.2530
  208MPD1    H6 3171   1.714   3.670   0.711  0.1674 -0.1613 -0.1413
  208MPD1    H7 3172   1.548   3.694   0.703  0.0985  1.2072  0.1369
  209MPD1     C 3173   3.846   0.458  10.779  0.3542  0.0241  0.1033
  209MPD1    C1 3174   3.759   0.403  10.685  0.0476  0.1991  0.0045
  209MPD1    C2 3175   3.650   0.324  10.732 -0.4305  0.5493 -0.5040
  209MPD1    C3 3176   3.628   0.307  10.863  0.3165  0.0077  0.5461
  209MPD1    C4 3177   3.718   0.356  10.960  0.2390  0.2962  0.1002
  209MPD1    C5 3178   3.821   0.432  10.914  0.3443  0.5019  0.8162
  209MPD1     H 3179   3.584   0.286  10.654 -1.5776  0.8221  0.3398
  209MPD1    H1 3180   3.698   0.339  11.065  0.8360  0.8544  0.3061
  209MPD1    H2 3181   3.932   0.520  10.757  1.1131 -1.1795 -0.3577
  209MPD1    H3 3182   3.879   0.482  10.992  0.3252 -1.4883  2.1283
  209MPD1     N 3183   3.500   0.244  10.891 -0.1611  1.1650  0.0748
  209MPD1    H5 3184   3.448   0.194  10.820 -0.7517  0.7085  0.8322
  209MPD1    N1 3185   3.768   0.427  10.548 -0.3901  0.1833 -0.5006
  209MPD1    H6 3186   3.863   0.447  10.517  0.5716 -2.2700  0.9089
  209MPD1    H7 3187   3.723   0.358  10.489 -0.8455  0.5559 -0.5830
  210MPD1     C 3188   3.311   4.203  11.496 -0.1206 -0.0945 -0.2238
  210MPD1    C1 3189   3.198   4.274  11.516  0.4858 -0.1207 -0.1992
  210MPD1    C2 3190   3.181   4.390  11.435  0.4942 -0.2857 -0.1299
  210MPD1    C3 3191   3.283   4.428  11.346 -0.3922 -0.3321  0.2974
  210MPD1    C4 3192   3.402   4.361  11.354  1.0055  0.5803 -0.1217
  210MPD1    C5 3193   3.415   4.244  11.422  0.7209 -0.2300 -0.1964
  210MPD1     H 3194   3.089   4.447  11.443  0.4807 -0.2262 -0.6879
  210MPD1    H1 3195   3.481   4.386  11.285  1.4943 -2.5504 -0.6814
  210MPD1    H2 3196   3.322   4.099  11.524  1.2355 -0.4235 -1.9934
  210MPD1    H3 3197   3.502   4.181  11.404  2.0701  0.7146  3.0288
  210MPD1     N 3198   3.287   4.540  11.262 -0.1837 -0.3093 -0.0171
  210MPD1    H5 3199   3.372   4.566  11.214 -0.1919 -0.2131  0.0219
  210MPD1    N1 3200   3.089   4.209  11.568  0.1350  0.5829  0.1494
  210MPD1    H6 3201   3.016   4.273  11.599 -0.6500  0.5283 -1.5982
  210MPD1    H7 3202   3.112   4.154  11.651 -1.0453 -0.5874 -0.2805
  211MPD1     C 3203   0.373   4.354   0.025  0.2080  0.1666 -0.2169
  211MPD1    C1 3204   0.266   4.272   0.002 -0.5865  0.3629 -0.5145
  211MPD1    C2 3205   0.218   4.252  17.575 -0.6186  0.2957 -0.1298
  211MPD1    C3 3206   0.275   4.328  17.469 -0.3620  0.0115  0.3633
  211MPD1    C4 3207   0.376   4.416  17.496 -0.3855  0.2627  0.2373
  211MPD1    C5 3208   0.422   4.437  17.619 -0.0040  0.0266 -0.2566
  211MPD1     H 3209   0.146   4.175  17.549 -0.4082 -0.1346  0.5636
  211MPD1    H1 3210   0.408   4.491  17.424  1.2516 -0.4666  0.2010
  211MPD1    H2 3211   0.420   4.366   0.122 -0.0139 -1.5580  0.1040
  211MPD1    H3 3212   0.501   4.507  17.642 -0.6332  0.7923 -0.4119
  211MPD1     N 3213   0.239   4.285  17.338 -0.3865  0.2271  0.2537
  211MPD1    H5 3214   0.173   4.208  17.334 -1.2137  1.0273 -1.5499
  211MPD1    N1 3215   0.226   4.190   0.108 -0.1539 -0.3417  0.1820
  211MPD1    H6 3216   0.128   4.165   0.114 -0.3089  0.1085 -0.5022
  211MPD1    H7 3217   0.245   4.235   0.198  1.2780  0.6712 -0.6213
  212MPD1     C 3218   4.346   2.468  16.358 -0.0990  0.2463  0.2714
  212MPD1    C1 3219   4.246   2.486  16.450 -0.6576 -0.6745 -0.6556
  212MPD1    C2 3220   4.208   2.374  16.518 -0.5061 -0.0116 -0.2619
  212MPD1    C3 3221   4.286   2.262  16.509 -0.0414  0.5979  0.0347
  212MPD1    C4 3222   4.395   2.251  16.429  0.3038 -1.0236 -0.6028
  212MPD1    C5 3223   4.416   2.352  16.342  0.7215 -0.5957 -0.2081
  212MPD1     H 3224   4.118   2.379  16.579 -1.0231  1.2425 -1.1291
  212MPD1    H1 3225   4.447   2.156  16.420  2.2115  0.0099 -0.5977
  212MPD1    H2 3226   4.380   2.549  16.295 -1.2124 -0.9536 -1.8584
  212MPD1    H3 3227   4.511   2.338  16.290  1.8792 -2.2564  2.3304
  212MPD1     N 3228   4.265   2.148  16.588  0.2397  0.1276 -0.0320
  212MPD1    H5 3229   4.324   2.069  16.564 -3.1524 -1.7234 -2.2540
  212MPD1    N1 3230   4.176   2.607  16.455  0.0613 -0.2589  0.0621
  212MPD1    H6 3231   4.232   2.686  16.422 -0.1256 -1.3396 -2.8383
  212MPD1    H7 3232   4.146   2.629  16.550  0.2140  1.7626 -0.3647
  213MPD1     C 3233   2.993   3.527  15.976  0.3074 -0.5128  0.2190
  213MPD1    C1 3234   2.871   3.469  16.008  0.1793  1.0257  0.2412
  213MPD1    C2 3235   2.796   3.418  15.909 -0.0658 -0.1663 -0.0426
  213MPD1    C3 3236   2.834   3.444  15.777  0.4535  0.6507  0.2184
  213MPD1    C4 3237   2.954   3.505  15.745 -0.3154  0.3715 -0.0750
  213MPD1    C5 3238   3.032   3.551  15.846  0.2338  0.0708 -0.0179
  213MPD1     H 3239   2.706   3.360  15.924  0.4587 -1.2018 -0.9333
  213MPD1    H1 3240   2.991   3.524  15.645 -0.5681  0.6147 -0.1207
  213MPD1    H2 3241   3.054   3.557  16.060  1.0866 -0.2539 -0.4424
  213MPD1    H3 3242   3.131   3.593  15.840  0.9930 -1.2897  2.9289
  213MPD1     N 3243   2.743   3.395  15.674  0.0682  0.4021 -0.0154
  213MPD1    H5 3244   2.652   3.361  15.703  1.2801 -0.3597  2.9207
  213MPD1    N1 3245   2.862   3.410  16.131 -0.6771 -0.5389 -0.0480
  213MPD1    H6 3246   2.769   3.377  16.156 -1.5438  1.6763 -0.2740
  213MPD1    H7 3247   2.896   3.475  16.202  0.0547 -2.0080  0.9239
  214MPD1     C 3248   2.112   2.809  15.782  0.8611  0.4859 -0.1360
  214MPD1    C1 3249   2.168   2.796  15.654  0.0154  0.1059  0.2600
  214MPD1    C2 3250   2.244   2.897  15.597 -0.2127 -0.4686  0.0440
  214MPD1    C3 3251   2.264   3.018  15.663  0.0393 -0.0130 -0.1487
  214MPD1    C4 3252   2.211   3.036  15.788 -0.1750 -0.2155  0.4078
  214MPD1    C5 3253   2.135   2.931  15.846 -0.4217  0.0906  0.0342
  214MPD1     H 3254   2.290   2.874  15.502 -0.3135 -1.5822  0.2566
  214MPD1    H1 3255   2.236   3.126  15.843  0.6219  0.1339 -0.5325
  214MPD1    H2 3256   2.055   2.728  15.828  0.5952  1.1874  0.7551
  214MPD1    H3 3257   2.101   2.949  15.947  1.4652 -0.0296  0.6942
  214MPD1     N 3258   2.341   3.125  15.609  0.7273 -0.4940  1.0650
  214MPD1    H5 3259   2.357   3.207  15.667 -4.9040  1.0290  0.4785
  214MPD1    N1 3260   2.164   2.679  15.586 -0.1539  0.2456 -0.5044
  214MPD1    H6 3261   2.095   2.608  15.607  0.4908 -0.2801 -0.1625
  214MPD1    H7 3262   2.164   2.691  15.485  0.9683  1.5238 -0.3550
  215MPD1     C 3263   2.330   4.145  10.432 -0.2149  0.4496 -0.0107
  215MPD1    C1 3264   2.357   4.283  10.426 -0.1847 -0.0137  0.3714
  215MPD1    C2 3265   2.435   4.346  10.521  0.1309  0.1532  0.2751
  215MPD1    C3 3266   2.470   4.277  10.637  0.0436 -0.6722 -0.3311
  215MPD1    C4 3267   2.437   4.139  10.644  0.0474 -0.8399  0.1020
  215MPD1    C5 3268   2.360   4.076  10.548  0.3203  0.1917 -0.1172
  215MPD1     H 3269   2.460   4.451  10.509 -1.7013  0.3723 -1.5611
  215MPD1    H1 3270   2.452   4.073  10.728 -0.8558  1.1264  1.8176
  215MPD1    H2 3271   2.285   4.100  10.345  0.9787 -1.3445  0.2946
  215MPD1    H3 3272   2.333   3.971  10.554  1.0965  0.0811  1.6311
  215MPD1     N 3273   2.521   4.344  10.749 -0.3399 -1.2230  0.0699
  215MPD1    H5 3274   2.517   4.446  10.744 -0.2778 -1.2908 -1.5870
  215MPD1    N1 3275   2.329   4.348  10.306 -0.1180 -0.5449 -0.1889
  215MPD1    H6 3276   2.240   4.318  10.267 -0.2755  0.2443 -0.4363
  215MPD1    H7 3277   2.327   4.448  10.320  0.9058 -0.0377 -3.6859
  216MPD1     C 3278   4.346   0.774  16.829 -0.5408  0.7453  0.0458
  216MPD1    C1 3279   4.324   0.810  16.960  0.6249  0.2455 -0.2074
  216MPD1    C2 3280   4.384   0.724  17.052  0.0530 -0.4345 -0.5289
  216MPD1    C3 3281   4.457   0.613  17.018 -0.2597  0.0112  0.4161
  216MPD1    C4 3282   4.474   0.579  16.886  0.1796  0.2463 -0.0713
  216MPD1    C5 3283   4.422   0.668  16.793 -0.0373 -0.2168 -0.1241
  216MPD1     H 3284   4.370   0.739  17.159  0.4353 -0.5373 -0.4650
  216MPD1    H1 3285   4.542   0.501  16.853 -1.1116 -1.2096  0.7070
  216MPD1    H2 3286   4.294   0.822  16.747  1.6902 -0.6580 -2.1778
  216MPD1    H3 3287   4.447   0.639  16.691 -1.8607 -1.4619 -0.1990
  216MPD1     N 3288   4.532   0.551  17.119  0.1565  0.6147 -0.3800
  216MPD1    H5 3289   4.516   0.586  17.213  1.9552 -1.4073  0.7003
  216MPD1    N1 3290   4.234   0.910  17.000 -0.3505 -0.0780 -0.3211
  216MPD1    H6 3291   4.216   0.979  16.928  0.9531 -1.8797 -2.3936
  216MPD1    H7 3292   4.270   0.948  17.088 -1.1464  0.7333 -0.3524
  217MPD1     C 3293   1.116   4.326   9.667  0.2579  0.7211 -0.3527
  217MPD1    C1 3294   1.105   4.331   9.530 -0.5051  0.3428  0.3292
  217MPD1    C2 3295   1.029   4.235   9.468  0.2224  0.3926 -0.2306
  217MPD1    C3 3296   0.973   4.138   9.535 -0.4713 -0.1465  0.1100
  217MPD1    C4 3297   0.984   4.125   9.676  0.0202 -0.2403 -0.4392
  217MPD1    C5 3298   1.058   4.223   9.740 -0.1984 -0.3503  0.3344
  217MPD1     H 3299   1.018   4.234   9.360 -1.7009  0.9717 -0.0408
  217MPD1    H1 3300   0.952   4.041   9.736  0.3258  1.1228  1.6552
  217MPD1    H2 3301   1.164   4.403   9.726 -0.2122  1.0792 -0.4346
  217MPD1    H3 3302   1.064   4.215   9.848  0.3706  1.1122  0.4105
  217MPD1     N 3303   0.901   4.037   9.476  0.2955  0.1218 -0.0321
  217MPD1    H5 3304   0.856   3.969   9.537  1.5105 -1.3254 -0.7397
  217MPD1    N1 3305   1.136   4.451   9.459  0.0053  0.4429 -0.0553
  217MPD1    H6 3306   1.221   4.481   9.506 -0.4194  1.5923 -0.0378
  217MPD1    H7 3307   1.152   4.426   9.362 -0.4899 -1.2836  0.2926
  218MPD1     C 3308   1.414   4.277  12.524 -0.2778 -0.6403  0.3657
  218MPD1    C1 3309   1.453   4.384  12.596  0.0942  0.4388 -0.1913
  218MPD1    C2 3310   1.570   4.365  12.668 -0.3227  0.2572 -0.3902
  218MPD1    C3 3311   1.638   4.247  12.674  0.3956  0.1101  0.2431
  218MPD1    C4 3312   1.591   4.137  12.602 -0.3605  0.4478 -0.3088
  218MPD1    C5 3313   1.477   4.157  12.530 -0.0818  0.4986  0.0662
  218MPD1     H 3314   1.614   4.454  12.712 -0.7402  0.2419  0.0559
  218MPD1    H1 3315   1.639   4.040  12.596  0.3501  0.6314  2.2583
  218MPD1    H2 3316   1.332   4.295  12.454 -0.6366 -0.9210  0.7148
  218MPD1    H3 3317   1.443   4.074  12.468 -0.7555  1.6037 -1.0500
  218MPD1     N 3318   1.762   4.249  12.741 -0.9100 -0.1873 -0.7966
  218MPD1    H5 3319   1.788   4.333  12.792 -1.1040  0.3238 -1.5395
  218MPD1    N1 3320   1.387   4.506  12.578  0.1015 -0.1237  0.5448
  218MPD1    H6 3321   1.295   4.499  12.537  0.2155  0.7869  0.1234
  218MPD1    H7 3322   1.379   4.558  12.666 -1.2083 -1.8638  1.4473
  219MPD1     C 3323   2.264   4.671  13.462  0.9173  0.4300 -0.2960
  219MPD1    C1 3324   2.144   4.600  13.463 -0.0130 -0.4967  0.0253
  219MPD1    C2 3325   2.120   4.512  13.358  0.0494 -0.3080  0.5590
  219MPD1    C3 3326   2.216   4.492  13.255 -1.0873  0.2822 -0.4198
  219MPD1    C4 3327   2.331   4.563  13.260  0.2468  0.0613  0.3019
  219MPD1    C5 3328   2.356   4.657  13.360 -0.0742 -0.4607 -0.4232
  219MPD1     H 3329   2.021   4.468  13.362 -0.2898  0.4497  0.4152
  219MPD1    H1 3330   2.402   4.564  13.178  0.5251  2.1142  0.5622
  219MPD1    H2 3331   2.284   0.027  13.533  1.9966 -0.6882  0.6643
  219MPD1    H3 3332   2.441   0.001  13.358  1.2384 -2.1278 -1.7776
  219MPD1     N 3333   2.191   4.401  13.145 -0.1655  0.1779  0.0426
  219MPD1    H5 3334   2.274   4.368  13.097 -0.7715 -1.7826  0.3421
  219MPD1    N1 3335   2.040   4.638  13.562  0.0956 -0.5516 -0.1386
  219MPD1    H6 3336   1.994   4.552  13.590 -1.6679  0.8397  1.2481
  219MPD1    H7 3337   2.078   4.671  13.651 -0.7227  0.8938 -0.3214
  220MPD1     C 3338   2.059   0.409   9.525 -0.3390  0.7546 -0.0524
  220MPD1    C1 3339   1.984   0.315   9.587  0.5528 -0.0756 -1.0093
  220MPD1    C2 3340   2.001   0.309   9.726 -0.5659  0.1219  0.1835
  220MPD1    C3 3341   2.109   0.376   9.786  0.3765  0.1332  0.8154
  220MPD1    C4 3342   2.192   0.457   9.712 -0.7703 -0.2556 -0.1877
  220MPD1    C5 3343   2.169   0.467   9.579 -0.3254  0.0838  0.4212
  220MPD1     H 3344   1.934   0.250   9.788 -1.0537  0.0100 -0.4493
  220MPD1    H1 3345   2.272   0.516   9.755 -1.4510 -0.7972  1.7892
  220MPD1    H2 3346   2.042   0.428   9.420 -1.2057  2.0143  0.3044
  220MPD1    H3 3347   2.238   0.524   9.518 -0.2599 -0.0585  0.3597
  220MPD1     N 3348   2.118   0.370   9.930 -0.2973  0.6841 -0.5092
  220MPD1    H5 3349   2.050   0.307   9.971 -0.3271  1.2227  0.2706
  220MPD1    N1 3350   1.870   0.261   9.529  0.8634 -0.4671 -0.6432
  220MPD1    H6 3351   1.842   0.180   9.584  0.4659  0.3346  0.3366
  220MPD1    H7 3352   1.892   0.217   9.439  0.9603  0.7371 -1.2076
  221MPD1     C 3353   0.972   3.510  16.149  0.5687  0.1436 -0.4660
  221MPD1    C1 3354   1.064   3.405  16.141 -0.5066  0.6547  1.0995
  221MPD1    C2 3355   1.026   3.282  16.198 -0.0679  0.9408 -0.0633
  221MPD1    C3 3356   0.889   3.258  16.225  0.9130 -0.4512  0.2907
  221MPD1    C4 3357   0.803   3.361  16.213  0.1401 -1.0576 -0.3502
  221MPD1    C5 3358   0.844   3.488  16.191  0.0089 -0.1111  0.1350
  221MPD1     H 3359   1.103   3.207  16.203 -1.3789 -0.3801  0.3192
  221MPD1    H1 3360   0.701   3.352  16.247  0.9460 -2.7803  1.6055
  221MPD1    H2 3361   0.984   3.615  16.125  1.9770 -0.5077 -2.6486
  221MPD1    H3 3362   0.772   3.569  16.189 -1.6670 -1.6201 -1.4444
  221MPD1     N 3363   0.835   3.130  16.248  0.3073 -0.4973 -0.0784
  221MPD1    H5 3364   0.735   3.135  16.267  0.3519  0.9585 -0.1699
  221MPD1    N1 3365   1.196   3.421  16.096 -0.5991 -0.0123 -0.7670
  221MPD1    H6 3366   1.219   3.501  16.037  0.9734  0.3276  0.2938
  221MPD1    H7 3367   1.231   3.333  16.057 -0.4655 -0.5478  0.5550
  222MPD1     C 3368   0.528   1.481  17.601  0.1386 -0.4842 -0.0655
  222MPD1    C1 3369   0.572   1.600  17.548 -0.1200  0.0027 -0.0891
  222MPD1    C2 3370   0.477   1.696  17.514  0.0760  0.6453 -0.6005
  222MPD1    C3 3371   0.340   1.666  17.527 -0.0069  0.2891 -0.7253
  222MPD1    C4 3372   0.305   1.546  17.587 -0.3962 -0.5083 -0.1521
  222MPD1    C5 3373   0.396   1.452  17.622  0.1090  0.0937  0.1188
  222MPD1     H 3374   0.508   1.790  17.470 -1.4939  0.8044 -1.3915
  222MPD1    H1 3375   0.202   1.520  17.610 -0.4532  0.4167  0.6277
  222MPD1    H2 3376   0.606   1.423  17.650 -1.0823 -1.3270  0.8580
  222MPD1    H3 3377   0.371   1.363  17.678  2.8572  0.0001  1.2095
  222MPD1     N 3378   0.230   1.741  17.489 -0.0892  0.4905  0.0427
  222MPD1    H5 3379   0.141   1.692  17.497  0.3922 -0.5087 -0.7509
  222MPD1    N1 3380   0.708   1.633  17.564  0.9558  0.5801  0.1448
  222MPD1    H6 3381   0.733   1.671  17.473  0.1871 -0.1413 -0.3715
  222MPD1    H7 3382   0.767   1.550  17.565  0.8479  0.5087  0.8241
  223MPD1     C 3383   4.468   1.231  16.988  0.0982  0.1211 -0.3680
  223MPD1    C1 3384   4.558   1.218  17.091 -0.6084  0.0814 -0.4252
  223MPD1    C2 3385   4.602   1.330  17.164 -0.0836 -0.6309  0.1609
  223MPD1    C3 3386   4.567   1.458  17.124 -0.6074 -0.5472 -0.1872
  223MPD1    C4 3387   4.487   1.474  17.007 -0.9705 -0.3215  0.5006
  223MPD1    C5 3388   4.441   1.361  16.948  0.2803 -0.5673 -0.1655
  223MPD1     H 3389   4.652   1.315  17.259 -0.5107 -1.3353  0.2801
  223MPD1    H1 3390   4.457   1.566  16.957  0.0491 -0.4176 -0.2826
  223MPD1    H2 3391   4.418   1.151  16.937  0.8421 -0.1574 -0.6679
  223MPD1    H3 3392   4.364   1.358  16.872 -0.4412  0.1357  0.5419
  223MPD1     N 3393   4.608   1.571  17.201  0.5006  0.7296 -0.2351
  223MPD1    H5 3394   4.653   1.552  17.290  2.2673  0.4817 -1.1944
  223MPD1    N1 3395   4.584   1.090  17.137  0.1713  0.6554 -0.2548
  223MPD1    H6 3396   4.673   1.099  17.186 -0.3162  3.1356  0.1694
  223MPD1    H7 3397   4.593   1.025  17.059  1.4393  0.4730  0.0373
  224MPD1     C 3398   1.881   4.457   9.485 -0.5081 -0.1996 -0.2735
  224MPD1    C1 3399   1.793   4.535   9.558  0.5083  0.3697 -0.6812
  224MPD1    C2 3400   1.709   4.473   9.652 -0.3965  0.3169  0.1032
  224MPD1    C3 3401   1.699   4.337   9.655  0.5610  0.1024 -0.2905
  224MPD1    C4 3402   1.784   4.259   9.573 -0.4619  0.4028  0.3422
  224MPD1    C5 3403   1.875   4.325   9.496  0.6605  0.6124 -0.3947
  224MPD1     H 3404   1.647   4.528   9.723 -0.2391 -1.6795  1.7995
  224MPD1    H1 3405   1.781   4.150   9.574  1.0996  0.3606  0.8019
  224MPD1    H2 3406   1.955   4.509   9.425 -1.4489  1.0940 -0.3182
  224MPD1    H3 3407   1.955   4.269   9.447  0.1194  1.6400 -2.4697
  224MPD1     N 3408   1.599   4.271   9.730 -0.3898 -0.3067 -0.2332
  224MPD1    H5 3409   1.596   4.171   9.717 -0.4694 -0.3850  0.3958
  224MPD1    N1 3410   1.824   4.671   9.567 -0.1211  0.1137  0.1491
  224MPD1    H6 3411   1.742   0.002   9.593 -1.2663 -1.6840  0.3709
  224MPD1    H7 3412   1.861   4.708   9.479 -0.8034  2.0210  0.6745
  225MPD1     C 3413   2.402   0.592  13.248  0.7755  0.4093  0.4156
  225MPD1    C1 3414   2.317   0.702  13.209  0.4992  0.0612  0.9349
  225MPD1    C2 3415   2.292   0.714  13.069  0.7316  0.2928 -0.2766
  225MPD1    C3 3416   2.348   0.624  12.979 -0.2586  0.0917 -0.2141
  225MPD1    C4 3417   2.439   0.529  13.026 -0.1306  0.1011  0.2743
  225MPD1    C5 3418   2.464   0.511  13.162 -0.3055  0.4327 -0.5157
  225MPD1     H 3419   2.221   0.792  13.042 -0.2292  0.0197  1.4303
  225MPD1    H1 3420   2.487   0.459  12.959 -1.1696 -0.6516  0.3046
  225MPD1    H2 3421   2.413   0.570  13.354  0.4925  0.6582  0.4992
  225MPD1    H3 3422   2.530   0.434  13.201  0.5805  2.1251  1.3090
  225MPD1     N 3423   2.314   0.613  12.841  0.3441  0.2532  0.9248
  225MPD1    H5 3424   2.364   0.542  12.789  0.8706  0.5366  1.0394
  225MPD1    N1 3425   2.238   0.763  13.302 -0.8495 -0.2047  0.3166
  225MPD1    H6 3426   2.212   0.861  13.291  0.4639  0.1058 -0.0344
  225MPD1    H7 3427   2.269   0.761  13.399  1.2183  0.4679 -0.3322
  226MPD1     C 3428   0.792   0.712   9.533 -0.3673  0.2783 -0.9439
  226MPD1    C1 3429   0.895   0.619   9.530 -0.1253 -0.5243 -0.1678
  226MPD1    C2 3430   0.860   0.479   9.534  0.5298 -0.5510  0.5002
  226MPD1    C3 3431   0.739   0.430   9.568 -0.2794 -0.4033  0.1155
  226MPD1    C4 3432   0.644   0.527   9.581  0.1067  0.4272  0.0063
  226MPD1    C5 3433   0.668   0.662   9.561 -0.0356 -0.2157  0.7118
  226MPD1     H 3434   0.932   0.405   9.500  0.8393 -0.1656  0.3149
  226MPD1    H1 3435   0.545   0.499   9.616  0.9472 -1.8441  0.5699
  226MPD1    H2 3436   0.803   0.816   9.506 -0.5019  0.3403 -0.7612
  226MPD1    H3 3437   0.586   0.731   9.544  0.0744 -0.4713 -0.9411
  226MPD1     N 3438   0.712   0.288   9.579  0.0160 -0.6709  0.0344
  226MPD1    H5 3439   0.789   0.226   9.598 -0.5412 -1.1474  0.7475
  226MPD1    N1 3440   1.019   0.651   9.471 -0.0344  0.1991 -0.0710
  226MPD1    H6 3441   1.096   0.585   9.475  1.4674  1.8954 -1.0071
  226MPD1    H7 3442   1.052   0.745   9.493  0.5207 -0.3229  1.3705
  227MPD1     C 3443   4.545   4.368   9.694  0.1797  0.0081 -0.3336
  227MPD1    C1 3444   4.640   4.276   9.654 -0.7577 -0.2396 -0.1957
  227MPD1    C2 3445   0.041   4.337   9.638  0.3445 -0.0290  0.0582
  227MPD1    C3 3446   0.072   4.472   9.666 -0.4043  0.5100 -0.0188
  227MPD1    C4 3447   4.692   4.553   9.695  0.3654  0.4924 -0.1868
  227MPD1    C5 3448   4.566   4.505   9.719 -0.2359 -0.2149 -0.1669
  227MPD1     H 3449   0.124   4.275   9.605 -1.6781 -1.8533 -1.5723
  227MPD1    H1 3450   4.699   4.659   9.716  1.7434 -0.3513  3.7800
  227MPD1    H2 3451   4.441   4.337   9.693 -0.0011  0.6913 -1.6669
  227MPD1    H3 3452   4.488   4.581   9.722 -0.3690 -0.3617  0.1095
  227MPD1     N 3453   0.208   4.523   9.661  0.0110 -0.6316  0.2447
  227MPD1    H5 3454   0.281   4.453   9.662 -0.4303 -1.1286 -1.2235
  227MPD1    N1 3455   4.614   4.150   9.591  0.0576 -0.3010 -0.3946
  227MPD1    H6 3456   4.530   4.113   9.634  0.9913 -1.8701  0.1095
  227MPD1    H7 3457   4.691   4.084   9.602  0.3109 -0.2479 -1.9345
  228MPD1     C 3458   3.697   3.256  12.768  0.0702  0.4831 -0.1839
  228MPD1    C1 3459   3.672   3.215  12.639  0.1691 -0.5763 -0.7086
  228MPD1    C2 3460   3.604   3.098  12.613  0.2067  1.0754 -0.1412
  228MPD1    C3 3461   3.575   3.011  12.717 -0.3618  0.2854 -0.1935
  228MPD1    C4 3462   3.585   3.059  12.845  0.0083 -0.0090  0.0322
  228MPD1    C5 3463   3.651   3.181  12.867 -0.1419 -0.0593  0.1990
  228MPD1     H 3464   3.593   3.070  12.509 -0.6586  1.6969 -0.2193
  228MPD1    H1 3465   3.542   3.006  12.929  0.4596 -0.6258 -0.1252
  228MPD1    H2 3466   3.739   3.352  12.795  1.0109 -0.7417  2.6821
  228MPD1    H3 3467   3.661   3.208  12.971  1.3758  1.4708 -0.3515
  228MPD1     N 3468   3.519   2.884  12.678  0.4463 -0.2890  0.2579
  228MPD1    H5 3469   3.518   2.867  12.578  1.0249  4.1367 -0.5205
  228MPD1    N1 3470   3.686   3.309  12.535 -0.0844  0.3745  0.1546
  228MPD1    H6 3471   3.670   3.256  12.449  2.7187  0.8987 -0.6703
  228MPD1    H7 3472   3.785   3.331  12.525 -0.3137  1.4392  0.2320
  229MPD1     C 3473   3.012   1.529  14.237  0.7660  0.1406 -0.3259
  229MPD1    C1 3474   3.067   1.417  14.181 -0.1414  0.4192  0.0076
  229MPD1    C2 3475   3.172   1.361  14.243 -0.5868 -0.2907 -0.6635
  229MPD1    C3 3476   3.204   1.396  14.375  0.2907 -0.2652  0.6459
  229MPD1    C4 3477   3.144   1.509  14.424 -0.0112  0.9489  0.6867
  229MPD1    C5 3478   3.050   1.579  14.356 -0.2463  0.1128 -0.5951
  229MPD1     H 3479   3.235   1.285  14.196  2.1045  2.2134 -1.1214
  229MPD1    H1 3480   3.157   1.550  14.523  0.8778 -0.8114  1.2979
  229MPD1    H2 3481   2.937   1.590  14.187  1.1797  0.7267 -0.2272
  229MPD1    H3 3482   2.984   1.649  14.407  0.2580  0.7494 -0.8107
  229MPD1     N 3483   3.303   1.342  14.454  0.2779  0.3376  0.1422
  229MPD1    H5 3484   3.315   1.383  14.546 -1.6584  0.2638  0.4322
  229MPD1    N1 3485   3.021   1.381  14.047 -0.4598  0.2073 -0.0731
  229MPD1    H6 3486   2.923   1.403  14.029 -0.7713 -0.7256  0.4614
  229MPD1    H7 3487   3.040   1.282  14.033  1.1609  0.6933 -1.2425
  230MPD1     C 3488   3.755   1.274  15.330 -0.5715  0.1106 -0.0068
  230MPD1    C1 3489   3.804   1.161  15.262 -0.1959  0.1188 -0.5563
  230MPD1    C2 3490   3.736   1.117  15.152  0.1839 -1.0014  0.2145
  230MPD1    C3 3491   3.642   1.200  15.092 -0.2150  0.8220 -0.0955
  230MPD1    C4 3492   3.605   1.317  15.154  0.7513  0.3588 -0.2814
  230MPD1    C5 3493   3.659   1.347  15.276 -0.1303 -0.4642  0.7442
  230MPD1     H 3494   3.768   1.027  15.100  0.8014 -0.6797  0.0277
  230MPD1    H1 3495   3.536   1.381  15.100 -0.7513  1.3619  2.8086
  230MPD1    H2 3496   3.783   1.305  15.430 -0.9719 -2.6030  0.9683
  230MPD1    H3 3497   3.631   1.434  15.335 -0.3515  0.6727 -1.0439
  230MPD1     N 3498   3.612   1.156  14.960 -0.8966 -0.6108  0.4427
  230MPD1    H5 3499   3.647   1.065  14.933  1.2880  0.1283  0.8081
  230MPD1    N1 3500   3.911   1.093  15.324  0.0998  0.0515 -0.6902
  230MPD1    H6 3501   3.966   1.161  15.376  1.3212 -0.3466 -1.4767
  230MPD1    H7 3502   3.982   1.057  15.261 -0.9902 -4.1950  0.4977
  231MPD1     C 3503   1.380   2.964  16.027  0.5954  0.1193  0.0490
  231MPD1    C1 3504   1.371   3.064  15.942  0.0080  0.1226  0.6347
  231MPD1    C2 3505   1.473   3.096  15.850  0.0978 -0.2955 -0.3210
  231MPD1    C3 3506   1.568   3.003  15.830 -0.2244 -1.1007 -0.8484
  231MPD1    C4 3507   1.565   2.886  15.902 -0.1186 -0.1126  0.6574
  231MPD1    C5 3508   1.483   2.874  16.010  0.2770 -0.4403  0.2101
  231MPD1     H 3509   1.477   3.195  15.807 -0.4195 -0.1373 -0.0088
  231MPD1    H1 3510   1.635   2.804  15.889 -0.2203 -0.3211  1.4062
  231MPD1    H2 3511   1.317   2.957  16.115  2.4767  0.5839  1.4431
  231MPD1    H3 3512   1.495   2.798  16.086  0.2298  0.6007  1.2724
  231MPD1     N 3513   1.681   3.030  15.742  0.7723  0.2588 -0.7209
  231MPD1    H5 3514   1.680   3.123  15.701  0.2344  0.7313  0.3806
  231MPD1    N1 3515   1.272   3.162  15.960 -0.5588  0.2304 -0.2270
  231MPD1    H6 3516   1.247   3.217  15.878  1.3539  1.4796  0.0339
  231MPD1    H7 3517   1.191   3.111  15.996  0.1902 -2.0825 -1.7527
  232MPD1     C 3518   3.452   0.842   0.400  0.3139 -0.3997 -0.4088
  232MPD1    C1 3519   3.426   0.976   0.370  0.2545  0.0271 -0.9757
  232MPD1    C2 3520   3.296   1.025   0.388  0.1614 -1.0142  0.4978
  232MPD1    C3 3521   3.197   0.942   0.437  0.2212 -0.2111 -0.0944
  232MPD1    C4 3522   3.233   0.814   0.480  0.4274  0.0243  0.2207
  232MPD1    C5 3523   3.360   0.764   0.461 -0.2924 -0.1654 -0.3185
  232MPD1     H 3524   3.272   1.129   0.370  1.6031 -0.6597  0.5846
  232MPD1    H1 3525   3.157   0.747   0.517  2.6152 -2.9854 -0.8111
  232MPD1    H2 3526   3.548   0.797   0.381  0.6710  0.3326 -0.3582
  232MPD1    H3 3527   3.388   0.663   0.491 -0.0749  0.2438  0.8565
  232MPD1     N 3528   3.062   0.992   0.451  0.3845  0.3009 -0.2946
  232MPD1    H5 3529   3.038   1.079   0.405 -1.6746 -1.1036 -1.8586
  232MPD1    N1 3530   3.511   1.046   0.284 -0.3079 -0.3713 -0.0925
  232MPD1    H6 3531   3.496   1.146   0.291 -1.2546 -0.4755 -0.7423
  232MPD1    H7 3532   3.608   1.033   0.312 -0.3381 -0.6513 -0.1222
  233MPD1     C 3533   4.319   4.445   1.357  0.7289 -0.7332  0.4880
  233MPD1    C1 3534   4.288   4.466   1.487 -0.4814 -0.5011  0.0149
  233MPD1    C2 3535   4.297   4.360   1.571 -0.0823 -0.6126  0.2842
  233MPD1    C3 3536   4.364   4.240   1.533 -0.4923 -0.1730 -0.1878
  233MPD1    C4 3537   4.388   4.220   1.403  0.7839 -0.1821  0.4478
  233MPD1    C5 3538   4.373   4.321   1.314  0.4064 -0.3670 -0.1299
  233MPD1     H 3539   4.256   4.379   1.670 -2.3566  1.1325 -0.9747
  233MPD1    H1 3540   4.438   4.129   1.371 -0.8725 -0.9257 -0.0523
  233MPD1    H2 3541   4.307   4.523   1.283  0.1241 -0.7693  0.5474
  233MPD1    H3 3542   4.398   4.316   1.208 -0.7613 -1.7734 -0.3530
  233MPD1     N 3543   4.393   4.140   1.621 -0.8961  0.3144  0.4415
  233MPD1    H5 3544   4.451   4.070   1.576 -1.2858  0.3889 -0.1703
  233MPD1    N1 3545   4.222   4.579   1.532  0.0570 -0.0886 -0.1971
  233MPD1    H6 3546   4.238   4.594   1.631  2.9494  0.1342 -0.7105
  233MPD1    H7 3547   4.259   4.663   1.488  2.2448 -0.8927  0.1259
  234MPD1     C 3548   1.475   2.471   9.823 -0.5091  0.7193 -0.2436
  234MPD1    C1 3549   1.565   2.572   9.848 -0.0619  0.0949 -0.5354
  234MPD1    C2 3550   1.550   2.696   9.784 -0.3479  0.1634 -0.1007
  234MPD1    C3 3551   1.466   2.708   9.679 -0.3150 -0.4211  0.6761
  234MPD1    C4 3552   1.386   2.599   9.640 -0.2565 -0.7487 -0.1282
  234MPD1    C5 3553   1.390   2.484   9.711 -0.0693  0.1320  0.3207
  234MPD1     H 3554   1.613   2.781   9.806  0.2400 -1.2031  3.5254
  234MPD1    H1 3555   1.318   2.595   9.556  1.8437  0.9189 -1.8965
  234MPD1    H2 3556   1.471   2.378   9.878 -0.2521  0.1777 -1.1509
  234MPD1    H3 3557   1.323   2.400   9.695  0.5301 -0.0921 -1.0368
  234MPD1     N 3558   1.473   2.833   9.610  0.1427 -0.4431  0.4905
  234MPD1    H5 3559   1.533   2.902   9.653  0.9019 -0.9976  0.3298
  234MPD1    N1 3560   1.647   2.558   9.960 -1.4922  0.2127  0.3791
  234MPD1    H6 3561   1.675   2.461   9.974 -1.5782 -0.1988 -2.4488
  234MPD1    H7 3562   1.731   2.612   9.943 -0.9036 -1.0742 -0.7717
  235MPD1     C 3563   3.910   0.821  10.945  0.0853 -0.9346  0.0442
  235MPD1    C1 3564   3.798   0.896  10.994  0.0789  0.1737  0.2241
  235MPD1    C2 3565   3.708   0.946  10.900  0.7881  0.2844 -0.2247
  235MPD1    C3 3566   3.735   0.955  10.767 -0.1853  0.9078 -0.6928
  235MPD1    C4 3567   3.855   0.893  10.724  0.2039 -0.0109 -0.0907
  235MPD1    C5 3568   3.937   0.817  10.813 -0.0865  0.1868  0.1449
  235MPD1     H 3569   3.624   0.998  10.945 -0.8346 -2.0919 -0.5446
  235MPD1    H1 3570   3.888   0.885  10.621  0.4111 -4.4150  0.3218
  235MPD1    H2 3571   3.981   0.790  11.021  1.8567  0.0570 -1.2118
  235MPD1    H3 3572   4.035   0.778  10.787  0.4573  1.0331  0.9050
  235MPD1     N 3573   3.647   1.025  10.687  0.3665 -0.1927  0.1635
  235MPD1    H5 3574   3.568   1.072  10.730 -0.3667  1.3383 -2.8615
  235MPD1    N1 3575   3.754   0.885  11.128 -0.4247  0.2803  0.2452
  235MPD1    H6 3576   3.831   0.883  11.194 -1.6962 -1.5738  1.7147
  235MPD1    H7 3577   3.690   0.957  11.161  1.4519  0.7630  2.8382
  236MPD1     C 3578   2.749   2.364  10.088 -0.2594  0.5397  0.6040
  236MPD1    C1 3579   2.616   2.347  10.095 -0.9188 -0.5962 -0.5637
  236MPD1    C2 3580   2.570   2.225  10.147 -0.3108  0.0767  0.3241
  236MPD1    C3 3581   2.656   2.135  10.208 -0.0999 -0.0128 -1.1847
  236MPD1    C4 3582   2.787   2.165  10.207 -0.1244  0.5057  0.0030
  236MPD1    C5 3583   2.835   2.278  10.145 -0.1229 -0.2100  0.6345
  236MPD1     H 3584   2.464   2.202  10.152  0.1015 -1.7431  0.9867
  236MPD1    H1 3585   2.856   2.099  10.257 -2.3618 -0.4681  1.8009
  236MPD1    H2 3586   2.789   2.455  10.045 -0.8431  0.1606 -0.7604
  236MPD1    H3 3587   2.941   2.300  10.135 -0.2863  1.6889  3.0527
  236MPD1     N 3588   2.608   2.014  10.272 -0.3316  0.0245  0.0846
  236MPD1    H5 3589   2.679   1.957  10.316  0.9595  0.7724 -1.0135
  236MPD1    N1 3590   2.535   2.433  10.019 -0.4141  0.6579  0.3030
  236MPD1    H6 3591   2.555   2.531  10.003  0.2451  0.6465  1.0649
  236MPD1    H7 3592   2.435   2.429  10.040 -0.1589 -0.9858  1.1657
  237MPD1     C 3593   2.167   4.635  15.915 -0.0874 -0.2914  0.5846
  237MPD1    C1 3594   2.169   4.608  15.779 -0.8413 -0.7147 -0.0910
  237MPD1    C2 3595   2.116   4.493  15.736 -0.2789  0.1599 -0.1246
  237MPD1    C3 3596   2.062   4.398  15.821  0.2492 -0.3613 -0.0428
  237MPD1    C4 3597   2.059   4.423  15.953 -0.0524  0.1107 -0.1526
  237MPD1    C5 3598   2.112   4.542  15.998 -0.5013  0.2454 -0.3295
  237MPD1     H 3599   2.125   4.464  15.631  2.1372  1.7598 -0.3416
  237MPD1    H1 3600   2.027   4.342  16.017  0.8677 -0.5787 -0.5644
  237MPD1    H2 3601   2.206   0.008  15.947  0.0601 -0.0881 -0.2062
  237MPD1    H3 3602   2.120   4.568  16.103  1.3958 -2.4736  0.1934
  237MPD1     N 3603   2.007   4.275  15.786 -0.1496 -0.6168  0.1899
  237MPD1    H5 3604   1.940   4.241  15.854 -3.5120  3.2836 -1.1749
  237MPD1    N1 3605   2.176   4.713  15.685  0.5010 -0.9019  0.2749
  237MPD1    H6 3606   2.234   0.067  15.716  2.2488 -1.4247 -1.6626
  237MPD1    H7 3607   2.205   4.693  15.590  2.2357 -1.8063  1.0068
  238MPD1     C 3608   4.029   3.278  15.237  0.5813 -0.2358 -0.4562
  238MPD1    C1 3609   3.949   3.178  15.273  0.7567 -0.2322  0.0714
  238MPD1    C2 3610   3.813   3.199  15.275 -0.2297 -0.1266  0.1671
  238MPD1    C3 3611   3.762   3.313  15.216 -0.6032  0.7083  0.0047
  238MPD1    C4 3612   3.852   3.403  15.161  0.3027 -0.1982 -0.0386
  238MPD1    C5 3613   3.984   3.392  15.170  0.3607 -0.4665  0.5898
  238MPD1     H 3614   3.754   3.110  15.293  0.4608 -0.6066  0.0452
  238MPD1    H1 3615   3.809   3.479  15.097  1.4632 -0.3846 -1.0510
  238MPD1    H2 3616   4.136   3.266  15.246  0.4007  0.0666  2.2080
  238MPD1    H3 3617   4.046   3.454  15.108 -1.7529  0.9224 -0.1516
  238MPD1     N 3618   3.622   3.325  15.188  0.1631  0.2017 -0.9309
  238MPD1    H5 3619   3.592   3.412  15.144 -1.1374  0.4249  0.4213
  238MPD1    N1 3620   4.004   3.075  15.353 -0.4652 -0.5265 -0.0899
  238MPD1    H6 3621   3.943   2.995  15.368 -0.6379 -0.2481  0.7032
  238MPD1    H7 3622   4.094   3.045  15.314 -0.6502 -2.0727  0.6440
  239MPD1     C 3623   4.085   3.300  14.656 -0.0527 -0.1900  0.1508
  239MPD1    C1 3624   4.071   3.421  14.716 -0.2090  0.6680 -0.0913
  239MPD1    C2 3625   4.031   3.531  14.643 -0.2866 -0.0694  0.3565
  239MPD1    C3 3626   4.011   3.523  14.507  0.3176 -0.3582 -0.3518
  239MPD1    C4 3627   4.027   3.395  14.448  0.0172  0.0594  0.0161
  239MPD1    C5 3628   4.061   3.287  14.519 -0.2597  0.3308 -0.5220
  239MPD1     H 3629   4.014   3.627  14.692 -1.0675 -1.3734  2.6214
  239MPD1    H1 3630   4.001   3.392  14.343  0.5238 -1.5381 -0.0557
  239MPD1    H2 3631   4.119   3.223  14.724  1.6639  1.1642  0.8159
  239MPD1    H3 3632   4.092   3.197  14.468  0.7852  0.7347 -0.5906
  239MPD1     N 3633   3.959   3.622  14.428 -0.4969 -0.0329 -0.2818
  239MPD1    H5 3634   3.940   3.604  14.330 -1.1914  0.1021 -0.1729
  239MPD1    N1 3635   4.080   3.435  14.855  0.2260 -0.2404 -0.5606
  239MPD1    H6 3636   4.133   3.519  14.876 -2.3693  0.0317  4.8691
  239MPD1    H7 3637   4.118   3.352  14.899  2.6056  0.5869 -1.0687
  240MPD1     C 3638   3.396   4.052  13.997  0.2937  0.0254  0.0534
  240MPD1    C1 3639   3.390   4.122  14.114 -0.4109  0.2085 -0.1202
  240MPD1    C2 3640   3.313   4.064  14.213 -1.0241  0.0412 -0.0131
  240MPD1    C3 3641   3.266   3.933  14.205  0.5223  0.0205  0.8632
  240MPD1    C4 3642   3.313   3.855  14.100  0.3567  0.2371  0.3712
  240MPD1    C5 3643   3.379   3.915  13.996  0.0830 -0.1476 -0.0835
  240MPD1     H 3644   3.268   4.125  14.291 -0.9337  0.8896 -0.6255
  240MPD1    H1 3645   3.277   3.753  14.086 -0.0518  0.4871 -0.4004
  240MPD1    H2 3646   3.436   4.080  13.901 -1.1161 -1.3041 -0.9323
  240MPD1    H3 3647   3.392   3.860  13.904  0.8229 -1.5132  0.8440
  240MPD1     N 3648   3.195   3.876  14.312 -0.8503  0.2328 -0.1317
  240MPD1    H5 3649   3.174   3.934  14.392  1.6824 -0.6650  1.2153
  240MPD1    N1 3650   3.425   4.258  14.121 -0.0671 -0.6920  0.3853
  240MPD1    H6 3651   3.434   4.293  14.216  2.1189  0.2081 -0.1442
  240MPD1    H7 3652   3.512   4.279  14.072 -0.5897  1.7165  0.4709
  241MPD1     C 3653   3.403   4.140  15.069 -0.5850 -0.1337  0.0515
  241MPD1    C1 3654   3.335   4.033  15.119  0.5614  0.1935  0.1375
  241MPD1    C2 3655   3.286   3.936  15.036  0.5217 -0.5262 -0.2689
  241MPD1    C3 3656   3.303   3.952  14.893 -0.2051 -0.0927 -0.2134
  241MPD1    C4 3657   3.368   4.062  14.842 -0.1788 -0.8571  0.3334
  241MPD1    C5 3658   3.414   4.159  14.929 -0.9509  0.1295 -0.5186
  241MPD1     H 3659   3.231   3.848  15.069 -1.2659  0.7555  0.1717
  241MPD1    H1 3660   3.378   4.080  14.735 -1.3234  0.5919  0.4737
  241MPD1    H2 3661   3.444   4.225  15.122 -0.2895 -0.2565  0.0174
  241MPD1    H3 3662   3.463   4.243  14.881  0.4585  0.8963  2.2953
  241MPD1     N 3663   3.253   3.862  14.789 -0.3486 -1.0054  0.3518
  241MPD1    H5 3664   3.287   3.881  14.695  1.3746  1.8349  1.5572
  241MPD1    N1 3665   3.344   4.015  15.262 -0.0223  0.2242  0.9946
  241MPD1    H6 3666   3.265   3.961  15.298  0.4389 -0.4483  1.0002
  241MPD1    H7 3667   3.360   4.095  15.324 -0.2687 -1.2228  2.9132
  242MPD1     C 3668   2.732   2.393  15.867 -0.1015 -0.7652 -0.0981
  242MPD1    C1 3669   2.668   2.272  15.839 -0.0024 -0.7090  0.3512
  242MPD1    C2 3670   2.707   2.199  15.726 -0.5736 -0.6004 -0.4172
  242MPD1    C3 3671   2.819   2.242  15.650 -0.1070 -0.5414 -0.1394
  242MPD1    C4 3672   2.891   2.357  15.695  0.2608 -0.3749  0.6365
  242MPD1    C5 3673   2.846   2.433  15.797 -0.3562 -0.1050 -1.0554
  242MPD1     H 3674   2.652   2.110  15.700 -3.1504  1.4896 -2.1076
  242MPD1    H1 3675   2.970   2.396  15.631  0.3390  0.7516  1.4217
  242MPD1    H2 3676   2.698   2.467  15.939 -1.2273  1.0943 -2.5347
  242MPD1    H3 3677   2.893   2.528  15.820 -1.1989  0.1549 -0.4157
  242MPD1     N 3678   2.872   2.173  15.533  0.0330 -0.3853 -0.1678
  242MPD1    H5 3679   2.967   2.188  15.501  0.9489 -0.4927  2.4854
  242MPD1    N1 3680   2.557   2.240  15.921 -0.6943  0.5546  0.1618
  242MPD1    H6 3681   2.492   2.317  15.933 -2.4892 -0.7568 -0.9961
  242MPD1    H7 3682   2.495   2.173  15.874 -0.8785  0.6611  0.2543
  243MPD1     C 3683   3.651   0.537   0.497 -0.2220  0.0622 -0.3018
  243MPD1    C1 3684   3.777   0.508   0.539  0.2014 -0.5451  0.0809
  243MPD1    C2 3685   3.862   0.426   0.467  1.1280  0.1189 -0.6882
  243MPD1    C3 3686   3.819   0.379   0.344  1.1424 -0.2072  0.5272
  243MPD1    C4 3687   3.697   0.413   0.295 -0.0926  0.4591 -0.3968
  243MPD1    C5 3688   3.616   0.487   0.372 -0.2434 -0.2070  0.3915
  243MPD1     H 3689   3.969   0.416   0.484  0.8906 -1.1946 -0.0121
  243MPD1    H1 3690   3.663   0.371   0.201  1.1816 -0.6748 -0.3528
  243MPD1    H2 3691   3.580   0.592   0.558 -1.6284  1.3104 -3.0397
  243MPD1    H3 3692   3.512   0.500   0.344 -0.1873 -1.0790 -0.2128
  243MPD1     N 3693   3.911   0.292   0.276  0.0279  0.4544 -0.1294
  243MPD1    H5 3694   3.998   0.286   0.329  1.1273 -1.5124 -2.1441
  243MPD1    N1 3695   3.824   0.587   0.643  0.4580  0.0332 -0.5575
  243MPD1    H6 3696   3.759   0.626   0.712 -1.3097 -0.3883 -1.9904
  243MPD1    H7 3697   3.912   0.557   0.683  1.3581  2.2599 -0.8690
  244MPD1     C 3698   4.317   4.343   0.665 -0.0629  1.1474  0.0172
  244MPD1    C1 3699   4.190   4.386   0.656  0.9423 -0.3479 -0.7614
  244MPD1    C2 3700   4.160   4.478   0.551  0.1627  0.0848 -0.3827
  244MPD1    C3 3701   4.255   4.548   0.483  0.0354 -0.3567  0.3389
  244MPD1    C4 3702   4.386   4.512   0.509 -0.2002  0.0175  0.0516
  244MPD1    C5 3703   4.413   4.412   0.594 -0.6694 -0.0573  0.5236
  244MPD1     H 3704   4.055   4.507   0.545  0.5952  1.7904  0.1642
  244MPD1    H1 3705   4.476   4.567   0.484 -0.1637  1.1820  2.7537
  244MPD1    H2 3706   4.351   4.274   0.741 -2.6131  0.6735  0.7128
  244MPD1    H3 3707   4.515   4.392   0.628 -0.1324 -0.3209 -1.2296
  244MPD1     N 3708   4.211   4.656   0.401  0.0031 -0.2022 -0.1390
  244MPD1    H5 3709   4.112   4.680   0.401 -0.2918 -1.3975  1.4972
  244MPD1    N1 3710   4.089   4.314   0.714  0.2845 -0.0285 -0.0505
  244MPD1    H6 3711   4.103   4.273   0.806 -1.6134 -0.5929 -0.0207
  244MPD1    H7 3712   4.004   4.368   0.732  0.8012  1.1780 -1.1786
  245MPD1     C 3713   2.094   1.467  12.800  1.0481  0.0277 -0.5489
  245MPD1    C1 3714   2.051   1.455  12.928 -0.2557  0.2381  0.0947
  245MPD1    C2 3715   2.116   1.523  13.019  0.0190  0.5036  0.0938
  245MPD1    C3 3716   2.217   1.621  12.993 -0.4490  0.6409 -0.1021
  245MPD1    C4 3717   2.255   1.630  12.859  0.6415  0.0103  0.1044
  245MPD1    C5 3718   2.197   1.552  12.764 -0.1491  0.2289 -0.6669
  245MPD1     H 3719   2.081   1.508  13.120  0.8393 -2.0371 -0.0122
  245MPD1    H1 3720   2.340   1.689  12.827  0.7084 -0.5150 -0.6760
  245MPD1    H2 3721   2.033   1.412  12.729 -0.8639  2.6813 -0.9788
  245MPD1    H3 3722   2.236   1.549  12.663 -0.0978 -0.8035 -0.6119
  245MPD1     N 3723   2.272   1.695  13.099  0.4367 -0.6059 -0.5671
  245MPD1    H5 3724   2.238   1.683  13.194 -0.3021 -0.6925 -0.8521
  245MPD1    N1 3725   1.957   1.365  12.982  0.6529  0.4240 -0.0704
  245MPD1    H6 3726   1.939   1.377  13.082 -0.0206  1.8623 -0.3692
  245MPD1    H7 3727   1.869   1.359  12.931  0.8924 -0.6916 -0.3438
  246MPD1     C 3728   2.517   1.318   7.937 -0.2691  0.4036 -0.3708
  246MPD1    C1 3729   2.532   1.193   7.997 -0.3323  0.9381 -0.5510
  246MPD1    C2 3730   2.468   1.168   8.121  0.3847  0.0985 -0.2346
  246MPD1    C3 3731   2.392   1.272   8.183  0.7452  0.7660 -0.3111
  246MPD1    C4 3732   2.374   1.391   8.118  0.5928 -0.0906 -0.2351
  246MPD1    C5 3733   2.445   1.414   7.998  0.4796  0.3954 -0.1063
  246MPD1     H 3734   2.483   1.072   8.169 -0.7131 -0.4671 -1.0118
  246MPD1    H1 3735   2.339   1.479   8.170  0.1747  0.3909 -1.3377
  246MPD1    H2 3736   2.564   1.351   7.845 -0.0823 -1.5042 -0.9553
  246MPD1    H3 3737   2.433   1.505   7.941 -0.8006 -0.2396 -0.8426
  246MPD1     N 3738   2.339   1.248   8.316 -0.1679  0.5585  0.0417
  246MPD1    H5 3739   2.378   1.164   8.358 -2.2916 -0.3879  0.1581
  246MPD1    N1 3740   2.630   1.109   7.944  0.0685  0.0877  0.0752
  246MPD1    H6 3741   2.613   1.011   7.965  0.6442 -0.0075  0.0906
  246MPD1    H7 3742   2.651   1.124   7.845 -0.1495  0.6452  0.1147
  247MPD1     C 3743   0.953   0.693  16.149 -0.0702  0.9047 -0.5323
  247MPD1    C1 3744   0.972   0.566  16.198  0.0137  0.0066 -0.3379
  247MPD1    C2 3745   1.085   0.492  16.156 -0.0927 -0.1202  0.6814
  247MPD1    C3 3746   1.148   0.531  16.047  0.2972  0.0723 -0.3688
  247MPD1    C4 3747   1.114   0.649  15.983 -0.4979  0.3124  0.9040
  247MPD1    C5 3748   1.018   0.729  16.035 -0.1988 -0.4663 -0.0151
  247MPD1     H 3749   1.108   0.396  16.201  1.0061 -0.0592  0.2505
  247MPD1    H1 3750   1.160   0.661  15.885  0.6484  2.8154  1.7436
  247MPD1    H2 3751   0.874   0.756  16.188 -0.7265 -0.2587  0.0404
  247MPD1    H3 3752   1.006   0.822  15.980 -1.6566  0.1942  1.4223
  247MPD1     N 3753   1.255   0.472  15.986  0.8637  0.1996 -0.2874
  247MPD1    H5 3754   1.299   0.515  15.905  0.1648  0.7407 -0.3729
  247MPD1    N1 3755   0.899   0.523  16.309  0.9451 -0.2504 -0.1634
  247MPD1    H6 3756   0.899   0.421  16.308 -2.8355 -0.2879  1.5819
  247MPD1    H7 3757   0.801   0.550  16.318  1.2688  0.8589 -0.0096
  248MPD1     C 3758   2.359   3.904   0.310  0.3194  0.1474  0.8387
  248MPD1    C1 3759   2.332   3.860   0.437  0.0386  0.0933  0.2695
  248MPD1    C2 3760   2.295   3.956   0.528  0.3209  0.0144 -0.3035
  248MPD1    C3 3761   2.269   4.089   0.500  0.0713 -0.4923 -0.5339
  248MPD1    C4 3762   2.278   4.119   0.368  0.5839 -0.0401 -0.3438
  248MPD1    C5 3763   2.330   4.035   0.279  0.3925 -0.1374  0.7585
  248MPD1     H 3764   2.280   3.939   0.634 -2.8937 -0.5616 -0.8639
  248MPD1    H1 3765   2.249   4.214   0.324 -2.2857 -1.4628 -1.4959
  248MPD1    H2 3766   2.388   3.830   0.235  0.2407  0.8568  0.1088
  248MPD1    H3 3767   2.341   4.071   0.177 -0.9940  2.4246  1.5033
  248MPD1     N 3768   2.219   4.190   0.593 -0.0202 -0.1534  0.1236
  248MPD1    H5 3769   2.192   4.164   0.687  0.6713 -2.3860 -0.2852
  248MPD1    N1 3770   2.367   3.731   0.485 -0.2215  0.3748  0.5204
  248MPD1    H6 3771   2.362   3.664   0.409 -0.8398  0.1307  0.7757
  248MPD1    H7 3772   2.301   3.710   0.560 -0.9305 -0.8588 -0.4508
  249MPD1     C 3773   3.079   3.814   9.421  0.1723  1.4970 -0.5373
  249MPD1    C1 3774   3.161   3.767   9.524 -0.2397  0.4970 -0.5162
  249MPD1    C2 3775   3.191   3.858   9.621  0.5811 -0.6875  0.6516
  249MPD1    C3 3776   3.138   3.987   9.638  0.9138  0.4305  0.6622
  249MPD1    C4 3777   3.041   4.027   9.553 -0.4172 -0.1922 -0.7562
  249MPD1    C5 3778   3.016   3.938   9.445  0.0692 -0.0414 -0.0983
  249MPD1     H 3779   3.273   3.838   9.688 -0.4490  1.5450  2.5651
  249MPD1    H1 3780   2.984   4.117   9.572  0.7387  0.7337 -1.7273
  249MPD1    H2 3781   3.036   3.754   9.342 -0.9042  1.4284  0.1035
  249MPD1    H3 3782   2.929   3.963   9.385  1.7932  0.1062 -2.5524
  249MPD1     N 3783   3.190   4.069   9.744 -0.3847 -0.1255  0.3939
  249MPD1    H5 3784   3.263   4.025   9.799  0.4888  0.0800 -0.5959
  249MPD1    N1 3785   3.213   3.635   9.524  0.5638  0.3105 -0.1169
  249MPD1    H6 3786   3.260   3.612   9.437  0.3869 -0.0360 -0.1230
  249MPD1    H7 3787   3.293   3.630   9.587  0.5169 -0.0059 -0.0801
  250MPD2     C 3788   0.575   4.158  13.427 -0.2466 -0.5258  0.6162
  250MPD2    C1 3789   0.462   4.227  13.393 -0.4017 -0.1330  0.0620
  250MPD2    C2 3790   0.331   4.170  13.387  0.0405 -0.4903  0.3314
  250MPD2    C3 3791   0.320   4.034  13.424  0.3106 -0.0940  0.5856
  250MPD2    C4 3792   0.438   3.967  13.453 -0.1164 -0.1405 -0.9205
  250MPD2    C5 3793   0.563   4.028  13.455 -0.7422 -0.1352  0.0238
  250MPD2     H 3794   0.242   4.228  13.367 -0.8757 -0.3838  4.6450
  250MPD2    H1 3795   0.431   3.860  13.471 -0.7011 -0.1272 -1.0427
  250MPD2    H2 3796   0.676   4.197  13.423  0.4214 -2.3908 -0.6832
  250MPD2    H3 3797   0.657   3.978  13.474 -1.3913 -0.5587  2.1349
  250MPD2     N 3798   0.198   3.968  13.433  0.3087  0.8213  0.3248
  250MPD2    H5 3799   0.202   3.868  13.451  1.0707  0.9051  0.6331
  250MPD2    N1 3800   0.480   4.366  13.363 -0.8133  0.2445 -0.5658
  250MPD2    H7 3801   0.575   4.402  13.362  0.4474 -3.0185  3.6255
  251TMC3    C1 3802   0.439   4.575  13.257 -0.5326 -0.6137 -0.1991
  251TMC3    C2 3803   0.351   4.676  13.236  0.4732 -0.5441  0.0056
  251TMC3    C3 3804   0.381   0.041  13.136  0.8508 -0.4791 -0.0439
  251TMC3    C4 3805   0.554   4.568  13.190  0.5644 -0.9897 -0.5029
  251TMC3    C5 3806   0.588   4.671  13.102 -0.2740  0.1481 -0.4753
  251TMC3    C6 3807   0.499   0.041  13.070 -0.4457 -0.0922  0.0078
  251TMC3     C 3808   0.385   4.451  13.319  1.1035 -0.2487 -1.1668
  251TMC3     O 3809   0.268   4.454  13.347  0.6867  0.2545 -0.2494
  251TMC3     H 3810   0.253   4.675  13.280 -0.3749 -0.7329 -1.8788
  251TMC3    H1 3811   0.627   4.502  13.235  1.7519  0.6325 -0.0432
  251TMC3    H2 3812   0.537   0.117  13.003  1.1557 -0.5199  0.4185
  251TMC3    C7 3813   0.731   4.688  13.083  0.9098 -0.5534 -0.0068
  251TMC3    C8 3814   0.297   0.153  13.121 -0.5372 -0.0263  0.2900
  251TMC3    O1 3815   0.799   4.588  13.099 -0.0839 -0.1824 -0.6315
  251TMC3    O2 3816   0.220   0.165  13.214  0.2804  0.1549  0.1696
  252TMC3    C1 3817   4.708   0.185   9.911  0.1224  0.3609 -0.2103
  252TMC3    C2 3818   0.121   0.202   9.921  0.6345 -0.0882  0.3344
  252TMC3    C3 3819   0.193   0.112   9.996  0.1902 -0.0676  0.3256
  252TMC3    C4 3820   4.649   0.074   9.970 -0.5429  0.3226 -0.4883
  252TMC3    C5 3821   0.003   4.702  10.031  0.1334 -0.1533  0.2972
  252TMC3    C6 3822   0.140   4.718  10.047  0.1412  0.6644 -0.9422
  252TMC3     C 3823   4.626   0.271   9.832  0.3331 -0.7262 -0.2295
  252TMC3     O 3824   4.533   0.222   9.771  0.3023  0.7509  0.5834
  252TMC3     H 3825   0.168   0.290   9.878  1.0379 -1.5417 -2.2025
  252TMC3    H1 3826   4.542   0.062   9.956 -1.0270  1.5973  2.0967
  252TMC3    H2 3827   0.205   4.642  10.089 -0.7296 -0.2395 -1.2255
  252TMC3    C7 3828   4.671   4.569  10.046 -0.0999  0.2856 -0.4022
  252TMC3    C8 3829   0.338   0.111   9.984  0.1648 -0.1800  1.0221
  252TMC3    O1 3830   4.549   4.573  10.040 -0.4185 -0.1185 -0.7127
  252TMC3    O2 3831   0.398   0.006   9.994  0.1714 -0.1494 -0.3745
  253MPD2     C 3832   1.314   4.084  15.381 -0.1386  0.0811 -0.1566
  253MPD2    C1 3833   1.179   4.069  15.398 -0.8972 -0.9630  0.1327
  253MPD2    C2 3834   1.124   4.111  15.520 -0.0993  0.0091 -0.3702
  253MPD2    C3 3835   1.201   4.167  15.617 -0.3396  0.5527  0.0576
  253MPD2    C4 3836   1.340   4.162  15.602  0.1301  0.3374  0.1792
  253MPD2    C5 3837   1.398   4.131  15.483  0.0199 -0.0938  0.1006
  253MPD2     H 3838   1.016   4.105  15.524  0.1583 -2.7924  2.2121
  253MPD2    H1 3839   1.404   4.204  15.679 -2.1324  3.2762  0.4380
  253MPD2    H2 3840   1.363   4.054  15.289  0.4585 -2.4626  0.9866
  253MPD2    H3 3841   1.504   4.152  15.481  0.9377 -4.6662  0.6371
  253MPD2     N 3842   1.155   4.212  15.742  0.0880  1.2401 -0.2497
  253MPD2    H5 3843   1.215   4.248  15.815  0.7024  0.5713 -0.4338
  253MPD2    N1 3844   1.086   4.029  15.295  0.2406  0.3896 -1.0862
  253MPD2    H7 3845   0.994   4.010  15.333  0.8143  0.8354  0.5387
  254TMC3    C1 3846   1.006   4.269  15.906 -0.7072 -0.7527  0.3681
  254TMC3    C2 3847   0.894   4.344  15.936 -0.1057 -0.7074  0.2663
  254TMC3    C3 3848   0.866   4.368  16.068 -0.2540  0.2211 -0.3157
  254TMC3    C4 3849   1.098   4.233  16.003 -0.1198 -0.2861 -0.3492
  254TMC3    C5 3850   1.074   4.283  16.128 -0.3869  1.5680 -1.0958
  254TMC3    C6 3851   0.963   4.346  16.163 -0.4218  0.7421 -0.2077
  254TMC3     C 3852   1.020   4.231  15.768 -0.2170  0.3669  0.0529
  254TMC3     O 3853   0.923   4.212  15.696 -0.7821  0.2025  0.2246
  254TMC3     H 3854   0.825   4.377  15.859  0.6756  0.6157  0.1191
  254TMC3    H1 3855   1.176   4.159  15.988 -0.1358 -0.8502  2.2207
  254TMC3    H2 3856   0.946   4.378  16.265  0.4919 -2.9430  1.1117
  254TMC3    C7 3857   1.142   4.214  16.237  0.6318 -0.1535 -0.0662
  254TMC3    C8 3858   0.766   4.462  16.119 -0.1302  0.0657 -0.5412
  254TMC3    O1 3859   1.072   4.164  16.322 -0.1873 -0.3295 -0.5586
  254TMC3    O2 3860   0.741   4.454  16.239  0.4261  0.2803  0.0033
  255MPD2     C 3861   4.099   2.166  10.236 -0.6256 -0.4847  0.4752
  255MPD2    C1 3862   4.160   2.284  10.269  1.0318  0.3119  0.0961
  255MPD2    C2 3863   4.243   2.346  10.175 -0.4936  0.0275 -1.1630
  255MPD2    C3 3864   4.269   2.293  10.051  0.8369  0.3579  0.0644
  255MPD2    C4 3865   4.205   2.176  10.015 -0.1830 -0.5292  0.2447
  255MPD2    C5 3866   4.122   2.115  10.109 -0.0487  0.1235  0.1877
  255MPD2     H 3867   4.289   2.442  10.194  0.7836 -0.7638 -0.2785
  255MPD2    H1 3868   4.214   2.144   9.912 -4.3571 -0.0502 -0.2716
  255MPD2    H2 3869   4.032   2.107  10.297  2.5497 -0.1855  4.2035
  255MPD2    H3 3870   4.062   2.032  10.074 -2.4486  0.9572  2.2557
  255MPD2     N 3871   4.355   2.372   9.970 -0.0890 -0.4570  0.5845
  255MPD2    H5 3872   4.415   2.439  10.016 -1.2510  0.6480  0.4845
  255MPD2    N1 3873   4.130   2.358  10.391 -0.7724 -0.4185  0.3924
  255MPD2    H7 3874   4.064   2.309  10.450  0.3992 -1.3580  0.9494
  256TMC3    C1 3875   4.087   2.558  10.525 -0.1149  0.0136  0.2872
  256TMC3    C2 3876   4.110   2.696  10.500 -0.4193 -1.0455 -0.1001
  256TMC3    C3 3877   4.007   2.780  10.538  0.1642 -0.0967  0.4985
  256TMC3    C4 3878   3.963   2.511  10.557  0.2469 -0.3707  0.6161
  256TMC3    C5 3879   3.862   2.605  10.583 -0.4368 -0.4239 -0.0838
  256TMC3    C6 3880   3.882   2.739  10.582  0.3088  0.6128  0.0909
  256TMC3     C 3881   4.174   2.477  10.443  0.4165  0.2503 -0.4713
  256TMC3     O 3882   4.276   2.537  10.422 -0.4508 -0.4517 -0.4671
  256TMC3     H 3883   4.205   2.731  10.462 -0.3950 -1.8153 -0.7498
  256TMC3    H1 3884   3.936   2.408  10.540  0.7401 -0.4555  0.3633
  256TMC3    H2 3885   3.800   2.803  10.612 -1.0886  0.4418 -3.4061
  256TMC3    C7 3886   3.724   2.555  10.572 -0.0922 -0.5889 -0.4829
  256TMC3    C8 3887   3.994   2.893  10.445  0.1290 -0.0865  0.0780
  256TMC3    O1 3888   3.629   2.618  10.524 -0.1522  1.0225 -0.1089
  256TMC3    O2 3889   3.884   2.945  10.439 -0.3148 -0.0487  0.1368
  257MPD2     C 3890   3.491   4.377  13.494  0.5436  0.6352 -0.5179
  257MPD2    C1 3891   3.528   4.314  13.377  0.4292 -0.0404  0.3650
  257MPD2    C2 3892   3.583   4.193  13.377 -1.0753  0.4065  0.5375
  257MPD2    C3 3893   3.591   4.123  13.498  0.2784  1.2207  0.3123
  257MPD2    C4 3894   3.550   4.185  13.615 -0.3886 -0.3194  0.1800
  257MPD2    C5 3895   3.500   4.309  13.612 -0.3557  0.2535 -0.4518
  257MPD2     H 3896   3.611   4.148  13.283 -0.3800  0.9445  0.4909
  257MPD2    H1 3897   3.539   4.129  13.708 -0.9107 -0.2710  0.1458
  257MPD2    H2 3898   3.445   4.474  13.501  0.7144  0.8281 -2.0123
  257MPD2    H3 3899   3.466   4.356  13.703 -2.6548  0.5148 -1.4408
  257MPD2     N 3900   3.655   3.995  13.488  0.1553 -0.1822 -0.1316
  257MPD2    H5 3901   3.680   3.968  13.394 -0.7968 -0.1154 -0.4009
  257MPD2    N1 3902   3.499   4.380  13.256  0.0016  0.2624  0.2491
  257MPD2    H7 3903   3.470   4.477  13.267 -4.0708 -0.7486 -1.4419
  258TMC3    C1 3904   3.759   3.788  13.556  0.3747  0.5541  0.9086
  258TMC3    C2 3905   3.827   3.782  13.433 -0.5552 -0.6127  0.1453
  258TMC3    C3 3906   3.931   3.693  13.430  0.1517 -0.2387  0.4490
  258TMC3    C4 3907   3.774   3.700  13.661 -1.1973  0.6649  0.1460
  258TMC3    C5 3908   3.878   3.614  13.647 -0.2343 -0.2439 -0.2558
  258TMC3    C6 3909   3.964   3.610  13.537  0.3774 -0.0535 -0.4409
  258TMC3     C 3910   3.678   3.907  13.593 -0.8124  0.2021  0.3088
  258TMC3     O 3911   3.639   3.902  13.707 -0.3187  0.5211  0.1191
  258TMC3     H 3912   3.797   3.844  13.350  2.2677  0.2686 -0.2020
  258TMC3    H1 3913   3.703   3.702  13.743 -2.8616  0.4387 -1.2953
  258TMC3    H2 3914   4.036   3.528  13.538  0.3137 -0.0882  3.1484
  258TMC3    C7 3915   3.887   3.525  13.757  0.2582  0.1531 -0.0022
  258TMC3    C8 3916   4.010   3.674  13.312  1.0117  0.1874  0.0462
  258TMC3    O1 3917   3.789   3.479  13.803 -0.2635  0.6128 -0.4312
  258TMC3    O2 3918   4.087   3.580  13.312  0.0662  0.1203 -0.1140
  259MPD2     C 3919   2.007   0.485   1.551 -0.6499 -0.3293 -0.1099
  259MPD2    C1 3920   2.143   0.488   1.538 -1.0206 -0.0439 -0.6034
  259MPD2    C2 3921   2.194   0.546   1.422  0.0724 -0.6714 -0.3776
  259MPD2    C3 3922   2.109   0.599   1.322  0.1578  0.3781  0.0652
  259MPD2    C4 3923   1.975   0.600   1.345 -0.3317 -0.3462 -0.1347
  259MPD2    C5 3924   1.929   0.545   1.455  0.2274  0.4714 -0.2567
  259MPD2     H 3925   2.300   0.541   1.400  0.3339 -0.6258  0.8897
  259MPD2    H1 3926   1.908   0.656   1.280 -2.3388 -0.3241  1.9597
  259MPD2    H2 3927   1.959   0.438   1.635  0.3304  0.1721  0.7274
  259MPD2    H3 3928   1.822   0.551   1.468  0.2934  0.5453  0.2343
  259MPD2     N 3929   2.170   0.627   1.195  0.3473 -0.0641 -0.2547
  259MPD2    H5 3930   2.269   0.615   1.177  0.3467 -1.5563  0.7341
  259MPD2    N1 3931   2.218   0.417   1.630 -0.3365  0.4519  0.3126
  259MPD2    H7 3932   2.168   0.355   1.693 -2.6459  2.1192  0.0916
  260TMC3    C1 3933   2.187   0.675   0.964  0.1997 -0.3079 -0.4143
  260TMC3    C2 3934   2.143   0.756   0.866 -0.8684 -0.6274  0.2858
  260TMC3    C3 3935   2.215   0.761   0.752  0.7878  0.6649  0.3364
  260TMC3    C4 3936   2.290   0.586   0.951  0.2624  0.2860 -0.0202
  260TMC3    C5 3937   2.349   0.598   0.830 -0.3241 -0.3464 -0.3775
  260TMC3    C6 3938   2.316   0.682   0.728  0.3636 -0.1083  0.3017
  260TMC3     C 3939   2.103   0.676   1.087 -0.8422  0.4981 -0.9018
  260TMC3     O 3940   1.986   0.707   1.074  0.0305  0.1417 -0.1847
  260TMC3     H 3941   2.057   0.818   0.888 -1.4429 -1.4149  0.2464
  260TMC3    H1 3942   2.321   0.521   1.032  1.2606  1.3453  0.4485
  260TMC3    H2 3943   2.368   0.673   0.633 -1.4488 -1.9524 -0.5337
  260TMC3    C7 3944   2.474   0.524   0.817 -0.3890  1.0924 -0.6910
  260TMC3    C8 3945   2.184   0.871   0.658 -0.0721 -0.1256 -0.1015
  260TMC3    O1 3946   2.547   0.563   0.728 -0.3966  0.4986 -0.1844
  260TMC3    O2 3947   2.077   0.929   0.664 -0.1193 -0.1613 -0.5210
  261MPD2     C 3948   4.344   4.265  13.181 -0.6047 -0.6537  0.3635
  261MPD2    C1 3949   4.422   4.153  13.148 -0.7715 -0.1866  0.5554
  261MPD2    C2 3950   4.488   4.161  13.023 -0.9808  0.8253  1.4732
  261MPD2    C3 3951   4.482   4.280  12.947  0.1923  0.0730  0.7105
  261MPD2    C4 3952   4.399   4.385  12.988 -0.2150  0.3551 -0.3179
  261MPD2    C5 3953   4.336   4.377  13.109 -0.3495 -0.0557 -0.4220
  261MPD2     H 3954   4.555   4.079  13.000 -3.8453 -1.1435  0.1025
  261MPD2    H1 3955   4.392   4.482  12.939 -2.8238  1.1267  1.6318
  261MPD2    H2 3956   4.294   4.272  13.277 -2.2132 -0.9306 -0.4437
  261MPD2    H3 3957   4.279   4.464  13.138 -2.2480 -1.0231 -1.2456
  261MPD2     N 3958   4.562   4.283  12.827 -0.2408 -0.0944  0.3146
  261MPD2    H5 3959   4.627   4.206  12.817 -0.8297 -0.7993  1.8971
  261MPD2    N1 3960   4.438   4.035  13.226 -0.0691  0.1778 -0.8020
  261MPD2    H7 3961   4.501   3.966  13.186 -0.1300 -0.4756  0.2142
  262TMC3    C1 3962   4.668   4.355  12.639 -0.2082  0.1258 -0.3720
  262TMC3    C2 3963   4.692   4.463  12.561  0.3867  0.3376  0.2146
  262TMC3    C3 3964   4.689   4.449  12.430 -0.3578 -1.0114 -0.2559
  262TMC3    C4 3965   4.671   4.223  12.585 -0.3090  0.2230 -0.0239
  262TMC3    C5 3966   4.680   4.218  12.447  0.0525 -0.3906  0.0292
  262TMC3    C6 3967   4.694   4.328  12.370 -0.8624  0.5087 -0.1338
  262TMC3     C 3968   4.560   4.382  12.733 -0.2375 -0.8925 -0.0625
  262TMC3     O 3969   4.497   4.484  12.715  0.2320  0.1365 -0.0079
  262TMC3     H 3970   4.699   4.562  12.606  0.1000 -0.2539  1.5531
  262TMC3    H1 3971   4.620   4.140  12.633 -0.3977  0.6282  0.5820
  262TMC3    H2 3972   4.693   4.329  12.262 -0.8412 -0.9724 -0.1556
  262TMC3    C7 3973   4.641   4.090  12.377  0.0927  0.3268  0.5941
  262TMC3    C8 3974   4.587   4.532  12.365  0.1385  0.4017  0.2423
  262TMC3    O1 3975   4.629   3.994  12.448  0.5301  0.4996 -0.5008
  262TMC3    O2 3976   4.570   4.522  12.244  0.7518 -0.6181  0.1815
  263MPD2     C 3977   1.000   3.664  11.585 -0.3322 -0.2976  0.2853
  263MPD2    C1 3978   1.089   3.762  11.568 -0.1660 -0.5899  0.0711
  263MPD2    C2 3979   1.086   3.840  11.451 -0.6805  0.1067 -0.7010
  263MPD2    C3 3980   0.994   3.806  11.353  0.0558 -0.7307 -0.2684
  263MPD2    C4 3981   0.903   3.708  11.374  0.6080  1.0197 -0.0449
  263MPD2    C5 3982   0.906   3.640  11.489  0.6865  0.1958  0.2507
  263MPD2     H 3983   1.134   3.937  11.441 -2.4061  0.9802 -0.3762
  263MPD2    H1 3984   0.819   3.689  11.308  0.9501  1.0558 -0.4899
  263MPD2    H2 3985   1.006   3.602  11.674 -0.8323 -0.6249  0.0934
  263MPD2    H3 3986   0.828   3.570  11.519 -0.3899  1.0352 -0.5557
  263MPD2     N 3987   0.977   3.886  11.239  0.8678 -0.7563  0.3032
  263MPD2    H5 3988   1.020   3.978  11.238  1.7479 -1.1717 -0.2279
  263MPD2    N1 3989   1.189   3.786  11.666  0.3413 -0.1878  0.4962
  263MPD2    H7 3990   1.184   3.718  11.741 -0.3315  1.9137  2.3232
  264TMC3    C1 3991   0.922   3.961  11.029 -0.2815  0.2536  0.4697
  264TMC3    C2 3992   0.895   4.080  11.085  0.5399  0.0227 -0.0823
  264TMC3    C3 3993   0.957   4.191  11.031  0.9383 -0.3111  0.4209
  264TMC3    C4 3994   1.002   3.944  10.921  0.6616 -0.2411 -0.9505
  264TMC3    C5 3995   1.061   4.057  10.866 -1.0289 -0.3262  0.2313
  264TMC3    C6 3996   1.038   4.179  10.923 -0.3285  0.8403  0.7903
  264TMC3     C 3997   0.923   3.848  11.121  0.7945 -0.3224  0.0868
  264TMC3     O 3998   0.912   3.735  11.084 -0.1710 -0.2515  0.2767
  264TMC3     H 3999   0.836   4.076  11.176  0.9054 -1.0407  0.1003
  264TMC3    H1 4000   1.032   3.846  10.886  0.4261 -0.1804 -1.3217
  264TMC3    H2 4001   1.094   4.266  10.889  3.5939 -1.2895  1.8291
  264TMC3    C7 4002   1.151   4.055  10.747 -0.4158  0.1434 -0.5966
  264TMC3    C8 4003   0.918   4.324  11.070  0.1117 -0.3261  0.4551
  264TMC3    O1 4004   1.234   4.151  10.734  0.5391 -0.0889  0.2227
  264TMC3    O2 4005   0.947   4.421  10.996  0.1043 -1.1609  0.3615
  265MPD2     C 4006   2.789   4.205  15.504  0.7786  0.0480 -0.5514
  265MPD2    C1 4007   2.816   4.322  15.439 -0.1072  0.2476 -0.1469
  265MPD2    C2 4008   2.866   4.315  15.313  0.9019 -0.5638 -0.0438
  265MPD2    C3 4009   2.899   4.188  15.257  0.1466  0.4317 -0.4556
  265MPD2    C4 4010   2.882   4.080  15.340 -0.1936 -0.8674 -0.1618
  265MPD2    C5 4011   2.829   4.087  15.463 -0.4405 -1.0697  0.3215
  265MPD2     H 4012   2.870   4.410  15.260  2.0631 -0.4859  0.1830
  265MPD2    H1 4013   2.912   3.979  15.312 -0.6210 -1.6612  2.2945
  265MPD2    H2 4014   2.740   4.202  15.601 -1.2685 -2.0844 -1.6542
  265MPD2    H3 4015   2.821   4.009  15.538 -1.1027 -1.5511 -0.2460
  265MPD2     N 4016   2.937   4.162  15.119  0.4539 -0.0461 -0.4455
  265MPD2    H5 4017   2.959   4.066  15.094  2.0091  0.3185 -0.4795
  265MPD2    N1 4018   2.767   4.440  15.497 -0.2663  0.7733  0.0464
  265MPD2    H7 4019   2.796   4.528  15.456  2.2416  0.4261  1.0697
  266TMC3    C1 4020   2.670   4.591  15.657 -0.1308  0.0349  0.6793
  266TMC3    C2 4021   2.620   4.582  15.782 -0.1045  0.4549 -0.0614
  266TMC3    C3 4022   2.563   4.696  15.826  0.1338 -0.1223 -0.3745
  266TMC3    C4 4023   2.659   4.691  15.571  0.5510  0.3552 -1.0312
  266TMC3    C5 4024   2.607   0.080  15.632 -0.1374  0.6970  0.4405
  266TMC3    C6 4025   2.544   0.081  15.753  0.1202 -0.1065 -0.8812
  266TMC3     C 4026   2.689   4.456  15.607 -0.5817 -0.0123  0.4297
  266TMC3     O 4027   2.622   4.373  15.663  0.1393 -0.0104 -0.3611
  266TMC3     H 4028   2.631   4.495  15.845 -3.7157 -1.0583 -1.4992
  266TMC3    H1 4029   2.687   4.694  15.466 -1.0734 -1.6399 -1.5147
  266TMC3    H2 4030   2.486   0.166  15.788 -0.9003 -1.4863  0.7619
  266TMC3    C7 4031   2.590   0.197  15.544 -0.3822  1.1985 -0.0358
  266TMC3    C8 4032   2.504   4.702  15.963 -0.1171 -0.6134 -0.1805
  266TMC3    O1 4033   2.570   0.171  15.425  0.6609 -0.6296  0.5930
  266TMC3    O2 4034   2.465   4.600  16.020 -0.0027 -0.2181  0.1204
  267MPD2     C 4035   0.671   0.155  17.627 -0.1632 -0.3724 -0.6805
  267MPD2    C1 4036   0.630   0.279  17.594  0.0882 -0.5484 -0.2843
  267MPD2    C2 4037   0.524   0.300  17.511 -0.0968 -0.4481 -0.1346
  267MPD2    C3 4038   0.438   0.198  17.491  0.5958  0.0732  0.3466
  267MPD2    C4 4039   0.475   0.070  17.527 -0.9082 -0.3655 -0.2095
  267MPD2    C5 4040   0.596   0.049  17.581  0.0549 -0.6983 -0.6296
  267MPD2     H 4041   0.499   0.402  17.485  1.3558  0.2743  1.2525
  267MPD2    H1 4042   0.406   4.711  17.515 -0.3443 -0.5910 -1.9719
  267MPD2    H2 4043   0.763   0.129  17.677  1.3796 -0.5415 -3.5990
  267MPD2    H3 4044   0.631   4.673  17.606 -0.0807 -0.3329  1.0616
  267MPD2     N 4045   0.312   0.210  17.436 -0.7665 -0.2034  0.3740
  267MPD2    H5 4046   0.255   0.126  17.440 -1.0075 -0.1316 -1.3664
  267MPD2    N1 4047   0.702   0.390  17.651 -0.2843  0.8019 -0.2046
  267MPD2    H7 4048   0.786   0.367   0.007 -1.7363 -0.9778  1.3656
  268TMC3    C1 4049   0.762   0.603   0.001 -0.5691 -0.3860  0.3412
  268TMC3    C2 4050   0.773   0.729  17.645 -0.1078 -0.4190  0.6666
  268TMC3    C3 4051   0.810   0.825   0.034 -0.5584  0.6095 -0.1583
  268TMC3    C4 4052   0.763   0.574   0.136 -0.3758 -0.1086  0.9381
  268TMC3    C5 4053   0.796   0.680   0.214  0.6089 -0.3721 -0.0489
  268TMC3    C6 4054   0.829   0.807   0.167  0.7551 -0.1393  0.8930
  268TMC3     C 4055   0.683   0.523  17.617 -0.5629 -0.6244  0.7854
  268TMC3     O 4056   0.609   0.581  17.538 -0.1375 -0.0163  0.6505
  268TMC3     H 4057   0.779   0.743  17.537  0.8635 -0.0563  0.7702
  268TMC3    H1 4058   0.736   0.480   0.183  2.0698 -1.5740 -0.6098
  268TMC3    H2 4059   0.855   0.890   0.232 -1.3537  2.1477 -1.2038
  268TMC3    C7 4060   0.777   0.662   0.357 -0.6190  0.0921 -0.5644
  268TMC3    C8 4061   0.856   0.945  17.667  0.9693  0.4086 -1.6129
  268TMC3    O1 4062   0.791   0.547   0.401  0.1066 -0.0110 -0.9852
  268TMC3    O2 4063   0.940   1.007   0.033  0.2302 -0.3133  0.1577
  269MPD2     C 4064   0.260   4.598  15.607  0.2059  0.3091  0.5939
  269MPD2    C1 4065   0.197   4.693  15.683  0.3598  0.4615  0.0857
  269MPD2    C2 4066   0.191   0.106  15.647  0.9353  0.3374  0.2568
  269MPD2    C3 4067   0.243   0.146  15.521  0.4865  0.5981 -0.7554
  269MPD2    C4 4068   0.304   0.045  15.448  0.5113  0.0167  0.6312
  269MPD2    C5 4069   0.319   4.639  15.496  0.2985 -0.7638  0.0978
  269MPD2     H 4070   0.128   0.177  15.700  2.2327  1.0786  0.7947
  269MPD2    H1 4071   0.359   0.065  15.357 -2.0492 -0.9653 -1.1204
  269MPD2    H2 4072   0.269   4.495  15.642 -1.5002 -0.0682 -0.0727
  269MPD2    H3 4073   0.380   4.568  15.442 -0.5900 -0.9856 -0.6178
  269MPD2     N 4074   0.230   0.286  15.480  0.0703 -0.0358  0.0825
  269MPD2    H5 4075   0.187   0.353  15.543 -1.8383 -0.2711 -0.9632
  269MPD2    N1 4076   0.149   4.635  15.800  0.4101  0.7902  0.2047
  269MPD2    H7 4077   0.169   4.538  15.820 -0.4473  0.6302  0.2720
  270TMC3    C1 4078   0.037   4.610  16.001  0.3097 -0.3980 -0.0636
  270TMC3    C2 4079   4.623   4.588  16.013 -0.9896 -0.4561 -0.1751
  270TMC3    C3 4080   4.577   4.471  16.053  0.5022  0.3467  0.1061
  270TMC3    C4 4081   0.121   4.508  16.028 -0.0938 -0.0952 -0.1894
  270TMC3    C5 4082   0.067   4.388  16.072  0.0222 -0.1155 -0.8073
  270TMC3    C6 4083   4.658   4.365  16.076  0.4553  0.6471  0.7974
  270TMC3     C 4084   0.078   4.702  15.896 -0.4185  0.4268  0.6497
  270TMC3     O 4085   0.032   0.091  15.893 -0.4254  0.2217 -0.2231
  270TMC3     H 4086   4.552   4.664  15.982 -0.6807 -0.9102 -1.9889
  270TMC3    H1 4087   0.228   4.525  16.027  0.2577 -2.2291  0.3306
  270TMC3    H2 4088   4.611   4.273  16.109  0.3588  0.2295 -0.4996
  270TMC3    C7 4089   0.160   4.273  16.076 -0.3399 -0.8046  0.2897
  270TMC3    C8 4090   4.471   4.428  15.966 -0.2533  0.0915 -0.3524
  270TMC3    O1 4091   0.264   4.283  16.013  0.5628  0.6283  0.2563
  270TMC3    O2 4092   4.360   4.480  15.972 -0.1535  0.2888  0.4281
  271MPD2     C 4093   4.207   4.244  14.096 -0.5494  0.1486 -0.0397
  271MPD2    C1 4094   4.128   4.276  14.210  0.2067 -0.4414  0.5483
  271MPD2    C2 4095   4.035   4.382  14.207  0.2974  0.5099  0.6358
  271MPD2    C3 4096   4.009   4.442  14.084  0.5579 -0.7209  0.0020
  271MPD2    C4 4097   4.087   4.405  13.973 -0.3118  0.4233 -0.0710
  271MPD2    C5 4098   4.187   4.314  13.981 -0.6539 -0.1632 -0.1011
  271MPD2     H 4099   3.963   4.394  14.286 -1.1020 -0.4822 -0.4861
  271MPD2    H1 4100   4.078   4.459  13.879 -0.5309  1.4371  0.5327
  271MPD2    H2 4101   4.286   4.170  14.101 -0.3714  0.5088  2.4064
  271MPD2    H3 4102   4.243   4.290  13.891  0.0706 -0.4761  0.4280
  271MPD2     N 4103   3.911   4.543  14.057  0.0778 -0.0373 -0.0743
  271MPD2    H5 4104   3.908   4.597  13.971 -0.8436  0.3416  0.1902
  271MPD2    N1 4105   4.133   4.199  14.329 -0.6957 -0.5016 -0.1410
  271MPD2    H7 4106   4.071   4.227  14.405  1.4329  3.9280 -0.0236
  272TMC3    C1 4107   4.195   4.026  14.487 -0.6502 -0.1307 -0.0376
  272TMC3    C2 4108   4.253   3.901  14.501 -0.0185 -0.2814  0.1197
  272TMC3    C3 4109   4.296   3.861  14.625  0.2166  0.1147  0.0351
  272TMC3    C4 4110   4.179   4.110  14.592 -0.3613 -0.8629  0.4380
  272TMC3    C5 4111   4.208   4.065  14.713 -0.4841 -0.4559 -0.5435
  272TMC3    C6 4112   4.272   3.945  14.735 -0.1135  0.0460 -0.0495
  272TMC3     C 4113   4.210   4.090  14.351  0.2857  0.3554  0.0332
  272TMC3     O 4114   4.289   4.026  14.280  0.6072  0.3772  0.6046
  272TMC3     H 4115   4.278   3.843  14.413  0.0156  0.9181 -0.6639
  272TMC3    H1 4116   4.123   4.201  14.578  0.4738 -0.1463  1.7535
  272TMC3    H2 4117   4.316   3.920  14.831 -1.0337 -3.2149 -0.4832
  272TMC3    C7 4118   4.219   4.159  14.825  0.0750 -0.0531  0.5582
  272TMC3    C8 4119   4.399   3.755  14.630  0.6959 -0.5828  0.1217
  272TMC3    O1 4120   4.290   4.125  14.920 -0.0705  0.7782  0.0487
  272TMC3    O2 4121   4.399   3.676  14.537 -0.0354 -0.1963 -0.2595
  273MPD2     C 4122   1.240   2.594  11.930 -0.3221  0.4376  0.2927
  273MPD2    C1 4123   1.366   2.645  11.911  0.9133  0.2100  0.1149
  273MPD2    C2 4124   1.401   2.678  11.777  0.0812 -0.1058 -0.5698
  273MPD2    C3 4125   1.316   2.664  11.670 -0.7667 -0.4998  0.7472
  273MPD2    C4 4126   1.191   2.604  11.692 -0.4617 -0.6109 -0.2498
  273MPD2    C5 4127   1.162   2.571  11.820 -0.4680 -0.3989 -0.0180
  273MPD2     H 4128   1.490   2.738  11.766  1.0966 -1.5222 -0.1709
  273MPD2    H1 4129   1.118   2.576  11.617 -0.1470 -3.2475  0.4264
  273MPD2    H2 4130   1.203   2.571  12.030  0.5807  2.0901  0.9951
  273MPD2    H3 4131   1.066   2.526  11.842  0.7444 -1.4387  3.1174
  273MPD2     N 4132   1.357   2.715  11.542  0.4849  0.4725 -0.0487
  273MPD2    H5 4133   1.276   2.738  11.484 -0.2201 -0.6733  0.4837
  273MPD2    N1 4134   1.443   2.675  12.027  0.7473 -0.1309  0.5876
  273MPD2    H7 4135   1.391   2.670  12.114  0.4243  2.4122  0.5480
  274TMC3    C1 4136   1.502   2.826  11.396  0.5235  0.7201  0.1870
  274TMC3    C2 4137   1.418   2.822  11.287  0.3709  0.6939 -0.0118
  274TMC3    C3 4138   1.424   2.938  11.209  0.1623  0.2868  0.2974
  274TMC3    C4 4139   1.593   2.922  11.416 -1.1791 -0.1603 -0.1729
  274TMC3    C5 4140   1.594   3.028  11.335  0.5200  0.2822 -0.1997
  274TMC3    C6 4141   1.517   3.035  11.226 -0.4437  0.1622 -0.0920
  274TMC3     C 4142   1.491   2.740  11.505  0.0003  0.1768  0.4295
  274TMC3     O 4143   1.593   2.710  11.568  0.0469  0.6921 -0.0782
  274TMC3     H 4144   1.350   2.740  11.265  1.3175 -0.2395  0.5114
  274TMC3    H1 4145   1.662   2.921  11.500  0.8011 -0.4614 -1.7968
  274TMC3    H2 4146   1.496   3.137  11.195 -1.8974  0.4152  1.7690
  274TMC3    C7 4147   1.614   3.152  11.401  0.8584 -0.1365  0.3486
  274TMC3    C8 4148   1.310   2.956  11.118  0.3724 -0.8480  0.0717
  274TMC3    O1 4149   1.598   3.151  11.524 -0.3159  0.0822 -0.3028
  274TMC3    O2 4150   1.209   2.894  11.147 -0.2005  0.4188  0.2199
  275MPD2     C 4151   1.147   0.342  14.323 -0.3039  0.1448  0.1095
  275MPD2    C1 4152   1.139   0.268  14.440  0.2468 -0.9426 -0.0066
  275MPD2    C2 4153   1.013   0.231  14.478  0.2592 -0.3060  0.3507
  275MPD2    C3 4154   0.900   0.255  14.399 -0.1442  0.6042  0.7797
  275MPD2    C4 4155   0.911   0.335  14.289 -0.4931 -0.3366  0.6080
  275MPD2    C5 4156   1.037   0.369  14.248 -0.9316  0.3682  0.6355
  275MPD2     H 4157   1.001   0.174  14.570 -1.1476 -3.7299 -1.9539
  275MPD2    H1 4158   0.831   0.374  14.227 -1.0207 -0.0362  1.4736
  275MPD2    H2 4159   1.243   0.380  14.289 -0.0173  0.1082  0.8748
  275MPD2    H3 4160   1.049   0.418  14.152 -3.0687  2.1738  1.3012
  275MPD2     N 4161   0.768   0.227  14.436  0.0682 -0.2927  0.1610
  275MPD2    H5 4162   0.693   0.262  14.377  0.0050  0.5098  0.7105
  275MPD2    N1 4163   1.253   0.242  14.523 -0.1167  0.3922  0.6449
  275MPD2    H7 4164   1.233   0.179  14.600 -0.1010 -1.5566 -0.9582
  276TMC3    C1 4165   1.467   0.279  14.627  0.1484  0.6735  0.3000
  276TMC3    C2 4166   1.440   0.170  14.709 -0.6788  0.1434 -0.0272
  276TMC3    C3 4167   1.490   0.173  14.830 -0.0720  0.1466  0.0978
  276TMC3    C4 4168   1.559   0.375  14.657  0.2501  0.7445  0.1650
  276TMC3    C5 4169   1.610   0.372  14.790 -0.4385 -0.6526 -0.8082
  276TMC3    C6 4170   1.570   0.274  14.871 -0.1830  0.2860 -1.0564
  276TMC3     C 4171   1.375   0.315  14.516 -0.4404  0.0069 -0.8787
  276TMC3     O 4172   1.397   0.421  14.453 -0.0183 -0.5443 -0.2512
  276TMC3     H 4173   1.382   0.092  14.662 -0.6437 -0.1351  0.3978
  276TMC3    H1 4174   1.579   0.452  14.584  0.5585  0.4089 -0.1092
  276TMC3    H2 4175   1.619   0.277  14.968  0.5959 -0.7377 -1.4109
  276TMC3    C7 4176   1.649   0.496  14.849 -0.6168 -0.3693 -0.3973
  276TMC3    C8 4177   1.479   0.064  14.930 -0.4509  0.0245 -0.5587
  276TMC3    O1 4178   1.645   0.502  14.974  0.5761  0.2173  0.0949
  276TMC3    O2 4179   1.576   0.056  15.001 -0.3126  0.2947  0.2210
  277MPD2     C 4180   3.121   4.266  13.695  0.1837  0.0143 -0.6108
  277MPD2    C1 4181   2.998   4.203  13.671  0.3855  0.5298  0.3892
  277MPD2    C2 4182   2.940   4.139  13.774 -1.1767 -0.4530 -0.7679
  277MPD2    C3 4183   2.996   4.142  13.903  0.5088  0.8100 -0.2476
  277MPD2    C4 4184   3.109   4.215  13.921 -0.1145  0.3078  0.1428
  277MPD2    C5 4185   3.174   4.271  13.824  0.3200 -0.4771  0.2367
  277MPD2     H 4186   2.842   4.095  13.756 -0.8612 -1.9722  1.2020
  277MPD2    H1 4187   3.149   4.210  14.022  0.1685 -0.2831  0.0011
  277MPD2    H2 4188   3.173   4.304  13.608 -1.4130  1.4073 -0.9388
  277MPD2    H3 4189   3.264   4.327  13.847  1.9944 -1.3089 -4.3451
  277MPD2     N 4190   2.935   4.078  14.009  0.2354 -0.0841 -0.3214
  277MPD2    H5 4191   2.856   4.018  13.984 -0.5484  1.5828 -1.8342
  277MPD2    N1 4192   2.949   4.206  13.536 -0.3378  0.2107  0.3924
  277MPD2    H7 4193   3.010   4.236  13.461  0.3826  0.5014  1.1095
  278TMC3    C1 4194   2.844   4.020  14.207 -0.4565 -0.9554  1.0006
  278TMC3    C2 4195   2.812   3.899  14.143  0.4521 -0.7950  0.3777
  278TMC3    C3 4196   2.685   3.874  14.111  0.3748 -0.7249 -0.4630
  278TMC3    C4 4197   2.742   4.096  14.246 -0.3739 -0.2262 -0.4282
  278TMC3    C5 4198   2.610   4.055  14.232  0.3690  0.5701 -0.4164
  278TMC3    C6 4199   2.574   3.937  14.164 -0.5849  0.4616  0.1760
  278TMC3     C 4200   2.949   4.097  14.142  0.1668 -0.6717  0.4474
  278TMC3     O 4201   2.999   4.183  14.213 -0.2273  0.0240  0.3227
  278TMC3     H 4202   2.891   3.834  14.107 -1.4550 -2.1410 -1.3392
  278TMC3    H1 4203   2.757   4.196  14.284 -1.1012 -0.0925 -0.5065
  278TMC3    H2 4204   2.475   3.899  14.143 -0.0670 -0.6699 -0.2316
  278TMC3    C7 4205   2.504   4.160  14.245  0.0398  0.5511  0.5204
  278TMC3    C8 4206   2.667   3.747  14.043  0.1991 -0.0458  0.0016
  278TMC3    O1 4207   2.547   4.271  14.284 -0.3912 -0.1529 -0.1096
  278TMC3    O2 4208   2.736   3.653  14.074  0.2691  0.9493  0.3877
  279MPD2     C 4209   1.939   3.888   0.547 -1.2491  0.0669  0.2632
  279MPD2    C1 4210   1.879   4.015   0.550  1.2268 -0.3037 -0.0778
  279MPD2    C2 4211   1.881   4.097   0.438  0.2250 -0.1207 -0.3688
  279MPD2    C3 4212   1.944   4.046   0.326 -0.2703  0.1012  0.5405
  279MPD2    C4 4213   1.995   3.919   0.318  0.1101  0.3814 -0.5592
  279MPD2    C5 4214   1.986   3.836   0.431 -0.5880 -0.2704 -0.5025
  279MPD2     H 4215   1.869   4.205   0.448  1.4764 -0.1264  1.3776
  279MPD2    H1 4216   2.028   3.875   0.225  1.0064  0.6047 -0.3414
  279MPD2    H2 4217   1.948   3.828   0.637  2.6078  2.8746  1.7207
  279MPD2    H3 4218   2.032   3.738   0.427  0.6058  0.2634  0.1781
  279MPD2     N 4219   1.954   4.121   0.208  0.1118 -0.1682  0.3171
  279MPD2    H5 4220   1.998   4.067   0.135 -1.0300  0.8298 -1.0910
  279MPD2    N1 4221   1.819   4.055   0.671 -0.2186 -0.1916 -0.6121
  279MPD2    H7 4222   1.831   3.992   0.750  2.5785 -1.0526 -1.7299
  280TMC3    C1 4223   1.650   4.196   0.592 -0.5684  0.3883  0.1544
  280TMC3    C2 4224   1.582   4.105   0.520  0.7254  0.3457  0.6822
  280TMC3    C3 4225   1.497   4.151   0.425  0.4125  0.0244  0.3629
  280TMC3    C4 4226   1.634   4.333   0.571 -1.0871  0.2992  0.2967
  280TMC3    C5 4227   1.539   4.375   0.486 -0.1505  1.3700  0.3668
  280TMC3    C6 4228   1.473   4.281   0.404 -0.6389 -0.0388  0.7686
  280TMC3     C 4229   1.738   4.165   0.693 -0.6446  0.0133  0.2466
  280TMC3     O 4230   1.705   4.207   0.802  0.4236  0.1868  0.4206
  280TMC3     H 4231   1.611   4.003   0.545 -1.5313 -0.1917  1.1245
  280TMC3    H1 4232   1.699   4.398   0.629  0.3732  0.7545 -1.8547
  280TMC3    H2 4233   1.411   4.311   0.321  0.1298 -1.1397 -0.2073
  280TMC3    C7 4234   1.536   4.511   0.450  0.3255 -0.0313 -0.1851
  280TMC3    C8 4235   1.437   4.060   0.327 -0.6685 -0.1006 -0.0275
  280TMC3    O1 4236   1.629   4.577   0.493 -0.4644 -0.6515  0.3466
  280TMC3    O2 4237   1.360   4.108   0.240 -0.5329  0.0730 -0.4622
  281TMC3    C1 4238   0.948   4.510  13.372  1.0289 -0.4336  0.2660
  281TMC3    C2 4239   1.044   4.599  13.330 -0.2807 -0.5126 -0.5050
  281TMC3    C3 4240   1.148   4.560  13.242 -0.0012  0.0978 -0.0744
  281TMC3    C4 4241   0.958   4.380  13.333 -0.7241  0.2668 -0.2217
  281TMC3    C5 4242   1.056   4.344  13.245 -0.6313  0.4356  0.1854
  281TMC3    C6 4243   1.149   4.425  13.201 -0.4664  0.0240  0.5970
  281TMC3     C 4244   0.823   4.548  13.430  0.1221 -0.4687  0.6793
  281TMC3     O 4245   0.741   4.464  13.455 -0.2874 -0.1124 -0.7865
  281TMC3     H 4246   1.054   4.699  13.371  0.1233 -0.7152 -0.1197
  281TMC3    H1 4247   0.875   4.311  13.345 -0.3452  0.0172  0.9767
  281TMC3    H2 4248   1.229   4.390  13.137 -1.6621 -1.2058 -0.2212
  281TMC3    C7 4249   1.082   4.201  13.219  0.4146 -0.2039 -0.4894
  281TMC3    C8 4250   1.262   4.640  13.226 -0.3347  0.0463 -0.4062
  281TMC3    O1 4251   1.137   4.177  13.112  0.2960  0.5035 -0.3240
  281TMC3    O2 4252   1.364   4.580  13.255  0.0440 -0.0152  0.0274
  282MPD2     C 4253   2.786   1.387  15.316 -0.3316  0.1153 -0.3287
  282MPD2    C1 4254   2.647   1.396  15.336  1.2580  0.9397 -0.3343
  282MPD2    C2 4255   2.567   1.401  15.225 -0.7746 -0.1912  1.1194
  282MPD2    C3 4256   2.623   1.401  15.099  0.4214  0.3035  0.0911
  282MPD2    C4 4257   2.758   1.405  15.085 -0.2806  0.4199  0.9207
  282MPD2    C5 4258   2.841   1.396  15.191 -0.0816 -0.3991  0.1134
  282MPD2     H 4259   2.459   1.397  15.238 -1.0573 -1.4353 -1.6716
  282MPD2    H1 4260   2.803   1.435  14.991 -0.9277  0.9667  0.7844
  282MPD2    H2 4261   2.858   1.370  15.396 -0.1751 -1.1092 -0.7301
  282MPD2    H3 4262   2.949   1.393  15.181 -0.0794 -0.8567  0.2979
  282MPD2     N 4263   2.532   1.414  14.991 -0.7541 -0.0443  0.3523
  282MPD2    H5 4264   2.434   1.428  15.014 -1.3562  0.1472 -2.3708
  282MPD2    N1 4265   2.578   1.397  15.465 -0.1151 -0.8101  0.2693
  282MPD2    H7 4266   2.482   1.429  15.459  0.0215 -0.4797 -0.1370
  283TMC3    C1 4267   2.550   1.390  15.695 -0.1786 -0.2594  0.7727
  283TMC3    C2 4268   2.474   1.504  15.682 -0.2053  0.8896 -0.3369
  283TMC3    C3 4269   2.375   1.525  15.768  0.0067 -1.0375 -0.9527
  283TMC3    C4 4270   2.515   1.295  15.781 -0.5309  0.2222  0.2941
  283TMC3    C5 4271   2.412   1.313  15.866 -0.5477  0.4399 -0.2107
  283TMC3    C6 4272   2.334   1.425  15.851  0.0054 -1.3140 -0.3062
  283TMC3     C 4273   2.638   1.363  15.585 -0.0175 -0.9710 -0.0012
  283TMC3     O 4274   2.746   1.312  15.612  0.0179  0.2824  0.0709
  283TMC3     H 4275   2.518   1.584  15.624  0.5370 -0.2957 -1.4128
  283TMC3    H1 4276   2.587   1.215  15.793  0.2008  0.7060 -0.9273
  283TMC3    H2 4277   2.247   1.437  15.914 -0.0109  0.9893 -0.7565
  283TMC3    C7 4278   2.348   1.194  15.908 -0.8653  0.5258 -0.1031
  283TMC3    C8 4279   2.329   1.659  15.795  1.0972  0.2015  0.6522
  283TMC3    O1 4280   2.272   1.208  16.001 -0.4774 -0.1665 -0.1273
  283TMC3    O2 4281   2.295   1.661  15.913 -0.3655 -0.0355 -0.6022
  284MPD2     C 4282   0.843   0.511  12.181  0.3809  0.4942  0.0391
  284MPD2    C1 4283   0.765   0.505  12.064  0.2925  0.0887 -0.5583
  284MPD2    C2 4284   0.692   0.394  12.042 -0.6175  0.2238 -0.7345
  284MPD2    C3 4285   0.685   0.292  12.131  0.0908 -0.2151 -0.3668
  284MPD2    C4 4286   0.767   0.291  12.237  0.3599 -0.3067 -0.3933
  284MPD2    C5 4287   0.846   0.401  12.260  0.5518 -0.4888 -0.0387
  284MPD2     H 4288   0.621   0.389  11.960  0.1763 -0.6263 -1.3674
  284MPD2    H1 4289   0.765   0.206  12.304  0.3083 -0.7369 -0.9418
  284MPD2    H2 4290   0.897   0.596  12.221  0.6053 -0.1233  1.0606
  284MPD2    H3 4291   0.900   0.401  12.354  0.1893 -0.8098  0.1698
  284MPD2     N 4292   0.612   0.172  12.117 -0.2631 -0.1129  0.2607
  284MPD2    H5 4293   0.619   0.114  12.200  1.4873  1.9136  1.5327
  284MPD2    N1 4294   0.763   0.609  11.963 -0.4686  0.7824  0.5191
  284MPD2    H7 4295   0.692   0.608  11.891 -1.4003  0.0142  1.4514
  285TMC3    C1 4296   0.836   0.809  11.859 -0.4827 -0.7211 -0.9017
  285TMC3    C2 4297   0.770   0.781  11.742 -0.2727 -0.8657 -0.3796
  285TMC3    C3 4298   0.772   0.878  11.643  0.8722  0.3582 -0.2967
  285TMC3    C4 4299   0.911   0.920  11.871 -0.8862  0.1262 -1.0273
  285TMC3    C5 4300   0.914   1.012  11.771 -0.2895 -0.5967 -0.0986
  285TMC3    C6 4301   0.849   0.988  11.657 -0.0835  0.9332  0.3951
  285TMC3     C 4302   0.856   0.710  11.959  0.2852  0.0594 -0.4351
  285TMC3     O 4303   0.952   0.728  12.035  0.4082 -0.2743 -0.2908
  285TMC3     H 4304   0.723   0.684  11.729 -2.7744  0.0842  1.4080
  285TMC3    H1 4305   0.959   0.931  11.968  0.9058  0.8542 -1.9934
  285TMC3    H2 4306   0.853   1.070  11.586  0.8831  2.4544  2.2186
  285TMC3    C7 4307   1.010   1.118  11.778  0.2305 -0.2145 -0.2199
  285TMC3    C8 4308   0.741   0.828  11.508 -0.0123 -0.1551 -0.0338
  285TMC3    O1 4309   0.999   1.205  11.692 -0.1353  0.0275 -0.6692
  285TMC3    O2 4310   0.723   0.709  11.505  0.1843  0.1070  0.2530
  286MPD2     C 4311   0.879   4.151   2.349 -0.3713  0.3934 -0.1058
  286MPD2    C1 4312   0.809   4.121   2.233 -0.2763 -0.4358  0.2881
  286MPD2    C2 4313   0.863   4.034   2.146 -0.4754  1.0988  0.1773
  286MPD2    C3 4314   0.986   3.979   2.172 -0.0196 -0.1593  0.0992
  286MPD2    C4 4315   1.057   4.006   2.292  0.5985 -0.5385 -0.2398
  286MPD2    C5 4316   1.007   4.096   2.378 -0.3847  0.1057  0.0918
  286MPD2     H 4317   0.800   4.001   2.064  0.1177 -1.2499  0.6560
  286MPD2    H1 4318   1.154   3.965   2.318  0.8467  0.5649  0.5575
  286MPD2    H2 4319   0.849   4.231   2.415 -2.0952 -1.0535  0.8701
  286MPD2    H3 4320   1.060   4.122   2.469 -1.2794  1.8557  0.1167
  286MPD2     N 4321   1.043   3.876   2.087 -0.1769  0.8260  0.8504
  286MPD2    H5 4322   1.131   3.836   2.117  0.0920  0.6579 -0.1730
  286MPD2    N1 4323   0.687   4.174   2.193  0.6832  0.4600 -0.7316
  286MPD2    H7 4324   0.648   4.153   2.102  0.5952  1.7392 -0.9820
  287TMC3    C1 4325   1.077   3.742   1.898  0.3132 -0.0815  0.5624
  287TMC3    C2 4326   1.035   3.677   1.786 -0.5174 -0.6740  0.2380
  287TMC3    C3 4327   1.114   3.574   1.739 -0.8588 -0.5640 -0.0668
  287TMC3    C4 4328   1.202   3.718   1.948 -0.0361 -0.2362  0.2711
  287TMC3    C5 4329   1.268   3.606   1.909 -0.2418 -0.2707  0.6305
  287TMC3    C6 4330   1.231   3.531   1.799  0.7260 -0.3333  0.6150
  287TMC3     C 4331   0.997   3.839   1.969  0.2379 -0.0529 -0.5189
  287TMC3     O 4332   0.882   3.841   1.930  0.4603 -0.1764 -0.3294
  287TMC3     H 4333   0.935   3.691   1.746  0.1864  2.8591 -0.2694
  287TMC3    H1 4334   1.252   3.784   2.018 -1.9205  0.4372  0.9651
  287TMC3    H2 4335   1.299   3.475   1.735 -2.2346  0.5315 -3.3350
  287TMC3    C7 4336   1.389   3.585   1.980 -0.1990  0.7280 -0.0361
  287TMC3    C8 4337   1.097   3.513   1.610  0.0995  0.4125  0.0785
  287TMC3    O1 4338   1.434   3.661   2.063 -0.0618 -0.1112  0.3211
  287TMC3    O2 4339   1.098   3.390   1.610  0.4591  0.3938  0.2635
  288TMC3    C1 4340   2.336   3.842  14.843 -0.2789  0.2310  0.6202
  288TMC3    C2 4341   2.317   3.789  14.975  0.2774 -0.4223  0.1817
  288TMC3    C3 4342   2.369   3.871  15.072  0.2434 -0.3674  0.2004
  288TMC3    C4 4343   2.387   3.969  14.810  0.0463  0.2395  0.2850
  288TMC3    C5 4344   2.426   4.043  14.916  0.8318 -0.0497  0.3962
  288TMC3    C6 4345   2.422   3.992  15.041 -0.4047  0.4025 -0.6127
  288TMC3     C 4346   2.302   3.755  14.733  0.2461  0.2317 -0.1513
  288TMC3     O 4347   2.313   3.635  14.756 -0.5043  0.0631  0.1114
  288TMC3     H 4348   2.260   3.697  14.982  1.0282 -0.9460 -0.5687
  288TMC3    H1 4349   2.406   3.997  14.707 -0.3053  1.0927  0.4592
  288TMC3    H2 4350   2.437   4.059  15.125 -0.8511  1.6582 -1.5376
  288TMC3    C7 4351   2.527   4.149  14.896  0.3948  0.1788 -0.1496
  288TMC3    C8 4352   2.374   3.842  15.212  1.2401  0.2139  0.7178
  288TMC3    O1 4353   2.592   4.179  14.996  0.2553  0.2240 -0.5393
  288TMC3    O2 4354   2.468   3.885  15.274  0.2953  0.4395 -0.1025
  289MPD2     C 4355   2.855   3.146  14.784  0.2316  0.4913 -0.1106
  289MPD2    C1 4356   2.814   3.242  14.692  0.3783  0.6245 -0.5235
  289MPD2    C2 4357   2.684   3.226  14.639  0.2539  0.3744  0.3191
  289MPD2    C3 4358   2.599   3.128  14.688 -0.0698 -0.1900 -0.2756
  289MPD2    C4 4359   2.645   3.034  14.775  0.4896 -0.0504 -0.6252
  289MPD2    C5 4360   2.776   3.040  14.821  0.2673  0.1986  0.0826
  289MPD2     H 4361   2.646   3.309  14.580  0.8835 -0.6950 -1.5909
  289MPD2    H1 4362   2.589   2.947  14.808 -0.5113 -0.0145 -2.2663
  289MPD2    H2 4363   2.951   3.156  14.834  0.6197 -2.0509 -0.3353
  289MPD2    H3 4364   2.812   2.977  14.902 -0.9995  0.7758  1.0947
  289MPD2     N 4365   2.463   3.127  14.653 -0.1212 -0.1704  0.1117
  289MPD2    H5 4366   2.401   3.063  14.700 -0.3810 -1.0563 -1.4532
  289MPD2    N1 4367   2.906   3.344  14.665  0.0140 -0.2932  0.2697
  289MPD2    H7 4368   2.984   3.345  14.730  0.5965  0.0606 -0.4262
  290TMC3    C1 4369   2.254   3.186  14.571 -0.6633 -0.4402 -0.9448
  290TMC3    C2 4370   2.168   3.289  14.569  1.0379 -0.4868 -0.0913
  290TMC3    C3 4371   2.039   3.264  14.533 -0.2576  0.0235  0.5955
  290TMC3    C4 4372   2.214   3.055  14.541  0.4458  0.3279  1.0486
  290TMC3    C5 4373   2.086   3.034  14.511 -0.0478 -0.7333 -0.0579
  290TMC3    C6 4374   1.998   3.141  14.501 -0.1582 -0.3732 -0.6997
  290TMC3     C 4375   2.397   3.225  14.579 -0.4809 -0.2487  0.6242
  290TMC3     O 4376   2.428   3.323  14.514 -0.0296 -0.5669  0.5723
  290TMC3     H 4377   2.197   3.391  14.593  0.2481 -0.7639  2.0250
  290TMC3    H1 4378   2.293   2.980  14.542  1.6720  1.6634  3.5390
  290TMC3    H2 4379   1.899   3.128  14.459 -0.5950 -1.1152  0.5661
  290TMC3    C7 4380   2.020   2.906  14.498  0.5579 -0.4411  0.4356
  290TMC3    C8 4381   1.946   3.372  14.508  0.0129 -0.0580 -0.7000
  290TMC3    O1 4382   1.897   2.909  14.500 -0.2470  0.4631 -0.4986
  290TMC3    O2 4383   1.871   3.366  14.411 -0.0882  0.2646  0.0891
  291MPD2     C 4384   2.149   2.451   0.866 -0.3645  0.1391 -0.0961
  291MPD2    C1 4385   2.081   2.407   0.760  0.6831  0.0819 -0.5779
  291MPD2    C2 4386   2.130   2.436   0.634 -0.1282 -1.2389 -0.2335
  291MPD2    C3 4387   2.223   2.531   0.615 -0.1114 -0.3565  0.5918
  291MPD2    C4 4388   2.281   2.586   0.723 -0.5792 -0.5462 -0.0509
  291MPD2    C5 4389   2.247   2.545   0.850  0.4547 -0.0555 -0.5032
  291MPD2     H 4390   2.072   2.399   0.550  0.4618  0.7294 -1.5062
  291MPD2    H1 4391   2.364   2.655   0.713 -1.1405  0.4686  2.2936
  291MPD2    H2 4392   2.117   2.434   0.968 -0.3618  0.0082 -0.1172
  291MPD2    H3 4393   2.293   2.591   0.937 -1.0667 -0.4959  0.5280
  291MPD2     N 4394   2.273   2.581   0.489 -0.3032  0.1472  0.2081
  291MPD2    H5 4395   2.338   2.659   0.493  0.4007 -0.4494  0.3428
  291MPD2    N1 4396   1.976   2.312   0.765  0.3503  0.1628 -0.4151
  291MPD2    H7 4397   1.929   2.287   0.678 -4.2579  1.0992  1.8175
  292TMC3    C1 4398   1.814   2.169   0.867 -0.1144  0.4659 -0.2504
  292TMC3    C2 4399   1.747   2.134   0.977 -0.2828  0.7925  0.3940
  292TMC3    C3 4400   1.620   2.093   0.965  0.9293 -0.3679  0.5928
  292TMC3    C4 4401   1.765   2.141   0.739  0.1734 -0.1538  0.0588
  292TMC3    C5 4402   1.635   2.108   0.725 -0.4014  0.5895 -0.4726
  292TMC3    C6 4403   1.557   2.083   0.839  0.4259 -0.3019 -0.6003
  292TMC3     C 4404   1.912   2.283   0.883  0.2572  0.3553 -0.2195
  292TMC3     O 4405   1.918   2.337   0.994  0.0721  0.3338  0.2866
  292TMC3     H 4406   1.792   2.147   1.075  1.4945  0.0122 -0.3173
  292TMC3    H1 4407   1.819   2.168   0.649  0.9811  1.3016  0.9697
  292TMC3    H2 4408   1.458   2.040   0.827 -0.1276  0.1528  2.3190
  292TMC3    C7 4409   1.605   2.032   0.607  0.0715  0.7907 -0.5193
  292TMC3    C8 4410   1.540   2.084   1.086 -0.1402 -0.8897 -0.0767
  292TMC3    O1 4411   1.697   1.993   0.534  1.1376  0.4816 -0.1441
  292TMC3    O2 4412   1.597   2.097   1.193 -0.5490  0.6036 -0.1279
  293MPD2     C 4413   3.769   4.243  12.482  0.0982 -0.1315  0.2599
  293MPD2    C1 4414   3.653   4.222  12.559  0.4174  0.7191  0.2396
  293MPD2    C2 4415   3.666   4.224  12.701  0.0381 -0.2924  0.3557
  293MPD2    C3 4416   3.778   4.270  12.751 -0.5637  0.1056 -0.1023
  293MPD2    C4 4417   3.893   4.273  12.676 -0.0964  0.0789  0.5314
  293MPD2    C5 4418   3.893   4.248  12.545  0.2149 -0.0473  0.0313
  293MPD2     H 4419   3.580   4.220  12.767 -0.7162  0.3028 -0.5998
  293MPD2    H1 4420   3.994   4.282  12.717 -0.5605  1.8879  1.2597
  293MPD2    H2 4421   3.765   4.235  12.374  0.6361  1.0008  0.1577
  293MPD2    H3 4422   3.984   4.239  12.488 -0.4024 -0.5707 -0.8693
  293MPD2     N 4423   3.799   4.285  12.891  0.1812 -0.7378 -0.7452
  293MPD2    H5 4424   3.722   4.267  12.955  1.7225  2.2760  1.9656
  293MPD2    N1 4425   3.531   4.193  12.488 -0.0277 -0.2617  0.4088
  293MPD2    H7 4426   3.525   4.209  12.388 -1.2779 -1.6424  0.2582
  294TMC3    C1 4427   3.296   4.155  12.446 -0.0075 -1.0847  0.0425
  294TMC3    C2 4428   3.163   4.156  12.491 -0.8713  0.7978 -0.1207
  294TMC3    C3 4429   3.067   4.126  12.402 -0.0698  0.5549  0.5248
  294TMC3    C4 4430   3.320   4.116  12.312  0.0257  0.5589 -0.5284
  294TMC3    C5 4431   3.222   4.081  12.227  0.0311 -0.1872 -0.0508
  294TMC3    C6 4432   3.092   4.100  12.272  0.1381  0.2358  0.7063
  294TMC3     C 4433   3.407   4.169  12.545  1.0693  0.0272 -0.4157
  294TMC3     O 4434   3.375   4.180  12.662  0.1015 -0.2615 -0.1668
  294TMC3     H 4435   3.134   4.190  12.590  1.3052 -2.1487  1.5264
  294TMC3    H1 4436   3.422   4.091  12.284  0.5834 -0.1961  2.1722
  294TMC3    H2 4437   3.010   4.087  12.203 -1.1400  0.1044  2.2470
  294TMC3    C7 4438   3.250   3.997  12.119  0.5178  0.2684  0.2311
  294TMC3    C8 4439   2.947   4.074  12.454  0.0406 -0.0449 -0.4790
  294TMC3    O1 4440   3.155   3.927  12.085  0.2171 -0.1921  0.2289
  294TMC3    O2 4441   2.927   4.097  12.572 -0.2909 -0.2847 -0.0198
  295MPD2     C 4442   3.806   2.417   0.031 -0.3586  1.0814  0.4102
  295MPD2    C1 4443   3.865   2.534   0.087 -0.3128  0.0587  0.7476
  295MPD2    C2 4444   3.855   2.557   0.222 -0.3803 -0.2951 -0.2511
  295MPD2    C3 4445   3.765   2.490   0.294 -0.1623 -0.1439  0.2029
  295MPD2    C4 4446   3.700   2.380   0.232 -0.0040 -0.6267  0.8283
  295MPD2    C5 4447   3.731   2.338   0.102 -0.1279 -0.3821 -1.3213
  295MPD2     H 4448   3.908   2.641   0.266 -1.2101 -0.5063  1.1871
  295MPD2    H1 4449   3.634   2.317   0.291 -1.7688  1.0132  0.6158
  295MPD2    H2 4450   3.825   2.388  17.624 -0.2293  0.8057  0.5106
  295MPD2    H3 4451   3.693   2.240   0.072  0.4309 -0.6782 -1.0558
  295MPD2     N 4452   3.728   2.513   0.428 -0.0533  0.2727 -0.1951
  295MPD2    H5 4453   3.645   2.465   0.460  0.9095 -0.9864  0.3882
  295MPD2    N1 4454   3.958   2.622   0.009 -0.8205 -0.5519 -0.0584
  295MPD2    H7 4455   4.021   2.679   0.065 -1.1212  3.2572 -3.5717
  296TMC3    C1 4456   3.707   2.632   0.622  0.1857  0.0753  0.5474
  296TMC3    C2 4457   3.726   2.747   0.696 -0.1380  0.0915 -0.6130
  296TMC3    C3 4458   3.640   2.765   0.799 -0.8486 -0.2105  0.1940
  296TMC3    C4 4459   3.620   2.532   0.669 -0.4126 -0.3438  0.5959
  296TMC3    C5 4460   3.559   2.553   0.789  0.2732 -0.3953  0.2021
  296TMC3    C6 4461   3.558   2.672   0.852 -0.5318  0.5118  0.4912
  296TMC3     C 4462   3.775   2.617   0.506 -0.0484 -0.2028 -0.5118
  296TMC3     O 4463   3.861   2.701   0.486 -0.4301  0.5615  1.0065
  296TMC3     H 4464   3.790   2.828   0.663  1.3350 -0.2979  1.3417
  296TMC3    H1 4465   3.583   2.446   0.615 -0.3468 -0.0341  0.0595
  296TMC3    H2 4466   3.506   2.693   0.944  0.7880 -1.5516  1.7154
  296TMC3    C7 4467   3.456   2.460   0.835  0.0297 -0.5414 -0.5950
  296TMC3    C8 4468   3.621   2.896   0.855 -0.1975  0.1271  0.1125
  296TMC3    O1 4469   3.394   2.408   0.746  0.3693  0.3922 -0.1073
  296TMC3    O2 4470   3.511   2.918   0.902 -0.7342 -0.1405 -0.2798
  297MPD2     C 4471   1.591   4.613  16.211  0.1009  0.3373 -0.0604
  297MPD2    C1 4472   1.521   0.011  16.207 -0.0539 -0.2662 -0.0163
  297MPD2    C2 4473   1.588   0.129  16.187 -0.8078  0.3118 -0.7988
  297MPD2    C3 4474   1.730   0.128  16.175 -0.1312 -0.5232  0.0156
  297MPD2    C4 4475   1.798   0.006  16.183  0.0448 -0.5734 -0.5465
  297MPD2    C5 4476   1.727   4.611  16.201  0.5364  0.4263 -0.1627
  297MPD2     H 4477   1.547   0.228  16.176 -2.1156 -0.0712  0.6688
  297MPD2    H1 4478   1.906   0.001  16.188 -0.1260 -1.8676  2.2976
  297MPD2    H2 4479   1.553   4.513  16.231 -1.1742  0.1560 -3.3799
  297MPD2    H3 4480   1.770   4.513  16.218  0.0422  0.5271  1.6442
  297MPD2     N 4481   1.799   0.248  16.147  0.3121 -0.4579 -0.6622
  297MPD2    H5 4482   1.748   0.335  16.159 -0.8665 -1.4205  1.1632
  297MPD2    N1 4483   1.377   0.022  16.210  0.1338 -0.0618  0.2177
  297MPD2    H7 4484   1.325   0.107  16.189  4.3042  2.0856 -1.2459
  298TMC3    C1 4485   1.152   4.668  16.171  0.4047  0.4135 -0.3853
  298TMC3    C2 4486   1.137   4.621  16.048  0.5304 -0.1236 -0.6554
  298TMC3    C3 4487   1.027   4.666  15.972  0.0247  0.1868  0.0490
  298TMC3    C4 4488   1.065   0.045  16.222 -0.1281 -0.0706 -0.2595
  298TMC3    C5 4489   0.979   0.105  16.131 -0.1265  0.5487  0.2360
  298TMC3    C6 4490   0.949   0.043  16.011  0.1460 -0.1828  0.4468
  298TMC3     C 4491   1.291   4.639  16.213  0.2675  0.0077  0.3096
  298TMC3     O 4492   1.324   4.521  16.212 -0.4982  0.2523  0.3130
  298TMC3     H 4493   1.201   4.544  16.006  2.9312  1.1828  0.6146
  298TMC3    H1 4494   1.076   0.080  16.324 -0.7451 -0.8362  0.0751
  298TMC3    H2 4495   0.867   0.074  15.946  2.1608  2.0691 -1.0422
  298TMC3    C7 4496   0.879   0.194  16.187  0.3350 -0.7566 -0.1317
  298TMC3    C8 4497   1.007   4.620  15.837 -0.2495  0.5661  0.3065
  298TMC3    O1 4498   0.879   0.225  16.306 -0.2060  0.8746 -0.4353
  298TMC3    O2 4499   0.891   4.623  15.794 -0.1209 -0.0007  0.2934
  299MPD2     C 4500   2.140   0.855  10.299 -0.0831 -0.5494 -0.0548
  299MPD2    C1 4501   2.070   0.776  10.383  0.1281  0.4839 -0.8108
  299MPD2    C2 4502   1.965   0.699  10.331  0.0200  0.3124 -0.8263
  299MPD2    C3 4503   1.928   0.706  10.196 -0.5637  0.1702  1.1564
  299MPD2    C4 4504   1.994   0.797  10.115  0.4528 -0.2479 -0.3332
  299MPD2    C5 4505   2.101   0.870  10.166 -0.6507  0.1261  0.0044
  299MPD2     H 4506   1.919   0.621  10.392 -0.3926  0.0092 -1.5273
  299MPD2    H1 4507   1.972   0.811  10.010  1.3296  2.5390 -0.1556
  299MPD2    H2 4508   2.222   0.915  10.335  0.0344 -1.1770  0.7293
  299MPD2    H3 4509   2.155   0.939  10.103  0.4393 -2.3892 -1.8288
  299MPD2     N 4510   1.819   0.633  10.142  0.5850  0.1066 -0.3318
  299MPD2    H5 4511   1.786   0.657  10.049  0.6898  0.7000 -0.2149
  299MPD2    N1 4512   2.125   0.765  10.515  0.0479 -0.1865 -0.6071
  299MPD2    H7 4513   2.205   0.825  10.536 -1.4476  1.6486 -0.1526
  300TMC3    C1 4514   1.634   0.484  10.129 -0.4006 -0.7351  0.3454
  300TMC3    C2 4515   1.552   0.582  10.099  0.4618  0.0668  0.8547
  300TMC3    C3 4516   1.422   0.544  10.079 -0.3388 -0.0013 -0.1508
  300TMC3    C4 4517   1.591   0.358  10.166 -0.6510  0.4590 -0.7139
  300TMC3    C5 4518   1.455   0.334  10.156  0.1599  1.3438  0.2516
  300TMC3    C6 4519   1.360   0.422  10.104  0.1232  0.1250 -0.5078
  300TMC3     C 4520   1.755   0.531  10.203 -0.1276 -1.0261 -0.5514
  300TMC3     O 4521   1.771   0.480  10.313 -0.7530  0.6528  0.4346
  300TMC3     H 4522   1.582   0.683  10.077 -2.4461  0.7715  0.1134
  300TMC3    H1 4523   1.659   0.279  10.196 -0.9292  1.2923  2.1285
  300TMC3    H2 4524   1.254   0.413  10.085  0.1583 -0.8570 -0.2300
  300TMC3    C7 4525   1.400   0.215  10.212  0.9466  1.1052  0.0853
  300TMC3    C8 4526   1.326   0.646  10.114 -0.3021  0.4174  0.0996
  300TMC3    O1 4527   1.467   0.114  10.188 -0.1426  0.2719 -0.5068
  300TMC3    O2 4528   1.213   0.628  10.074 -1.1756 -0.1078  0.1828
  301MPD2     C 4529   4.040   0.929   1.887 -0.0952  0.0261  1.0635
  301MPD2    C1 4530   3.933   0.892   1.811 -0.0294  0.3467 -0.1800
  301MPD2    C2 4531   3.940   0.778   1.739  0.0324 -0.0364 -0.1958
  301MPD2    C3 4532   4.051   0.693   1.738 -0.6336  0.0266 -0.0442
  301MPD2    C4 4533   4.159   0.738   1.812  0.1959  0.1598 -0.1153
  301MPD2    C5 4534   4.153   0.852   1.893 -0.1991  0.4582 -0.1317
  301MPD2     H 4535   3.853   0.740   1.687  0.4109 -0.8359 -0.2373
  301MPD2    H1 4536   4.243   0.670   1.816 -0.1494 -0.0497  3.2110
  301MPD2    H2 4537   4.044   1.012   1.956 -0.9782 -0.8594  2.1906
  301MPD2    H3 4538   4.240   0.881   1.952 -0.3246  1.6201 -0.5137
  301MPD2     N 4539   4.048   0.565   1.686  0.2068  0.0342  0.2917
  301MPD2    H5 4540   4.130   0.505   1.697  1.1442  1.3778  0.6880
  301MPD2    N1 4541   3.804   0.961   1.818  0.5050  0.2678 -0.1458
  301MPD2    H7 4542   3.728   0.920   1.764  1.8322  0.0803 -1.8762
  302TMC3    C1 4543   4.017   0.403   1.514 -0.3643 -0.3119 -0.6323
  302TMC3    C2 4544   4.142   0.341   1.544  0.4479  0.3745 -0.1486
  302TMC3    C3 4545   4.193   0.250   1.452 -1.0612  0.3344  0.2119
  302TMC3    C4 4546   3.955   0.373   1.395  0.2000  0.0207  0.2384
  302TMC3    C5 4547   4.007   0.275   1.312 -0.4718  0.0895 -0.0170
  302TMC3    C6 4548   4.122   0.206   1.342 -0.4695  0.3574  0.5906
  302TMC3     C 4549   3.961   0.517   1.593  0.0546  0.1566 -0.4071
  302TMC3     O 4550   3.855   0.569   1.556 -0.4401 -0.0159  0.7633
  302TMC3     H 4551   4.207   0.371   1.625 -1.3093  0.8139  1.0847
  302TMC3    H1 4552   3.868   0.435   1.377  1.8926  1.8256 -1.6846
  302TMC3    H2 4553   4.157   0.134   1.270  0.1044  2.2922 -1.0499
  302TMC3    C7 4554   3.934   0.247   1.189  0.3722  0.0585 -0.6045
  302TMC3    C8 4555   4.318   0.171   1.477 -0.0975  0.1277 -0.7623
  302TMC3    O1 4556   4.000   0.198   1.096  0.8537  0.4371 -0.0609
  302TMC3    O2 4557   4.343   0.087   1.394 -0.5667  0.0025 -0.3472
  303MPD2     C 4558   3.937   3.772  10.026  0.0554  0.8001  0.7847
  303MPD2    C1 4559   3.920   3.777  10.163 -0.1381 -0.4090  0.9947
  303MPD2    C2 4560   3.996   3.686  10.240 -1.0380  0.2794  0.0430
  303MPD2    C3 4561   4.080   3.592  10.178 -0.2416 -0.0947 -0.0311
  303MPD2    C4 4562   4.105   3.595  10.040  0.0547 -0.0438  0.0886
  303MPD2    C5 4563   4.032   3.684   9.966  0.3682 -0.3536  0.3898
  303MPD2     H 4564   3.987   3.681  10.348  3.7006 -0.6605  0.4115
  303MPD2    H1 4565   4.172   3.527   9.988  2.0514  1.3428  0.8385
  303MPD2    H2 4566   3.876   3.833   9.960  0.9108  1.7884  0.9063
  303MPD2    H3 4567   4.049   3.686   9.859  0.0908  1.5063  0.3721
  303MPD2     N 4568   4.155   3.488  10.243  0.5703  0.8506  0.4692
  303MPD2    H5 4569   4.222   3.433  10.191  0.6755  1.5283 -0.1101
  303MPD2    N1 4570   3.816   3.859  10.221 -0.0193 -0.2583 -0.3081
  303MPD2    H7 4571   3.749   3.902  10.157 -0.3035 -1.3529 -0.7397
  304TMC3    C1 4572   3.650   3.923  10.388 -0.2232  0.8481 -0.2430
  304TMC3    C2 4573   3.545   3.891  10.307 -0.2580  0.3778  0.0976
  304TMC3    C3 4574   3.424   3.932  10.347  0.6476 -0.3607 -0.6793
  304TMC3    C4 4575   3.635   3.985  10.510  0.1762 -0.2835  0.4764
  304TMC3    C5 4576   3.511   4.011  10.553 -0.2651 -0.1945 -1.1121
  304TMC3    C6 4577   3.405   3.993  10.474  0.1462  0.2341  0.5464
  304TMC3     C 4578   3.783   3.862  10.351  0.0569 -0.4531 -0.3444
  304TMC3     O 4579   3.854   3.844  10.446 -0.1816 -0.7564  0.2340
  304TMC3     H 4580   3.557   3.823  10.224  0.2401  0.2035  0.3125
  304TMC3    H1 4581   3.726   4.012  10.563  1.1852 -1.0662 -0.8589
  304TMC3    H2 4582   3.302   4.005  10.505  0.1569 -2.4441  1.6815
  304TMC3    C7 4583   3.494   3.960  10.688 -1.3892 -0.2875  0.3366
  304TMC3    C8 4584   3.330   3.828  10.323 -0.5471 -0.1596  0.6312
  304TMC3    O1 4585   3.384   3.908  10.714 -0.0006 -0.3452 -0.0435
  304TMC3    O2 4586   3.289   3.815  10.215  0.0972  0.0238 -0.1455
  305MPD2     C 4587   2.737   1.824  13.872  0.3717  0.0107  0.2673
  305MPD2    C1 4588   2.705   1.689  13.881 -0.6526 -0.4768  0.4165
  305MPD2    C2 4589   2.694   1.607  13.768  0.0040  0.5634  0.4150
  305MPD2    C3 4590   2.704   1.666  13.637 -0.1981  0.5470  0.1120
  305MPD2    C4 4591   2.722   1.796  13.633  0.1018 -0.0088 -1.0103
  305MPD2    C5 4592   2.732   1.872  13.747  0.2913 -0.5403  0.1153
  305MPD2     H 4593   2.677   1.500  13.779 -0.7507  0.5271 -0.9812
  305MPD2    H1 4594   2.734   1.852  13.541  1.2810  1.2979 -0.0635
  305MPD2    H2 4595   2.744   1.894  13.955 -2.6164  0.4072  0.1808
  305MPD2    H3 4596   2.737   1.980  13.732 -1.2257 -0.1610  2.3135
  305MPD2     N 4597   2.704   1.594  13.513  0.3658 -0.1443 -0.1260
  305MPD2    H5 4598   2.718   1.641  13.425 -2.8120 -0.3531 -0.7461
  305MPD2    N1 4599   2.695   1.628  14.011 -0.4957  0.3610  0.0163
  305MPD2    H7 4600   2.732   1.680  14.089 -0.0720  0.7053 -0.4082
  306TMC3    C1 4601   2.626   1.494  14.182 -0.2767 -0.1912 -0.5182
  306TMC3    C2 4602   2.705   1.400  14.242  0.8336 -0.2887  0.3387
  306TMC3    C3 4603   2.741   1.422  14.372 -0.0448  0.1326 -0.1234
  306TMC3    C4 4604   2.578   1.604  14.250 -0.7906  0.4630  0.4189
  306TMC3    C5 4605   2.625   1.627  14.381  0.8069  0.3775  0.3452
  306TMC3    C6 4606   2.698   1.531  14.441  0.0939  0.5303  0.2700
  306TMC3     C 4607   2.633   1.510  14.045 -0.2181  0.4313  0.1967
  306TMC3     O 4608   2.588   1.415  13.983  0.9734 -0.0542 -0.2072
  306TMC3     H 4609   2.750   1.320  14.185 -0.4997 -0.8508  0.0882
  306TMC3    H1 4610   2.519   1.678  14.197  0.0564  0.7847 -0.0796
  306TMC3    H2 4611   2.732   1.555  14.541 -1.6947 -1.1651  1.2982
  306TMC3    C7 4612   2.546   1.713  14.474 -0.3065  0.4769 -0.0264
  306TMC3    C8 4613   2.834   1.330  14.432  0.6019 -0.3146  0.0074
  306TMC3    O1 4614   2.440   1.752  14.430  0.3346  0.5770 -0.2434
  306TMC3    O2 4615   2.858   1.230  14.370 -0.5411 -0.1508 -0.6435
  307MPD2     C 4616   4.311   3.451   0.892  0.1960  0.2899  0.2418
  307MPD2    C1 4617   4.288   3.572   0.936  0.1281 -0.1285 -0.8132
  307MPD2    C2 4618   4.157   3.602   0.968  0.2565 -0.0870 -0.3163
  307MPD2    C3 4619   4.046   3.521   0.938 -0.6562  0.7584  0.0707
  307MPD2    C4 4620   4.071   3.399   0.883  0.4099  0.4640  0.5375
  307MPD2    C5 4621   4.201   3.369   0.865 -0.5460 -0.2774 -0.5558
  307MPD2     H 4622   4.123   3.703   0.986  0.8732  0.0750 -0.0685
  307MPD2    H1 4623   3.994   3.325   0.861  0.9997  0.3002 -1.0234
  307MPD2    H2 4624   4.409   3.420   0.857 -0.6579 -0.0563 -1.8056
  307MPD2    H3 4625   4.210   3.272   0.817 -0.2640 -0.6937  0.3267
  307MPD2     N 4626   3.917   3.565   0.966  0.1267 -0.4931  0.1212
  307MPD2    H5 4627   3.906   3.654   1.012  0.6500  0.1241 -0.9593
  307MPD2    N1 4628   4.391   3.674   0.958 -0.4415 -0.0182 -0.0510
  307MPD2    H7 4629   4.364   3.771   0.942  0.4190  0.4574  1.4253
  308TMC3    C1 4630   3.548   3.756   0.874 -0.2924 -0.5389  0.6930
  308TMC3    C2 4631   3.562   3.832   0.988 -0.4946 -0.1980 -0.5493
  308TMC3    C3 4632   3.645   3.791   1.090  0.3180 -0.1164 -0.6458
  308TMC3    C4 4633   3.622   3.636   0.858 -0.3954 -0.2039 -0.1146
  308TMC3    C5 4634   3.691   3.591   0.967  0.5017  0.4333 -0.2113
  308TMC3    C6 4635   3.705   3.666   1.079 -0.0824 -0.2443  0.4977
  308TMC3     C 4636   3.444   3.782   0.772  0.0297  0.2366 -1.0583
  308TMC3     O 4637   3.403   3.685   0.705 -0.3945 -0.1351  0.6723
  308TMC3     H 4638   3.494   3.914   1.012  0.4879  0.8254 -1.2667
  308TMC3    H1 4639   3.598   3.567   0.778 -0.3333 -0.4042  0.0421
  308TMC3    H2 4640   3.779   3.626   1.147  2.4704 -2.0228 -3.3309
  308TMC3    C7 4641   3.796   3.509   0.929  0.1390  1.2234  0.2946
  308TMC3    C8 4642   3.690   3.879   1.194 -1.1384  1.6617  0.0382
  308TMC3    O1 4643   3.770   3.418   0.854 -0.5803 -0.2512  0.0325
  308TMC3    O2 4644   3.743   3.823   1.286  0.3353 -0.5032 -0.0249
  309MPD2     C 4645   3.907   0.041  17.225 -0.8335 -0.0200  0.1173
  309MPD2    C1 4646   3.836   0.058  17.104  0.4625  0.7419 -0.3446
  309MPD2    C2 4647   3.717   0.129  17.101 -0.4367 -0.3218 -0.1422
  309MPD2    C3 4648   3.655   0.161  17.220 -0.1019 -0.4103  0.0164
  309MPD2    C4 4649   3.716   0.132  17.339 -0.3235  0.0818 -0.3598
  309MPD2    C5 4650   3.841   0.071  17.341 -0.4316  0.0966 -0.8331
  309MPD2     H 4651   3.666   0.155  17.009 -0.3096  0.9864  0.1495
  309MPD2    H1 4652   3.675   0.153  17.438  2.0890 -0.9969  0.8491
  309MPD2    H2 4653   4.006   0.001  17.241 -0.1303  1.2144 -1.1220
  309MPD2    H3 4654   3.892   0.041  17.432 -1.0603  0.0894 -0.4797
  309MPD2     N 4655   3.538   0.235  17.228 -0.0657  0.1154  0.1315
  309MPD2    H5 4656   3.494   0.249  17.318 -3.8209 -1.5706 -1.4117
  309MPD2    N1 4657   3.891   0.014  16.986  0.0020  0.5676  0.1723
  309MPD2    H7 4658   3.990   4.717  16.982  0.0087  0.5889  0.2434
  310TMC3    C1 4659   3.924   0.011  16.757 -0.7212 -0.7739 -0.5502
  310TMC3    C2 4660   3.888   0.095  16.654  0.5486  0.6481  0.4684
  310TMC3    C3 4661   3.985   0.120  16.556  0.1912  0.9246 -0.1063
  310TMC3    C4 4662   4.050   4.678  16.767 -0.6123 -0.3882 -0.6705
  310TMC3    C5 4663   4.140   4.706  16.663  0.0685  0.7264 -0.1907
  310TMC3    C6 4664   4.108   0.067  16.558 -0.1022 -0.9697 -0.4804
  310TMC3     C 4665   3.824   0.006  16.864 -0.6929 -0.5943 -0.0847
  310TMC3     O 4666   3.701   0.005  16.843 -0.1285 -0.2696  0.6470
  310TMC3     H 4667   3.786   0.121  16.631  0.1414 -1.4361 -0.1464
  310TMC3    H1 4668   4.084   4.610  16.844 -1.9442  0.8625  0.9994
  310TMC3    H2 4669   4.166   0.097  16.472  0.6012  0.3184  0.4518
  310TMC3    C7 4670   4.284   4.682  16.694 -0.5225  0.7271  0.1502
  310TMC3    C8 4671   3.963   0.228  16.466 -0.5672 -0.5188 -0.0439
  310TMC3    O1 4672   4.320   4.647  16.808  0.0761  0.1547 -0.7694
  310TMC3    O2 4673   4.032   0.241  16.367 -0.5998  0.3478  0.1541
  311MPD2     C 4674   2.304   1.496  12.214 -0.2084 -0.4740 -0.0082
  311MPD2    C1 4675   2.282   1.630  12.210 -0.0132 -0.0213 -0.1101
  311MPD2    C2 4676   2.183   1.689  12.287 -1.1452  0.3745 -0.1499
  311MPD2    C3 4677   2.108   1.602  12.373 -0.5696  0.3848 -0.3129
  311MPD2    C4 4678   2.133   1.465  12.373 -0.1614 -0.3066  0.5874
  311MPD2    C5 4679   2.226   1.403  12.294 -1.0767 -0.0341  0.4589
  311MPD2     H 4680   2.179   1.797  12.292 -1.8823  0.2933  0.9132
  311MPD2    H1 4681   2.087   1.395  12.441 -0.8579 -0.4513 -0.0307
  311MPD2    H2 4682   2.389   1.450  12.166 -2.1154 -3.0360 -0.8916
  311MPD2    H3 4683   2.243   1.297  12.311 -2.0387 -0.4382 -1.1036
  311MPD2     N 4684   2.006   1.644  12.462  0.1132 -0.0756 -0.7741
  311MPD2    H5 4685   1.999   1.744  12.480 -1.4321 -0.0372 -1.5656
  311MPD2    N1 4686   2.347   1.720  12.123  0.8822 -0.6378  0.2866
  311MPD2    H7 4687   2.351   1.817  12.151 -1.6850 -0.5838  0.4548
  312TMC3    C1 4688   1.823   1.640  12.605  0.8582 -0.5257  0.0270
  312TMC3    C2 4689   1.697   1.598  12.603  0.4115 -0.2298 -0.1128
  312TMC3    C3 4690   1.611   1.622  12.708  0.4457 -0.3697 -0.4618
  312TMC3    C4 4691   1.869   1.712  12.710 -0.0596 -0.2549 -0.0338
  312TMC3    C5 4692   1.787   1.727  12.820  0.0421  0.7021 -1.0024
  312TMC3    C6 4693   1.656   1.687  12.826  0.4251 -0.6400  0.3342
  312TMC3     C 4694   1.919   1.565  12.535  0.4650  1.1058  0.0479
  312TMC3     O 4695   1.884   1.447  12.534 -0.1867  0.0872 -0.3396
  312TMC3     H 4696   1.662   1.538  12.519  1.8527 -0.6059 -0.4335
  312TMC3    H1 4697   1.966   1.760  12.710  0.3324 -1.0575  1.1339
  312TMC3    H2 4698   1.592   1.704  12.912 -0.3751  0.0789 -0.3986
  312TMC3    C7 4699   1.847   1.779  12.941 -0.4359  0.8739  0.5144
  312TMC3    C8 4700   1.469   1.590  12.692 -0.2188 -0.7130 -0.0123
  312TMC3    O1 4701   1.919   1.879  12.928 -0.6892 -0.2032  0.0436
  312TMC3    O2 4702   1.412   1.523  12.778  0.1897 -0.3551 -0.6556
  313MPD2     C 4703   0.500   1.145  10.911 -0.0272 -0.3464 -0.5360
  313MPD2    C1 4704   0.553   1.188  10.794  0.2853 -0.1222 -0.1094
  313MPD2    C2 4705   0.584   1.088  10.703  0.2495  0.3873 -0.3245
  313MPD2    C3 4706   0.572   0.952  10.727 -0.6143 -0.1714 -0.7873
  313MPD2    C4 4707   0.536   0.911  10.853 -0.2363  0.6910 -0.2818
  313MPD2    C5 4708   0.500   1.008  10.944 -0.0165  0.5730 -0.0294
  313MPD2     H 4709   0.635   1.130  10.617  1.8640  0.4925  0.6714
  313MPD2    H1 4710   0.541   0.808  10.885 -1.4635  1.0019  0.9495
  313MPD2    H2 4711   0.464   1.214  10.987  1.5252  1.0492 -1.0689
  313MPD2    H3 4712   0.463   0.977  11.041 -1.8168  0.0877 -0.8748
  313MPD2     N 4713   0.594   0.857  10.631  0.8444  0.0151  0.4012
  313MPD2    H5 4714   0.634   0.886  10.542 -0.1037  1.4037  0.4217
  313MPD2    N1 4715   0.568   1.322  10.750  0.5026  0.0306 -0.0299
  313MPD2    H7 4716   0.597   1.333  10.654  1.2248  0.8390  0.2863
  314TMC3    C1 4717   0.582   1.554  10.760 -0.3884 -0.0317 -0.9224
  314TMC3    C2 4718   0.685   1.633  10.800 -0.7758  0.2238  0.1061
  314TMC3    C3 4719   0.749   1.717  10.720  0.2254  0.2057  0.4299
  314TMC3    C4 4720   0.538   1.554  10.632 -0.4910  0.4119 -0.6134
  314TMC3    C5 4721   0.612   1.633  10.551 -0.2841 -0.4113  0.4891
  314TMC3    C6 4722   0.713   1.717  10.591 -0.2781 -0.3405 -0.0773
  314TMC3     C 4723   0.563   1.428  10.832 -0.7714  0.2810  0.2509
  314TMC3     O 4724   0.586   1.437  10.950  0.5171 -0.0728 -0.3633
  314TMC3     H 4725   0.719   1.626  10.903 -0.2918  0.5678 -0.0300
  314TMC3    H1 4726   0.458   1.484  10.609  0.2361 -0.5202 -0.2875
  314TMC3    H2 4727   0.763   1.774  10.513  0.0192  0.1515  0.4702
  314TMC3    C7 4728   0.584   1.623  10.407  0.2075  0.1567  0.0492
  314TMC3    C8 4729   0.881   1.767  10.751  0.1552  0.4480  0.1037
  314TMC3    O1 4730   0.592   1.729  10.340 -0.2882 -0.4027 -0.2646
  314TMC3    O2 4731   0.961   1.780  10.659 -0.2493  0.3182 -0.7414
  315MPD2     C 4732   0.686   4.106  17.573 -0.2888 -0.6917 -0.0927
  315MPD2    C1 4733   0.785   4.146  17.658 -0.2836  0.1261  0.0510
  315MPD2    C2 4734   0.845   4.265  17.631 -0.4794  0.3574  0.6956
  315MPD2    C3 4735   0.804   4.351  17.529  0.7775  0.2905  0.3511
  315MPD2    C4 4736   0.703   4.303  17.450  0.9172  0.2289 -0.4072
  315MPD2    C5 4737   0.648   4.177  17.460 -0.1253 -0.3980 -0.2383
  315MPD2     H 4738   0.924   4.296   0.003 -0.2203 -2.2054  1.5910
  315MPD2    H1 4739   0.654   4.359  17.372 -0.1542 -1.3999 -0.8795
  315MPD2    H2 4740   0.634   4.013  17.593  0.1192 -0.5632  1.5909
  315MPD2    H3 4741   0.571   4.149  17.388 -0.4350 -0.4057  0.0943
  315MPD2     N 4742   0.870   4.476  17.508 -0.3171 -0.1348  0.0736
  315MPD2    H5 4743   0.939   4.491  17.580  0.1995  1.3877 -0.7415
  315MPD2    N1 4744   0.825   4.061   0.067 -0.2027 -0.3657 -0.4143
  315MPD2    H7 4745   0.914   4.078   0.112 -0.7153  2.0049 -0.2852
  316TMC3    C1 4746   0.922   4.689  17.424 -0.7831 -0.0222 -0.5398
  316TMC3    C2 4747   1.025   4.702  17.516 -0.5047  0.1770 -0.1091
  316TMC3    C3 4748   1.092   0.099  17.519 -0.3399  0.2807 -0.2575
  316TMC3    C4 4749   0.869   0.072  17.348  0.3079  0.0306  0.4890
  316TMC3    C5 4750   0.943   0.189  17.353  0.0077  0.3287  0.0193
  316TMC3    C6 4751   1.050   0.204  17.439 -0.0370 -0.1381 -0.5983
  316TMC3     C 4752   0.857   4.559  17.401 -0.0698 -0.7869 -0.6165
  316TMC3     O 4753   0.795   4.539  17.300  0.2018 -0.2142 -1.5108
  316TMC3     H 4754   1.063   4.614  17.566 -1.7360 -0.2259  0.1275
  316TMC3    H1 4755   0.776   0.068  17.292 -0.8093 -0.2931  2.3691
  316TMC3    H2 4756   1.093   0.303  17.443 -0.9880  0.2548 -0.1242
  316TMC3    C7 4757   0.875   0.314  17.320 -0.0984  0.8599 -0.9320
  316TMC3    C8 4758   1.166   0.146  17.637  0.4690  0.0662  0.2923
  316TMC3    O1 4759   0.912   0.414  17.375 -0.4261  0.0462 -0.3121
  316TMC3    O2 4760   1.187   0.264  17.640 -0.2808 -0.2314  0.3118
  317MPD2     C 4761   2.685   3.291  12.682  0.2670  0.5216 -0.1756
  317MPD2    C1 4762   2.679   3.157  12.658 -0.2306  0.0418  0.6320
  317MPD2    C2 4763   2.732   3.063  12.747 -0.5560 -0.4403  0.4756
  317MPD2    C3 4764   2.779   3.105  12.870 -0.4375  0.1376  0.3750
  317MPD2    C4 4765   2.791   3.242  12.893 -0.5684  0.4617  0.2973
  317MPD2    C5 4766   2.749   3.330  12.799 -0.6455  0.4075  0.2629
  317MPD2     H 4767   2.733   2.958  12.721  0.4752 -0.0993 -0.8660
  317MPD2    H1 4768   2.822   3.278  12.990  2.8913 -1.9394  0.0916
  317MPD2    H2 4769   2.660   3.369  12.611 -0.7462  0.3706  0.0163
  317MPD2    H3 4770   2.760   3.438  12.810 -0.3242  0.5353 -1.2974
  317MPD2     N 4771   2.839   2.999  12.947  0.8742  0.0695 -0.1928
  317MPD2    H5 4772   2.841   2.904  12.911 -0.3871 -0.8490  2.1429
  317MPD2    N1 4773   2.632   3.102  12.535  0.6102 -0.5135  0.2320
  317MPD2    H7 4774   2.641   3.001  12.534 -0.4652 -0.6076  0.0563
  318TMC3    C1 4775   2.950   2.904  13.134  0.0786 -0.0512  0.5051
  318TMC3    C2 4776   2.880   2.787  13.116 -0.0057 -0.3249  0.4034
  318TMC3    C3 4777   2.933   2.671  13.168 -0.5265 -0.6221  0.0952
  318TMC3    C4 4778   3.064   2.904  13.210  0.0994 -0.4243 -0.9108
  318TMC3    C5 4779   3.097   2.789  13.277  0.7563 -0.4133 -0.7415
  318TMC3    C6 4780   3.039   2.668  13.254  0.6374 -0.5866  0.0868
  318TMC3     C 4781   2.903   3.025  13.070 -0.1212 -0.1440  0.5559
  318TMC3     O 4782   2.929   3.131  13.128 -0.2203  0.3133  0.4919
  318TMC3     H 4783   2.791   2.785  13.054 -0.0237  0.9883  0.3874
  318TMC3    H1 4784   3.124   2.994  13.225 -2.5325  1.2638 -0.5240
  318TMC3    H2 4785   3.073   2.573  13.292  1.9290  0.4992  1.6370
  318TMC3    C7 4786   3.214   2.793  13.357 -0.4776 -0.0403  0.5246
  318TMC3    C8 4787   2.875   2.547  13.121 -0.0406  0.1647  0.4663
  318TMC3    O1 4788   3.231   2.905  13.410  0.1938  0.1599 -0.3519
  318TMC3    O2 4789   2.880   2.446  13.190 -0.5214 -0.1322 -0.4931
  319MPD2     C 4790   3.858   4.344  16.820  0.0490  0.1394  0.0872
  319MPD2    C1 4791   3.743   4.288  16.884  0.2219 -1.0280  0.0990
  319MPD2    C2 4792   3.637   4.251  16.802  0.6284  0.0098  0.5929
  319MPD2    C3 4793   3.651   4.254  16.656 -0.3162  0.3052  0.4771
  319MPD2    C4 4794   3.764   4.313  16.600  0.1293 -0.0370 -0.8151
  319MPD2    C5 4795   3.865   4.363  16.683 -0.3418 -0.0431 -0.4994
  319MPD2     H 4796   3.559   4.204  16.862  0.3588  1.5856  1.4763
  319MPD2    H1 4797   3.772   4.315  16.492  0.7726  0.1668 -0.7613
  319MPD2    H2 4798   3.946   4.381  16.872  1.3364 -0.3095 -1.7463
  319MPD2    H3 4799   3.952   4.412  16.642 -0.4611  0.4811 -0.1197
  319MPD2     N 4800   3.554   4.195  16.573  0.3034 -0.3258  0.0630
  319MPD2    H5 4801   3.559   4.206  16.472 -0.4606  0.8960  0.1605
  319MPD2    N1 4802   3.739   4.271  17.024  0.2253 -0.1662 -0.6106
  319MPD2    H7 4803   3.658   4.228  17.066  0.7120 -0.6533 -0.1622
  320TMC3    C1 4804   3.343   4.094  16.513  0.7905  0.0199 -0.4428
  320TMC3    C2 4805   3.342   4.175  16.398 -0.3242  0.3871  0.0958
  320TMC3    C3 4806   3.267   4.131  16.290  0.7011  0.2180 -0.7063
  320TMC3    C4 4807   3.262   3.983  16.527  0.2592 -0.3211  0.0209
  320TMC3    C5 4808   3.178   3.956  16.419  0.2458 -0.2605 -0.6200
  320TMC3    C6 4809   3.182   4.021  16.297 -0.5897 -0.4487 -0.3689
  320TMC3     C 4810   3.437   4.130  16.616  0.8784  0.0295  0.3040
  320TMC3     O 4811   3.410   4.097  16.731  0.2473 -0.6441  0.3538
  320TMC3     H 4812   3.403   4.265  16.394 -1.1556  0.9285 -0.2327
  320TMC3    H1 4813   3.274   3.926  16.618 -1.5106  2.1183  1.7489
  320TMC3    H2 4814   3.108   3.985  16.226  1.1846 -1.1027 -1.8742
  320TMC3    C7 4815   3.114   3.822  16.416 -0.0402 -1.1347 -0.0321
  320TMC3    C8 4816   3.236   4.231  16.188 -0.0580  0.3717 -0.3070
  320TMC3    O1 4817   3.080   3.780  16.303  0.3238 -0.2630  1.3323
  320TMC3    O2 4818   3.276   4.343  16.224  0.1554  0.1492 -0.7079
  321TMC3    C1 4819   3.796   4.323  17.244  0.0567  0.1879  0.1128
  321TMC3    C2 4820   3.724   4.228  17.306 -0.5296 -0.2244 -0.0049
  321TMC3    C3 4821   3.691   4.247  17.435  0.6757  0.4696 -0.0783
  321TMC3    C4 4822   3.849   4.428  17.319  0.3427 -0.0733 -0.1991
  321TMC3    C5 4823   3.815   4.442  17.449  0.7337 -0.4310  0.5649
  321TMC3    C6 4824   3.727   4.356  17.508 -0.4776 -0.4774  0.3403
  321TMC3     C 4825   3.828   4.333  17.107  0.2042 -0.0940  0.4307
  321TMC3     O 4826   3.940   4.374  17.081  0.7139  0.2452 -0.1787
  321TMC3     H 4827   3.706   4.132  17.259 -1.1857 -0.0398 -0.1323
  321TMC3    H1 4828   3.922   4.488  17.266  0.6434 -0.3036 -0.0421
  321TMC3    H2 4829   3.686   4.372  17.607 -0.8813  2.1580 -0.2441
  321TMC3    C7 4830   3.929   4.458  17.532 -0.5353 -0.4082  0.0683
  321TMC3    C8 4831   3.700   4.132  17.514 -0.3315  0.3139  0.1901
  321TMC3    O1 4832   4.024   4.519  17.488 -0.2267  0.6465  0.3338
  321TMC3    O2 4833   3.746   4.150  17.626  0.3539  0.0524 -0.4041
  322MPD2     C 4834   2.094   0.225  13.989 -0.2196 -0.0346  1.0886
  322MPD2    C1 4835   2.204   0.262  13.923 -0.3645 -1.0800 -0.9202
  322MPD2    C2 4836   2.271   0.169  13.851  0.6952  0.5672  0.3113
  322MPD2    C3 4837   2.238   0.037  13.852  0.1213 -0.3676 -0.4195
  322MPD2    C4 4838   2.120   0.005  13.914 -0.8264 -0.0093  0.3000
  322MPD2    C5 4839   2.054   0.101  13.986 -0.2427 -0.5883 -0.1149
  322MPD2     H 4840   2.353   0.205  13.789  2.0314 -3.8732 -0.5744
  322MPD2    H1 4841   2.087   4.625  13.915 -0.7009 -0.0605 -1.3509
  322MPD2    H2 4842   2.035   0.288  14.055 -1.1844 -1.5856  1.7031
  322MPD2    H3 4843   1.959   0.072  14.030 -0.8399  0.9839 -0.3697
  322MPD2     N 4844   2.324   4.670  13.787 -0.3459  0.3051  0.2264
  322MPD2    H5 4845   2.414   4.711  13.764 -0.4460  0.5883  0.3348
  322MPD2    N1 4846   2.242   0.394  13.930  0.2853 -1.0047  1.1591
  322MPD2    H7 4847   2.186   0.452  13.992 -0.1822  0.2862 -0.4607
  323TMC3    C1 4848   2.366   0.598  13.904  0.2045 -0.0299 -0.2419
  323TMC3    C2 4849   2.437   0.667  13.812 -0.1058 -0.0886 -0.3626
  323TMC3    C3 4850   2.515   0.767  13.863 -0.0500  0.0750  0.5402
  323TMC3    C4 4851   2.359   0.627  14.039 -0.1329 -0.2651 -0.4841
  323TMC3    C5 4852   2.430   0.741  14.077 -0.2320 -0.1052 -0.3761
  323TMC3    C6 4853   2.519   0.803  13.995 -0.2797 -0.1561  0.7702
  323TMC3     C 4854   2.341   0.463  13.862  0.4473 -0.2656  0.1570
  323TMC3     O 4855   2.402   0.419  13.765 -0.2555  0.2301  0.3318
  323TMC3     H 4856   2.440   0.647  13.706  1.4476  0.2275 -0.3713
  323TMC3    H1 4857   2.304   0.562  14.106  0.4779 -1.1598 -0.8530
  323TMC3    H2 4858   2.608   0.850  14.034 -0.1586  0.0632  0.2325
  323TMC3    C7 4859   2.471   0.732  14.218 -0.5141 -0.4331  0.4516
  323TMC3    C8 4860   2.613   0.831  13.782 -0.5568 -0.2599  0.6217
  323TMC3    O1 4861   2.439   0.630  14.277  0.1617 -0.0767  0.3701
  323TMC3    O2 4862   2.669   0.772  13.694 -0.3065  0.0986  0.7022
  324MPD2     C 4863   4.183   1.791  13.711 -0.4333  0.5132  0.4133
  324MPD2    C1 4864   4.202   1.892  13.800  0.1509 -0.0104 -0.3509
  324MPD2    C2 4865   4.111   1.990  13.812  0.0396  0.6648 -0.3693
  324MPD2    C3 4866   3.993   1.984  13.733 -0.3161  0.3877 -0.4136
  324MPD2    C4 4867   3.974   1.874  13.653 -0.6380  0.3785 -0.5304
  324MPD2    C5 4868   4.066   1.779  13.643  1.0298 -0.1611  0.1401
  324MPD2     H 4869   4.131   2.067  13.886  0.8708  0.1677 -0.0823
  324MPD2    H1 4870   3.885   1.852  13.596 -1.0331  0.3550  0.0933
  324MPD2    H2 4871   4.254   1.709  13.707 -0.0575  0.8315  0.6425
  324MPD2    H3 4872   4.061   1.687  13.585  1.6854 -1.3302  1.9639
  324MPD2     N 4873   3.896   2.088  13.726  0.1183  0.5719 -0.1391
  324MPD2    H5 4874   3.812   2.082  13.670  0.3839 -0.9879 -0.3502
  324MPD2    N1 4875   4.312   1.903  13.886  0.0393 -0.2939 -0.9129
  324MPD2    H7 4876   4.307   1.975  13.957 -0.9009 -0.3611 -0.9062
  325TMC3    C1 4877   3.800   2.293  13.776  0.5128  0.8245 -0.2492
  325TMC3    C2 4878   3.700   2.268  13.689 -0.4379 -0.5717  0.9171
  325TMC3    C3 4879   3.578   2.327  13.695 -0.3057  0.8242  0.8929
  325TMC3    C4 4880   3.766   2.375  13.882  0.2287  1.1254 -0.1795
  325TMC3    C5 4881   3.645   2.439  13.881 -0.7767  0.1332  0.3598
  325TMC3    C6 4882   3.542   2.415  13.792  0.8952  0.5590  0.2788
  325TMC3     C 4883   3.904   2.197  13.806  0.0183  0.0003 -0.8201
  325TMC3     O 4884   3.973   2.218  13.902 -0.4650  0.3562  0.0234
  325TMC3     H 4885   3.720   2.201  13.605  1.7289 -0.0745  1.0453
  325TMC3    H1 4886   3.834   2.395  13.963  0.1213 -1.1592  0.4818
  325TMC3    H2 4887   3.448   2.470  13.787  1.3693  1.5001  1.6798
  325TMC3    C7 4888   3.631   2.548  13.971 -0.3802 -0.0405  0.0320
  325TMC3    C8 4889   3.475   2.244  13.631  0.8159 -0.0404 -0.1409
  325TMC3    O1 4890   3.733   2.585  14.023  0.1927 -0.6120  0.0022
  325TMC3    O2 4891   3.501   2.227  13.511  0.1993  0.1971 -0.1311
  326MPD2     C 4892   0.693   3.203  11.169  0.0990 -0.1341  0.6693
  326MPD2    C1 4893   0.756   3.173  11.051  0.0650 -0.6484 -0.1022
  326MPD2    C2 4894   0.860   3.266  11.006 -0.1236  0.2985 -0.6545
  326MPD2    C3 4895   0.898   3.374  11.085 -0.7085  0.3382 -0.0438
  326MPD2    C4 4896   0.820   3.409  11.188  0.1594 -0.1910 -0.6927
  326MPD2    C5 4897   0.729   3.323  11.234 -0.6056 -0.5674 -0.2989
  326MPD2     H 4898   0.904   3.247  10.909  1.8479  2.5546 -0.2020
  326MPD2    H1 4899   0.842   3.493  11.253 -1.5426  1.3023 -2.0502
  326MPD2    H2 4900   0.607   3.149  11.207 -1.6801  2.4428  0.3419
  326MPD2    H3 4901   0.666   3.355  11.316  3.0038  0.5785  2.0361
  326MPD2     N 4902   1.002   3.466  11.055 -0.1807 -0.2043 -0.7862
  326MPD2    H5 4903   1.008   3.556  11.101 -0.4777 -0.5639 -0.0336
  326MPD2    N1 4904   0.726   3.055  10.977 -0.3486 -0.0778  0.4510
  326MPD2    H7 4905   0.791   3.038  10.900 -2.5329  0.9120 -1.5770
  327TMC3    C1 4906   0.589   2.930  10.849 -0.1212 -0.3945  0.1394
  327TMC3    C2 4907   0.494   2.989  10.772 -0.1601  0.1303 -0.4089
  327TMC3    C3 4908   0.509   2.991  10.639  0.4598  0.1089 -0.0384
  327TMC3    C4 4909   0.699   2.879  10.793  0.7711 -0.4591  0.4359
  327TMC3    C5 4910   0.719   2.902  10.657 -0.0540  0.0948  0.1361
  327TMC3    C6 4911   0.622   2.952  10.573  0.0204 -0.1178 -0.5330
  327TMC3     C 4912   0.603   2.991  10.976  0.2861  0.3416  0.2563
  327TMC3     O 4913   0.499   3.007  11.041 -0.1434 -0.0599  0.5090
  327TMC3     H 4914   0.416   3.036  10.829  0.0181  1.1789 -1.0350
  327TMC3    H1 4915   0.754   2.804  10.848 -1.2458 -1.4141  1.1720
  327TMC3    H2 4916   0.628   2.968  10.467 -0.1717  0.5704 -0.4360
  327TMC3    C7 4917   0.861   2.936  10.622 -0.1454  0.1389 -0.3816
  327TMC3    C8 4918   0.441   3.095  10.566 -0.7144 -0.4729  0.1345
  327TMC3    O1 4919   0.878   2.993  10.513 -0.8836 -0.1144 -0.4630
  327TMC3    O2 4920   0.504   3.144  10.470 -0.4889 -0.2757 -0.1824
  328MPD2     C 4921   3.094   2.345  17.139 -0.1581 -0.4055 -0.4810
  328MPD2    C1 4922   2.960   2.342  17.106  0.3504  0.1513  0.7118
  328MPD2    C2 4923   2.884   2.460  17.106 -0.2627  0.5837 -0.5698
  328MPD2    C3 4924   2.941   2.579  17.146  0.1290  0.4454  0.2857
  328MPD2    C4 4925   3.080   2.582  17.168  0.1323  0.1623 -0.5456
  328MPD2    C5 4926   3.148   2.465  17.165  0.4564 -1.1622 -0.2818
  328MPD2     H 4927   2.776   2.459  17.092 -0.2996 -1.8828 -0.0490
  328MPD2    H1 4928   3.132   2.672  17.200 -1.3725  0.8639 -0.0579
  328MPD2    H2 4929   3.159   2.258  17.144 -0.2348 -0.2610  3.2401
  328MPD2    H3 4930   3.245   2.466  17.214 -0.0016  0.9233  0.5603
  328MPD2     N 4931   2.859   2.697  17.157  0.0906 -0.2076  0.7255
  328MPD2    H5 4932   2.767   2.692  17.113 -0.3172 -0.1016  1.5535
  328MPD2    N1 4933   2.891   2.219  17.088  0.0089 -0.2879 -0.4194
  328MPD2    H7 4934   2.948   2.137  17.105 -1.3735 -0.7536  1.8765
  329TMC3    C1 4935   2.703   2.079  17.081 -0.2080 -0.3664  0.0185
  329TMC3    C2 4936   2.569   2.101  17.109  0.2782  0.6888  0.2633
  329TMC3    C3 4937   2.519   2.048  17.228 -0.4988 -0.6276 -0.4897
  329TMC3    C4 4938   2.787   2.011  17.172 -0.1908  0.0182  0.4843
  329TMC3    C5 4939   2.727   1.963  17.286  0.3137 -0.1592  0.0700
  329TMC3    C6 4940   2.595   1.984  17.324  0.0586 -0.1635  0.4076
  329TMC3     C 4941   2.760   2.204  17.041 -0.0684  0.0978  0.4228
  329TMC3     O 4942   2.690   2.284  16.977 -0.1233  0.2602  0.2284
  329TMC3     H 4943   2.507   2.156  17.038 -1.7761  0.1427  1.6125
  329TMC3    H1 4944   2.884   1.977  17.139 -0.3000 -0.0062  0.1933
  329TMC3    H2 4945   2.557   1.955  17.421  2.0441  1.3294  1.6068
  329TMC3    C7 4946   2.808   1.889  17.379  0.6198 -0.1098  0.2692
  329TMC3    C8 4947   2.424   2.144  17.294 -0.7577 -0.9623 -0.4384
  329TMC3    O1 4948   2.927   1.916  17.376  0.0353 -0.0368 -0.6193
  329TMC3    O2 4949   2.432   2.140  17.414 -0.2665  0.0779 -0.2346
  330TMC3    C1 4950   0.541   2.435   9.282  0.4360 -1.1447 -0.0649
  330TMC3    C2 4951   0.435   2.353   9.263 -0.2216  0.0390  0.5657
  330TMC3    C3 4952   0.453   2.221   9.262 -1.0918 -0.0347 -0.4202
  330TMC3    C4 4953   0.658   2.387   9.310 -0.5700  0.5718 -0.5719
  330TMC3    C5 4954   0.670   2.252   9.298  0.1859 -0.0005 -0.4427
  330TMC3    C6 4955   0.573   2.162   9.282  0.1017 -0.1775  0.0432
  330TMC3     C 4956   0.528   2.581   9.271 -0.4869  1.7199 -0.2981
  330TMC3     O 4957   0.628   2.643   9.242  0.3864 -0.5978 -0.2874
  330TMC3     H 4958   0.341   2.406   9.250  1.0903  2.1911 -0.1182
  330TMC3    H1 4959   0.743   2.452   9.329 -1.0681  0.5548  1.6915
  330TMC3    H2 4960   0.572   2.054   9.293 -0.7451  0.0036  1.6908
  330TMC3    C7 4961   0.791   2.193   9.345 -0.0872 -0.3854  0.2391
  330TMC3    C8 4962   0.327   2.145   9.277 -0.1851 -1.1527  0.4858
  330TMC3    O1 4963   0.861   2.247   9.428  0.2689 -0.1682  0.7017
  330TMC3    O2 4964   0.239   2.185   9.204  0.0947  0.6834  0.8832
  331MPD2     C 4965   3.913   1.183  12.190  0.0591  0.0215 -0.3190
  331MPD2    C1 4966   4.019   1.267  12.196  0.5188 -0.0938  0.2207
  331MPD2    C2 4967   4.137   1.233  12.127 -0.1827  0.6037 -0.3872
  331MPD2    C3 4968   4.154   1.107  12.074  0.0008  0.8709  0.4791
  331MPD2    C4 4969   4.056   1.013  12.086 -0.3951 -0.1336  0.1885
  331MPD2    C5 4970   3.932   1.058  12.132  0.4262 -0.3760  0.2175
  331MPD2     H 4971   4.218   1.304  12.117  1.4934 -1.3256 -0.2250
  331MPD2    H1 4972   4.065   0.912  12.049  2.1060 -0.2448  1.0592
  331MPD2    H2 4973   3.814   1.213  12.223  0.4015  1.2268 -0.4196
  331MPD2    H3 4974   3.842   0.999  12.120  1.0458 -1.0168 -1.1818
  331MPD2     N 4975   4.274   1.082  12.009 -1.0373 -0.1576 -0.0554
  331MPD2    H5 4976   4.333   1.163  11.991  0.9030 -1.2562  1.3720
  331MPD2    N1 4977   3.996   1.391  12.251  0.1289  0.2320 -0.0325
  331MPD2    H7 4978   3.912   1.404  12.307  1.7820 -0.6036  2.6504
  332TMC3    C1 4979   4.467   0.979  11.946  0.1226  0.3964 -0.4238
  332TMC3    C2 4980   4.516   1.102  11.903  0.7002 -1.0282  0.2502
  332TMC3    C3 4981   4.648   1.118  11.885  0.2770  0.2827 -0.0202
  332TMC3    C4 4982   4.555   0.878  11.976 -0.0945  1.0187 -0.4227
  332TMC3    C5 4983   4.687   0.919  11.990 -0.4446  0.8760  0.0966
  332TMC3    C6 4984   0.017   1.029  11.929 -1.0556 -0.0456 -0.5443
  332TMC3     C 4985   4.330   0.959  11.982  0.0400  0.1237  0.6468
  332TMC3     O 4986   4.292   0.850  12.012 -0.2397 -0.2546 -0.1515
  332TMC3     H 4987   4.442   1.179  11.883  2.5438  0.4176 -1.0359
  332TMC3    H1 4988   4.521   0.791  12.031 -0.4665  1.1752 -0.4031
  332TMC3    H2 4989   0.124   1.044  11.927 -0.7675 -2.0288 -0.1748
  332TMC3    C7 4990   0.060   0.817  12.040 -0.4857  0.4521 -0.5195
  332TMC3    C8 4991   4.704   1.248  11.882  0.3659 -0.7638 -0.6766
  332TMC3    O1 4992   0.049   0.698  12.015 -0.3960  0.1270  0.5168
  332TMC3    O2 4993   0.085   1.258  11.943 -0.1153 -0.6762 -0.5427
  333MPD2     C 4994   4.260   2.041  10.960 -0.0158  0.1685 -0.0405
  333MPD2    C1 4995   4.317   1.981  10.847 -0.3717  0.3384 -0.1820
  333MPD2    C2 4996   4.353   1.844  10.858  0.5153  0.2097  0.1110
  333MPD2    C3 4997   4.330   1.774  10.966 -0.8078 -0.5064 -0.2184
  333MPD2    C4 4998   4.264   1.831  11.068  0.2465 -0.7159  0.2764
  333MPD2    C5 4999   4.228   1.961  11.068  0.1049  0.3405  0.1415
  333MPD2     H 5000   4.390   1.783  10.777 -1.5598  0.7150 -1.2282
  333MPD2    H1 5001   4.226   1.773  11.151  0.4161  0.5125  1.2084
  333MPD2    H2 5002   4.239   2.147  10.973 -4.4784 -0.7621  0.2421
  333MPD2    H3 5003   4.167   1.993  11.152  0.1838 -1.0891  0.7367
  333MPD2     N 5004   4.369   1.639  10.964  0.4025 -0.0224  0.2463
  333MPD2    H5 5005   4.409   1.603  10.877  1.1317  0.7257  0.2692
  333MPD2    N1 5006   4.337   2.050  10.725  1.4179 -0.2429 -0.3722
  333MPD2    H7 5007   4.319   2.150  10.729  0.1705 -0.5032  0.6724
  334TMC3    C1 5008   4.421   2.106  10.513 -0.0672 -0.5806 -0.3184
  334TMC3    C2 5009   4.429   2.064  10.390  0.3778  0.3493  0.2500
  334TMC3    C3 5010   4.487   2.159  10.302 -0.0902  0.2065  0.6511
  334TMC3    C4 5011   4.457   2.231  10.559 -1.5198 -0.2125  0.1618
  334TMC3    C5 5012   4.513   2.317  10.474 -0.3703  0.4205 -0.3721
  334TMC3    C6 5013   4.530   2.283  10.341 -0.5091  0.3220  0.0788
  334TMC3     C 5014   4.387   2.000  10.609  0.3028 -0.2350 -0.1631
  334TMC3     O 5015   4.388   1.882  10.574 -0.2542 -0.0704  0.0103
  334TMC3     H 5016   4.403   1.961  10.364  0.3154  0.8084 -1.5394
  334TMC3    H1 5017   4.458   2.257  10.664 -0.7719  0.7751 -0.0853
  334TMC3    H2 5018   4.581   2.345  10.268 -1.3004  0.2633 -0.5267
  334TMC3    C7 5019   4.572   2.435  10.524  0.6529 -0.8832  0.5047
  334TMC3    C8 5020   4.557   2.092  10.191  0.4397  0.0820 -0.0878
  334TMC3    O1 5021   4.587   2.437  10.644  0.0551  0.2385 -0.9374
  334TMC3    O2 5022   4.490   2.020  10.114  0.1027  0.0300 -0.0911
  335TMC3    C1 5023   3.587   2.849  17.460  0.0011 -0.3856 -0.5466
  335TMC3    C2 5024   3.543   2.801  17.341 -0.7392 -0.1713 -0.4052
  335TMC3    C3 5025   3.612   2.840  17.226  0.0977 -0.3197 -0.3022
  335TMC3    C4 5026   3.699   2.925  17.474  0.0712  0.0522  0.1495
  335TMC3    C5 5027   3.765   2.962  17.360  0.2164  0.1201 -0.6919
  335TMC3    C6 5028   3.726   2.906  17.234  0.0442 -1.3165 -0.2053
  335TMC3     C 5029   3.518   2.793  17.574  0.3878 -0.0017  0.3134
  335TMC3     O 5030   3.418   2.725  17.558  0.1857 -0.3645  0.2586
  335TMC3     H 5031   3.442   2.761  17.339 -1.2600  1.1066  0.3727
  335TMC3    H1 5032   3.745   2.943  17.571  1.1088  0.9398 -0.4962
  335TMC3    H2 5033   3.783   2.932  17.145 -1.4982 -0.5837 -0.9636
  335TMC3    C7 5034   3.879   3.046  17.363  0.3904 -0.6363 -0.1305
  335TMC3    C8 5035   3.575   2.774  17.100  0.5800  0.2942 -0.2943
  335TMC3    O1 5036   3.953   3.042  17.268 -0.5258  0.0913  0.1391
  335TMC3    O2 5037   3.594   2.829  16.992  0.8637 -0.4221 -0.0097
  336MPD2     C 5038   3.045   0.971  16.204  0.1700  0.0640 -0.0022
  336MPD2    C1 5039   3.087   0.889  16.101 -0.4060  0.3732 -0.4313
  336MPD2    C2 5040   3.155   0.771  16.126 -0.1098  0.4054  0.8197
  336MPD2    C3 5041   3.184   0.741  16.256  0.4410 -0.4377 -0.0371
  336MPD2    C4 5042   3.146   0.829  16.356 -0.0761  0.2094  0.3102
  336MPD2    C5 5043   3.080   0.939  16.334 -0.4944 -0.2882  0.3487
  336MPD2     H 5044   3.179   0.710  16.040  1.3869  2.8586 -0.5122
  336MPD2    H1 5045   3.176   0.810  16.458 -1.9502 -1.2783  0.5724
  336MPD2    H2 5046   2.996   1.064  16.178  0.1721  0.5287  1.6796
  336MPD2    H3 5047   3.056   1.012  16.410  0.6713  3.6219 -3.0212
  336MPD2     N 5048   3.251   0.624  16.300  0.3992 -0.2960  0.1512
  336MPD2    H5 5049   3.272   0.621  16.400  0.4084  3.5346  0.2586
  336MPD2    N1 5050   3.075   0.923  15.969 -0.2727 -0.1479  0.1758
  336MPD2    H7 5051   3.130   0.869  15.903  1.6615 -0.8354  2.3525
  337TMC3    C1 5052   2.970   1.000  15.772  0.3654 -0.2021  0.4587
  337TMC3    C2 5053   2.844   1.006  15.723  0.0726  0.2791 -0.5608
  337TMC3    C3 5054   2.823   1.022  15.588 -0.0756 -0.0342  0.1048
  337TMC3    C4 5055   3.077   1.037  15.694  0.0071 -0.3040 -0.7545
  337TMC3    C5 5056   3.048   1.074  15.566  0.0760  0.0309 -0.5475
  337TMC3    C6 5057   2.924   1.061  15.506 -0.4843 -0.3479  0.1891
  337TMC3     C 5058   2.981   1.007  15.916 -0.1759  0.2083  0.1897
  337TMC3     O 5059   2.891   1.067  15.972  0.7108  0.1618 -0.2265
  337TMC3     H 5060   2.760   0.971  15.782  1.8459 -0.3868  1.5686
  337TMC3    H1 5061   3.173   1.051  15.741 -0.1838  1.8264 -1.0065
  337TMC3    H2 5062   2.912   1.098  15.404 -2.7895  3.0293  1.6970
  337TMC3    C7 5063   3.146   1.150  15.489 -0.0028  0.0548  0.5330
  337TMC3    C8 5064   2.682   1.013  15.545  0.4362  0.4604 -0.3285
  337TMC3    O1 5065   3.107   1.206  15.389  0.3551 -0.1845  0.2785
  337TMC3    O2 5066   2.596   1.011  15.634 -0.5064 -0.6648 -0.2756
  338MPD2     C 5067   3.383   0.060   1.041  0.0231  0.0028  0.1184
  338MPD2    C1 5068   3.297   0.122   0.955  0.7372  0.1849 -0.3654
  338MPD2    C2 5069   3.183   0.181   1.014  0.7082  0.6166  0.0884
  338MPD2    C3 5070   3.167   0.186   1.150 -0.1521 -0.7422  0.2869
  338MPD2    C4 5071   3.255   0.118   1.232  0.1645  0.8775  0.0575
  338MPD2    C5 5072   3.360   0.057   1.178  0.2188  0.4799 -0.4503
  338MPD2     H 5073   3.098   0.216   0.956  0.9092 -1.2521 -1.3639
  338MPD2    H1 5074   3.245   0.106   1.339 -2.1250 -1.7451 -0.4647
  338MPD2    H2 5075   3.457   4.708   1.016  0.5990  0.6809 -0.2338
  338MPD2    H3 5076   3.423   4.718   1.240  1.4100  2.0145 -0.0859
  338MPD2     N 5077   3.049   0.251   1.198 -0.3348  0.0804  0.3393
  338MPD2    H5 5078   2.994   0.314   1.140 -1.1714  0.2667  1.3238
  338MPD2    N1 5079   3.311   0.112   0.814  0.3936 -0.1050 -0.1339
  338MPD2    H7 5080   3.225   0.124   0.760 -0.4665 -0.0734  1.2364
  339TMC3    C1 5081   2.861   0.301   1.341 -0.0839 -0.3439  0.5319
  339TMC3    C2 5082   2.824   0.316   1.472 -0.0876 -0.2425 -0.5941
  339TMC3    C3 5083   2.739   0.409   1.515 -0.5263 -0.3526 -0.0965
  339TMC3    C4 5084   2.819   0.395   1.255  0.2455 -0.0331 -0.2419
  339TMC3    C5 5085   2.735   0.491   1.301  1.1093  0.2667  0.2451
  339TMC3    C6 5086   2.691   0.502   1.427 -0.9670 -0.3399 -0.0600
  339TMC3     C 5087   2.990   0.227   1.323 -0.3875  0.3826 -0.2225
  339TMC3     O 5088   3.024   0.149   1.411  0.0109  0.0873 -0.4477
  339TMC3     H 5089   2.859   0.250   1.550 -0.3651  0.3991  0.0688
  339TMC3    H1 5090   2.862   0.402   1.156  0.3917 -3.3763 -0.4135
  339TMC3    H2 5091   2.621   0.575   1.467 -0.7266 -0.1849  0.0719
  339TMC3    C7 5092   2.702   0.595   1.206  0.2433 -0.7219 -0.2367
  339TMC3    C8 5093   2.742   0.458   1.654  0.0614 -0.6841 -0.2124
  339TMC3    O1 5094   2.770   0.602   1.106 -0.0241  0.4965 -0.0102
  339TMC3    O2 5095   2.741   0.578   1.681  0.1248 -0.4915 -0.0238
  340MPD2     C 5096   3.417   2.148  10.520 -0.6144 -0.5579 -0.7006
  340MPD2    C1 5097   3.447   2.255  10.442 -0.2730  0.3142  0.0758
  340MPD2    C2 5098   3.545   2.341  10.477  0.3985  0.3695 -0.2140
  340MPD2    C3 5099   3.611   2.333  10.596 -0.4903  0.3172 -0.9163
  340MPD2    C4 5100   3.579   2.225  10.674  0.3594 -0.7619 -0.7516
  340MPD2    C5 5101   3.490   2.129  10.632  0.5858  0.3047  0.0232
  340MPD2     H 5102   3.581   2.423  10.415  2.3151 -0.2441  0.0967
  340MPD2    H1 5103   3.632   2.208  10.767  0.6710  0.4431 -0.7120
  340MPD2    H2 5104   3.340   2.077  10.495 -2.6857  0.9948  1.2852
  340MPD2    H3 5105   3.475   2.048  10.702  1.1722 -2.4573 -3.0898
  340MPD2     N 5106   3.709   2.430  10.627  0.2535  0.2236 -0.1903
  340MPD2    H5 5107   3.775   2.407  10.701  0.3164  0.4861 -0.1675
  340MPD2    N1 5108   3.387   2.265  10.311 -0.8698 -0.0810  0.2116
  340MPD2    H7 5109   3.301   2.212  10.310 -0.6295 -0.4644 -0.7178
  341TMC3    C1 5110   3.330   2.354  10.096  0.9197 -0.0191  0.2421
  341TMC3    C2 5111   3.277   2.240  10.050  0.2664 -0.5760 -0.5310
  341TMC3    C3 5112   3.190   2.255   9.943  1.0307 -0.3774  0.0227
  341TMC3    C4 5113   3.341   2.465  10.020 -0.1446  0.4627 -0.6179
  341TMC3    C5 5114   3.282   2.468   9.897 -0.5901  0.0109  0.3854
  341TMC3    C6 5115   3.199   2.364   9.867  0.1889  0.3305 -0.4075
  341TMC3     C 5116   3.431   2.342  10.204 -0.0928 -0.0259  0.0972
  341TMC3     O 5117   3.537   2.401  10.184  0.6536 -0.0179  0.2397
  341TMC3     H 5118   3.274   2.147  10.105 -0.6035 -1.2877 -1.7794
  341TMC3    H1 5119   3.405   2.546  10.054 -1.2117  0.8124  0.6097
  341TMC3    H2 5120   3.153   2.366   9.769  1.9235 -0.9779 -1.2571
  341TMC3    C7 5121   3.289   2.591   9.819  1.1659 -0.4861 -0.1728
  341TMC3    C8 5122   3.116   2.141   9.905 -0.1742  0.2664 -0.8453
  341TMC3    O1 5123   3.359   2.677   9.873 -0.1241 -0.8782 -0.0432
  341TMC3    O2 5124   3.127   2.042   9.970  0.4052  0.3487  0.0415
  342MPD2     C 5125   1.244   0.787  17.503  0.5275  0.8807  0.1483
  342MPD2    C1 5126   1.372   0.770  17.561 -0.6606  0.0797  0.9305
  342MPD2    C2 5127   1.423   0.878  17.630 -0.6010 -0.2712  0.3102
  342MPD2    C3 5128   1.357   0.995  17.633  0.1907  0.0200 -0.1365
  342MPD2    C4 5129   1.233   1.018  17.574 -0.2850 -0.3254  0.0296
  342MPD2    C5 5130   1.181   0.913  17.506 -0.2595 -0.0523 -0.7274
  342MPD2     H 5131   1.509   0.858  17.692  1.0517  0.2345 -1.8030
  342MPD2    H1 5132   1.173   1.105  17.593  2.4876  1.7566 -0.7198
  342MPD2    H2 5133   1.195   0.703  17.455  0.7828  0.2162  1.0356
  342MPD2    H3 5134   1.082   0.923  17.463 -0.6039  0.8887  0.2747
  342MPD2     N 5135   1.409   1.102   0.016 -0.3687 -0.1313 -0.0691
  342MPD2    H5 5136   1.354   1.185   0.038  2.8294  1.3386  2.3718
  342MPD2    N1 5137   1.446   0.648  17.568 -0.3379  0.1735  0.0239
  342MPD2    H7 5138   1.537   0.661  17.611 -0.7532  3.1423 -0.0096
  343TMC3    C1 5139   1.511   0.421  17.525 -0.4090 -0.2870  0.4736
  343TMC3    C2 5140   1.629   0.427  17.593  0.4074  0.4416 -0.4154
  343TMC3    C3 5141   1.717   0.323  17.588  0.1920  0.6930  0.1228
  343TMC3    C4 5142   1.475   0.312  17.455  0.2887  0.4599 -0.0790
  343TMC3    C5 5143   1.561   0.204  17.463 -0.2698  0.8976  0.0618
  343TMC3    C6 5144   1.683   0.214  17.516 -0.1963 -0.9770  0.2976
  343TMC3     C 5145   1.421   0.535  17.496  0.7613  0.0582 -0.3938
  343TMC3     O 5146   1.321   0.512  17.424  0.2931 -0.1255  0.0802
  343TMC3     H 5147   1.651   0.517  17.650  1.8280  0.9396 -1.7583
  343TMC3    H1 5148   1.390   0.296  17.389 -0.1998 -1.5346  1.0482
  343TMC3    H2 5149   1.744   0.125  17.529  1.0396 -0.0654  0.7602
  343TMC3    C7 5150   1.505   0.075  17.480 -0.1270  0.0601 -0.6952
  343TMC3    C8 5151   1.846   0.340  17.649  0.1675 -0.6884 -0.2412
  343TMC3    O1 5152   1.403   0.061  17.414  0.4691  0.0637 -0.1847
  343TMC3    O2 5153   1.869   0.421   0.042 -0.0378 -0.2223  0.3447
  344MPD2     C 5154   2.656   1.057  10.898  0.3384 -0.4651  0.0186
  344MPD2    C1 5155   2.593   1.041  10.771  0.1428 -0.6325 -0.0963
  344MPD2    C2 5156   2.597   1.144  10.673 -0.0627  0.2738  0.1403
  344MPD2    C3 5157   2.685   1.244  10.696 -0.0132 -0.3456  0.0081
  344MPD2    C4 5158   2.765   1.241  10.808 -0.5335 -0.3938 -0.3279
  344MPD2    C5 5159   2.743   1.161  10.912 -0.0922 -0.0602 -0.0056
  344MPD2     H 5160   2.541   1.138  10.581 -0.9067 -1.5526  0.7573
  344MPD2    H1 5161   2.841   1.316  10.828  0.4889 -1.4601 -0.2039
  344MPD2    H2 5162   2.631   0.995  10.983 -2.2889  1.8753  0.9585
  344MPD2    H3 5163   2.795   1.182  11.004  1.3756  0.4426 -0.9522
  344MPD2     N 5164   2.714   1.348  10.601 -0.0640 -1.1512  0.0010
  344MPD2    H5 5165   2.807   1.389  10.610  0.1139 -1.4417 -0.4989
  344MPD2    N1 5166   2.519   0.927  10.737  0.2180 -0.1726 -0.1710
  344MPD2    H7 5167   2.458   0.931  10.655 -1.2532 -0.1402  0.9211
  345TMC3    C1 5168   2.722   1.442  10.395  0.3602  0.1430 -0.6281
  345TMC3    C2 5169   2.860   1.452  10.416  0.3548 -0.7335  0.4002
  345TMC3    C3 5170   2.938   1.521  10.332  0.6466 -0.5594 -0.9508
  345TMC3    C4 5171   2.665   1.504  10.289 -0.1367  0.7848  0.6180
  345TMC3    C5 5172   2.749   1.583  10.204 -0.2178 -0.9224 -0.2857
  345TMC3    C6 5173   2.885   1.589  10.227  0.2285 -0.5243  0.3178
  345TMC3     C 5174   2.640   1.380  10.492 -0.2089 -0.3983 -0.0545
  345TMC3     O 5175   2.524   1.354  10.469  0.4407  0.4921  0.5125
  345TMC3     H 5176   2.910   1.404  10.499  1.7693  1.9630  1.1138
  345TMC3    H1 5177   2.559   1.514  10.267 -0.1833 -0.3605  0.3640
  345TMC3    H2 5178   2.947   1.646  10.159 -2.6716 -0.7975 -2.5479
  345TMC3    C7 5179   2.695   1.696  10.126 -0.0928  0.6751  0.0242
  345TMC3    C8 5180   3.071   1.549  10.379 -0.4411 -0.4283  0.1083
  345TMC3    O1 5181   2.777   1.783  10.095  0.4676 -0.6033 -0.4102
  345TMC3    O2 5182   3.106   1.494  10.484  0.3255 -0.4306 -0.3073
  346MPD2     C 5183   2.443   2.273  13.958  1.0286 -0.2338  0.6278
  346MPD2    C1 5184   2.532   2.374  13.912  0.2784 -1.1364  0.3861
  346MPD2    C2 5185   2.564   2.480  13.988 -0.0898  0.0779 -0.2650
  346MPD2    C3 5186   2.513   2.481  14.120 -0.1333  0.0685 -0.8688
  346MPD2    C4 5187   2.417   2.386  14.160 -0.4616  0.3205 -0.0915
  346MPD2    C5 5188   2.378   2.291  14.074 -0.0656 -0.1716 -0.2678
  346MPD2     H 5189   2.627   2.563  13.957 -0.3368  1.4853  2.9687
  346MPD2    H1 5190   2.371   2.385  14.258  1.7937  0.6310  0.9893
  346MPD2    H2 5191   2.417   2.188  13.897 -0.1557  1.9130 -1.8401
  346MPD2    H3 5192   2.311   2.211  14.105  0.4301 -0.4463  0.0963
  346MPD2     N 5193   2.572   2.571  14.204 -0.3987 -0.1928  0.3601
  346MPD2    H5 5194   2.634   2.643  14.166  0.6195 -0.9076  0.6847
  346MPD2    N1 5195   2.605   2.360  13.794  0.6748  0.0899  0.5056
  346MPD2    H7 5196   2.666   2.441  13.785  0.1251  0.5860  1.2534
  347TMC3    C1 5197   2.707   2.621  14.380 -0.3812  1.1491  0.0797
  347TMC3    C2 5198   2.817   2.622  14.299  0.5416  0.3401  0.1106
  347TMC3    C3 5199   2.941   2.635  14.362  0.9982  0.3684 -0.5995
  347TMC3    C4 5200   2.719   2.614  14.516  0.1572 -0.4096  0.7750
  347TMC3    C5 5201   2.842   2.645  14.571  0.6479 -0.6445  0.0856
  347TMC3    C6 5202   2.961   2.653  14.498  0.4261  0.2941 -0.2949
  347TMC3     C 5203   2.588   2.554  14.335 -0.5739  0.7444  0.5001
  347TMC3     O 5204   2.522   2.483  14.412 -0.4566 -0.1532  0.4075
  347TMC3     H 5205   2.813   2.617  14.191 -0.9209 -0.5326  0.1934
  347TMC3    H1 5206   2.631   2.600  14.579  1.1507  0.1909  2.2854
  347TMC3    H2 5207   3.059   2.659  14.544  0.5015 -1.4888 -0.2158
  347TMC3    C7 5208   2.844   2.685  14.714 -0.3538 -0.2740 -0.0001
  347TMC3    C8 5209   3.050   2.665  14.268  0.3714 -0.2210 -0.2422
  347TMC3    O1 5210   2.754   2.650  14.785  0.3306 -0.2911  0.3717
  347TMC3    O2 5211   3.043   2.605  14.162  0.2531 -0.3208 -0.6293
  348MPD2     C 5212   1.969   2.085  11.937  0.3395  0.6861  0.5127
  348MPD2    C1 5213   1.966   1.987  11.838 -0.4289 -0.3544 -0.2762
  348MPD2    C2 5214   1.938   2.027  11.708  0.0338  0.0469  0.2380
  348MPD2    C3 5215   1.944   2.165  11.677 -0.6264  0.4392 -0.0126
  348MPD2    C4 5216   1.952   2.261  11.779  0.4090 -0.2169 -0.4624
  348MPD2    C5 5217   1.964   2.218  11.911 -1.1951 -0.1260 -0.3058
  348MPD2     H 5218   1.926   1.953  11.629 -1.3600 -1.1326  1.5631
  348MPD2    H1 5219   1.948   2.369  11.775 -0.9058 -0.2319  0.1852
  348MPD2    H2 5220   1.981   2.051  12.040  2.2325  1.2896  0.4999
  348MPD2    H3 5221   1.968   2.287  11.995 -0.0105  0.7629 -1.0969
  348MPD2     N 5222   1.928   2.215  11.547  0.3785  0.0985 -0.5296
  348MPD2    H5 5223   1.941   2.316  11.546  0.0395  0.1427 -0.1779
  348MPD2    N1 5224   1.986   1.853  11.872 -0.1486  0.2674 -0.2554
  348MPD2    H7 5225   1.982   1.778  11.804 -1.3030 -0.2748  0.4109
  349TMC3    C1 5226   2.004   1.650  11.996 -0.1049 -0.3923  0.3363
  349TMC3    C2 5227   1.942   1.566  12.084 -0.2388  0.3732  0.0519
  349TMC3    C3 5228   1.986   1.439  12.077 -0.5685  0.7153 -0.7442
  349TMC3    C4 5229   2.081   1.603  11.897 -0.3427  0.7531 -0.4762
  349TMC3    C5 5230   2.104   1.468  11.883  0.0037  0.9741  0.5114
  349TMC3    C6 5231   2.063   1.386  11.981 -0.0527  0.8736 -0.4107
  349TMC3     C 5232   1.979   1.796  11.994 -0.0084  0.3963  0.3854
  349TMC3     O 5233   1.954   1.843  12.103 -0.0488  0.2436 -0.2996
  349TMC3     H 5234   1.883   1.604  12.167 -0.4036  2.9772 -1.2380
  349TMC3    H1 5235   2.139   1.673  11.838  1.3244 -0.4223 -0.2446
  349TMC3    H2 5236   2.094   1.282  11.986 -1.0629  0.5410 -1.0977
  349TMC3    C7 5237   2.205   1.409  11.792  0.1019  0.7485 -0.3449
  349TMC3    C8 5238   1.911   1.341  12.161  0.6479 -0.3357 -0.0598
  349TMC3    O1 5239   2.291   1.333  11.837 -0.2900 -0.6904  0.4714
  349TMC3    O2 5240   1.952   1.231  12.168 -0.0817 -0.1839 -0.4217
  350MPD2     C 5241   0.123   0.043  10.398 -0.0390  0.3592 -0.2770
  350MPD2    C1 5242   0.248   4.722  10.356 -0.0037  0.5584 -0.3757
  350MPD2    C2 5243   0.339   0.092  10.316 -0.3829 -0.4370 -0.1478
  350MPD2    C3 5244   0.312   0.224  10.332 -0.2866 -0.2203 -0.5941
  350MPD2    C4 5245   0.193   0.267  10.387  0.6883 -0.1034  0.4816
  350MPD2    C5 5246   0.100   0.179  10.421 -0.0962  0.4991  1.1929
  350MPD2     H 5247   0.438   0.058  10.289  0.1125  0.5451  0.4106
  350MPD2    H1 5248   0.179   0.366  10.428  0.1913 -0.3861  0.9827
  350MPD2    H2 5249   0.043   4.697  10.421  1.5223 -1.6261 -0.8923
  350MPD2    H3 5250   0.007   0.209  10.467 -0.9318 -0.3405  0.0413
  350MPD2     N 5251   0.414   0.319  10.307  0.0756 -0.2397 -0.6047
  350MPD2    H5 5252   0.507   0.281  10.294  0.1044 -0.4990  0.3756
  350MPD2    N1 5253   0.292   4.587  10.353 -0.7760  0.1362  0.3675
  350MPD2    H7 5254   0.380   4.565  10.306 -1.4449 -2.6777  0.4535
  351TMC3    C1 5255   0.253   4.348  10.369  0.0891  0.4503 -0.6414
  351TMC3    C2 5256   0.384   4.330  10.343  0.1830  0.4187 -0.1209
  351TMC3    C3 5257   0.431   4.203  10.351  0.2403  0.4050 -0.9900
  351TMC3    C4 5258   0.170   4.238  10.411 -0.3199 -0.6915  0.0289
  351TMC3    C5 5259   0.223   4.112  10.396  0.3280  0.4411  0.3196
  351TMC3    C6 5260   0.349   4.094  10.365  0.0870 -0.1506 -0.4719
  351TMC3     C 5261   0.207   4.483  10.392  0.3701  0.9986 -0.3101
  351TMC3     O 5262   0.103   4.484  10.453  0.4337  0.2719  0.5326
  351TMC3     H 5263   0.454   4.409  10.322  2.4093 -0.8667  2.5000
  351TMC3    H1 5264   0.065   4.262  10.418 -0.3096 -0.2260 -1.4363
  351TMC3    H2 5265   0.401   4.001  10.380  0.4227 -0.0459 -1.0043
  351TMC3    C7 5266   0.151   3.994  10.438  0.7001 -0.3038  0.9681
  351TMC3    C8 5267   0.572   4.174  10.325  0.0693 -0.5454 -0.5484
  351TMC3    O1 5268   0.208   3.887  10.454 -0.0746 -0.0892 -0.1575
  351TMC3    O2 5269   0.604   4.092  10.243  0.5178 -0.1069 -0.0114
  352MPD2     C 5270   3.783   1.944   1.630  0.3178 -0.8049 -0.0857
  352MPD2    C1 5271   3.690   1.864   1.563 -0.2534 -0.0147 -0.4330
  352MPD2    C2 5272   3.649   1.747   1.619 -0.1040 -0.1758 -0.0448
  352MPD2    C3 5273   3.689   1.704   1.746 -1.3082  0.3877  0.1889
  352MPD2    C4 5274   3.788   1.781   1.804  0.3018  0.2652  0.4024
  352MPD2    C5 5275   3.827   1.904   1.752  0.7372  0.7436 -0.1095
  352MPD2     H 5276   3.568   1.693   1.573 -0.8009  0.4319  0.4726
  352MPD2    H1 5277   3.831   1.756   1.901  0.1939  0.3920  0.4832
  352MPD2    H2 5278   3.805   2.039   1.582 -1.0511  0.6684  2.1420
  352MPD2    H3 5279   3.898   1.965   1.806 -0.2828  0.8245  1.1623
  352MPD2     N 5280   3.650   1.572   1.809  0.1111  0.0886 -0.4054
  352MPD2    H5 5281   3.704   1.542   1.890  0.2509  1.5531  0.0352
  352MPD2    N1 5282   3.645   1.905   1.434 -0.0011  0.3678  0.2707
  352MPD2    H7 5283   3.658   2.000   1.403 -0.5625 -0.1390 -1.5036
  353TMC3    C1 5284   3.534   1.353   1.814 -0.5943  0.0964 -0.8738
  353TMC3    C2 5285   3.649   1.286   1.859  0.5488 -0.4546 -0.0160
  353TMC3    C3 5286   3.662   1.150   1.850  0.1710 -0.5356  0.0042
  353TMC3    C4 5287   3.429   1.270   1.765  0.3974  0.5214 -0.1281
  353TMC3    C5 5288   3.440   1.135   1.776 -0.1019 -0.3333  0.1465
  353TMC3    C6 5289   3.553   1.072   1.819  0.0144 -0.4885  0.6106
  353TMC3     C 5290   3.545   1.489   1.758 -0.7575  0.0426  0.0205
  353TMC3     O 5291   3.464   1.509   1.669  0.1031  0.5522 -0.1931
  353TMC3     H 5292   3.739   1.339   1.887  0.9447 -0.5886 -1.0506
  353TMC3    H1 5293   3.345   1.315   1.714 -0.8657 -1.5290  0.1669
  353TMC3    H2 5294   3.557   0.967   1.845 -1.0187 -1.1465 -1.9405
  353TMC3    C7 5295   3.344   1.059   1.692 -0.5570  0.4510  0.0772
  353TMC3    C8 5296   3.786   1.084   1.877  0.2199 -0.3954  0.5882
  353TMC3    O1 5297   3.328   1.103   1.581 -0.4207  0.3914  0.4419
  353TMC3    O2 5298   3.868   1.156   1.929 -0.5098  0.1720 -0.0662
  354TMC3    C1 5299   0.921   2.901  13.637 -0.0348  1.0824  1.1076
  354TMC3    C2 5300   1.039   2.968  13.672 -0.2764  0.8336  0.5665
  354TMC3    C3 5301   1.126   2.978  13.564 -0.1030 -0.8498  0.3484
  354TMC3    C4 5302   0.885   2.871  13.512  0.1748 -0.2871  0.2587
  354TMC3    C5 5303   0.976   2.866  13.412  0.2885 -0.2091  0.1952
  354TMC3    C6 5304   1.106   2.917  13.435 -0.1935  0.0841 -0.1969
  354TMC3     C 5305   0.841   2.854  13.751  0.0867  0.3471  0.2845
  354TMC3     O 5306   0.731   2.818  13.720 -0.5943  0.1590 -0.4943
  354TMC3     H 5307   1.066   3.005  13.770 -0.0708  2.1718  0.0173
  354TMC3    H1 5308   0.798   2.810  13.490  1.1113 -0.5855 -2.5815
  354TMC3    H2 5309   1.187   2.924  13.364  0.7268 -2.1601  0.6184
  354TMC3    C7 5310   0.928   2.890  13.283  0.0691 -0.0473 -0.6719
  354TMC3    C8 5311   1.201   3.099  13.550 -0.7347 -0.0018  0.1111
  354TMC3    O1 5312   0.809   2.895  13.267 -0.0820 -0.1901  0.7101
  354TMC3    O2 5313   1.302   3.111  13.616 -0.6891 -0.1983  0.1331
  355MPD2     C 5314   1.138   3.981  12.133  0.3048  0.6792 -0.3364
  355MPD2    C1 5315   1.129   4.056  12.012  0.6592 -0.4299 -0.2468
  355MPD2    C2 5316   1.233   4.143  11.979  0.0396  0.3976 -0.8278
  355MPD2    C3 5317   1.319   4.188  12.075  0.3294  0.0443  0.4287
  355MPD2    C4 5318   1.329   4.118  12.188 -0.1832  0.2946  0.9650
  355MPD2    C5 5319   1.245   4.011  12.212  0.5820 -0.1903 -0.7097
  355MPD2     H 5320   1.239   4.194  11.883  1.4353  0.5142 -0.6732
  355MPD2    H1 5321   1.401   4.137  12.266 -0.3175  0.9828  0.9223
  355MPD2    H2 5322   1.062   3.912  12.166  3.2915 -1.7531  1.5221
  355MPD2    H3 5323   1.246   3.954  12.304  1.1022 -0.0301 -0.6115
  355MPD2     N 5324   1.413   4.287  12.060 -0.0775  0.1767  0.3272
  355MPD2    H5 5325   1.459   4.318  12.145 -0.8480  0.8338  0.5050
  355MPD2    N1 5326   1.027   4.019  11.922  0.2374 -1.0848 -0.5698
  355MPD2    H7 5327   0.967   3.940  11.945 -2.4343  0.6779 -1.5147
  356TMC3    C1 5328   1.548   4.453  11.985 -0.3395  0.5757 -0.1818
  356TMC3    C2 5329   1.596   4.528  11.880  1.0577  0.2251 -0.3288
  356TMC3    C3 5330   1.701   4.611  11.907 -0.6461  0.0269 -0.5707
  356TMC3    C4 5331   1.589   4.469  12.119  0.0123  0.0079 -0.2738
  356TMC3    C5 5332   1.688   4.557  12.136  0.2434 -0.0579  0.2721
  356TMC3    C6 5333   1.751   4.619  12.037  0.1362  0.0680 -0.3665
  356TMC3     C 5334   1.432   4.360  11.954 -0.3112  0.2354 -0.3762
  356TMC3     O 5335   1.377   4.370  11.847 -0.6470  0.1416  0.2055
  356TMC3     H 5336   1.548   4.531  11.783  0.2122 -0.6123  0.0657
  356TMC3    H1 5337   1.559   4.406  12.202  2.3670  0.4444  0.9005
  356TMC3    H2 5338   1.851   4.661  12.048 -0.3750  1.6885 -1.9550
  356TMC3    C7 5339   1.729   4.579  12.274 -0.0190 -0.5642 -0.0537
  356TMC3    C8 5340   1.744   4.699  11.796 -0.0327 -0.2936  0.1137
  356TMC3    O1 5341   1.655   4.536  12.356 -0.1063  0.1739  0.3003
  356TMC3    O2 5342   1.713   4.659  11.681 -0.5042 -0.1199 -0.1065
  357MPD2     C 5343   4.684   3.494   1.302 -0.3409  0.0249 -0.5750
  357MPD2    C1 5344   0.032   3.533   1.408 -0.0250 -0.4612 -0.4157
  357MPD2    C2 5345   4.705   3.611   1.509  0.6181 -0.0872  0.7289
  357MPD2    C3 5346   4.571   3.638   1.505  0.8159  0.5422 -0.8733
  357MPD2    C4 5347   4.495   3.601   1.394  0.5760  0.1177 -0.5365
  357MPD2    C5 5348   4.553   3.537   1.294 -0.5336  0.2033 -0.0128
  357MPD2     H 5349   0.048   3.640   1.590 -0.5376  0.0480  1.6216
  357MPD2    H1 5350   4.394   3.640   1.386  0.8865  1.0440  0.0308
  357MPD2    H2 5351   4.723   3.437   1.218  0.6144 -1.8063  1.1090
  357MPD2    H3 5352   4.495   3.507   1.207 -2.5821 -0.2411  1.5083
  357MPD2     N 5353   4.504   3.694   1.614 -0.6294  0.1626  0.0121
  357MPD2    H5 5354   4.410   3.730   1.601 -0.4305  0.5554 -0.3530
  357MPD2    N1 5355   0.168   3.489   1.400  0.3552  0.1250 -0.8211
  357MPD2    H7 5356   0.197   3.466   1.305  0.0506  3.1022 -1.6419
  358TMC3    C1 5357   0.395   3.496   1.447 -0.0427 -0.1586  0.0614
  358TMC3    C2 5358   0.417   3.452   1.323  0.1682 -0.3183  0.4726
  358TMC3    C3 5359   0.538   3.471   1.269 -0.1503  0.1517  0.3963
  358TMC3    C4 5360   0.481   3.582   1.511 -0.0494 -0.4364 -0.6428
  358TMC3    C5 5361   0.596   3.615   1.441  0.5376 -0.8846  0.1655
  358TMC3    C6 5362   0.628   3.561   1.324 -0.5424  0.1838  0.1496
  358TMC3     C 5363   0.259   3.496   1.498 -0.8366  0.3522 -0.2799
  358TMC3     O 5364   0.238   3.536   1.611 -0.4846  0.6174 -0.0644
  358TMC3     H 5365   0.348   3.379   1.282  0.3223  0.3261 -0.9210
  358TMC3    H1 5366   0.474   3.618   1.613  0.8065 -0.3046 -0.6331
  358TMC3    H2 5367   0.732   3.554   1.293 -0.7574 -0.6785 -0.3868
  358TMC3    C7 5368   0.682   3.719   1.486  0.2598  0.3156 -0.4829
  358TMC3    C8 5369   0.576   3.395   1.145  0.4343 -0.6114 -0.6337
  358TMC3    O1 5370   0.690   3.729   1.605  0.2308 -0.2914  0.5591
  358TMC3    O2 5371   0.677   3.431   1.086  0.2361  1.0283 -0.1345
  359MPD2     C 5372   1.135   3.035  12.481  0.3767 -0.4297  0.3024
  359MPD2    C1 5373   1.214   2.925  12.495 -0.3611 -0.9708 -0.7275
  359MPD2    C2 5374   1.159   2.815  12.556 -0.3038  0.0930 -0.2297
  359MPD2    C3 5375   1.032   2.819  12.613  0.3097  0.2028  0.5184
  359MPD2    C4 5376   0.959   2.938  12.606  0.0625  0.0512 -0.4699
  359MPD2    C5 5377   1.008   3.045  12.534  0.1878  0.2052 -0.2813
  359MPD2     H 5378   1.223   2.732  12.581  2.2384  2.0096 -0.3558
  359MPD2    H1 5379   0.857   2.943  12.642  0.2799  2.2771 -0.1475
  359MPD2    H2 5380   1.162   3.122  12.423 -1.5039  0.7467  1.2141
  359MPD2    H3 5381   0.946   3.133  12.524 -1.0008 -0.4809  0.9789
  359MPD2     N 5382   0.973   2.707  12.674 -0.1036  0.0320 -0.9810
  359MPD2    H5 5383   0.879   2.729  12.705  0.3623 -0.0637  0.4614
  359MPD2    N1 5384   1.341   2.901  12.435 -0.3714 -0.1292 -0.1917
  359MPD2    H7 5385   1.385   2.817  12.470  0.5220  1.4101  2.3680
  360TMC3    C1 5386   1.531   2.952  12.295  0.2175 -0.1248  0.5448
  360TMC3    C2 5387   1.618   3.047  12.239 -0.6767 -0.2008 -0.7800
  360TMC3    C3 5388   1.725   3.004  12.170  0.3390 -1.0933 -0.1227
  360TMC3    C4 5389   1.514   2.831  12.230  0.2861 -0.2611 -0.2448
  360TMC3    C5 5390   1.617   2.784  12.146  0.8430 -0.5437 -0.1360
  360TMC3    C6 5391   1.726   2.870  12.127 -0.0597  0.9402  0.2247
  360TMC3     C 5392   1.414   3.003  12.371 -0.4596 -0.5560 -0.2644
  360TMC3     O 5393   1.389   3.121  12.367  0.7440 -0.1875 -0.5748
  360TMC3     H 5394   1.606   3.142  12.288 -2.9183 -0.2128 -1.2875
  360TMC3    H1 5395   1.430   2.766  12.253 -0.3897  0.8909  0.5335
  360TMC3    H2 5396   1.795   2.856  12.045  0.0836 -1.1898  0.7282
  360TMC3    C7 5397   1.574   2.712  12.024  0.8169 -0.0339  0.2597
  360TMC3    C8 5398   1.781   3.108  12.083 -0.7916  0.0339  0.0817
  360TMC3    O1 5399   1.654   2.706  11.934  1.0163  0.5821 -0.4977
  360TMC3    O2 5400   1.707   3.204  12.068  0.6614 -0.3693 -0.1339
  361MPD2     C 5401   2.116   1.077  17.331  1.2293 -0.5782  0.1541
  361MPD2    C1 5402   2.140   1.213  17.315 -0.0268  0.7193  0.0667
  361MPD2    C2 5403   2.269   1.251  17.297 -0.5884 -0.0585  0.3537
  361MPD2    C3 5404   2.375   1.170  17.270  0.3031  0.1293 -0.0947
  361MPD2    C4 5405   2.344   1.032  17.293  0.3770 -0.5671 -0.2142
  361MPD2    C5 5406   2.218   0.991  17.320  0.4362 -0.1560  0.5804
  361MPD2     H 5407   2.290   1.357  17.293  1.0219 -0.3527  1.0529
  361MPD2    H1 5408   2.414   0.950  17.285  0.2365 -0.6249 -0.8100
  361MPD2    H2 5409   2.021   1.029  17.353 -0.8943  2.8448 -1.5679
  361MPD2    H3 5410   2.199   0.884  17.327 -0.8334  0.1387  1.6754
  361MPD2     N 5411   2.511   1.210  17.250  0.1296  0.0368 -0.2156
  361MPD2    H5 5412   2.579   1.137  17.230  1.2098  1.4159 -1.4697
  361MPD2    N1 5413   2.038   1.314  17.319  0.0879  0.1735 -0.4236
  361MPD2    H7 5414   2.066   1.410  17.302  2.0450 -0.1292  1.0775
  362TMC3    C1 5415   1.841   1.425  17.345  0.0562 -0.2047  0.3780
  362TMC3    C2 5416   1.716   1.436  17.397 -0.2945  0.5866  0.1790
  362TMC3    C3 5417   1.659   1.562  17.405 -0.1914  0.4653 -0.0948
  362TMC3    C4 5418   1.886   1.523  17.267  0.2671 -0.0708 -0.0905
  362TMC3    C5 5419   1.823   1.647  17.271  0.3905  0.2028  0.1081
  362TMC3    C6 5420   1.708   1.669  17.335 -0.2512 -0.7860 -0.6868
  362TMC3     C 5421   1.911   1.300  17.368 -0.6264  0.3231  0.0483
  362TMC3     O 5422   1.848   1.203  17.407  0.0617  0.1263 -0.3745
  362TMC3     H 5423   1.673   1.349  17.444 -3.5981  0.6279 -2.7442
  362TMC3    H1 5424   1.980   1.509  17.214 -0.2328 -0.0589 -0.9813
  362TMC3    H2 5425   1.639   1.745  17.300 -0.3730 -1.1420 -1.2267
  362TMC3    C7 5426   1.843   1.730  17.156 -0.5950  0.8195  0.8379
  362TMC3    C8 5427   1.522   1.578  17.462 -0.2141  0.2772 -0.1266
  362TMC3    O1 5428   1.837   1.851  17.174 -0.2400 -0.1744 -0.4343
  362TMC3    O2 5429   1.459   1.480  17.492  0.2429  0.0542  0.0683
  363TMC3    C1 5430   1.518   0.308   9.783 -0.0770 -0.0074 -0.5199
  363TMC3    C2 5431   1.623   0.258   9.853  0.3380  0.1986 -0.3427
  363TMC3    C3 5432   1.614   0.137   9.922 -0.8076 -0.4687  0.2076
  363TMC3    C4 5433   1.406   0.241   9.772  0.3465  0.0679 -0.8313
  363TMC3    C5 5434   1.399   0.110   9.831 -0.0813  0.3643  0.5600
  363TMC3    C6 5435   1.503   0.062   9.905  0.1960  0.0035 -0.0101
  363TMC3     C 5436   1.530   0.438   9.719 -0.2415 -0.6114  0.2818
  363TMC3     O 5437   1.646   0.481   9.718  0.2325  0.0282 -0.2836
  363TMC3     H 5438   1.710   0.322   9.864  0.0031  0.3926  1.1679
  363TMC3    H1 5439   1.330   0.295   9.716  0.6412 -0.5700 -1.8587
  363TMC3    H2 5440   1.499   4.686   9.947 -1.0224  0.4371  0.9093
  363TMC3    C7 5441   1.271   0.048   9.828 -0.0175  0.7116 -0.7030
  363TMC3    C8 5442   1.729   0.094   9.998 -0.2762 -0.1498  0.8231
  363TMC3    O1 5443   1.184   0.111   9.764 -0.3199 -0.3704 -0.4943
  363TMC3    O2 5444   1.820   0.178  10.019 -0.8410 -0.2812  0.9665
  364MPD2     C 5445   0.185   3.529  10.656  0.5817  0.0250 -0.5781
  364MPD2    C1 5446   0.290   3.500  10.572 -0.2031 -0.1375  0.0753
  364MPD2    C2 5447   0.338   3.367  10.565  0.1888  0.0638 -0.8102
  364MPD2    C3 5448   0.281   3.263  10.636  0.4351 -1.3639  0.0313
  364MPD2    C4 5449   0.173   3.295  10.717 -1.0899  0.6876 -0.6636
  364MPD2    C5 5450   0.130   3.426  10.730 -0.1697 -0.2265  0.3930
  364MPD2     H 5451   0.431   3.344  10.515 -0.0033  2.4963 -2.3170
  364MPD2    H1 5452   0.121   3.219  10.774  0.8997 -1.3096 -1.5099
  364MPD2    H2 5453   0.133   3.624  10.657  0.1951 -0.2144  1.6633
  364MPD2    H3 5454   0.040   3.440  10.789 -1.0520 -1.0515 -0.7604
  364MPD2     N 5455   0.335   3.133  10.637  0.1212  0.7246 -0.0637
  364MPD2    H5 5456   0.284   3.072  10.701  2.6200 -2.5387 -1.1575
  364MPD2    N1 5457   0.345   3.607  10.502  0.7275 -0.3511  0.1842
  364MPD2    H7 5458   0.295   3.695  10.513  1.8738  0.1801  1.2034
  365TMC3    C1 5459   0.513   3.741  10.407 -0.0716 -0.4714 -0.2728
  365TMC3    C2 5460   0.614   3.713  10.320 -0.0259 -0.2292  0.0940
  365TMC3    C3 5461   0.732   3.780  10.332 -0.4244 -0.2409  0.4012
  365TMC3    C4 5462   0.542   3.817  10.519  0.1472 -0.3654 -0.2052
  365TMC3    C5 5463   0.663   3.875  10.539  0.0116  0.4014 -0.6380
  365TMC3    C6 5464   0.758   3.864  10.440  0.0527 -0.8038 -0.3428
  365TMC3     C 5465   0.466   3.608  10.448 -0.2059 -0.3579  0.2497
  365TMC3     O 5466   0.545   3.520  10.438 -0.1247 -0.3245  0.1568
  365TMC3     H 5467   0.598   3.649  10.233  1.6278 -1.4356  0.6655
  365TMC3    H1 5468   0.454   3.835  10.579  1.3165  0.0649  1.3956
  365TMC3    H2 5469   0.860   3.898  10.457 -0.3691  0.8549 -1.1545
  365TMC3    C7 5470   0.705   3.956  10.654 -0.2790  1.6322  0.6890
  365TMC3    C8 5471   0.837   3.762  10.236 -0.0966  1.0360 -0.0326
  365TMC3    O1 5472   0.804   4.024  10.646 -0.3772  0.0356  0.2825
  365TMC3    O2 5473   0.922   3.850  10.222  0.3311  0.0805  0.0023
  366MPD2     C 5474   3.152   4.541  15.332  0.3719 -0.2774 -0.4384
  366MPD2    C1 5475   3.180   4.670  15.382 -0.5881 -0.5622 -0.7534
  366MPD2    C2 5476   3.319   4.691  15.402  0.6001 -0.0554 -0.4207
  366MPD2    C3 5477   3.415   4.592  15.376  1.2749  0.1707  0.4336
  366MPD2    C4 5478   3.378   4.468  15.333 -0.3392 -0.2619 -0.9442
  366MPD2    C5 5479   3.247   4.436  15.317  0.0193  0.4950 -0.4990
  366MPD2     H 5480   3.350   0.058  15.453  0.1396 -0.4880  0.6262
  366MPD2    H1 5481   3.447   4.388  15.309  0.9787  1.0066 -1.3890
  366MPD2    H2 5482   3.050   4.513  15.309 -1.0029  2.4673  2.3591
  366MPD2    H3 5483   3.217   4.338  15.283  1.3072  0.4210 -1.3989
  366MPD2     N 5484   3.551   4.633  15.396  0.2081  0.7915  0.3717
  366MPD2    H5 5485   3.571   4.723  15.439 -0.0866  0.2744  1.5696
  366MPD2    N1 5486   3.086   0.057  15.398 -0.2621 -0.4391 -0.7532
  366MPD2    H7 5487   3.124   0.148  15.422 -0.5215 -0.4314 -0.3707
  367TMC3    C1 5488   2.902   0.187  15.372 -0.1420 -0.6677  0.5272
  367TMC3    C2 5489   2.958   0.280  15.458  0.2283 -0.1215 -0.2424
  367TMC3    C3 5490   2.938   0.413  15.439 -0.5184  0.2855 -0.2913
  367TMC3    C4 5491   2.812   0.228  15.275  0.9804 -0.2350 -0.0845
  367TMC3    C5 5492   2.798   0.361  15.253  0.3512  0.3628 -0.3062
  367TMC3    C6 5493   2.855   0.456  15.337 -0.1721 -0.4239  0.1935
  367TMC3     C 5494   2.955   0.054  15.363  0.6191 -0.1590 -0.2408
  367TMC3     O 5495   2.894   4.686  15.311 -0.7826 -0.1159  0.0867
  367TMC3     H 5496   3.022   0.251  15.541  1.4365 -0.7360 -1.3862
  367TMC3    H1 5497   2.776   0.161  15.198 -1.1638  1.1406 -0.2791
  367TMC3    H2 5498   2.836   0.562  15.332  1.2723 -0.0699  2.1530
  367TMC3    C7 5499   2.706   0.413  15.146 -1.1199  0.3342 -0.5962
  367TMC3    C8 5500   3.040   0.500  15.498 -0.1273  0.2881  0.0711
  367TMC3    O1 5501   2.740   0.523  15.108  0.0991  0.0167  0.0273
  367TMC3    O2 5502   3.098   0.465  15.601 -0.1377 -0.4802 -0.8301
  368MPD2     C 5503   4.120   1.904  13.049  0.1433  0.5213 -0.1182
  368MPD2    C1 5504   4.132   2.046  13.038  0.2904 -0.3409  0.1036
  368MPD2    C2 5505   4.255   2.107  13.065  0.3246  0.7034 -0.0665
  368MPD2    C3 5506   4.371   2.032  13.092 -0.0407 -0.4789 -0.2622
  368MPD2    C4 5507   4.356   1.895  13.088 -0.0314 -1.0125  0.0713
  368MPD2    C5 5508   4.236   1.836  13.063 -0.1808  0.3452  0.0317
  368MPD2     H 5509   4.261   2.213  13.046 -1.0772  1.0815  1.6788
  368MPD2    H1 5510   4.438   1.825  13.095 -0.0928 -0.9855  1.0830
  368MPD2    H2 5511   4.028   1.850  13.028  0.8970  0.0090 -2.1500
  368MPD2    H3 5512   4.229   1.729  13.043 -0.8786  0.5384 -0.7753
  368MPD2     N 5513   4.490   2.098  13.121 -0.3242 -0.6770  0.2715
  368MPD2    H5 5514   4.489   2.199  13.124  1.2839 -0.5492 -3.1865
  368MPD2    N1 5515   4.014   2.117  12.990  0.2860  0.4656 -0.0568
  368MPD2    H7 5516   3.928   2.063  12.988  0.8694 -0.5051  0.9105
  369TMC3    C1 5517   3.885   2.276  12.889 -0.3819 -0.3117  0.0120
  369TMC3    C2 5518   3.881   2.372  12.786  0.2552  0.1805  0.6365
  369TMC3    C3 5519   3.768   2.374  12.714  1.0225 -0.1949  0.2043
  369TMC3    C4 5520   3.779   2.191  12.906  0.0724  0.6696 -0.1508
  369TMC3    C5 5521   3.672   2.204  12.824  0.4735 -0.2860  0.1231
  369TMC3    C6 5522   3.664   2.285  12.722  0.3607 -0.9895 -0.5200
  369TMC3     C 5523   4.011   2.246  12.950  0.8107 -0.0115  0.0432
  369TMC3     O 5524   4.103   2.323  12.918  0.7210 -0.3162 -0.2305
  369TMC3     H 5525   3.968   2.436  12.781  0.5384 -0.3989 -1.6213
  369TMC3    H1 5526   3.769   2.133  12.997 -2.8263  1.8542  0.2746
  369TMC3    H2 5527   3.571   2.308  12.670 -0.5877  0.2262  1.7027
  369TMC3    C7 5528   3.558   2.106  12.829  0.1119 -0.0202 -0.1818
  369TMC3    C8 5529   3.758   2.470  12.602 -0.3674  0.9415 -0.1937
  369TMC3    O1 5530   3.546   2.038  12.929 -0.4158 -0.1162  0.2492
  369TMC3    O2 5531   3.682   2.449  12.508 -1.3152  0.3399  0.5305
  370TMC3    C1 5532   3.684   2.379  16.395  0.3053 -0.4770 -0.1383
  370TMC3    C2 5533   3.654   2.290  16.493  0.2713  0.7184  0.3423
  370TMC3    C3 5534   3.675   2.164  16.465  0.7256 -0.0688 -0.3226
  370TMC3    C4 5535   3.724   2.332  16.279  0.3181  0.1484  0.5575
  370TMC3    C5 5536   3.742   2.201  16.246 -0.6800  0.6397 -0.2481
  370TMC3    C6 5537   3.719   2.109  16.345 -0.1438  0.1545  0.7052
  370TMC3     C 5538   3.765   2.483  16.454 -0.5882  0.0785 -0.8380
  370TMC3     O 5539   3.807   2.460  16.568  0.3737  0.1796 -0.5033
  370TMC3     H 5540   3.594   2.315  16.580 -0.2445  1.2265 -0.1556
  370TMC3    H1 5541   3.761   2.406  16.209 -2.4313 -2.2626 -3.3992
  370TMC3    H2 5542   3.693   2.005  16.329  0.8389  0.3518 -2.1271
  370TMC3    C7 5543   3.753   2.176  16.108  0.2617 -0.0745  0.4496
  370TMC3    C8 5544   3.707   2.089  16.586 -0.0212 -0.0027  0.3562
  370TMC3    O1 5545   3.718   2.262  16.031 -0.4446 -0.4553 -0.2166
  370TMC3    O2 5546   3.702   1.969  16.581  0.0897  0.1372 -0.4693
  371TMC3    C1 5547   0.242   0.467  15.331 -0.2912 -0.0205  0.4845
  371TMC3    C2 5548   0.136   0.518  15.394  0.2282 -0.5794  0.1555
  371TMC3    C3 5549   0.128   0.654  15.389  0.0081 -0.4810 -0.4033
  371TMC3    C4 5550   0.329   0.534  15.247 -0.1006  0.1191  0.1943
  371TMC3    C5 5551   0.297   0.665  15.226 -0.2877  0.0129  0.2723
  371TMC3    C6 5552   0.205   0.729  15.306  0.0560 -0.0358 -0.1616
  371TMC3     C 5553   0.279   0.330  15.361  0.6659  0.6207 -0.2660
  371TMC3     O 5554   0.349   0.272  15.277  0.0642  0.2731  0.1386
  371TMC3     H 5555   0.067   0.455  15.450 -0.0369 -1.7522 -1.4972
  371TMC3    H1 5556   0.414   0.478  15.210  0.8166  0.7963  1.3024
  371TMC3    H2 5557   0.189   0.836  15.309  0.6430 -0.0241  1.9503
  371TMC3    C7 5558   0.379   0.739  15.133  0.7560 -0.1265 -0.1770
  371TMC3    C8 5559   0.006   0.701  15.448 -0.9084 -0.1204 -0.0112
  371TMC3    O1 5560   0.356   0.861  15.125  0.4410  0.0803 -0.2388
  371TMC3    O2 5561   4.634   0.622  15.444 -0.2375  0.4084  0.2955
  372MPD2     C 5562   0.170   1.631  12.999 -0.4809  0.5496  0.1890
  372MPD2    C1 5563   0.208   1.549  13.098 -0.1838  1.1233 -0.0781
  372MPD2    C2 5564   0.108   1.502  13.188 -0.5507  0.8354  0.0015
  372MPD2    C3 5565   4.694   1.532  13.167  0.0230 -0.0462 -0.1333
  372MPD2    C4 5566   4.662   1.622  13.064  0.4137 -0.2589  0.5830
  372MPD2    C5 5567   0.040   1.667  12.984 -0.4438  0.2564  0.3870
  372MPD2     H 5568   0.136   1.450  13.279 -3.1373  0.7787  0.7769
  372MPD2    H1 5569   4.564   1.661  13.041  0.4271 -0.5184  0.0678
  372MPD2    H2 5570   0.235   1.678  12.926 -0.8800  0.1277 -0.4310
  372MPD2    H3 5571   0.008   1.725  12.899 -0.7208 -0.5093 -0.0366
  372MPD2     N 5572   4.596   1.458  13.231 -0.2906  0.1676 -0.0475
  372MPD2    H5 5573   4.627   1.378  13.287  0.0135  0.1326 -0.2627
  372MPD2    N1 5574   0.341   1.512  13.129  0.4009  0.0066 -0.0980
  372MPD2    H7 5575   0.367   1.455  13.209 -0.0941  0.2849  0.2620
  373TMC3    C1 5576   4.381   1.373  13.266  0.2109 -0.2146 -0.4698
  373TMC3    C2 5577   4.303   1.372  13.376 -0.4476  0.3671 -0.4622
  373TMC3    C3 5578   4.272   1.245  13.420  0.3486  0.2545 -0.1546
  373TMC3    C4 5579   4.429   1.263  13.195 -0.1252  0.4077  0.2413
  373TMC3    C5 5580   4.389   1.138  13.244  0.9484  0.0509  0.5711
  373TMC3    C6 5581   4.298   1.128  13.350  0.5997 -0.5839  0.1166
  373TMC3     C 5582   4.463   1.492  13.241  0.3664  0.2844  0.0867
  373TMC3     O 5583   4.406   1.598  13.227 -0.1439 -0.0368  0.0884
  373TMC3     H 5584   4.288   1.465  13.430 -0.9378  0.0819 -0.1136
  373TMC3    H1 5585   4.488   1.276  13.105  0.3799  2.1491  0.8177
  373TMC3    H2 5586   4.264   1.035  13.392 -0.7921 -1.1030 -2.1515
  373TMC3    C7 5587   4.488   1.037  13.238 -0.0642 -0.1825  0.3041
  373TMC3    C8 5588   4.300   1.211  13.554 -0.2563 -0.1613  0.4492
  373TMC3    O1 5589   4.560   1.030  13.138 -0.1203  0.0832 -0.1357
  373TMC3    O2 5590   4.364   1.110  13.574  0.0017 -0.0097  0.2289
  374TMC3    C1 5591   0.565   2.233   9.671 -1.2701  0.2295  0.2310
  374TMC3    C2 5592   0.646   2.343   9.676 -0.2278 -0.3064  0.0840
  374TMC3    C3 5593   0.589   2.470   9.655 -0.5514 -0.0483  0.3286
  374TMC3    C4 5594   0.433   2.239   9.652 -0.2056 -0.2101  0.2875
  374TMC3    C5 5595   0.384   2.368   9.629 -0.0086 -0.7221 -0.1215
  374TMC3    C6 5596   0.460   2.480   9.616  0.7709 -0.4534  0.3653
  374TMC3     C 5597   0.622   2.103   9.644  0.2268 -0.7060 -0.1885
  374TMC3     O 5598   0.556   2.021   9.579 -0.5183  0.7055 -0.1384
  374TMC3     H 5599   0.753   2.342   9.689 -0.4530  0.9354  2.1095
  374TMC3    H1 5600   0.383   2.144   9.640  2.1325 -1.8102  2.9826
  374TMC3    H2 5601   0.413   2.576   9.597  0.2913 -1.1758 -2.1875
  374TMC3    C7 5602   0.257   2.382   9.555  0.0118 -0.1975  0.8952
  374TMC3    C8 5603   0.669   2.588   9.672  0.2105  0.2047  0.3149
  374TMC3    O1 5604   0.250   2.479   9.480 -0.3803 -0.0965 -0.0638
  374TMC3    O2 5605   0.620   2.694   9.630  0.0477 -0.4402  0.1181
  375MPD2     C 5606   0.340   2.863  17.522  1.0321  0.5997 -0.4386
  375MPD2    C1 5607   0.290   2.868  17.392 -0.4284 -0.4263 -0.2252
  375MPD2    C2 5608   0.344   2.780  17.300 -0.6499 -0.2249 -0.0120
  375MPD2    C3 5609   0.445   2.692  17.328  0.7660 -0.7395  1.1328
  375MPD2    C4 5610   0.500   2.697  17.461  0.0245  0.6268  0.2380
  375MPD2    C5 5611   0.434   2.774  17.559 -0.4292 -0.1048 -0.4703
  375MPD2     H 5612   0.298   2.786  17.202 -0.0879 -0.7208 -0.3047
  375MPD2    H1 5613   0.580   2.629  17.487  0.0671  0.5581 -0.0759
  375MPD2    H2 5614   0.301   2.927  17.600  0.5606  0.7236 -0.7817
  375MPD2    H3 5615   0.469   2.767  17.661 -1.4562 -1.2422 -0.2005
  375MPD2     N 5616   0.508   2.602  17.236 -0.3001 -0.1993  0.5518
  375MPD2    H5 5617   0.580   2.539  17.269  0.2736  0.5987  0.8107
  375MPD2    N1 5618   0.185   2.950  17.356  0.2651 -0.3112 -0.4915
  375MPD2    H7 5619   0.156   2.937  17.260 -2.1722 -0.7348  0.3020
  376TMC3    C1 5620   0.551   2.506  17.017 -0.2990  0.2190  0.1868
  376TMC3    C2 5621   0.661   2.436  17.062  1.4285 -0.4779  0.3176
  376TMC3    C3 5622   0.720   2.360  16.961 -0.7238 -0.5340  0.3845
  376TMC3    C4 5623   0.506   2.508  16.890  0.1399 -0.1523  0.1361
  376TMC3    C5 5624   0.576   2.428  16.799  0.0957 -0.0233 -0.4096
  376TMC3    C6 5625   0.681   2.347  16.828 -0.2144  0.1873  0.1434
  376TMC3     C 5626   0.479   2.610  17.096  0.2432  0.1239 -0.2401
  376TMC3     O 5627   0.406   2.690  17.035 -0.3223  0.2379  0.6661
  376TMC3     H 5628   0.696   2.441  17.165 -1.2527  0.3241  1.1895
  376TMC3    H1 5629   0.413   2.555  16.860  1.6239  2.7278  0.1342
  376TMC3    H2 5630   0.733   2.287  16.755 -0.2514  0.6568 -0.2664
  376TMC3    C7 5631   0.523   2.424  16.664 -0.3141 -0.5788  0.0469
  376TMC3    C8 5632   0.851   2.316  16.999 -0.3537  0.7297  0.8392
  376TMC3    O1 5633   0.443   2.509  16.633  0.4786  0.0678 -0.3434
  376TMC3    O2 5634   0.872   2.301  17.120  0.5065  0.1109 -0.2704
  377MPD2     C 5635   3.033   2.528  11.969 -0.6492 -0.1596  0.1232
  377MPD2    C1 5636   3.077   2.447  12.075  0.4679 -0.0253  0.5517
  377MPD2    C2 5637   2.988   2.410  12.173 -0.5090 -0.6257 -0.2223
  377MPD2    C3 5638   2.855   2.446  12.168  0.4651 -0.4078 -0.5212
  377MPD2    C4 5639   2.812   2.529  12.064 -0.3087  0.1718  0.1886
  377MPD2    C5 5640   2.897   2.554  11.960  0.6752 -0.0592  0.3060
  377MPD2     H 5641   3.019   2.357  12.262 -0.5383 -0.3786 -0.0654
  377MPD2    H1 5642   2.709   2.560  12.056 -0.3928  0.1858  1.4401
  377MPD2    H2 5643   3.096   2.552  11.885  2.5662 -2.8356  1.7588
  377MPD2    H3 5644   2.870   2.629  11.886 -2.1163 -1.5899 -0.2134
  377MPD2     N 5645   2.761   2.415  12.270  0.9095 -0.2605 -0.5359
  377MPD2    H5 5646   2.668   2.451  12.252  1.4014  1.3567  0.1457
  377MPD2    N1 5647   3.211   2.393  12.072  0.5040  0.9772 -0.1257
  377MPD2    H7 5648   3.261   2.419  11.987  0.9063 -1.6854 -0.7176
  378TMC3    C1 5649   3.604   2.303  12.013  0.3080  0.4664 -0.3944
  378TMC3    C2 5650   3.471   2.334  12.033  0.0726 -0.7233 -0.6071
  378TMC3    C3 5651   3.417   2.299  12.152  0.0368  0.7304 -0.2745
  378TMC3    C4 5652   3.677   2.222  12.098 -0.1879 -0.0021  0.6070
  378TMC3    C5 5653   3.614   2.190  12.219  0.4118 -0.8547 -0.3535
  378TMC3    C6 5654   3.488   2.236  12.252  0.9069 -0.7819 -0.6634
  378TMC3     C 5655   3.663   2.334  11.887 -0.1576  0.2756  0.0086
  378TMC3     O 5656   3.587   2.335  11.793  0.0924 -0.4577 -0.1051
  378TMC3     H 5657   3.419   2.398  11.963 -0.8448 -0.9991 -0.1856
  378TMC3    H1 5658   3.769   2.174  12.067 -0.1960  0.5312 -0.2439
  378TMC3    H2 5659   3.432   2.204  12.339 -0.5805  1.2745 -0.8694
  378TMC3    C7 5660   3.686   2.145  12.340 -0.0192  0.1510  0.8251
  378TMC3    C8 5661   3.274   2.327  12.181  0.6844  0.2211  0.2945
  378TMC3    O1 5662   3.614   2.115  12.435  0.0337 -0.1911  0.2681
  378TMC3    O2 5663   3.232   2.289  12.289  0.5463 -0.3582 -0.7041
  379MPD2     C 5664   3.666   0.616  16.308  0.3652 -0.4683 -0.3127
  379MPD2    C1 5665   3.750   0.538  16.233 -0.3393  0.3657 -0.1331
  379MPD2    C2 5666   3.822   0.434  16.306 -0.7981 -0.0563 -0.0738
  379MPD2    C3 5667   3.792   0.405  16.442 -1.2330 -0.0153 -0.4426
  379MPD2    C4 5668   3.693   0.478  16.501 -0.6254 -0.0317 -0.0576
  379MPD2    C5 5669   3.635   0.575  16.434 -0.4357 -0.4110 -0.2183
  379MPD2     H 5670   3.897   0.371  16.260 -0.3437 -0.7722  1.6557
  379MPD2    H1 5671   3.654   0.453  16.599 -1.1792 -1.7887 -0.7261
  379MPD2    H2 5672   3.622   0.704  16.263 -0.7805 -0.3695  0.9786
  379MPD2    H3 5673   3.564   0.635  16.489  0.7003  0.6023  0.1406
  379MPD2     N 5674   3.860   0.305  16.513  0.5982  0.9098  0.1632
  379MPD2    H5 5675   3.816   0.288  16.603  2.6410  0.2972  1.0278
  379MPD2    N1 5676   3.772   0.574  16.096 -0.0195 -0.6251 -0.5155
  379MPD2    H7 5677   3.705   0.634  16.048 -2.9842 -0.6931  3.5424
  380TMC3    C1 5678   3.848   0.548  15.877  0.1620 -0.0156  0.2149
  380TMC3    C2 5679   3.942   0.516  15.784  0.2645 -0.1550  0.3269
  380TMC3    C3 5680   3.912   0.525  15.654 -0.2478  0.0041 -0.3087
  380TMC3    C4 5681   3.719   0.588  15.847  1.2288 -0.6101 -0.1268
  380TMC3    C5 5682   3.695   0.598  15.714  0.4142 -1.0545 -0.0919
  380TMC3    C6 5683   3.792   0.577  15.620  0.8956 -0.6982  0.3616
  380TMC3     C 5684   3.867   0.510  16.017 -0.2032  0.2194  0.0996
  380TMC3     O 5685   3.956   0.424  16.038 -0.2181  0.4462  0.3481
  380TMC3     H 5686   4.047   0.492  15.802  0.3428  0.3107  0.4806
  380TMC3    H1 5687   3.635   0.601  15.914 -0.2387  1.5899 -2.4319
  380TMC3    H2 5688   3.753   0.558  15.520  0.8212 -1.4865  0.5465
  380TMC3    C7 5689   3.561   0.617  15.668 -0.3887 -0.2780  1.0316
  380TMC3    C8 5690   4.008   0.485  15.546  0.0650 -0.3593  0.2835
  380TMC3    O1 5691   3.470   0.570  15.737  0.4935 -0.3130 -0.4239
  380TMC3    O2 5692   4.000   0.552  15.444 -0.1966 -0.3653  0.2227
  381TMC3    C1 5693   3.980   1.263  16.177  0.2196 -0.0325  1.2452
  381TMC3    C2 5694   4.038   1.389  16.153  0.6461  0.2315 -0.2525
  381TMC3    C3 5695   3.989   1.495  16.220 -0.2762 -0.6277 -0.7755
  381TMC3    C4 5696   3.885   1.247  16.267  0.5315 -0.2914 -0.0794
  381TMC3    C5 5697   3.845   1.356  16.343 -0.1871  0.3937 -0.1571
  381TMC3    C6 5698   3.888   1.485  16.314 -0.7756 -0.5546 -0.0959
  381TMC3     C 5699   4.051   1.141  16.140  0.0762 -0.1590  0.1566
  381TMC3     O 5700   4.016   1.039  16.202  0.3756  0.0287 -0.6256
  381TMC3     H 5701   4.115   1.406  16.078  0.8265  0.1948 -0.0735
  381TMC3    H1 5702   3.839   1.150  16.276  0.3973 -0.2195  0.0071
  381TMC3    H2 5703   3.835   1.564  16.365  1.2602 -0.5181  1.9520
  381TMC3    C7 5704   3.776   1.321  16.462  0.0878 -0.1000  0.6989
  381TMC3    C8 5705   4.054   1.625  16.202 -0.7889  0.4479 -0.2622
  381TMC3    O1 5706   3.731   1.208  16.464 -1.0798  0.2815  0.8256
  381TMC3    O2 5707   4.137   1.640  16.110 -0.5124 -0.7731 -0.0941
  382MPD2     C 5708   3.315   3.689  17.328  0.6692 -0.3566  0.2444
  382MPD2    C1 5709   3.236   3.762  17.416  0.0573 -0.3476  0.1796
  382MPD2    C2 5710   3.127   3.698  17.474 -0.0840 -0.1199  0.7638
  382MPD2    C3 5711   3.103   3.566  17.452  0.0158 -0.4704  0.3548
  382MPD2    C4 5712   3.172   3.498  17.356 -0.2728 -0.5896 -0.5020
  382MPD2    C5 5713   3.283   3.557  17.303  0.2194  0.4782 -0.3374
  382MPD2     H 5714   3.058   3.761  17.528 -1.5513 -1.9225  0.9705
  382MPD2    H1 5715   3.141   3.397  17.331  1.2327 -0.4438 -2.8725
  382MPD2    H2 5716   3.399   3.733  17.275  0.9766 -0.5620  0.5594
  382MPD2    H3 5717   3.354   3.499  17.245 -0.4817  0.6329 -1.3387
  382MPD2     N 5718   3.000   3.501  17.521  0.0551  0.1960  0.4122
  382MPD2    H5 5719   2.991   3.403  17.498  1.6182  0.0318  0.4656
  382MPD2    N1 5720   3.248   3.895  17.429 -0.4307 -0.0198  0.1441
  382MPD2    H7 5721   3.181   3.930  17.496 -0.2015  0.2504  0.2301
  383TMC3    C1 5722   2.849   3.459  17.685  0.5577 -0.5518 -0.5830
  383TMC3    C2 5723   2.774   3.384  17.604  0.1648  0.8064 -0.3983
  383TMC3    C3 5724   2.713   3.272  17.658 -0.4842 -0.8559  0.4606
  383TMC3    C4 5725   2.858   3.435   0.127  0.4363  0.1208  0.1747
  383TMC3    C5 5726   2.791   3.327   0.182 -0.0480  0.5104  0.3683
  383TMC3    C6 5727   2.719   3.246   0.099 -0.5634 -0.2544  0.4895
  383TMC3     C 5728   2.943   3.554  17.633  0.0523 -0.5168  0.0017
  383TMC3     O 5729   2.980   3.649   0.009 -0.0810 -0.4874 -0.1668
  383TMC3     H 5730   2.767   3.400  17.497  0.1688  0.3523 -0.4662
  383TMC3    H1 5731   2.913   3.505   0.190 -1.3287  1.3214  0.3691
  383TMC3    H2 5732   2.661   3.165   0.141  0.3832 -0.8835  0.5871
  383TMC3    C7 5733   2.824   3.290   0.319 -0.0466  0.0747 -0.4326
  383TMC3    C8 5734   2.617   3.215  17.579  0.4468 -0.2545  0.2880
  383TMC3    O1 5735   2.885   3.372   0.386 -0.5680 -0.0313 -0.3167
  383TMC3    O2 5736   2.562   3.289  17.497 -0.0412 -0.4352  0.3685
  384MPD2     C 5737   4.660   0.206  12.325  0.1400 -0.0032 -0.3118
  384MPD2    C1 5738   4.721   0.174  12.439  0.2151 -0.2110  0.5861
  384MPD2    C2 5739   0.101   0.080  12.427 -0.2229  0.1856 -0.8533
  384MPD2    C3 5740   0.132   0.025  12.309  0.0111  0.3912  0.3443
  384MPD2    C4 5741   0.069   0.066  12.196  0.2548 -0.2026  0.5475
  384MPD2    C5 5742   4.690   0.154  12.205  0.3227  0.5596 -0.1838
  384MPD2     H 5743   0.152   0.044  12.516 -1.3012  0.1693 -0.2427
  384MPD2    H1 5744   0.076   0.005  12.107 -0.8361 -0.3512  0.5687
  384MPD2    H2 5745   4.570   0.266  12.324  0.9682  1.2681  1.1635
  384MPD2    H3 5746   4.648   0.183  12.109 -0.8449  1.6468  0.6344
  384MPD2     N 5747   0.227   4.643  12.319  0.2626 -0.1665  0.1902
  384MPD2    H5 5748   0.262   4.625  12.413  1.8942 -2.1531 -0.8042
  384MPD2    N1 5749   4.660   0.210  12.563 -0.4756 -0.8246  1.2388
  384MPD2    H7 5750   4.595   0.288  12.566 -1.6664 -1.7974  0.7949
  385TMC3    C1 5751   0.363   4.467  12.266  0.5065  0.4698 -0.0694
  385TMC3    C2 5752   0.320   4.340  12.226 -0.6294 -0.2810 -0.6239
  385TMC3    C3 5753   0.304   4.245  12.320 -0.8495 -0.0256  0.5340
  385TMC3    C4 5754   0.408   4.487  12.394  0.6625  0.3965 -0.6285
  385TMC3    C5 5755   0.392   4.387  12.489 -0.0649  0.7507 -0.1719
  385TMC3    C6 5756   0.327   4.274  12.452 -0.0112  0.3282  0.1345
  385TMC3     C 5757   0.267   4.562  12.215 -0.0188 -0.0803  0.2734
  385TMC3     O 5758   0.238   4.549  12.094 -0.2283  0.3944 -0.5865
  385TMC3     H 5759   0.288   4.319  12.124  2.3805 -1.0528 -1.4324
  385TMC3    H1 5760   0.448   4.585  12.413  0.8519 -0.0415  1.1814
  385TMC3    H2 5761   0.293   4.209  12.532 -0.9210 -0.6784 -1.0623
  385TMC3    C7 5762   0.335   4.443  12.608  0.4480  0.3780  0.6658
  385TMC3    C8 5763   0.289   4.107  12.282  0.7365 -0.3355  0.2721
  385TMC3    O1 5764   0.295   4.556  12.585  0.1113  0.7052 -0.1179
  385TMC3    O2 5765   0.314   4.024  12.366 -0.9940 -0.0832  0.1560
  386TMC3    C1 5766   0.166   2.537  11.944  0.7764 -0.2975 -0.3378
  386TMC3    C2 5767   0.238   2.536  11.833 -0.4927 -0.1310 -0.9297
  386TMC3    C3 5768   0.193   2.470  11.718 -0.3344 -0.0705 -0.2931
  386TMC3    C4 5769   0.036   2.503  11.947 -0.5064 -0.0358  0.1322
  386TMC3    C5 5770   4.708   2.455  11.825 -0.5562  0.2630  1.0153
  386TMC3    C6 5771   0.060   2.434  11.717 -0.6000 -0.5902 -0.2277
  386TMC3     C 5772   0.234   2.562  12.066  0.0920 -0.0677 -0.3876
  386TMC3     O 5773   0.176   2.611  12.161  0.1855 -0.2842 -0.0029
  386TMC3     H 5774   0.341   2.568  11.840 -1.1388  1.5034  0.9848
  386TMC3    H1 5775   4.693   2.512  12.032 -2.5687  0.6886 -1.5550
  386TMC3    H2 5776   0.021   2.375  11.635  0.6500 -1.7195 -0.0066
  386TMC3    C7 5777   4.574   2.499  11.789 -0.9010  0.0889 -1.0487
  386TMC3    C8 5778   0.218   2.541  11.597  0.2126 -0.9450  0.9093
  386TMC3    O1 5779   4.495   2.523  11.877  0.4218  0.5784 -0.2645
  386TMC3    O2 5780   0.117   2.575  11.537 -0.2852 -0.4840  0.0775
  387MPD2     C 5781   2.236   3.069   9.684  0.0118 -0.0290  0.9870
  387MPD2    C1 5782   2.374   3.076   9.672  0.1733 -0.4408 -0.5904
  387MPD2    C2 5783   2.438   2.961   9.644  0.4271 -0.5955  0.1389
  387MPD2    C3 5784   2.375   2.841   9.616 -0.6617 -0.1189  0.1589
  387MPD2    C4 5785   2.233   2.838   9.613 -0.2104  0.0597 -0.6358
  387MPD2    C5 5786   2.166   2.950   9.664 -0.5826 -0.6391  0.0073
  387MPD2     H 5787   2.546   2.966   9.647  0.4210  0.3922 -1.4003
  387MPD2    H1 5788   2.170   2.756   9.580  1.3018 -1.6435  0.6800
  387MPD2    H2 5789   2.172   3.147   9.724  2.5243  2.8798 -0.7073
  387MPD2    H3 5790   2.060   2.937   9.683 -0.4858 -1.7697 -0.2307
  387MPD2     N 5791   2.460   2.730   9.579 -0.6818  0.1020 -0.4477
  387MPD2    H5 5792   2.560   2.746   9.576 -0.8412  1.3731  0.6012
  387MPD2    N1 5793   2.450   3.173   9.739 -0.0501 -0.4487 -0.6458
  387MPD2    H7 5794   2.550   3.154   9.733 -0.1237 -0.1692 -2.7064
  388TMC3    C1 5795   2.519   3.343   9.875 -0.0916 -0.3847 -0.1364
  388TMC3    C2 5796   2.517   3.478   9.907  0.3044 -0.3928 -0.4988
  388TMC3    C3 5797   2.611   3.510   9.998  0.0863 -0.6201 -0.4378
  388TMC3    C4 5798   2.594   3.251   9.937 -0.1510  0.0810 -0.1068
  388TMC3    C5 5799   2.693   3.294  10.014  0.0992  0.1774 -0.2622
  388TMC3    C6 5800   2.711   3.428  10.043  0.0271  0.4396  0.1847
  388TMC3     C 5801   2.418   3.296   9.784 -0.9916  0.6043  0.1096
  388TMC3     O 5802   2.316   3.363   9.775 -0.0427 -0.6767 -0.1603
  388TMC3     H 5803   2.454   3.551   9.858  0.1361  0.2237  0.6173
  388TMC3    H1 5804   2.563   3.147   9.936  0.6546 -0.1724  1.0011
  388TMC3    H2 5805   2.812   3.465  10.055  0.0438 -0.0162  1.4019
  388TMC3    C7 5806   2.797   3.200  10.023  0.1550 -0.1324 -0.6852
  388TMC3    C8 5807   2.623   3.654  10.013  0.5878  0.2114 -0.0923
  388TMC3    O1 5808   2.885   3.221  10.107  0.2448 -1.2778 -0.5776
  388TMC3    O2 5809   2.593   3.724   9.917  0.4923  0.4441  0.1330
  389MPD2     C 5810   1.712   0.994  11.339 -0.3554  0.9084  0.4000
  389MPD2    C1 5811   1.586   1.021  11.287 -0.6321  0.6215  0.7306
  389MPD2    C2 5812   1.481   0.949  11.339  0.2220 -0.0726  0.2147
  389MPD2    C3 5813   1.497   0.855  11.440 -0.0266  0.3061 -0.3923
  389MPD2    C4 5814   1.621   0.837  11.494  0.4711 -0.3944  0.4052
  389MPD2    C5 5815   1.723   0.909  11.443  0.6209 -0.1856  0.1526
  389MPD2     H 5816   1.380   0.972  11.305  0.3049 -2.3714 -1.6033
  389MPD2    H1 5817   1.650   0.773  11.577  1.4893  0.8291  0.9883
  389MPD2    H2 5818   1.803   1.040  11.303  0.0814  0.2618  0.6978
  389MPD2    H3 5819   1.818   0.889  11.492  1.2255 -0.0106 -0.9323
  389MPD2     N 5820   1.391   0.780  11.496  0.4072 -0.0353 -0.5783
  389MPD2    H5 5821   1.419   0.725  11.576  0.1290  0.5408 -0.0877
  389MPD2    N1 5822   1.593   1.088  11.161  0.4371 -0.3085 -0.2440
  389MPD2    H7 5823   1.682   1.101  11.115  1.2466 -1.6613  0.9525
  390TMC3    C1 5824   1.177   0.673  11.503  0.0038 -0.1756  0.5018
  390TMC3    C2 5825   1.187   0.660  11.640 -0.3594 -0.4874  0.2842
  390TMC3    C3 5826   1.078   0.603  11.705 -0.1606  0.5230  0.2936
  390TMC3    C4 5827   1.060   0.638  11.436  0.6373 -0.0666  0.2678
  390TMC3    C5 5828   0.969   0.565  11.506 -1.3718 -0.5729 -0.1570
  390TMC3    C6 5829   0.972   0.550  11.640 -0.4377 -0.1537  0.1446
  390TMC3     C 5830   1.276   0.744  11.429  0.3311 -0.0057 -0.4549
  390TMC3     O 5831   1.239   0.784  11.318  0.4336 -0.8317  0.0174
  390TMC3     H 5832   1.284   0.658  11.689 -0.0288 -0.3775 -0.3745
  390TMC3    H1 5833   1.043   0.647  11.329 -1.4417 -1.8306  0.4467
  390TMC3    H2 5834   0.885   0.517  11.695 -1.4336 -1.4225 -2.1673
  390TMC3    C7 5835   0.951   0.438  11.443  0.0784  0.9458 -0.1589
  390TMC3    C8 5836   1.122   0.522  11.819 -0.1336 -0.7884 -0.6115
  390TMC3    O1 5837   1.036   0.407  11.360  0.2879  0.2000  0.1972
  390TMC3    O2 5838   1.216   0.557  11.887 -0.5730 -0.5682  0.1021
  391MPD2     C 5839   1.424   2.175  10.956  0.2204 -0.1929  0.4942
  391MPD2    C1 5840   1.550   2.208  10.902 -0.1177  0.0326 -0.1113
  391MPD2    C2 5841   1.556   2.255  10.767  0.1410  0.4088  0.0637
  391MPD2    C3 5842   1.436   2.271  10.697 -0.6189  0.3415 -0.3051
  391MPD2    C4 5843   1.316   2.230  10.749 -0.4173  0.3967 -0.0019
  391MPD2    C5 5844   1.311   2.189  10.881 -0.5159  0.0162  0.1217
  391MPD2     H 5845   1.646   2.299  10.726 -1.2916  1.3463 -2.0946
  391MPD2    H1 5846   1.229   2.225  10.685 -0.0893 -0.2536 -0.3979
  391MPD2    H2 5847   1.410   2.135  11.055 -0.8217  1.3879  0.9786
  391MPD2    H3 5848   1.215   2.166  10.926 -0.8212  0.8708 -0.1004
  391MPD2     N 5849   1.438   2.336  10.568  0.0371  0.1453  0.0388
  391MPD2    H5 5850   1.533   2.357  10.538  0.8209 -2.2158  0.8870
  391MPD2    N1 5851   1.656   2.209  10.994  0.2590  0.3954 -0.6459
  391MPD2    H7 5852   1.638   2.178  11.089 -0.1193 -1.0916 -1.2073
  392TMC3    C1 5853   1.355   2.435  10.364 -0.1118 -0.0684 -0.0133
  392TMC3    C2 5854   1.264   2.442  10.267 -0.6168  0.0688  0.1018
  392TMC3    C3 5855   1.284   2.536  10.166  0.4199 -0.7558  0.3083
  392TMC3    C4 5856   1.475   2.502  10.358 -0.3421 -0.2209  1.0721
  392TMC3    C5 5857   1.496   2.589  10.257  0.0879  0.1790  0.0135
  392TMC3    C6 5858   1.398   2.608  10.156  0.3115 -0.2433 -0.1087
  392TMC3     C 5859   1.330   2.359  10.486  0.0245  0.5672  0.7245
  392TMC3     O 5860   1.211   2.330  10.501 -0.6304  0.1502 -0.0928
  392TMC3     H 5861   1.170   2.389  10.278 -0.7430  0.1715 -0.5109
  392TMC3    H1 5862   1.541   2.514  10.443  0.0371  0.6386  0.6619
  392TMC3    H2 5863   1.421   2.661  10.064 -1.3578  0.0311 -0.3745
  392TMC3    C7 5864   1.617   2.668  10.264  0.2931  0.5678  0.0340
  392TMC3    C8 5865   1.190   2.533  10.054 -0.2194 -0.0921  0.4012
  392TMC3    O1 5866   1.708   2.635  10.342 -0.1759  0.3377  0.3634
  392TMC3    O2 5867   1.114   2.435  10.045  0.5073  0.2927 -0.5769
  393TMC3    C1 5868   0.451   0.083  10.663 -0.6684 -0.1611 -0.0938
  393TMC3    C2 5869   0.419   4.680  10.715  0.7210 -0.3486  0.0690
  393TMC3    C3 5870   0.499   4.578  10.661  0.1539  0.5234 -0.4157
  393TMC3    C4 5871   0.560   0.112  10.579  0.3282 -0.0950  0.7918
  393TMC3    C5 5872   0.624   4.721  10.533  0.1517  0.2980  0.2784
  393TMC3    C6 5873   0.590   4.594  10.558 -0.8351  0.0116 -0.5277
  393TMC3     C 5874   0.381   0.204  10.704  0.2470  0.4331 -0.2279
  393TMC3     O 5875   0.436   0.313  10.699  0.6900  0.3237 -0.0758
  393TMC3     H 5876   0.347   4.654  10.792  0.1168  0.0279 -0.3664
  393TMC3    H1 5877   0.576   0.211  10.540 -0.3284 -0.3976 -0.2432
  393TMC3    H2 5878   0.643   4.512  10.512 -0.9906 -0.6889  0.5346
  393TMC3    C7 5879   0.740   0.017  10.442 -0.3326 -0.3194 -0.1843
  393TMC3    C8 5880   0.463   4.441  10.675  0.1590 -0.0369 -0.2977
  393TMC3    O1 5881   0.777   4.646  10.371  0.2115 -0.6038  0.2097
  393TMC3    O2 5882   0.518   4.359  10.605 -0.6449 -1.2528  0.6401
  394TMC3    C1 5883   1.499   1.179  10.963  0.2246  0.8066 -0.8638
  394TMC3    C2 5884   1.395   1.164  10.875 -0.2451  1.1881 -0.2141
  394TMC3    C3 5885   1.422   1.172  10.746  0.0902 -0.3823 -0.3142
  394TMC3    C4 5886   1.618   1.227  10.923  0.1049 -0.4341  0.2729
  394TMC3    C5 5887   1.636   1.242  10.786  0.0220  0.3385 -0.3142
  394TMC3    C6 5888   1.537   1.216  10.695 -0.7808  0.0391  0.1300
  394TMC3     C 5889   1.482   1.125  11.097 -0.3095  0.0961  0.0756
  394TMC3     O 5890   1.365   1.118  11.129  0.2693  0.0463  0.3678
  394TMC3     H 5891   1.294   1.135  10.902 -0.1978 -0.3012 -1.6618
  394TMC3    H1 5892   1.694   1.262  10.993 -0.9127  1.9031  0.2077
  394TMC3    H2 5893   1.554   1.222  10.589  1.5165 -0.7752  0.4589
  394TMC3    C7 5894   1.772   1.282  10.750  0.3327 -0.0002 -0.5953
  394TMC3    C8 5895   1.321   1.148  10.654  0.4950  0.4928  0.5224
  394TMC3    O1 5896   1.832   1.358  10.827 -0.2018 -0.4026  0.7365
  394TMC3    O2 5897   1.206   1.173  10.691  0.6343  0.5804 -0.2834
  395TMC3    C1 5898   1.180   2.508  14.778  0.1739  0.0762  0.0368
  395TMC3    C2 5899   1.082   2.471  14.862 -0.0803  0.2412 -0.0175
  395TMC3    C3 5900   1.083   2.524  14.987  0.2310  0.0687  0.2128
  395TMC3    C4 5901   1.273   2.605  14.805 -0.1839  0.4486 -0.6939
  395TMC3    C5 5902   1.276   2.643  14.938  0.3636 -0.0682 -0.0387
  395TMC3    C6 5903   1.176   2.617  15.027 -0.0060 -0.4916 -0.2938
  395TMC3     C 5904   1.160   2.472  14.637  0.1306 -0.3004  0.8422
  395TMC3     O 5905   1.156   2.575  14.571  0.1825  0.0758 -0.0926
  395TMC3     H 5906   1.001   2.413  14.820  0.2472 -0.3585  0.1781
  395TMC3    H1 5907   1.341   2.654  14.736 -1.1030 -0.4856 -2.2664
  395TMC3    H2 5908   1.185   2.644  15.132  0.0039 -1.3437 -0.0723
  395TMC3    C7 5909   1.401   2.701  14.998  0.0820  0.6390  0.1072
  395TMC3    C8 5910   1.025   2.443  15.092  0.1638  0.4209 -0.2646
  395TMC3    O1 5911   1.395   2.731  15.116 -0.4260 -0.7408  0.1947
  395TMC3    O2 5912   1.001   2.499  15.200 -0.6830  0.2775  0.1898
  396MPD2     C 5913   0.990   3.156  17.209  0.4829  0.3081 -0.7601
  396MPD2    C1 5914   1.075   3.226  17.283  0.3876 -0.1002  0.0952
  396MPD2    C2 5915   1.141   3.339  17.227 -0.4604  0.3760 -0.3945
  396MPD2    C3 5916   1.100   3.377  17.098  0.0591  0.4455  0.5275
  396MPD2    C4 5917   1.019   3.291  17.022  0.6728 -1.3376  0.1015
  396MPD2    C5 5918   0.973   3.175  17.071  0.2699 -0.3182 -0.2474
  396MPD2     H 5919   1.203   3.405  17.286 -1.4970 -0.0832  1.2058
  396MPD2    H1 5920   0.996   3.325  16.921 -0.4174 -0.7616  0.5412
  396MPD2    H2 5921   0.937   3.070  17.250 -0.2694 -0.6118 -3.6794
  396MPD2    H3 5922   0.911   3.110  17.011  1.1269  0.6677 -2.2055
  396MPD2     N 5923   1.146   3.503  17.053 -0.4171  0.6663 -0.1557
  396MPD2    H5 5924   1.191   3.561  17.122 -1.0056  1.8248 -0.7464
  396MPD2    N1 5925   1.098   3.182  17.414 -0.4015 -0.0938  0.0985
  396MPD2    H7 5926   1.036   3.109  17.447  0.9577 -1.8248 -1.1554
  397TMC3    C1 5927   1.190   3.184  17.643  0.3769  0.4553 -0.3567
  397TMC3    C2 5928   1.278   3.259   0.019 -0.0305 -0.3516 -0.0220
  397TMC3    C3 5929   1.373   3.202   0.106 -0.8581  0.2259  0.1470
  397TMC3    C4 5930   1.193   3.042  17.650 -0.5117 -0.3780  0.6056
  397TMC3    C5 5931   1.264   2.991   0.057 -0.4987  0.3502  0.0630
  397TMC3    C6 5932   1.364   3.062   0.124 -0.0163 -1.2076  0.0005
  397TMC3     C 5933   1.183   3.248  17.507 -0.4639 -0.0498  0.1609
  397TMC3     O 5934   1.257   3.346  17.497  0.5637  0.5957 -0.6247
  397TMC3     H 5935   1.272   3.367   0.011  1.4319 -0.1818  1.1175
  397TMC3    H1 5936   1.120   2.984  17.594  1.2923 -1.1349 -0.9636
  397TMC3    H2 5937   1.426   3.008   0.194  1.4933  0.8956  0.2835
  397TMC3    C7 5938   1.202   2.876   0.125  0.8421  0.0724  0.1596
  397TMC3    C8 5939   1.513   3.229   0.072 -0.0485  0.5422  0.1838
  397TMC3    O1 5940   1.113   2.820   0.062 -0.1218  0.1365 -0.1048
  397TMC3    O2 5941   1.609   3.203   0.150  0.0221  0.0739 -0.3217
  398MPD2     C 5942   3.731   4.334   0.308 -0.4089 -0.1281  0.4967
  398MPD2    C1 5943   3.720   4.291   0.442  0.0255  0.4760 -0.3614
  398MPD2    C2 5944   3.720   4.394   0.534  0.1885 -0.1625  0.2882
  398MPD2    C3 5945   3.769   4.517   0.511  0.2789 -0.3011 -0.3352
  398MPD2    C4 5946   3.791   4.552   0.382  0.2340  0.2765 -0.0464
  398MPD2    C5 5947   3.763   4.463   0.280 -0.2514  0.0662 -0.4753
  398MPD2     H 5948   3.727   4.367   0.639 -1.1168 -0.4223  0.3050
  398MPD2    H1 5949   3.831   4.651   0.363 -0.8924  0.8128  0.4259
  398MPD2    H2 5950   3.715   4.265   0.226 -2.3255  1.3528 -0.3691
  398MPD2    H3 5951   3.776   4.492   0.177  0.3849 -2.1392 -1.0171
  398MPD2     N 5952   3.806   4.592   0.622 -0.1942  0.2716 -0.0301
  398MPD2    H5 5953   3.778   4.559   0.714  0.1667 -1.4655 -0.5418
  398MPD2    N1 5954   3.696   4.163   0.488  0.2866  0.3566  0.2944
  398MPD2    H7 5955   3.701   4.158   0.590  1.8788  1.4294  0.2686
  399TMC3    C1 5956   3.689   3.922   0.489  0.1290  0.0043  0.0006
  399TMC3    C2 5957   3.794   3.886   0.560  0.3879  0.5468 -0.1911
  399TMC3    C3 5958   3.820   3.754   0.591 -1.0245 -1.1221  0.2438
  399TMC3    C4 5959   3.625   3.817   0.422 -0.4593  0.2600  0.0195
  399TMC3    C5 5960   3.641   3.688   0.463 -0.3767  0.4969  0.6014
  399TMC3    C6 5961   3.747   3.658   0.541  0.2645  0.1949 -0.9342
  399TMC3     C 5962   3.699   4.049   0.414 -0.3427 -0.1178  0.0668
  399TMC3     O 5963   3.705   4.031   0.293 -0.5161  0.3077 -0.3936
  399TMC3     H 5964   3.857   3.970   0.587 -0.8717  0.8278  1.9335
  399TMC3    H1 5965   3.561   3.845   0.339 -0.6747  2.2044  0.8289
  399TMC3    H2 5966   3.768   3.554   0.565  0.3690  0.3177 -0.4868
  399TMC3    C7 5967   3.557   3.582   0.413 -0.4014  0.0570  0.5897
  399TMC3    C8 5968   3.956   3.714   0.632 -0.7112  0.5527  0.4111
  399TMC3    O1 5969   3.577   3.480   0.477  0.0287 -0.1895  0.1901
  399TMC3    O2 5970   3.983   3.598   0.628  0.0450  0.2033  0.0235
  400TMC3    C1 5971   2.797   2.918  17.217 -0.3632  0.3130  0.4399
  400TMC3    C2 5972   2.670   2.885  17.176  0.0087 -0.0725 -0.4112
  400TMC3    C3 5973   2.596   2.991  17.119 -0.0322  0.7227 -0.3095
  400TMC3    C4 5974   2.846   3.044  17.217  0.0923  0.1358  0.4813
  400TMC3    C5 5975   2.766   3.141  17.162  0.2665  0.3373  1.0098
  400TMC3    C6 5976   2.645   3.112  17.104 -0.3359  0.3052 -0.0510
  400TMC3     C 5977   2.898   2.820  17.209 -0.2178  0.0489  0.1070
  400TMC3     O 5978   3.012   2.850  17.244  0.3435 -0.2858 -0.1082
  400TMC3     H 5979   2.628   2.787  17.191 -2.7615  1.0809 -0.5408
  400TMC3    H1 5980   2.946   3.068  17.250 -0.1952 -2.1385  2.9724
  400TMC3    H2 5981   2.585   3.195  17.067 -0.1556 -0.8753 -2.9485
  400TMC3    C7 5982   2.825   3.268  17.134  0.2593  0.0600 -0.1949
  400TMC3    C8 5983   2.458   2.974  17.067 -0.3563  0.0682  0.7840
  400TMC3    O1 5984   2.933   3.277  17.077  0.3897  0.0302  0.4131
  400TMC3    O2 5985   2.385   3.068  17.048 -0.8742  0.3592  0.1366
  401MPD2     C 5986   0.894   1.181   0.522 -0.1098 -0.1375  0.3578
  401MPD2    C1 5987   0.935   1.173   0.657  0.4243  0.8298 -0.4420
  401MPD2    C2 5988   1.009   1.064   0.699 -0.3905  0.2039  0.1284
  401MPD2    C3 5989   1.041   0.968   0.602  0.1968  0.1702  0.7834
  401MPD2    C4 5990   1.008   0.985   0.470  0.2788  0.4645  0.1643
  401MPD2    C5 5991   0.936   1.088   0.427 -0.1863 -0.1759 -0.1214
  401MPD2     H 5992   1.044   1.043   0.800 -1.2852  1.9901  0.8124
  401MPD2    H1 5993   1.031   0.905   0.401  2.1622  1.8643 -0.8402
  401MPD2    H2 5994   0.824   1.254   0.481 -1.3344 -0.1341  2.4339
  401MPD2    H3 5995   0.891   1.096   0.329  2.5187  1.4896 -1.2325
  401MPD2     N 5996   1.105   0.848   0.645  0.1045 -0.0409 -0.3550
  401MPD2    H5 5997   1.161   0.850   0.730  1.9916  0.3872 -1.6096
  401MPD2    N1 5998   0.902   1.267   0.761 -0.1662 -0.1725 -0.5955
  401MPD2    H7 5999   0.937   1.250   0.855  0.5944  0.4841 -0.7550
  402TMC3    C1 6000   1.210   0.628   0.643  0.2118 -0.3845 -1.0579
  402TMC3    C2 6001   1.213   0.622   0.781 -0.5195  0.5190  0.0018
  402TMC3    C3 6002   1.325   0.558   0.834 -0.3444  0.0562 -0.2378
  402TMC3    C4 6003   1.303   0.570   0.562  0.1608  0.2106  0.2830
  402TMC3    C5 6004   1.401   0.503   0.619 -0.0742  0.1160 -0.1914
  402TMC3    C6 6005   1.420   0.504   0.754  0.4520 -0.8620 -0.1465
  402TMC3     C 6006   1.122   0.732   0.576 -0.5560 -0.9264  0.5834
  402TMC3     O 6007   1.097   0.704   0.454 -0.0074  0.4803  0.3897
  402TMC3     H 6008   1.134   0.678   0.829  2.2903  1.6470  3.3009
  402TMC3    H1 6009   1.295   0.582   0.455  1.5230 -0.6580  0.0820
  402TMC3    H2 6010   1.513   0.469   0.798  1.0788  0.2186 -0.6096
  402TMC3    C7 6011   1.512   0.468   0.529 -0.4848  0.7742  0.1313
  402TMC3    C8 6012   1.324   0.522   0.978  0.2179  0.6601  0.4027
  402TMC3    O1 6013   1.513   0.504   0.412 -0.1539  0.0012 -0.2193
  402TMC3    O2 6014   1.406   0.439   1.014  0.1902  1.0079  0.5276
  403MPD2     C 6015   4.176   0.195  13.158 -0.5267  0.0760  0.4302
  403MPD2    C1 6016   4.198   0.076  13.231 -0.3171  0.7510  0.0360
  403MPD2    C2 6017   4.322   0.062  13.296 -0.2491 -0.3519 -0.1310
  403MPD2    C3 6018   4.414   0.170  13.305  0.2059 -0.6378 -0.3981
  403MPD2    C4 6019   4.384   0.286  13.238 -0.3307 -1.1515 -0.2142
  403MPD2    C5 6020   4.263   0.294  13.180  0.4096 -0.0350 -0.4415
  403MPD2     H 6021   4.359   4.693  13.339  0.8319  0.6305  1.0505
  403MPD2    H1 6022   4.446   0.373  13.250 -2.1595 -0.2146  2.5027
  403MPD2    H2 6023   4.078   0.202  13.112 -0.6438  1.4927  0.8897
  403MPD2    H3 6024   4.247   0.391  13.135  0.3024  0.9915  1.7674
  403MPD2     N 6025   4.530   0.159  13.389  0.7468 -0.5437  0.3451
  403MPD2    H5 6026   4.550   0.073  13.437  0.3944 -0.8207  0.0045
  403MPD2    N1 6027   4.098   4.704  13.239  0.0275  0.6936  0.2218
  403MPD2    H7 6028   4.010   4.717  13.191 -0.0133 -0.3487  0.0016
  404TMC3    C1 6029   4.017   4.490  13.264 -0.6819 -0.1779  0.0687
  404TMC3    C2 6030   3.986   4.391  13.350 -0.0625  0.8219  0.1723
  404TMC3    C3 6031   3.923   4.282  13.296  1.0303  0.6433 -0.2320
  404TMC3    C4 6032   3.983   4.488  13.132 -0.5461 -0.3163  0.1713
  404TMC3    C5 6033   3.907   4.388  13.087  0.3691 -0.1018 -0.3790
  404TMC3    C6 6034   3.884   4.280  13.167  0.5187  0.1786 -0.7592
  404TMC3     C 6035   4.116   4.582  13.305 -0.3058  0.0969 -0.5529
  404TMC3     O 6036   4.204   4.547  13.383 -0.1370  0.0548  0.1806
  404TMC3     H 6037   4.027   4.393  13.450 -0.1991 -0.0334  0.2443
  404TMC3    H1 6038   4.015   4.559  13.057 -1.2001  1.8740  1.9653
  404TMC3    H2 6039   3.822   4.197  13.134 -0.7921  1.6350 -1.9831
  404TMC3    C7 6040   3.896   4.374  12.943  0.4145  0.1372  0.0216
  404TMC3    C8 6041   3.943   4.154  13.358 -0.1972  0.4325  0.5774
  404TMC3    O1 6042   3.971   4.444  12.880  0.3480  0.3403 -0.0378
  404TMC3    O2 6043   3.931   4.049  13.292  0.2269 -0.3078 -0.2820
  405MPD2     C 6044   4.473   1.151  14.460  0.2869 -0.2522  0.4930
  405MPD2    C1 6045   4.531   1.055  14.384 -0.2257 -0.2636  1.1938
  405MPD2    C2 6046   4.486   1.033  14.253 -0.2815  0.1527 -0.2822
  405MPD2    C3 6047   4.373   1.110  14.210 -0.1641  0.7421  0.4202
  405MPD2    C4 6048   4.327   1.216  14.282 -1.1876  0.1904  0.3510
  405MPD2    C5 6049   4.381   1.236  14.405 -0.5769  0.3338 -0.4303
  405MPD2     H 6050   4.523   0.947  14.198 -2.1129 -0.2599 -0.8364
  405MPD2    H1 6051   4.248   1.285  14.256 -1.0287  0.6254  1.0114
  405MPD2    H2 6052   4.500   1.162  14.564  0.2655 -0.9234  0.5714
  405MPD2    H3 6053   4.339   1.315  14.466  1.7488  1.7407 -0.6524
  405MPD2     N 6054   4.316   1.059  14.094  0.3209 -0.2264  0.0438
  405MPD2    H5 6055   4.336   0.962  14.072  2.8477 -0.2466  2.3484
  405MPD2    N1 6056   4.623   0.972  14.451 -0.5119  0.1772  0.4429
  405MPD2    H7 6057   4.638   0.987  14.550 -1.1186  1.7669  0.2879
  406TMC3    C1 6058   4.040   0.926  13.771 -0.3906  0.3094  0.2387
  406TMC3    C2 6059   4.144   0.852  13.719  0.4732 -0.8596 -0.7262
  406TMC3    C3 6060   4.269   0.884  13.762 -0.1362  0.2836 -0.2698
  406TMC3    C4 6061   4.056   1.016  13.865 -0.3705 -0.3060  0.6271
  406TMC3    C5 6062   4.185   1.043  13.904 -0.1935 -0.4465  0.1831
  406TMC3    C6 6063   4.297   0.980  13.857  0.3891 -0.3401 -0.2170
  406TMC3     C 6064   3.915   0.852  13.767 -0.5400 -0.0888  0.2126
  406TMC3     O 6065   3.874   0.809  13.663  0.9332  0.3024 -0.1978
  406TMC3     H 6066   4.135   0.771  13.648  0.6190 -1.7107  0.2290
  406TMC3    H1 6067   3.967   1.061  13.909  1.6926  3.4844  0.9655
  406TMC3    H2 6068   4.396   1.017  13.882  0.5712 -1.2036  0.3243
  406TMC3    C7 6069   4.220   1.122  14.025  0.1047 -0.6839 -0.3540
  406TMC3    C8 6070   4.341   0.755  13.782 -0.1449  0.0952  0.6349
  406TMC3    O1 6071   4.146   1.210  14.052  0.5022  0.6613  0.5599
  406TMC3    O2 6072   4.275   0.649  13.765  0.2470 -0.8977  0.4193
  407MPD2     C 6073   1.892   2.348   9.580  0.7257 -0.3084 -0.7961
  407MPD2    C1 6074   2.025   2.336   9.616 -0.6084 -0.0734  0.1904
  407MPD2    C2 6075   2.073   2.422   9.710 -0.3800  0.5192 -0.5162
  407MPD2    C3 6076   2.006   2.532   9.754  0.7323 -0.1962  0.1182
  407MPD2    C4 6077   1.880   2.554   9.707 -0.4411 -0.1403 -0.7135
  407MPD2    C5 6078   1.826   2.457   9.622  1.0535 -0.7619 -0.1556
  407MPD2     H 6079   2.176   2.403   9.741 -1.0010 -1.4746  0.3109
  407MPD2    H1 6080   1.821   2.644   9.717  0.9588  0.7077 -0.0335
  407MPD2    H2 6081   1.836   2.283   9.514  0.0074  0.3264 -0.8069
  407MPD2    H3 6082   1.722   2.469   9.593  0.9448  1.7598  1.2550
  407MPD2     N 6083   2.078   2.619   9.841  0.1135  0.3787  0.5711
  407MPD2    H5 6084   2.167   2.586   9.875  0.8140  0.8447 -0.7980
  407MPD2    N1 6085   2.103   2.233   9.566  0.1993 -0.2311 -0.7016
  407MPD2    H7 6086   2.202   2.231   9.590 -0.1048 -0.9123  0.4704
  408TMC3    C1 6087   2.160   2.069   9.407 -0.4108  0.0369  0.0713
  408TMC3    C2 6088   2.268   2.146   9.374  0.2462 -0.3057 -0.1440
  408TMC3    C3 6089   2.374   2.083   9.314 -0.7898  0.3973 -0.0658
  408TMC3    C4 6090   2.150   1.936   9.377  0.5389 -0.7757  0.0492
  408TMC3    C5 6091   2.258   1.877   9.307  0.1141 -0.6548 -0.7622
  408TMC3    C6 6092   2.368   1.951   9.280 -0.6335  0.4420 -0.0943
  408TMC3     C 6093   2.060   2.133   9.487 -0.3081 -0.3821  0.5173
  408TMC3     O 6094   1.953   2.072   9.497 -0.1129  0.4859  0.3739
  408TMC3     H 6095   2.282   2.244   9.417 -2.5601 -0.0903  0.3109
  408TMC3    H1 6096   2.053   1.889   9.394  0.5989  0.0260  2.6340
  408TMC3    H2 6097   2.453   1.903   9.233 -1.8871  0.3391 -2.2640
  408TMC3    C7 6098   2.238   1.748   9.245  0.9568 -0.1189  0.2775
  408TMC3    C8 6099   2.488   2.165   9.264 -0.0944 -0.6771  0.1573
  408TMC3    O1 6100   2.317   1.725   9.155 -0.1823  0.1066  0.0819
  408TMC3    O2 6101   2.594   2.109   9.245  0.5355  0.2341 -0.6639
  409MPD2     C 6102   1.258   2.739  17.493  0.0324 -0.1354  0.3966
  409MPD2    C1 6103   1.382   2.701  17.538 -0.2617  1.0251 -0.4069
  409MPD2    C2 6104   1.494   2.768  17.490 -0.7148  0.6477 -0.4972
  409MPD2    C3 6105   1.483   2.881  17.411 -0.2469  0.4364 -0.6758
  409MPD2    C4 6106   1.359   2.921  17.372 -0.4915 -0.1373 -0.5130
  409MPD2    C5 6107   1.252   2.845  17.407  0.2728 -0.8288  0.5085
  409MPD2     H 6108   1.593   2.726  17.499 -1.6689 -1.4641  0.3636
  409MPD2    H1 6109   1.341   3.001  17.301  2.0859 -0.6612 -1.7275
  409MPD2    H2 6110   1.164   2.687  17.508  0.5139 -1.0407  0.2642
  409MPD2    H3 6111   1.155   2.875  17.368  1.2169  2.1863  0.5090
  409MPD2     N 6112   1.594   2.946  17.342 -1.0042 -0.2637  0.0219
  409MPD2    H5 6113   1.563   3.019  17.278  0.9796  0.6587  0.1060
  409MPD2    N1 6114   1.398   2.595  17.628 -0.1367  0.0943 -0.3345
  409MPD2    H7 6115   1.488   2.582  17.674 -0.7172 -0.8566  0.5324
  410TMC3    C1 6116   1.820   2.985  17.280  0.3482  0.8675 -0.1994
  410TMC3    C2 6117   1.943   3.021  17.328 -0.4434  0.4169  0.4029
  410TMC3    C3 6118   2.023   3.094  17.250 -0.5710  0.2038  0.1427
  410TMC3    C4 6119   1.779   3.016  17.153 -0.5740  0.3726 -0.5116
  410TMC3    C5 6120   1.862   3.102  17.080 -0.5267 -0.9159  0.2650
  410TMC3    C6 6121   1.988   3.134  17.126 -0.0419  0.3046  0.9295
  410TMC3     C 6122   1.726   2.916  17.365  0.4815  0.3489  0.3739
  410TMC3     O 6123   1.772   2.851  17.456 -0.3292 -0.2733  0.5971
  410TMC3     H 6124   1.969   3.002  17.431  0.0825 -1.8065 -0.1576
  410TMC3    H1 6125   1.684   2.980  17.114  0.1961 -2.3645  0.0915
  410TMC3    H2 6126   2.061   3.195  17.074  0.7920 -0.2051  1.5103
  410TMC3    C7 6127   1.816   3.140  16.949 -1.2833  0.1659 -0.7541
  410TMC3    C8 6128   2.159   3.107  17.296  0.5530 -0.3240  0.1373
  410TMC3    O1 6129   1.736   3.063  16.901  0.0998 -0.4039  0.5529
  410TMC3    O2 6130   2.221   3.209  17.289  0.0321  0.6725 -0.0339
  411MPD2     C 6131   1.882   3.254  14.890  0.0079  0.2785  0.1279
  411MPD2    C1 6132   1.783   3.319  14.820 -0.0921 -0.6673 -0.9248
  411MPD2    C2 6133   1.710   3.250  14.723 -0.3756  0.3001  0.4556
  411MPD2    C3 6134   1.733   3.118  14.704 -0.8919  0.1842  0.1890
  411MPD2    C4 6135   1.838   3.059  14.770  0.7201 -0.0335  0.4276
  411MPD2    C5 6136   1.913   3.125  14.859 -0.8286  0.0470  0.1265
  411MPD2     H 6137   1.639   3.294  14.655 -1.5654 -1.0621  0.8278
  411MPD2    H1 6138   1.866   2.960  14.732  2.0965  0.4909  0.0520
  411MPD2    H2 6139   1.938   3.303  14.969  0.9878 -0.7902  0.0862
  411MPD2    H3 6140   1.994   3.067  14.903 -1.1284  0.0024  0.6214
  411MPD2     N 6141   1.675   3.054  14.592  0.6272 -0.3386  0.3031
  411MPD2    H5 6142   1.725   2.970  14.566 -1.5148 -1.1893 -1.0828
  411MPD2    N1 6143   1.757   3.454  14.869  0.3507 -1.2617 -0.5558
  411MPD2    H7 6144   1.819   3.489  14.942  0.4012 -1.0706 -0.6900
  412TMC3    C1 6145   1.593   3.054  14.379  0.0262  1.2581  0.4951
  412TMC3    C2 6146   1.632   3.150  14.293 -0.4117  0.4782 -0.5306
  412TMC3    C3 6147   1.701   3.110  14.181 -0.3899 -0.0789 -0.9107
  412TMC3    C4 6148   1.637   2.922  14.367 -0.2944 -0.1499  0.6988
  412TMC3    C5 6149   1.715   2.894  14.254 -0.6755 -0.0399  0.0048
  412TMC3    C6 6150   1.743   2.986  14.156  0.8074 -0.3050 -0.0243
  412TMC3     C 6151   1.574   3.104  14.512 -0.1806  0.3177 -0.0839
  412TMC3     O 6152   1.487   3.190  14.523  0.1114  0.7056  0.2520
  412TMC3     H 6153   1.606   3.254  14.307  0.1372  0.1204  3.2373
  412TMC3    H1 6154   1.620   2.843  14.438  2.0992  0.3341  1.8084
  412TMC3    H2 6155   1.762   2.950  14.056  1.9754 -1.5364  0.6473
  412TMC3    C7 6156   1.771   2.761  14.247  0.2008 -0.2824 -0.2573
  412TMC3    C8 6157   1.690   3.198  14.063  0.5601  0.2844  0.2695
  412TMC3    O1 6158   1.707   2.665  14.283 -0.3702 -0.3474 -0.0929
  412TMC3    O2 6159   1.591   3.267  14.043 -0.0380  0.4274 -0.4407
  413MPD2     C 6160   3.485   2.032  15.476 -0.3068 -0.9959  1.0154
  413MPD2    C1 6161   3.432   1.999  15.355 -0.6392  0.3325 -0.0952
  413MPD2    C2 6162   3.506   1.918  15.271 -0.3076 -0.3732 -0.2184
  413MPD2    C3 6163   3.624   1.862  15.314 -0.0561  0.1128  0.3455
  413MPD2    C4 6164   3.675   1.888  15.441 -0.4742  0.2923  0.0242
  413MPD2    C5 6165   3.607   1.986  15.509  0.0557 -0.3811 -0.3590
  413MPD2     H 6166   3.450   1.890  15.183 -1.2015 -0.7641  0.4743
  413MPD2    H1 6167   3.767   1.840  15.471 -1.0382 -1.1488 -0.5277
  413MPD2    H2 6168   3.433   2.107  15.534  0.5601  0.8494 -0.5957
  413MPD2    H3 6169   3.654   2.021  15.601 -0.0030 -0.9251 -0.1225
  413MPD2     N 6170   3.685   1.778  15.222  0.4576  0.0395 -0.4316
  413MPD2    H5 6171   3.648   1.770  15.128 -1.3117 -0.7946  0.3440
  413MPD2    N1 6172   3.300   2.041  15.330 -0.0982 -0.1280  0.4525
  413MPD2    H7 6173   3.256   2.104  15.396  2.0354  2.0681 -0.1973
  414TMC3    C1 6174   3.820   1.618  15.123  0.0793 -0.3658  0.1098
  414TMC3    C2 6175   3.898   1.506  15.146 -0.0095  0.2801  0.1225
  414TMC3    C3 6176   3.910   1.425  15.039  0.1600  0.1145  0.5198
  414TMC3    C4 6177   3.758   1.652  15.005  0.7306 -0.6669  0.5223
  414TMC3    C5 6178   3.768   1.560  14.901  0.4407 -0.3423  0.1398
  414TMC3    C6 6179   3.841   1.446  14.921  0.3638 -0.1024 -0.3341
  414TMC3     C 6180   3.795   1.703  15.233  0.3416  0.2181  0.1379
  414TMC3     O 6181   3.852   1.673  15.335 -0.3594  0.4080 -0.0833
  414TMC3     H 6182   3.924   1.480  15.248  1.1176 -0.6344 -0.3904
  414TMC3    H1 6183   3.695   1.736  14.977  0.8423 -2.0635 -3.8349
  414TMC3    H2 6184   3.847   1.377  14.838  0.2430 -0.3050 -0.1739
  414TMC3    C7 6185   3.677   1.576  14.790  0.4214 -0.6424  0.1715
  414TMC3    C8 6186   4.026   1.347  15.026  0.5833 -0.0456  0.3495
  414TMC3    O1 6187   3.565   1.623  14.812 -0.0036  0.3786 -0.1275
  414TMC3    O2 6188   4.050   1.265  14.938  0.1758 -0.1635  0.1968
  415TMC3    C1 6189   4.180   3.321  10.419  0.3913 -0.2008  0.4049
  415TMC3    C2 6190   4.317   3.320  10.398 -0.4516 -0.0526  0.2806
  415TMC3    C3 6191   4.397   3.255  10.490  0.1762  0.1101 -1.0393
  415TMC3    C4 6192   4.124   3.249  10.527  0.4710 -0.1685  0.0366
  415TMC3    C5 6193   4.207   3.177  10.609 -0.5214 -0.5605  0.0196
  415TMC3    C6 6194   4.343   3.184  10.594  0.3322 -0.8908 -0.5291
  415TMC3     C 6195   4.104   3.435  10.363 -0.2492 -0.7474  0.4562
  415TMC3     O 6196   3.992   3.448  10.412  0.6327 -0.7538  0.2934
  415TMC3     H 6197   4.366   3.382  10.324  0.5361 -0.2816  0.7312
  415TMC3    H1 6198   4.016   3.246  10.537  0.6325 -1.2508  1.4717
  415TMC3    H2 6199   4.400   3.124  10.665  1.7001 -0.5095 -1.2931
  415TMC3    C7 6200   4.150   3.086  10.708 -0.1326 -0.4153 -0.0213
  415TMC3    C8 6201   4.530   3.203  10.456 -0.1272  0.3994  0.1060
  415TMC3    O1 6202   4.225   3.017  10.775 -0.3697 -0.4397  0.0513
  415TMC3    O2 6203   4.558   3.090  10.489 -0.4935  0.2788 -0.0520
  416MPD2     C 6204   1.822   3.616  11.416  0.1066  0.0477  0.3135
  416MPD2    C1 6205   1.737   3.552  11.504  0.0620  0.3135 -0.0501
  416MPD2    C2 6206   1.697   3.422  11.478  0.3605 -0.3156  0.3107
  416MPD2    C3 6207   1.736   3.357  11.361  0.7583 -0.3347  0.0083
  416MPD2    C4 6208   1.817   3.429  11.270 -1.0364  0.3955  0.0177
  416MPD2    C5 6209   1.865   3.553  11.303  0.1628  0.1706 -0.0474
  416MPD2     H 6210   1.614   3.391  11.541  0.2241 -1.4873 -0.4347
  416MPD2    H1 6211   1.863   3.374  11.189  1.5045  0.4157  1.4307
  416MPD2    H2 6212   1.862   3.715  11.433  3.5452 -0.9468 -2.0501
  416MPD2    H3 6213   1.940   3.601  11.240  0.4198  0.5733  0.5639
  416MPD2     N 6214   1.686   3.230  11.324  0.1460 -0.3878 -0.4010
  416MPD2    H5 6215   1.727   3.190  11.240 -0.6638 -0.6991 -0.6485
  416MPD2    N1 6216   1.702   3.622  11.618 -0.1218  0.3720  0.1128
  416MPD2    H7 6217   1.720   3.722  11.618 -0.0628  0.3627 -0.2439
  417TMC3    C1 6218   1.566   3.689  11.793 -0.2316  0.2948 -0.1745
  417TMC3    C2 6219   1.520   3.664  11.915  0.2376  0.2225  0.5560
  417TMC3    C3 6220   1.402   3.719  11.954 -0.4148 -0.2196  0.2297
  417TMC3    C4 6221   1.515   3.788  11.714 -0.6505 -1.2322 -0.2867
  417TMC3    C5 6222   1.387   3.831  11.756 -0.3074  0.2680  0.1870
  417TMC3    C6 6223   1.328   3.802  11.872  1.2690  0.1711 -0.4882
  417TMC3     C 6224   1.638   3.574  11.731 -0.3355  0.2521 -0.3189
  417TMC3     O 6225   1.619   3.458  11.768  0.0181 -0.5614  0.3503
  417TMC3     H 6226   1.571   3.587  11.972  1.5136 -0.7482 -1.8890
  417TMC3    H1 6227   1.544   3.804  11.611  0.2235  3.6768  0.7302
  417TMC3    H2 6228   1.231   3.834  11.908  0.1427 -2.7454 -0.9248
  417TMC3    C7 6229   1.291   3.876  11.661 -0.2662 -0.7396  0.9148
  417TMC3    C8 6230   1.356   3.698  12.088  0.6071  0.2935 -0.2276
  417TMC3    O1 6231   1.328   3.957  11.579 -0.3209 -0.2200  0.3119
  417TMC3    O2 6232   1.238   3.675  12.112  0.0511 -0.4366 -0.0616
  418TMC3    C1 6233   4.111   4.699   0.884 -0.1441 -0.9076 -0.4528
  418TMC3    C2 6234   4.051   0.033   0.773  0.2361  0.7182  0.3769
  418TMC3    C3 6235   3.920   0.011   0.756 -0.5209 -0.6718 -0.6441
  418TMC3    C4 6236   4.047   4.631   0.986  0.1997  0.5706 -0.1480
  418TMC3    C5 6237   3.910   4.623   0.972  0.2224 -0.0842  0.7184
  418TMC3    C6 6238   3.848   4.669   0.857  0.4954  0.6406 -0.0799
  418TMC3     C 6239   4.258   4.706   0.879 -0.0454 -0.6500 -0.0023
  418TMC3     O 6240   4.299   0.088   0.833 -0.3409  0.1743 -0.4464
  418TMC3     H 6241   4.109   0.080   0.695 -0.5925 -3.9150 -3.0363
  418TMC3    H1 6242   4.097   4.609   1.079 -0.5183 -0.2715  0.0431
  418TMC3    H2 6243   3.740   4.678   0.855  0.7495  3.6228 -0.4453
  418TMC3    C7 6244   3.848   4.501   1.016  0.2107 -0.1002 -0.1184
  418TMC3    C8 6245   3.883   4.709   0.619  0.4875  0.3360 -0.9909
  418TMC3    O1 6246   3.781   4.447   0.926  0.5321  0.2268 -0.1934
  418TMC3    O2 6247   3.957   0.031   0.535 -0.2248  0.4903  0.4609
  419MPD2     C 6248   3.192   3.110  12.695  0.1252  0.2601 -0.3322
  419MPD2    C1 6249   3.140   3.228  12.646  0.1400 -0.2703  0.0885
  419MPD2    C2 6250   3.105   3.327  12.730  0.1435 -0.5389  0.8921
  419MPD2    C3 6251   3.127   3.315  12.866 -0.9213 -0.7173  0.3374
  419MPD2    C4 6252   3.192   3.203  12.914 -0.2121  0.4774 -0.3730
  419MPD2    C5 6253   3.211   3.094  12.828  0.2344  0.0918  0.0261
  419MPD2     H 6254   3.061   3.413  12.681  1.8306  0.4044  1.0008
  419MPD2    H1 6255   3.225   3.205  13.017 -1.4647  0.0124  0.0302
  419MPD2    H2 6256   3.217   3.029  12.628 -1.6638 -3.1907  3.2119
  419MPD2    H3 6257   3.249   3.000  12.866  0.1153  0.3168  0.6922
  419MPD2     N 6258   3.080   3.426  12.940 -0.3355  0.5453  0.5634
  419MPD2    H5 6259   3.051   3.499  12.876 -3.3720  1.4725  2.9942
  419MPD2    N1 6260   3.111   3.244  12.507 -0.4551 -0.4365  0.0546
  419MPD2    H7 6261   3.089   3.337  12.472 -0.2000 -0.4684 -0.1914
  420TMC3    C1 6262   3.024   3.557  13.122  0.9965 -0.6186 -0.6919
  420TMC3    C2 6263   2.907   3.599  13.054 -0.4289 -0.0401 -0.2359
  420TMC3    C3 6264   2.846   3.712  13.098 -1.0907 -0.6181  0.5187
  420TMC3    C4 6265   3.074   3.630  13.223  0.0851  0.1570  0.1033
  420TMC3    C5 6266   3.014   3.749  13.258 -0.3192  1.0788 -0.1904
  420TMC3    C6 6267   2.900   3.792  13.196 -0.0552  0.4560  0.2991
  420TMC3     C 6268   3.107   3.443  13.077  0.6518  0.2979 -0.3030
  420TMC3     O 6269   3.194   3.396  13.153  0.6533  0.1023 -0.4040
  420TMC3     H 6270   2.868   3.538  12.973 -2.7482  1.3957 -0.1804
  420TMC3    H1 6271   3.166   3.599  13.270 -0.1310 -1.3283 -0.4397
  420TMC3    H2 6272   2.855   3.886  13.224  0.8047  0.7011  0.8542
  420TMC3    C7 6273   3.050   3.802  13.381 -0.2227 -0.0001  0.2489
  420TMC3    C8 6274   2.719   3.763  13.042  0.0699  0.0820 -0.5664
  420TMC3    O1 6275   3.056   3.924  13.382 -0.8560 -0.1070  0.2071
  420TMC3    O2 6276   2.685   3.881  13.060 -0.2055  0.4192 -0.9070
  421TMC3    C1 6277   0.012   0.229  13.500 -0.5207 -0.0204 -0.0056
  421TMC3    C2 6278   0.096   0.333  13.518 -0.7025 -0.4880  0.1030
  421TMC3    C3 6279   0.172   0.343  13.628  0.3203 -0.6310  0.2070
  421TMC3    C4 6280   4.710   0.140  13.608  0.4321 -0.5227 -0.3412
  421TMC3    C5 6281   0.070   0.147  13.712 -0.4063 -0.4340 -0.5082
  421TMC3    C6 6282   0.163   0.249  13.726 -0.2263  0.0636 -0.2606
  421TMC3     C 6283   4.628   0.253  13.403  1.0098  0.3825 -0.0354
  421TMC3     O 6284   4.643   0.353  13.331  0.0996 -0.1659 -0.0663
  421TMC3     H 6285   0.119   0.411  13.445  0.5757 -1.7976 -0.9004
  421TMC3    H1 6286   4.641   0.057  13.603  0.4710 -0.5830  0.1819
  421TMC3    H2 6287   0.220   0.244  13.818 -1.8520 -0.0324  0.7441
  421TMC3    C7 6288   0.089   0.028  13.800 -0.5112 -0.2951 -1.0483
  421TMC3    C8 6289   0.258   0.462  13.639  0.2670 -0.0155 -0.7506
  421TMC3    O1 6290   0.158   0.044  13.903  0.1180 -0.7240 -0.2190
  421TMC3    O2 6291   0.306   0.502  13.533  0.5467  0.0646  0.0794
  422TMC3    C1 6292   2.638   1.882  11.788 -0.3318  0.6998 -0.4018
  422TMC3    C2 6293   2.598   2.010  11.820  0.3597 -0.3838  0.4607
  422TMC3    C3 6294   2.500   2.028  11.907  0.2867 -0.1195  0.4540
  422TMC3    C4 6295   2.576   1.772  11.844 -0.0354  0.3925 -1.0268
  422TMC3    C5 6296   2.482   1.799  11.951 -0.1549  0.1486 -0.2193
  422TMC3    C6 6297   2.443   1.923  11.974  0.2034 -0.0857  0.5011
  422TMC3     C 6298   2.768   1.857  11.726  0.5835 -0.0292 -0.2412
  422TMC3     O 6299   2.843   1.954  11.700  0.3122  0.2905 -0.2330
  422TMC3     H 6300   2.658   2.092  11.782 -0.0098 -1.0759 -1.6212
  422TMC3    H1 6301   2.605   1.670  11.823  0.5278  0.2474  0.5196
  422TMC3    H2 6302   2.351   1.936  12.029 -0.1272  0.8643 -0.2836
  422TMC3    C7 6303   2.421   1.680  12.015 -0.3413 -0.5354 -1.0050
  422TMC3    C8 6304   2.454   2.162  11.950 -0.1212  0.7522 -0.1256
  422TMC3    O1 6305   2.460   1.572  11.982  0.2420  0.2277  0.2698
  422TMC3    O2 6306   2.380   2.164  12.049 -0.2429 -0.0447  0.1580
  423MPD2     C 6307   3.785   2.239   0.712 -0.4706  0.2182 -0.2298
  423MPD2    C1 6308   3.685   2.137   0.700  0.0569  0.1283 -0.1318
  423MPD2    C2 6309   3.663   2.082   0.571 -0.3015  0.6131  0.1645
  423MPD2    C3 6310   3.751   2.112   0.465  0.9658 -0.1413 -0.6346
  423MPD2    C4 6311   3.857   2.198   0.482  0.4153  0.0609  0.0561
  423MPD2    C5 6312   3.866   2.259   0.604  0.2438 -0.1018 -0.8489
  423MPD2     H 6313   3.592   2.001   0.568  0.3358 -0.0528  2.8291
  423MPD2    H1 6314   3.929   2.219   0.403 -0.6589 -0.6254 -1.1119
  423MPD2    H2 6315   3.797   2.287   0.808 -0.0303 -0.9948  0.3206
  423MPD2    H3 6316   3.940   2.336   0.619  0.2835 -0.1936 -0.5809
  423MPD2     N 6317   3.759   2.036   0.347 -0.2297  0.3457 -0.2907
  423MPD2    H5 6318   3.819   2.070   0.272  0.0198 -0.1409 -0.3138
  423MPD2    N1 6319   3.608   2.084   0.804 -0.0978  0.3141  0.3210
  423MPD2    H7 6320   3.535   2.016   0.785  2.0398 -0.8366 -3.5843
  424TMC3    C1 6321   3.545   2.023   1.029  0.1991 -0.3577 -0.2693
  424TMC3    C2 6322   3.593   1.983   1.147  0.3639 -0.5458 -0.3335
  424TMC3    C3 6323   3.510   1.914   1.230  0.9366  0.4820  0.1422
  424TMC3    C4 6324   3.420   2.000   0.984  0.4006  0.2552  0.0584
  424TMC3    C5 6325   3.341   1.939   1.073  0.0383  1.3939  0.2222
  424TMC3    C6 6326   3.385   1.892   1.197  0.1819  0.3441  0.0951
  424TMC3     C 6327   3.626   2.107   0.937 -0.6226  0.3850 -0.5567
  424TMC3     O 6328   3.721   2.158   0.991  0.1251  0.5806 -0.1767
  424TMC3     H 6329   3.696   2.001   1.175  0.3688  1.5468 -1.7311
  424TMC3    H1 6330   3.386   2.037   0.888 -2.1524 -1.3114  0.3377
  424TMC3    H2 6331   3.318   1.857   1.274  1.1896  1.3615  1.4198
  424TMC3    C7 6332   3.215   1.893   1.022  0.6882 -0.5046 -0.2329
  424TMC3    C8 6333   3.553   1.840   1.354 -0.6510  0.4765  0.8037
  424TMC3    O1 6334   3.182   1.903   0.906 -0.1429  0.2752 -0.6800
  424TMC3    O2 6335   3.497   1.731   1.367  0.0295  0.6459  0.1296
  425MPD2     C 6336   2.360   1.368  17.603 -0.2981 -0.3186 -0.7388
  425MPD2    C1 6337   2.294   1.250  17.634  0.0726  0.3145  0.2960
  425MPD2    C2 6338   2.156   1.256  17.659 -0.0719  0.5274 -0.9394
  425MPD2    C3 6339   2.088   1.372  17.656 -0.2579  0.1635 -1.1057
  425MPD2    C4 6340   2.147   1.488  17.632  0.3309  0.7099  0.2726
  425MPD2    C5 6341   2.281   1.484  17.605  0.1708 -0.0058  0.0673
  425MPD2     H 6342   2.099   1.166  17.681  0.8948 -0.7749 -3.8019
  425MPD2    H1 6343   2.100   1.585  17.628 -2.2365 -0.6236 -1.6890
  425MPD2    H2 6344   2.465   1.364  17.576  0.7617 -0.4565  3.4735
  425MPD2    H3 6345   2.312   1.583  17.573  3.2791 -1.5611 -1.7248
  425MPD2     N 6346   1.955   1.370   0.009 -0.1520  0.0424 -1.0559
  425MPD2    H5 6347   1.914   1.279   0.030  4.1213 -1.9869 -1.5877
  425MPD2    N1 6348   2.375   1.139  17.655  0.2885  1.2149 -0.0685
  425MPD2    H7 6349   2.473   1.151  17.630  0.0888 -0.8152 -1.8089
  426TMC3    C1 6350   2.452   0.928   0.004  0.5168  0.0701  0.2208
  426TMC3    C2 6351   2.518   0.912  17.578 -0.4824  0.1480  0.3620
  426TMC3    C3 6352   2.591   0.796  17.558  0.5938 -1.1846  0.9730
  426TMC3    C4 6353   2.445   0.830   0.101 -0.8826 -0.3173 -0.2061
  426TMC3    C5 6354   2.510   0.710   0.066  0.3385  0.0156  0.4181
  426TMC3    C6 6355   2.583   0.696  17.651 -0.4365  0.0257  0.2581
  426TMC3     C 6356   2.339   1.021   0.012 -0.2744 -0.6335  0.0083
  426TMC3     O 6357   2.234   0.990   0.060  0.3285  0.2627 -0.2786
  426TMC3     H 6358   2.501   0.985  17.499 -1.9600  1.5173  1.9677
  426TMC3    H1 6359   2.375   0.845   0.183 -0.3600  0.2104  0.1449
  426TMC3    H2 6360   2.626   0.598  17.633  3.5715  1.7791  0.2551
  426TMC3    C7 6361   2.488   0.590   0.149  0.4007  0.3196  0.2484
  426TMC3    C8 6362   2.575   0.752  17.422  0.5063  0.4894  0.6756
  426TMC3    O1 6363   2.556   0.492   0.127  0.1689  0.2433 -0.1265
  426TMC3    O2 6364   2.653   0.796  17.340  0.4505  0.2457  0.0731
  427MPD2     C 6365   1.021   3.379  15.022 -0.2368  0.0445 -0.7098
  427MPD2    C1 6366   0.987   3.375  15.156  0.0509  0.0216  0.6406
  427MPD2    C2 6367   0.854   3.392  15.190  0.5419  0.6752 -0.2428
  427MPD2    C3 6368   0.757   3.421  15.094 -0.3521 -0.0800 -0.7144
  427MPD2    C4 6369   0.797   3.425  14.960 -0.0017 -0.6757 -0.1504
  427MPD2    C5 6370   0.927   3.403  14.925 -0.0802 -0.5911  0.1662
  427MPD2     H 6371   0.834   3.393  15.297 -0.1044 -0.6309 -0.3586
  427MPD2    H1 6372   0.728   3.448  14.879 -0.4613  1.9413  0.9939
  427MPD2    H2 6373   1.124   3.363  14.992 -0.4630 -1.1260 -0.8293
  427MPD2    H3 6374   0.959   3.410  14.821  2.2340  0.0934  0.9235
  427MPD2     N 6375   0.623   3.452  15.127  0.0103  0.0110 -0.1092
  427MPD2    H5 6376   0.556   3.460  15.051  1.9411  0.9289 -1.7357
  427MPD2    N1 6377   1.083   3.344  15.261 -0.2115 -0.6583  0.2775
  427MPD2    H7 6378   1.048   3.342  15.357 -0.0780  1.6086  0.3798
  428TMC3    C1 6379   1.286   3.269  15.347 -0.1186  0.0065  0.2245
  428TMC3    C2 6380   1.230   3.162  15.408  0.5014 -0.0980  0.4018
  428TMC3    C3 6381   1.313   3.098  15.495 -0.2308  0.1151 -0.3061
  428TMC3    C4 6382   1.411   3.311  15.359 -0.5750 -0.0911 -0.7280
  428TMC3    C5 6383   1.488   3.263  15.461 -0.1015 -0.2563 -0.5160
  428TMC3    C6 6384   1.443   3.145  15.522 -0.5347 -0.1263 -0.3334
  428TMC3     C 6385   1.222   3.337  15.237  0.0435 -0.5631 -0.4266
  428TMC3     O 6386   1.283   3.387  15.144 -0.3395  0.0030  0.7445
  428TMC3     H 6387   1.130   3.123  15.389 -0.7901  1.9761  2.8736
  428TMC3    H1 6388   1.434   3.394  15.294  1.9984 -2.1589 -2.4705
  428TMC3    H2 6389   1.508   3.089  15.589  0.4241  1.6847  0.2683
  428TMC3    C7 6390   1.603   3.332  15.520  0.1115 -1.0009 -0.3261
  428TMC3    C8 6391   1.304   2.949  15.496 -0.9298  0.6041  0.1748
  428TMC3    O1 6392   1.659   3.272  15.610 -0.3756  0.4474 -0.0330
  428TMC3    O2 6393   1.409   2.888  15.485 -0.2902  0.7267  0.4697
  429MPD2     C 6394   1.911   3.448   0.203  0.0502  1.3973  0.9338
  429MPD2    C1 6395   2.041   3.423   0.216 -0.0680  0.2632  0.4960
  429MPD2    C2 6396   2.127   3.521   0.170 -0.0451 -0.3720 -0.2524
  429MPD2    C3 6397   2.086   3.640   0.110  1.0059 -0.1385  0.3333
  429MPD2    C4 6398   1.954   3.660   0.110 -0.1715 -0.2906  0.3507
  429MPD2    C5 6399   1.860   3.569   0.153 -0.4945 -0.2319 -0.1313
  429MPD2     H 6400   2.234   3.502   0.178  0.5171  1.8645 -2.5288
  429MPD2    H1 6401   1.910   3.751   0.071  1.0710  0.5088  0.8404
  429MPD2    H2 6402   1.839   3.372   0.231  2.7287 -0.9219  1.5340
  429MPD2    H3 6403   1.755   3.592   0.151 -0.5318 -0.3843  0.0812
  429MPD2     N 6404   2.178   3.724   0.058  0.3957 -0.6653  0.4034
  429MPD2    H5 6405   2.272   3.688   0.045  0.7392  1.6398 -3.7922
  429MPD2    N1 6406   2.096   3.312   0.282  0.2358 -0.2888  0.3963
  429MPD2    H7 6407   2.191   3.322   0.317  0.3829 -1.6517  0.3928
  430TMC3    C1 6408   2.264   3.894  17.604  0.0442  0.3990  0.3234
  430TMC3    C2 6409   2.227   3.981  17.502  0.2881 -0.2953 -0.1097
  430TMC3    C3 6410   2.323   4.007  17.402  0.1536  0.4855 -0.3753
  430TMC3    C4 6411   2.393   3.844  17.624  0.7855 -0.7170 -0.0194
  430TMC3    C5 6412   2.477   3.869  17.513  0.1618 -0.7874 -0.7855
  430TMC3    C6 6413   2.444   3.944  17.403 -0.0917 -0.2348 -0.8478
  430TMC3     C 6414   2.150   3.843  17.682 -0.1715  0.0807 -0.2234
  430TMC3     O 6415   2.042   3.908  17.671  0.3652  0.6340  0.3261
  430TMC3     H 6416   2.126   4.020  17.494 -0.0779 -1.3395 -0.5898
  430TMC3    H1 6417   2.429   3.780   0.008 -1.1485 -1.1158  0.5170
  430TMC3    H2 6418   2.517   3.964  17.326 -0.0591 -0.8760 -0.9785
  430TMC3    C7 6419   2.580   3.767  17.486 -0.5912  0.4602  0.8630
  430TMC3    C8 6420   2.273   4.040  17.277 -0.2597 -0.0893 -0.4040
  430TMC3    O1 6421   2.558   3.655  17.528  0.0559 -0.3489  0.1096
  430TMC3    O2 6422   2.331   3.995  17.176  0.2167  0.2724  0.2908
  431MPD2     C 6423   2.754   3.875  12.522 -0.3316 -0.2384 -0.5105
  431MPD2    C1 6424   2.835   3.863  12.415  0.2565  0.1582  0.5749
  431MPD2    C2 6425   2.840   3.748  12.342 -0.2727 -0.0563  0.1195
  431MPD2    C3 6426   2.771   3.635  12.376 -0.2225 -0.3043 -0.3293
  431MPD2    C4 6427   2.682   3.651  12.477 -0.4289  0.4797 -0.5706
  431MPD2    C5 6428   2.676   3.766  12.553 -0.3733 -0.1320 -0.0982
  431MPD2     H 6429   2.914   3.748  12.263 -0.3213 -0.3148  0.0726
  431MPD2    H1 6430   2.627   3.563  12.508  0.1901  1.0793  2.2142
  431MPD2    H2 6431   2.745   3.969  12.574 -0.9197 -0.5461 -0.0571
  431MPD2    H3 6432   2.606   3.763  12.635 -0.8051 -1.0198 -0.5021
  431MPD2     N 6433   2.784   3.505  12.312  0.1844  0.0894  0.2603
  431MPD2    H5 6434   2.729   3.428  12.349 -2.4726  1.1637 -1.5242
  431MPD2    N1 6435   2.930   3.958  12.383 -0.0545  0.0612  0.0584
  431MPD2    H7 6436   2.996   3.930  12.312  0.2838 -0.6963  0.6745
  432TMC3    C1 6437   2.900   3.346  12.183 -0.2829  0.1098 -0.3159
  432TMC3    C2 6438   2.948   3.319  12.058 -0.3798  0.2877  0.3286
  432TMC3    C3 6439   3.047   3.223  12.054  0.1657  0.2035 -0.0272
  432TMC3    C4 6440   2.950   3.288  12.298 -0.5662  0.1465  0.2800
  432TMC3    C5 6441   3.051   3.194  12.286 -0.1307 -0.0799  0.2698
  432TMC3    C6 6442   3.113   3.172  12.167  0.0935 -0.3159 -0.9941
  432TMC3     C 6443   2.855   3.485  12.195  0.6255  0.1313 -0.3003
  432TMC3     O 6444   2.905   3.568  12.123  0.7584  0.2286 -0.3705
  432TMC3     H 6445   2.918   3.376  11.971  1.8195  1.5714  0.4212
  432TMC3    H1 6446   2.913   3.304  12.398  0.0447 -1.0867  0.7067
  432TMC3    H2 6447   3.196   3.102  12.164 -0.9426 -1.5444 -1.2216
  432TMC3    C7 6448   3.120   3.145  12.410  0.3575 -0.9948 -0.3982
  432TMC3    C8 6449   3.124   3.198  11.933  0.4554 -0.0483 -0.6453
  432TMC3    O1 6450   3.179   3.037  12.406 -0.0692  0.2119 -0.3388
  432TMC3    O2 6451   3.062   3.162  11.835 -0.2405  0.5925 -0.4922
  433MPD2     C 6452   2.345   2.917  10.660 -0.1242 -0.1594 -0.0487
  433MPD2    C1 6453   2.294   2.797  10.698 -0.1237 -0.3704  0.0758
  433MPD2    C2 6454   2.288   2.765  10.842  0.1873  0.5838 -0.2927
  433MPD2    C3 6455   2.323   2.862  10.934 -0.2162  0.7797 -0.1794
  433MPD2    C4 6456   2.368   2.983  10.889  0.3111 -0.5051 -0.3599
  433MPD2    C5 6457   2.384   3.008  10.754  0.4495  0.0304  0.3860
  433MPD2     H 6458   2.249   2.671  10.878 -0.5221  0.4912 -1.2895
  433MPD2    H1 6459   2.401   3.062  10.956 -0.2946  0.2686 -0.9765
  433MPD2    H2 6460   2.353   2.942  10.555 -1.2386  2.2699  0.4410
  433MPD2    H3 6461   2.425   3.105  10.727 -0.9803  0.9830  1.6281
  433MPD2     N 6462   2.322   2.833  11.069  0.5834  0.1916  0.3943
  433MPD2    H5 6463   2.281   2.743  11.095  0.1833  0.2167 -0.1366
  433MPD2    N1 6464   2.249   2.700  10.610  0.0967 -0.1980  0.2169
  433MPD2    H7 6465   2.206   2.613  10.641 -0.3396 -0.5073 -1.2839
  434TMC3    C1 6466   2.244   2.556  10.425  0.1390  0.1978 -0.0877
  434TMC3    C2 6467   2.275   2.461  10.528  0.5316  0.4210 -0.0603
  434TMC3    C3 6468   2.320   2.343  10.487 -0.1579 -0.0926 -0.2986
  434TMC3    C4 6469   2.237   2.523  10.292  0.1695  0.7563 -0.0058
  434TMC3    C5 6470   2.274   2.401  10.260 -0.8689 -0.7830 -0.2514
  434TMC3    C6 6471   2.319   2.310  10.354  1.1175 -0.0630  1.0937
  434TMC3     C 6472   2.262   2.690  10.469  0.0033 -0.1875  0.0273
  434TMC3     O 6473   2.311   2.767  10.389 -0.1760  0.0067 -1.0389
  434TMC3     H 6474   2.299   2.482  10.631  2.4632 -1.0216 -0.2166
  434TMC3    H1 6475   2.240   2.597  10.212 -1.6552  0.5094 -0.3033
  434TMC3    H2 6476   2.354   2.213  10.322  0.4346  0.7276 -2.0576
  434TMC3    C7 6477   2.210   2.344  10.143  0.1150  0.6312  0.1946
  434TMC3    C8 6478   2.371   2.252  10.582 -0.7055  0.2749  0.6188
  434TMC3    O1 6479   2.183   2.418  10.047 -0.1163 -0.3328 -0.0890
  434TMC3    O2 6480   2.346   2.268  10.701  0.6596 -0.8336  1.1993
  435MPD2     C 6481   3.865   2.396  15.530  0.3297 -0.1038  0.6182
  435MPD2    C1 6482   3.871   2.397  15.668  0.8570 -0.2159  0.7012
  435MPD2    C2 6483   3.989   2.352  15.735 -0.1304 -0.5518  0.0622
  435MPD2    C3 6484   4.096   2.305  15.663  0.4530  0.3448  0.2093
  435MPD2    C4 6485   4.084   2.322  15.526  1.1107 -0.8084  0.3104
  435MPD2    C5 6486   3.976   2.363  15.458 -0.1392  0.7438 -0.0241
  435MPD2     H 6487   3.988   2.358  15.843  1.9594  1.7484 -0.0661
  435MPD2    H1 6488   4.163   2.299  15.455 -0.3930  0.6518 -1.8301
  435MPD2    H2 6489   3.787   2.435  15.467 -1.4992  0.2534  3.1152
  435MPD2    H3 6490   3.970   2.363  15.349 -0.9613  2.1118  0.0174
  435MPD2     N 6491   4.210   2.261  15.728  0.5164 -0.7059  0.1880
  435MPD2    H5 6492   4.191   2.248  15.827  1.6325  1.6337  0.6975
  435MPD2    N1 6493   3.759   2.425  15.743 -0.0172  0.1016 -0.0218
  435MPD2    H7 6494   3.770   2.425  15.844  0.2987  0.5386 -0.0527
  436TMC3    C1 6495   3.487   2.515  16.025  0.7002  0.5246 -0.6172
  436TMC3    C2 6496   3.571   2.517  15.920  0.0101  0.2673  0.4297
  436TMC3    C3 6497   3.543   2.443  15.809  0.0143 -0.1003  0.9193
  436TMC3    C4 6498   3.372   2.442  16.018  0.3734 -0.2203 -0.0661
  436TMC3    C5 6499   3.335   2.386  15.895  0.1512  0.1212 -1.4094
  436TMC3    C6 6500   3.419   2.395  15.786  0.4800  1.0059  0.1153
  436TMC3     C 6501   3.514   2.602  16.137  0.3597  0.3384  0.4490
  436TMC3     O 6502   3.618   2.673  16.126  0.0190 -0.3373 -0.1111
  436TMC3     H 6503   3.664   2.572  15.920  0.5940 -0.7216 -2.7951
  436TMC3    H1 6504   3.299   2.456  16.097 -1.1005  0.8753 -1.6206
  436TMC3    H2 6505   3.395   2.348  15.692  1.1747  1.8622 -0.4795
  436TMC3    C7 6506   3.216   2.298  15.883 -0.0412  0.2503 -0.3538
  436TMC3    C8 6507   3.631   2.443  15.698  0.5259 -0.4891  0.2063
  436TMC3    O1 6508   3.185   2.269  15.767  0.4097 -0.0330 -0.3318
  436TMC3    O2 6509   3.587   2.427  15.584  0.0455  0.3242  0.3040
  437TMC3    C1 6510   2.680   0.097  12.293 -0.5001 -0.2233  0.3764
  437TMC3    C2 6511   2.631   0.146  12.173 -0.8569 -0.2768 -0.1366
  437TMC3    C3 6512   2.659   0.066  12.067 -0.0059  0.4823 -0.6450
  437TMC3    C4 6513   2.777   0.002  12.305 -0.8936 -0.4931 -0.3723
  437TMC3    C5 6514   2.819   4.657  12.193 -0.1767 -0.7640 -0.2624
  437TMC3    C6 6515   2.749   4.687  12.072 -0.1776 -0.1711 -0.4775
  437TMC3     C 6516   2.604   0.155  12.410 -0.3092 -0.0563  0.3216
  437TMC3     O 6517   2.573   0.273  12.403  0.2556  0.0957  0.4041
  437TMC3     H 6518   2.547   0.214  12.165 -0.8346 -0.0944  1.1610
  437TMC3    H1 6519   2.837   4.723  12.396 -0.0626 -0.6953 -0.9263
  437TMC3    H2 6520   2.780   4.629  11.986  0.8691  1.4484 -1.2005
  437TMC3    C7 6521   2.953   4.610  12.182 -0.0084 -0.1658 -0.2620
  437TMC3    C8 6522   2.606   0.096  11.938 -0.0630  0.1285 -0.4521
  437TMC3    O1 6523   2.981   4.558  12.078  0.5703 -0.3076  0.6459
  437TMC3    O2 6524   2.578   0.212  11.916 -0.5863 -0.1732  0.1435
  438MPD2     C 6525   4.666   4.639  16.994 -0.1687 -0.4416 -0.0296
  438MPD2    C1 6526   0.045   4.702  17.066  0.2334  0.5887  0.1162
  438MPD2    C2 6527   0.040   4.692  17.206 -0.4055  0.6044 -0.1311
  438MPD2    C3 6528   4.659   4.621  17.272 -0.8659  0.0980  0.8000
  438MPD2    C4 6529   4.561   4.562  17.198 -0.3405  0.2653  0.3406
  438MPD2    C5 6530   4.566   4.570  17.060 -0.2176 -0.0051  0.6994
  438MPD2     H 6531   0.122   0.014  17.261  0.9633 -0.5865 -1.1972
  438MPD2    H1 6532   4.480   4.503  17.241  0.8327 -3.5697 -2.7927
  438MPD2    H2 6533   4.651   4.652  16.887 -0.2913  1.1044  0.1704
  438MPD2    H3 6534   4.477   4.532  17.011 -1.7589  0.8877  2.8582
  438MPD2     N 6535   4.665   4.599  17.410  0.0726 -0.2586 -0.3469
  438MPD2    H5 6536   4.589   4.544  17.447 -0.7872  0.1221 -1.5472
  438MPD2    N1 6537   0.168   0.023  17.002 -0.6787 -0.6192  0.5859
  438MPD2    H7 6538   0.252   0.030  17.058 -1.3936  2.9736  1.1996
  439TMC3    C1 6539   0.316   0.033  16.813 -0.1902  0.3159 -0.0360
  439TMC3    C2 6540   0.330   0.038  16.674 -0.5453  0.0936  0.2387
  439TMC3    C3 6541   0.448   4.713  16.620  0.5179  0.1490 -0.7437
  439TMC3    C4 6542   0.411   4.695  16.888 -0.4231 -1.1815  0.2234
  439TMC3    C5 6543   0.517   4.635  16.823  0.1642  0.9074 -0.3021
  439TMC3    C6 6544   0.532   4.637  16.688 -0.9889  0.5336 -0.3965
  439TMC3     C 6545   0.178   0.044  16.868 -0.3581  0.8365 -1.0826
  439TMC3     O 6546   0.094   0.083  16.787 -0.1676  0.1665 -0.2597
  439TMC3     H 6547   0.261   0.086  16.605  0.2744  1.2263  0.2024
  439TMC3    H1 6548   0.408   4.665  16.993  0.7054 -1.4389  0.1864
  439TMC3    H2 6549   0.600   4.575  16.630 -0.9849 -1.4918  1.7488
  439TMC3    C7 6550   0.569   4.527  16.892  0.1826 -0.5475 -0.7770
  439TMC3    C8 6551   0.507   0.016  16.484  0.3182 -0.3097 -0.4870
  439TMC3    O1 6552   0.660   4.546  16.973 -0.1113  0.0915  1.0996
  439TMC3    O2 6553   0.627   0.006  16.479 -0.1031  0.4504 -0.5114
  440MPD2     C 6554   3.924   0.745  14.461 -0.2510  0.6606 -0.4540
  440MPD2    C1 6555   3.936   0.820  14.572  0.1493 -0.1126 -0.0545
  440MPD2    C2 6556   4.043   0.812  14.658  0.1234  0.3107 -0.1820
  440MPD2    C3 6557   4.141   0.722  14.629  0.2650  0.1861 -0.0123
  440MPD2    C4 6558   4.132   0.644  14.519 -0.3088 -0.2554 -0.5170
  440MPD2    C5 6559   4.021   0.650  14.442  0.7269  0.2852 -0.7447
  440MPD2     H 6560   4.055   0.879  14.743  0.1371  0.3427 -0.2088
  440MPD2    H1 6561   4.213   0.574  14.499 -0.1043  0.8161 -3.4082
  440MPD2    H2 6562   3.856   0.764  14.378  0.1202 -0.0280 -0.9105
  440MPD2    H3 6563   4.014   0.593  14.350 -1.9554  1.4878 -1.3027
  440MPD2     N 6564   4.251   0.695  14.712 -0.3807  0.0748 -1.0202
  440MPD2    H5 6565   4.326   0.636  14.679  0.8115  1.4502 -0.8134
  440MPD2    N1 6566   3.845   0.924  14.602  0.0202 -0.7878 -0.2407
  440MPD2    H7 6567   3.852   0.981  14.685  0.3260 -0.5091 -0.4617
  441TMC3    C1 6568   4.410   0.723  14.882  0.2873  0.3896 -0.6225
  441TMC3    C2 6569   4.481   0.828  14.920 -0.8287  0.5427 -0.1501
  441TMC3    C3 6570   4.541   0.821  15.042 -0.0236  0.2992  0.3293
  441TMC3    C4 6571   4.403   0.604  14.950  0.4339  0.6926  0.1983
  441TMC3    C5 6572   4.472   0.598  15.066 -0.6562 -0.0557 -0.0589
  441TMC3    C6 6573   4.537   0.706  15.116 -0.0381  0.1267 -0.1747
  441TMC3     C 6574   4.279   0.765  14.831 -0.3673 -0.6441 -0.9007
  441TMC3     O 6575   4.227   0.850  14.897  0.0535 -0.4849  0.1357
  441TMC3     H 6576   4.471   0.916  14.858  0.9738  1.2155  0.5306
  441TMC3    H1 6577   4.338   0.521  14.924 -0.2870  1.8085 -1.5829
  441TMC3    H2 6578   4.562   0.714  15.221 -0.5226 -1.5796  0.0794
  441TMC3    C7 6579   4.398   0.531  15.169  0.1260 -0.0232  0.3408
  441TMC3    C8 6580   4.537   0.938  15.124 -0.3788 -0.0208  0.0752
  441TMC3    O1 6581   4.279   0.545  15.165  0.2079  0.1481  0.8158
  441TMC3    O2 6582   4.638   0.964  15.182 -0.0420 -0.0432  0.4726
  442MPD2     C 6583   1.991   1.105  16.623  0.4524  0.2636 -0.9237
  442MPD2    C1 6584   1.880   1.027  16.595  0.4476 -0.0998 -0.6266
  442MPD2    C2 6585   1.898   0.913  16.510  0.3827 -0.3520 -0.0637
  442MPD2    C3 6586   2.025   0.881  16.459 -0.5901 -0.0060  0.3313
  442MPD2    C4 6587   2.136   0.961  16.488 -0.3854 -0.6568 -0.0349
  442MPD2    C5 6588   2.114   1.063  16.575 -0.3516 -0.0719 -0.2600
  442MPD2     H 6589   1.817   0.845  16.489  0.0942  0.0321 -0.1992
  442MPD2    H1 6590   2.236   0.933  16.459 -0.5521 -0.2271 -1.0245
  442MPD2    H2 6591   1.983   1.191  16.688  3.9410 -1.0833  1.3568
  442MPD2    H3 6592   2.194   1.129  16.607 -0.4364 -0.6439  1.1053
  442MPD2     N 6593   2.061   0.761  16.389 -0.0767 -0.0463  0.1992
  442MPD2    H5 6594   2.151   0.759  16.344  0.6910 -0.0688  1.7352
  442MPD2    N1 6595   1.752   1.066  16.645  0.0021 -0.2626  0.2421
  442MPD2    H7 6596   1.685   0.989  16.651 -1.3662  1.1009  2.8182
  443TMC3    C1 6597   1.601   1.210  16.755  0.3126 -0.4627 -0.0859
  443TMC3    C2 6598   1.534   1.323  16.710  0.3434  0.6605  0.5845
  443TMC3    C3 6599   1.403   1.327  16.731 -0.2440  0.8003 -0.1586
  443TMC3    C4 6600   1.540   1.101  16.804 -0.5585  0.1029 -0.4798
  443TMC3    C5 6601   1.406   1.118  16.832 -0.5332 -0.6881 -0.0526
  443TMC3    C6 6602   1.339   1.234  16.802  0.0358  0.3060 -0.1729
  443TMC3     C 6603   1.731   1.193  16.689 -0.0715  0.1055  0.1676
  443TMC3     O 6604   1.793   1.293  16.667 -0.0203 -0.5712  0.3400
  443TMC3     H 6605   1.590   1.403  16.663 -0.6419  1.8700  1.4909
  443TMC3    H1 6606   1.588   1.019  16.856 -1.0300 -0.4614 -0.9252
  443TMC3    H2 6607   1.231   1.233  16.804  0.0534 -0.7715  0.0846
  443TMC3    C7 6608   1.352   1.022  16.938 -0.4379 -0.3066  0.0325
  443TMC3    C8 6609   1.319   1.430  16.664 -0.0622 -0.4219  0.3535
  443TMC3    O1 6610   1.392   0.904  16.939 -0.4015  0.0169 -0.1424
  443TMC3    O2 6611   1.219   1.451  16.728 -0.2064 -0.5238 -0.4693
  444MPD2     C 6612   2.152   0.314  17.668  0.0105 -0.2531  0.4148
  444MPD2    C1 6613   2.077   0.288  17.556  0.2534  0.0416  0.1794
  444MPD2    C2 6614   2.134   0.275  17.432 -0.7527 -0.3502 -0.1471
  444MPD2    C3 6615   2.269   0.293  17.417  0.9990 -0.5360 -0.2438
  444MPD2    C4 6616   2.346   0.320  17.529  0.2663  0.6041  1.0401
  444MPD2    C5 6617   2.289   0.328  17.654  0.2649 -0.8342  0.1936
  444MPD2     H 6618   2.084   0.249  17.339 -0.1428  2.2136 -1.1805
  444MPD2    H1 6619   2.453   0.332  17.534  0.4141 -0.7197  1.1575
  444MPD2    H2 6620   2.108   0.339   0.068  2.0621  0.8933  1.0752
  444MPD2    H3 6621   2.350   0.346   0.045  0.2911 -0.2809  0.0582
  444MPD2     N 6622   2.313   0.296  17.283  0.0799  0.4153  0.7686
  444MPD2    H5 6623   2.239   0.277  17.216 -1.0828  2.4399  1.4639
  444MPD2    N1 6624   1.938   0.292  17.548 -0.3342 -0.2030 -0.0574
  444MPD2    H7 6625   1.901   0.249  17.464  0.9042 -0.1413 -0.6401
  445TMC3    C1 6626   2.450   0.299  17.102  0.7882 -0.2538  0.2633
  445TMC3    C2 6627   2.333   0.300  17.022 -0.6185  0.4135 -0.0616
  445TMC3    C3 6628   2.346   0.296  16.886  0.7679  0.0766  0.2125
  445TMC3    C4 6629   2.578   0.290  17.054  0.4722 -0.0009  0.4135
  445TMC3    C5 6630   2.580   0.295  16.914 -0.2098  0.0681 -0.4406
  445TMC3    C6 6631   2.468   0.296  16.830 -0.2559  0.5632 -0.1103
  445TMC3     C 6632   2.439   0.311  17.246  0.3034  0.2434 -0.3628
  445TMC3     O 6633   2.538   0.324  17.317  1.0397  0.0844  0.5986
  445TMC3     H 6634   2.236   0.325  17.063 -0.9623 -2.0044  0.6334
  445TMC3    H1 6635   2.669   0.306  17.111 -0.9180  2.3166  1.9612
  445TMC3    H2 6636   2.489   0.298  16.724 -0.5216  1.5059 -0.1468
  445TMC3    C7 6637   2.708   0.275  16.854 -0.4551 -0.6937 -0.6757
  445TMC3    C8 6638   2.225   0.319  16.813 -0.1951 -0.4624 -0.2579
  445TMC3    O1 6639   2.723   0.321  16.738 -0.2398 -0.3310  0.5179
  445TMC3    O2 6640   2.164   0.422  16.850  0.0884  0.5816  0.1193
  446MPD2     C 6641   2.068   2.000  11.098  0.2436 -0.1920 -0.1603
  446MPD2    C1 6642   2.067   2.054  10.973  0.5392 -0.2000 -0.0815
  446MPD2    C2 6643   2.176   2.131  10.941  0.0895  0.1124  0.0605
  446MPD2    C3 6644   2.281   2.153  11.028  0.2697  0.3150  0.6448
  446MPD2    C4 6645   2.271   2.101  11.153  0.2799 -0.1891  0.2733
  446MPD2    C5 6646   2.162   2.029  11.190  0.0745 -0.3424  0.2042
  446MPD2     H 6647   2.173   2.189  10.849  2.3263  0.0046 -0.0938
  446MPD2    H1 6648   2.344   2.122  11.230  0.5747 -2.0389  0.5122
  446MPD2    H2 6649   2.010   1.909  11.116 -0.3451  0.4529  1.1908
  446MPD2    H3 6650   2.172   1.974  11.283  0.2204  0.3804  0.6172
  446MPD2     N 6651   2.393   2.230  10.992  0.1648  0.0660 -0.8946
  446MPD2    H5 6652   2.386   2.265  10.897 -0.9817  0.4564 -0.6624
  446MPD2    N1 6653   1.963   2.033  10.878 -0.0027 -0.3065 -0.4967
  446MPD2    H7 6654   1.982   2.066  10.784  0.5197  0.4600 -0.1178
  447TMC3    C1 6655   2.614   2.332  10.990  0.3209 -0.1280  0.1815
  447TMC3    C2 6656   2.583   2.403  10.881  0.1027 -0.1149 -0.0405
  447TMC3    C3 6657   2.690   2.463  10.814  0.4014  0.6935  0.5304
  447TMC3    C4 6658   2.741   2.328  11.035  0.4737 -0.8488 -0.0127
  447TMC3    C5 6659   2.840   2.393  10.975  0.3208  0.4646  0.1373
  447TMC3    C6 6660   2.821   2.456  10.856 -0.0178 -0.2742 -0.7026
  447TMC3     C 6661   2.514   2.250  11.056  0.1714  0.2514  0.3228
  447TMC3     O 6662   2.552   2.199  11.158 -0.1056 -0.5455  0.0240
  447TMC3     H 6663   2.483   2.408  10.839 -0.5540  1.3028  1.6762
  447TMC3    H1 6664   2.766   2.261  11.116  1.9355  1.4509  1.4548
  447TMC3    H2 6665   2.902   2.500  10.799  1.0358  0.4072  1.3516
  447TMC3    C7 6666   2.970   2.398  11.036  0.2441  0.1759 -0.2727
  447TMC3    C8 6667   2.654   2.535  10.698 -0.6519 -0.5327 -0.4095
  447TMC3    O1 6668   3.067   2.384  10.959  0.3303  0.4914  0.4269
  447TMC3    O2 6669   2.544   2.584  10.696 -0.3574  0.3526  0.1710
  448TMC3    C1 6670   0.251   1.498  16.995  0.3147  0.0107  0.4675
  448TMC3    C2 6671   0.190   1.382  16.946 -0.2675  0.2164  0.3461
  448TMC3    C3 6672   0.245   1.264  16.987 -0.3312 -0.3320  0.0333
  448TMC3    C4 6673   0.370   1.490  17.056  0.2670  0.0099  0.4932
  448TMC3    C5 6674   0.422   1.365  17.094 -0.0698 -0.5488  0.0548
  448TMC3    C6 6675   0.356   1.251  17.067  0.3469  0.0144  0.0964
  448TMC3     C 6676   0.205   1.630  16.969 -0.4902 -0.1623 -0.3722
  448TMC3     O 6677   0.263   1.723  17.019  0.3595  0.3140  0.1905
  448TMC3     H 6678   0.098   1.386  16.888  0.5779  0.0573 -1.0043
  448TMC3    H1 6679   0.424   1.580  17.084  1.8095 -1.3100  1.7033
  448TMC3    H2 6680   0.387   1.156  17.109 -0.8764  0.7541  2.6302
  448TMC3    C7 6681   0.538   1.367  17.180  0.6162  0.4580 -0.1619
  448TMC3    C8 6682   0.187   1.136  16.943  0.5603 -0.3330 -0.0665
  448TMC3    O1 6683   0.599   1.475  17.182  0.9364  0.3190  0.2635
  448TMC3    O2 6684   0.238   1.036  16.989  0.0571  0.0645 -0.1134
  449MPD2     C 6685   1.710   4.517  13.817  0.4456 -0.1842  0.6422
  449MPD2    C1 6686   1.611   4.449  13.750  0.2219  0.3515 -0.1089
  449MPD2    C2 6687   1.499   4.425  13.820  0.9126 -0.6904 -0.0822
  449MPD2    C3 6688   1.480   4.459  13.951  0.5495  0.2251  1.0699
  449MPD2    C4 6689   1.581   4.528  14.018  0.4880  0.6949 -0.2001
  449MPD2    C5 6690   1.698   4.561  13.943  0.3388  0.0430 -0.0576
  449MPD2     H 6691   1.422   4.368  13.770  0.7799 -0.3882 -0.2250
  449MPD2    H1 6692   1.563   4.566  14.117 -1.8430  2.1790 -1.1915
  449MPD2    H2 6693   1.801   4.552  13.771  0.4051 -0.0756  0.6449
  449MPD2    H3 6694   1.772   4.623  13.993  0.9490 -1.3008  0.6898
  449MPD2     N 6695   1.361   4.421  14.010 -0.5484 -0.1584  0.1965
  449MPD2    H5 6696   1.285   4.388  13.951 -1.9970  1.0813  1.3708
  449MPD2    N1 6697   1.631   4.396  13.622  0.6183 -0.1351  0.2104
  449MPD2    H7 6698   1.552   4.359  13.570 -0.3809 -0.8424  2.2630
  450TMC3    C1 6699   1.718   4.306  13.430 -0.1525  0.2280 -1.0119
  450TMC3    C2 6700   1.810   4.202  13.409 -0.2182  0.3297  0.1163
  450TMC3    C3 6701   1.762   4.087  13.360  0.6244 -0.9801 -0.4591
  450TMC3    C4 6702   1.590   4.300  13.389  0.5455  0.0166  0.2872
  450TMC3    C5 6703   1.545   4.181  13.358  0.6001  0.5780 -1.3384
  450TMC3    C6 6704   1.631   4.077  13.330  0.8420 -0.4599  0.3582
  450TMC3     C 6705   1.747   4.382  13.550  0.2895  0.5534 -0.4141
  450TMC3     O 6706   1.862   4.391  13.596 -0.3147 -0.4506  0.6043
  450TMC3     H 6707   1.911   4.214  13.447 -0.2331  1.5871 -0.2470
  450TMC3    H1 6708   1.522   4.384  13.379  0.7796  0.3195  1.2730
  450TMC3    H2 6709   1.600   3.979  13.296 -1.2760 -0.6546  2.8590
  450TMC3    C7 6710   1.407   4.146  13.399  0.3321 -0.4991  0.3352
  450TMC3    C8 6711   1.847   3.990  13.299 -0.1561 -0.5098 -0.4796
  450TMC3    O1 6712   1.348   4.247  13.437 -0.1438  0.7970 -0.1182
  450TMC3    O2 6713   1.793   3.882  13.269  0.1097 -0.0254 -0.0910
  451MPD2     C 6714   3.209   3.339   1.968 -0.8473 -1.0824 -0.3347
  451MPD2    C1 6715   3.161   3.333   1.838  0.1810 -0.4771 -0.2800
  451MPD2    C2 6716   3.175   3.212   1.766  0.4789  0.0494  0.4659
  451MPD2    C3 6717   3.254   3.109   1.814 -0.0935 -0.8803  0.0709
  451MPD2    C4 6718   3.304   3.121   1.944 -0.0280 -0.2009  0.3218
  451MPD2    C5 6719   3.267   3.228   2.021 -0.8235 -0.8503  0.6946
  451MPD2     H 6720   3.123   3.201   1.671 -1.5160  1.6445  1.3756
  451MPD2    H1 6721   3.361   3.043   1.994 -0.1296  0.0963  0.9006
  451MPD2    H2 6722   3.187   3.422   2.035  0.3550 -1.8626  1.0188
  451MPD2    H3 6723   3.289   3.227   2.127  0.7902  0.7020  0.3692
  451MPD2     N 6724   3.285   2.987   1.740 -0.1778 -0.0062 -0.1052
  451MPD2    H5 6725   3.353   2.928   1.787 -1.3847 -0.3893  1.1563
  451MPD2    N1 6726   3.075   3.430   1.792  0.0243 -0.5182 -0.0816
  451MPD2    H7 6727   3.041   3.496   1.861  0.5782  0.7678 -1.0450
  452TMC3    C1 6728   3.278   2.832   1.567 -0.5692  0.0068 -0.3673
  452TMC3    C2 6729   3.235   2.734   1.651 -0.5468 -0.1833 -0.2850
  452TMC3    C3 6730   3.186   2.620   1.599 -0.3728 -0.1977 -0.7672
  452TMC3    C4 6731   3.275   2.820   1.429  0.5475  0.2364  0.4437
  452TMC3    C5 6732   3.221   2.705   1.374 -0.5102 -0.3080 -0.1064
  452TMC3    C6 6733   3.179   2.606   1.459  0.9155 -0.3046  0.0739
  452TMC3     C 6734   3.261   2.966   1.601 -0.2147  0.3484  0.6235
  452TMC3     O 6735   3.214   3.034   1.513 -0.1106 -0.5221 -0.0973
  452TMC3     H 6736   3.221   2.745   1.758  0.0402  0.5996 -0.2871
  452TMC3    H1 6737   3.310   2.892   1.355  0.6966 -1.4043 -1.1036
  452TMC3    H2 6738   3.165   2.503   1.429  1.1093 -0.6348  1.1212
  452TMC3    C7 6739   3.201   2.693   1.231  0.2354 -0.5827  0.1903
  452TMC3    C8 6740   3.171   2.499   1.680 -0.0945  0.4501 -0.9367
  452TMC3    O1 6741   3.264   2.764   1.157  0.5107  0.0254 -0.1652
  452TMC3    O2 6742   3.212   2.512   1.795 -0.4382 -0.5422  0.3287
  453TMC3    C1 6743   4.417   0.301  11.766 -0.1850 -0.2628  0.1593
  453TMC3    C2 6744   4.386   0.287  11.900  0.7287 -0.3581  0.3004
  453TMC3    C3 6745   4.256   0.301  11.941  0.2233  0.5725 -0.4559
  453TMC3    C4 6746   4.312   0.348  11.684 -0.3118  1.1463  0.1508
  453TMC3    C5 6747   4.185   0.378  11.734  0.6239 -0.8129 -0.5806
  453TMC3    C6 6748   4.153   0.347  11.866  0.4436 -0.1342  0.3136
  453TMC3     C 6749   4.559   0.333  11.730  0.2790  0.3506 -0.1351
  453TMC3     O 6750   4.582   0.407  11.632  0.0570 -0.2860  0.2487
  453TMC3     H 6751   4.459   0.273  11.979 -0.1682 -1.3485  0.9601
  453TMC3    H1 6752   4.336   0.370  11.581 -1.3118  1.8096  0.0666
  453TMC3    H2 6753   4.055   0.360  11.910  0.1353 -1.0663 -0.1139
  453TMC3    C7 6754   4.153   0.517  11.704  0.7177 -0.1572 -0.1115
  453TMC3    C8 6755   4.216   0.264  12.073 -0.3942 -0.1733 -0.3068
  453TMC3    O1 6756   4.219   0.568  11.612  0.4348  0.6271  0.6371
  453TMC3    O2 6757   4.115   0.306  12.128 -0.0837  0.4999 -0.0530
  454MPD2     C 6758   2.933   0.125  16.273  0.0751 -0.4532  0.0828
  454MPD2    C1 6759   2.986   0.254  16.243  0.0790 -0.5439  0.3712
  454MPD2    C2 6760   2.942   0.359  16.319  0.1732 -0.3717  0.2414
  454MPD2    C3 6761   2.853   0.344  16.427  0.5687  0.1295  0.1938
  454MPD2    C4 6762   2.802   0.216  16.449  0.7805  0.2972  0.3522
  454MPD2    C5 6763   2.845   0.109  16.380  0.3035  0.0039 -0.5548
  454MPD2     H 6764   2.983   0.457  16.293  1.6482 -0.8719  0.7024
  454MPD2    H1 6765   2.747   0.199  16.541 -1.6248  1.8161 -0.7923
  454MPD2    H2 6766   2.963   0.039  16.214  0.2858 -0.1541 -0.2475
  454MPD2    H3 6767   2.817   0.006  16.399  0.8729  0.1778  1.2242
  454MPD2     N 6768   2.812   0.446  16.511 -0.3586 -0.2980  0.4710
  454MPD2    H5 6769   2.760   0.419  16.594  0.9475  0.5333  1.5526
  454MPD2    N1 6770   3.070   0.280  16.135  0.4261  0.7735 -0.6716
  454MPD2    H7 6771   3.084   0.379  16.116 -4.4277  1.3011 -1.3105
  455TMC3    C1 6772   2.706   0.647  16.532  0.0965  0.4047 -0.4219
  455TMC3    C2 6773   2.691   0.641  16.675 -0.6687  0.4123  0.3285
  455TMC3    C3 6774   2.557   0.631  16.721  0.3948  0.5005  0.4404
  455TMC3    C4 6775   2.600   0.632  16.448 -0.3322  0.6843 -0.9318
  455TMC3    C5 6776   2.470   0.614  16.499 -0.2509  0.1647  0.1054
  455TMC3    C6 6777   2.457   0.618  16.637 -0.3148  0.3377  0.2496
  455TMC3     C 6778   2.819   0.578  16.479 -0.0133  0.4173 -0.4771
  455TMC3     O 6779   2.868   0.634  16.382  0.2116  0.3453 -0.2939
  455TMC3     H 6780   2.778   0.653  16.738 -1.4099  0.5124  1.3326
  455TMC3    H1 6781   2.627   0.630  16.343 -0.5790  0.0458 -0.9822
  455TMC3    H2 6782   2.358   0.605  16.679 -1.0698 -2.8108 -2.5020
  455TMC3    C7 6783   2.391   0.504  16.445 -0.1488  0.4392 -0.0880
  455TMC3    C8 6784   2.542   0.625  16.868 -0.4972  0.0846 -0.0491
  455TMC3    O1 6785   2.280   0.495  16.490  0.4592 -0.6392  0.3381
  455TMC3    O2 6786   2.635   0.588  16.930 -0.4794 -0.0891  0.6441
  456MPD2     C 6787   0.616   0.351  15.995  0.2643 -0.4168 -0.3874
  456MPD2    C1 6788   0.685   0.312  16.108 -0.6360 -0.1645  0.8425
  456MPD2    C2 6789   0.617   0.315  16.230  0.2979 -0.0735  0.1975
  456MPD2    C3 6790   0.487   0.357  16.233  0.4093 -0.1545 -0.0376
  456MPD2    C4 6791   0.420   0.380  16.120 -0.5779 -0.0045 -0.3968
  456MPD2    C5 6792   0.484   0.382  15.999  0.4309 -0.7464  0.0842
  456MPD2     H 6793   0.663   0.276  16.320  1.1312  1.4030  0.4122
  456MPD2    H1 6794   0.323   0.428  16.108  0.4941  2.5891  1.1637
  456MPD2    H2 6795   0.666   0.347  15.899  0.5628  0.3675 -0.2612
  456MPD2    H3 6796   0.440   0.426  15.910 -0.2038 -0.1776  0.6840
  456MPD2     N 6797   0.434   0.380  16.362 -0.0119  0.2888 -0.3616
  456MPD2    H5 6798   0.501   0.373  16.437  0.7517  2.3063 -0.8663
  456MPD2    N1 6799   0.808   0.253  16.090  0.3173  0.7129 -0.1199
  456MPD2    H7 6800   0.842   0.250  15.994  1.3462 -0.3983  0.2877
  457TMC3    C1 6801   0.299   0.446  16.538 -0.0071  0.2866  0.1569
  457TMC3    C2 6802   0.186   0.501  16.577 -0.2586  0.1136  0.1564
  457TMC3    C3 6803   0.151   0.498  16.710 -0.8259 -0.0241  0.2534
  457TMC3    C4 6804   0.385   0.375  16.626  0.3276  0.3018  0.1783
  457TMC3    C5 6805   0.342   0.371  16.753  0.2589  0.0645  0.0507
  457TMC3    C6 6806   0.233   0.435  16.797 -0.9945  0.5346 -0.3093
  457TMC3     C 6807   0.308   0.423  16.393  0.8379 -0.3411  0.5148
  457TMC3     O 6808   0.213   0.445  16.317 -0.4722  0.4385 -0.0663
  457TMC3     H 6809   0.126   0.561  16.509  1.8467  0.5274 -1.3473
  457TMC3    H1 6810   0.477   0.326  16.596  0.6631  1.2418 -0.3291
  457TMC3    H2 6811   0.202   0.453  16.900  0.8636 -1.0927  0.5296
  457TMC3    C7 6812   0.459   0.371  16.841 -0.3566 -0.7429 -0.1012
  457TMC3    C8 6813   0.111   0.622  16.759  0.4559 -0.2294 -0.2946
  457TMC3    O1 6814   0.542   0.293  16.807 -0.2849 -0.3167 -0.1985
  457TMC3    O2 6815   0.163   0.666  16.859  0.2137  0.1736  0.4591
  458MPD2     C 6816   3.437   4.531  12.338 -0.4487 -0.1061  0.7300
  458MPD2    C1 6817   3.364   4.548  12.453 -0.3354 -0.1780  0.5333
  458MPD2    C2 6818   3.223   4.571  12.439 -0.1278  0.0658  0.2602
  458MPD2    C3 6819   3.165   4.576  12.312  0.2394 -0.4685 -0.6167
  458MPD2    C4 6820   3.246   4.539  12.212 -0.2782  0.5401 -0.6206
  458MPD2    C5 6821   3.380   4.519  12.215 -0.2340  0.6800 -0.7173
  458MPD2     H 6822   3.156   4.596  12.520  1.7329 -1.2786  2.2014
  458MPD2    H1 6823   3.199   4.542  12.114 -0.8558 -1.7178 -0.4004
  458MPD2    H2 6824   3.543   4.512  12.347 -1.1019 -3.7449  0.7621
  458MPD2    H3 6825   3.441   4.489  12.131 -0.3393 -1.1485 -0.1442
  458MPD2     N 6826   3.023   4.607  12.302  0.6354  0.1109 -0.2227
  458MPD2    H5 6827   2.984   4.644  12.389 -0.0106 -3.6472  1.0999
  458MPD2    N1 6828   3.432   4.539  12.574  0.3874 -0.0355 -0.0174
  458MPD2    H7 6829   3.532   4.538  12.556  0.0536 -2.8829 -1.7237
  459TMC3    C1 6830   3.481   4.519  12.797 -0.0553  0.3651  0.1099
  459TMC3    C2 6831   3.564   4.623  12.817  0.3052 -0.2706  1.1263
  459TMC3    C3 6832   3.630   4.638  12.936  0.7033  0.2903  0.9306
  459TMC3    C4 6833   3.455   4.441  12.904 -0.0584  0.4713  0.4563
  459TMC3    C5 6834   3.514   4.458  13.023  0.1690 -0.0014 -0.1071
  459TMC3    C6 6835   3.603   4.560  13.045  0.0895  1.1449 -0.3425
  459TMC3     C 6836   3.378   4.539  12.699  0.0619  0.1712  0.0285
  459TMC3     O 6837   3.260   4.529  12.730 -0.0553  0.1224 -0.1392
  459TMC3     H 6838   3.584   4.689  12.733  0.1978 -2.1725 -0.3942
  459TMC3    H1 6839   3.374   4.370  12.898 -0.0392  0.1390  3.8947
  459TMC3    H2 6840   3.668   4.572  13.131  1.6606 -0.4649 -1.2957
  459TMC3    C7 6841   3.523   4.351  13.119  0.4066  0.1658 -0.3651
  459TMC3    C8 6842   3.742   0.010  12.937  0.0314 -0.9280  0.6431
  459TMC3    O1 6843   3.549   4.238  13.079 -0.7717  0.1916 -0.7553
  459TMC3    O2 6844   3.830   4.718  13.021  0.1018  0.3600  0.3857
  460MPD2     C 6845   2.867   2.623  10.405  0.5499 -0.3344  0.1869
  460MPD2    C1 6846   2.749   2.612  10.470  0.4049 -0.0457 -0.4488
  460MPD2    C2 6847   2.630   2.654  10.416 -0.4377  0.5119 -0.4945
  460MPD2    C3 6848   2.627   2.686  10.279  0.6353 -0.0929  0.2430
  460MPD2    C4 6849   2.742   2.682  10.213 -0.0934 -0.6943  0.2611
  460MPD2    C5 6850   2.860   2.642  10.268 -0.4705 -0.0806  0.4522
  460MPD2     H 6851   2.537   2.650  10.471 -0.2312 -1.0719 -0.2375
  460MPD2    H1 6852   2.741   2.722  10.112  1.0121  2.0010  1.3074
  460MPD2    H2 6853   2.963   2.597  10.447  1.4376  1.2318 -0.8376
  460MPD2    H3 6854   2.947   2.635  10.205 -0.3939  0.6641  0.4769
  460MPD2     N 6855   2.507   2.738  10.216 -0.0314  0.3552  0.2866
  460MPD2    H5 6856   2.430   2.748  10.282  0.4932 -2.1248  1.2429
  460MPD2    N1 6857   2.755   2.548  10.597  0.1880 -0.0205  0.0497
  460MPD2    H7 6858   2.850   2.518  10.620 -0.6196 -0.1725  3.1948
  461TMC3    C1 6859   2.351   2.820  10.062  1.6530 -0.5708  0.3449
  461TMC3    C2 6860   2.264   2.749   9.987 -0.0538 -0.2662 -0.0383
  461TMC3    C3 6861   2.144   2.813   9.959 -0.5200  0.1940  0.1733
  461TMC3    C4 6862   2.326   2.941  10.115 -1.2238  0.0023 -0.2729
  461TMC3    C5 6863   2.210   3.010  10.077 -0.4859 -0.7586  0.4157
  461TMC3    C6 6864   2.117   2.943   9.995  0.3697 -0.6085  0.1266
  461TMC3     C 6865   2.482   2.759  10.084 -0.1227  0.4843  0.3849
  461TMC3     O 6866   2.540   2.712   9.992 -0.0112  0.4738 -0.2404
  461TMC3     H 6867   2.281   2.643   9.974 -1.8895 -0.6885  1.0651
  461TMC3    H1 6868   2.401   2.982  10.182 -1.8699  0.9364 -0.1294
  461TMC3    H2 6869   2.021   2.987   9.973  1.1437  0.8348 -0.3654
  461TMC3    C7 6870   2.215   3.154  10.084 -0.1600 -0.2611  0.0446
  461TMC3    C8 6871   2.041   2.745   9.883  0.1411  0.8501  0.0547
  461TMC3    O1 6872   2.131   3.211  10.013  0.2886 -0.4386  0.0974
  461TMC3    O2 6873   1.940   2.806   9.852  1.2199 -0.3300  0.4981
  462TMC3    C1 6874   2.311   2.833   0.172  0.1995 -0.3138  0.3223
  462TMC3    C2 6875   2.248   2.805   0.049  0.2644 -0.6964 -0.0582
  462TMC3    C3 6876   2.201   2.677   0.040  0.1134 -0.3894  0.2141
  462TMC3    C4 6877   2.318   2.738   0.274  0.1357 -0.3428 -0.0757
  462TMC3    C5 6878   2.253   2.623   0.258 -0.3085  0.1235 -0.3444
  462TMC3    C6 6879   2.202   2.587   0.137 -0.1377  0.0617 -0.1293
  462TMC3     C 6880   2.342   2.970   0.196 -0.1687  0.4363 -0.1546
  462TMC3     O 6881   2.289   3.054   0.120 -0.0179 -0.1682 -0.9131
  462TMC3     H 6882   2.235   2.879  17.667  1.2388  0.9119  1.2959
  462TMC3    H1 6883   2.369   2.749   0.369 -1.4581  1.0904  0.6138
  462TMC3    H2 6884   2.130   2.506   0.128 -1.8355  1.6225 -0.6161
  462TMC3    C7 6885   2.239   2.525   0.366  0.3252 -0.2096 -0.1713
  462TMC3    C8 6886   2.155   2.644  17.606  0.2031 -0.2747  0.0795
  462TMC3    O1 6887   2.172   2.424   0.340 -0.1264  0.1235 -0.9128
  462TMC3    O2 6888   2.067   2.718  17.572 -0.1542 -1.0695 -0.8949
  463MPD2     C 6889   3.425   1.524   2.220 -0.2531 -0.2544  0.1081
  463MPD2    C1 6890   3.356   1.515   2.104 -0.5598  0.1166  0.4632
  463MPD2    C2 6891   3.368   1.607   2.003  0.0211  0.4301 -0.3579
  463MPD2    C3 6892   3.440   1.723   2.028 -0.1703 -0.0197 -0.6783
  463MPD2    C4 6893   3.510   1.733   2.149 -0.1017  0.7752 -0.0583
  463MPD2    C5 6894   3.502   1.640   2.244 -0.2031 -0.0465  0.5003
  463MPD2     H 6895   3.311   1.598   1.911 -0.2860 -1.8688  0.0460
  463MPD2    H1 6896   3.561   1.826   2.170 -0.0298  0.6621  0.2599
  463MPD2    H2 6897   3.413   1.445   2.294  0.2623  0.1678  0.6445
  463MPD2    H3 6898   3.556   1.650   2.337  0.6015 -0.4299  0.0797
  463MPD2     N 6899   3.449   1.834   1.941 -0.1038 -0.6508  0.0193
  463MPD2    H5 6900   3.499   1.915   1.974 -0.8357 -0.5495  0.8953
  463MPD2    N1 6901   3.260   1.415   2.067  0.4546  0.7157 -0.0305
  463MPD2    H7 6902   3.214   1.432   1.978  2.3612 -0.7430 -1.3046
  464TMC3    C1 6903   3.114   1.236   2.095 -0.3891 -0.3856  0.2564
  464TMC3    C2 6904   3.099   1.242   1.963  0.0420 -0.2313 -0.3051
  464TMC3    C3 6905   3.010   1.159   1.905  0.5665 -0.3610 -0.3491
  464TMC3    C4 6906   3.053   1.141   2.176 -0.3739  0.0802  0.4745
  464TMC3    C5 6907   2.973   1.055   2.116  0.2310 -0.0332 -0.2052
  464TMC3    C6 6908   2.948   1.058   1.980 -0.7465 -0.0880 -0.0232
  464TMC3     C 6909   3.215   1.319   2.152  0.2369  0.3773  0.3070
  464TMC3     O 6910   3.249   1.286   2.264 -0.1355  0.3224  0.0135
  464TMC3     H 6911   3.148   1.312   1.895 -0.0402 -0.0185 -0.1437
  464TMC3    H1 6912   3.075   1.151   2.282 -1.1809 -0.4499  0.6898
  464TMC3    H2 6913   2.904   0.972   1.931  0.7565 -0.7870 -0.1704
  464TMC3    C7 6914   2.888   0.973   2.208 -0.3877 -0.5288 -0.6632
  464TMC3    C8 6915   2.999   1.171   1.760 -0.1887 -0.0811  0.3145
  464TMC3    O1 6916   2.924   0.967   2.327  0.4669  0.3065 -0.0459
  464TMC3    O2 6917   3.076   1.242   1.697  0.3096 -0.5716 -0.6966
  465MPD2     C 6918   4.359   0.132  17.283  0.0531 -0.3247 -0.1836
  465MPD2    C1 6919   4.232   0.185  17.315 -0.2026 -0.4265 -0.0312
  465MPD2    C2 6920   4.154   0.233  17.217 -0.3259 -0.6386  0.2675
  465MPD2    C3 6921   4.187   0.236  17.087 -0.1874 -0.6090 -0.3430
  465MPD2    C4 6922   4.305   0.180  17.054  0.7210  0.7502  0.4855
  465MPD2    C5 6923   4.386   0.132  17.150  0.4342 -0.7913 -0.4408
  465MPD2     H 6924   4.056   0.272  17.244 -0.1171  0.2186 -0.2259
  465MPD2    H1 6925   4.344   0.172  16.953  0.8798 -3.1455  0.8724
  465MPD2    H2 6926   4.432   0.082  17.346  0.4268 -0.2837 -0.5870
  465MPD2    H3 6927   4.489   0.110  17.125  0.6487 -1.0212  0.6620
  465MPD2     N 6928   4.093   0.304  17.004  0.0107 -0.1130  0.0747
  465MPD2    H5 6929   4.012   0.353  17.038 -1.7486 -2.6334 -0.4937
  465MPD2    N1 6930   4.185   0.189  17.445  0.2462 -0.0657 -0.2540
  465MPD2    H7 6931   4.112   0.255  17.470 -0.4439 -1.0410  0.3142
  466TMC3    C1 6932   3.794   0.505  16.848  0.0336  0.2849  0.6852
  466TMC3    C2 6933   3.831   0.617  16.770  0.4551  0.2304 -0.1179
  466TMC3    C3 6934   3.956   0.601  16.713  0.2167  0.5903 -0.6814
  466TMC3    C4 6935   3.880   0.397  16.869  0.5725 -0.3542 -0.6207
  466TMC3    C5 6936   4.007   0.408  16.816  0.1988  0.1328  0.0082
  466TMC3    C6 6937   4.043   0.501  16.725  0.9265 -0.1775 -0.7305
  466TMC3     C 6938   3.714   0.534  16.961  0.8576  0.3300 -0.0639
  466TMC3     O 6939   3.751   0.474  17.062 -0.2419 -0.1575 -0.2879
  466TMC3     H 6940   3.765   0.700  16.747 -2.5399 -2.3733 -0.8955
  466TMC3    H1 6941   3.844   0.308  16.920  1.0503  0.7185  1.6257
  466TMC3    H2 6942   4.145   0.509  16.689  1.0680 -1.0729 -0.5350
  466TMC3    C7 6943   4.107   0.326  16.868  0.1022  0.3321  0.8653
  466TMC3    C8 6944   4.017   0.720  16.650  0.2288  0.0216 -0.2283
  466TMC3    O1 6945   4.205   0.312  16.794  0.9276 -0.1147  0.0584
  466TMC3    O2 6946   4.074   0.712  16.538  0.7603 -0.0891 -0.1613
  467TMC3    C1 6947   0.782   3.496  13.874  0.1385 -0.2264 -0.0923
  467TMC3    C2 6948   0.785   3.481  13.740 -0.5492 -0.1620 -0.0698
  467TMC3    C3 6949   0.730   3.582  13.668 -0.5682  0.1443 -0.2927
  467TMC3    C4 6950   0.688   3.575  13.929 -0.3969 -0.2902 -0.4661
  467TMC3    C5 6951   0.619   3.666  13.851  0.3408 -0.6364 -0.2766
  467TMC3    C6 6952   0.652   3.678  13.723  0.4137 -0.0784 -0.6291
  467TMC3     C 6953   0.911   3.515  13.928  0.5308 -1.0614 -0.3455
  467TMC3     O 6954   0.918   3.593  14.022  0.0444 -0.1752 -0.0040
  467TMC3     H 6955   0.844   3.414  13.680  1.0310  1.5029 -0.3781
  467TMC3    H1 6956   0.681   3.585  14.037 -2.5319  2.7133 -0.8909
  467TMC3    H2 6957   0.582   3.728  13.657 -2.0089 -0.9840  1.2302
  467TMC3    C7 6958   0.501   3.746  13.903  0.1221 -0.2965 -0.0231
  467TMC3    C8 6959   0.795   3.606  13.541  0.4226  0.3868 -0.6770
  467TMC3    O1 6960   0.488   3.861  13.855 -0.0756  0.2340 -0.4226
  467TMC3    O2 6961   0.812   3.511  13.466 -0.2079  0.0951 -0.4211
  468MPD2     C 6962   0.095   2.876  10.506 -0.4990  0.1891  0.4000
  468MPD2    C1 6963   0.009   2.826  10.602 -0.2184 -0.5472 -0.1765
  468MPD2    C2 6964   4.664   2.714  10.566  0.2432 -0.7996 -0.1510
  468MPD2    C3 6965   4.670   2.649  10.445 -0.5363  0.6830 -0.1476
  468MPD2    C4 6966   0.021   2.711  10.343  0.2953  0.2522  0.0177
  468MPD2    C5 6967   0.105   2.817  10.381 -0.1241  0.8099  0.2047
  468MPD2     H 6968   4.593   2.668  10.634  1.2283  1.5907  2.4873
  468MPD2    H1 6969   0.040   2.667  10.246 -1.8244 -0.4911 -0.0529
  468MPD2    H2 6970   0.151   2.961  10.543 -0.8681  0.6605 -0.1217
  468MPD2    H3 6971   0.171   2.853  10.302 -0.5312 -2.4350 -1.6129
  468MPD2     N 6972   4.618   2.518  10.425 -0.1512  0.2713 -0.0824
  468MPD2    H5 6973   4.601   2.487  10.330 -1.1215 -0.4342  0.3191
  468MPD2    N1 6974   4.721   2.867  10.738 -0.0500 -0.6877  0.3657
  468MPD2    H7 6975   4.636   2.837  10.785 -0.5751 -2.7348 -1.8997
  469TMC3    C1 6976   0.054   2.963  10.944  0.1433  0.8529 -0.4170
  469TMC3    C2 6977   0.158   2.962  11.037 -0.6994 -0.1289 -0.0846
  469TMC3    C3 6978   0.137   3.023  11.159 -0.1089  1.0099 -0.4796
  469TMC3    C4 6979   4.661   3.027  10.963  0.2152  0.6278  0.1861
  469TMC3    C5 6980   4.643   3.089  11.084 -0.6694 -0.0470 -0.3524
  469TMC3    C6 6981   0.016   3.083  11.183 -0.6845 -0.0277 -0.1363
  469TMC3     C 6982   0.093   2.929  10.807  0.3739 -0.4542  0.4923
  469TMC3     O 6983   0.211   2.939  10.777  0.1935  0.2404  0.3688
  469TMC3     H 6984   0.255   2.920  11.013 -0.5353 -0.4587  1.1362
  469TMC3    H1 6985   4.580   3.041  10.892  0.8143  2.5001 -0.1231
  469TMC3    H2 6986   4.721   3.134  11.277 -1.2417 -0.2322 -0.1312
  469TMC3    C7 6987   4.523   3.163  11.103 -0.0895  0.1183  0.0121
  469TMC3    C8 6988   0.204   2.973  11.273 -0.5397 -0.5058  0.0195
  469TMC3    O1 6989   4.477   3.231  11.013  0.4391  0.0483  0.5427
  469TMC3    O2 6990   0.143   2.964  11.378  0.1102 -0.7185  0.2677
  470TMC3    C1 6991   1.572   2.657   1.392  0.2895 -0.2483 -0.8548
  470TMC3    C2 6992   1.595   2.791   1.381 -0.8052 -0.2776  0.0811
  470TMC3    C3 6993   1.645   2.856   1.493 -0.7796  0.1623 -0.2028
  470TMC3    C4 6994   1.619   2.588   1.500 -0.1855 -0.0877  0.0520
  470TMC3    C5 6995   1.674   2.658   1.606 -0.6000  0.8495 -0.4830
  470TMC3    C6 6996   1.693   2.795   1.607 -0.0158  0.5320 -0.1401
  470TMC3     C 6997   1.500   2.574   1.293 -0.3463 -0.0856  0.3359
  470TMC3     O 6998   1.470   2.458   1.320  0.9583 -0.1276 -0.2769
  470TMC3     H 6999   1.544   2.847   1.304 -1.2603 -0.2463  0.4066
  470TMC3    H1 7000   1.592   2.483   1.507  0.6613 -0.2909  0.3465
  470TMC3    H2 7001   1.724   2.852   1.694 -0.1953  1.4657 -0.6925
  470TMC3    C7 7002   1.673   2.586   1.736  0.2052 -1.1187 -0.0719
  470TMC3    C8 7003   1.640   3.003   1.504 -0.0710 -0.5073 -0.4449
  470TMC3    O1 7004   1.694   2.465   1.737 -0.1284  0.1067  1.0576
  470TMC3    O2 7005   1.666   3.049   1.615  0.1024 -0.3495  0.0301
  471MPD2     C 7006   1.951   4.287  16.969  0.0629  0.4214  0.2440
  471MPD2    C1 7007   2.034   4.181  16.953 -1.0540  0.1172 -0.0306
  471MPD2    C2 7008   2.112   4.131  17.053  0.0015  0.9649  0.1108
  471MPD2    C3 7009   2.101   4.179  17.180  0.0034 -0.2218 -0.6280
  471MPD2    C4 7010   2.006   4.283  17.196  0.1457 -0.4250 -1.3113
  471MPD2    C5 7011   1.930   4.330  17.096 -0.1717  0.0279  0.1405
  471MPD2     H 7012   2.181   4.052  17.026 -0.3123  0.8834 -0.4588
  471MPD2    H1 7013   2.001   4.338  17.289  1.1569 -0.1769 -1.4054
  471MPD2    H2 7014   1.898   4.321  16.881 -0.0866  0.9304  0.5322
  471MPD2    H3 7015   1.865   4.414  17.117  0.2252 -0.0466  1.6300
  471MPD2     N 7016   2.176   4.133  17.284 -0.0515 -0.4200  0.4658
  471MPD2    H5 7017   2.165   4.196  17.363  1.6566 -1.4557  1.5162
  471MPD2    N1 7018   2.058   4.124  16.826 -0.1687 -0.5003  1.2420
  471MPD2    H7 7019   2.148   4.077  16.819  0.9868  1.8924  0.0473
  472TMC3    C1 7020   2.024   4.035  16.610 -0.5700 -1.0107 -0.1062
  472TMC3    C2 7021   1.965   4.040  16.488 -0.2591  0.1302 -0.7574
  472TMC3    C3 7022   1.956   3.938  16.396  0.8107 -0.0739 -0.0873
  472TMC3    C4 7023   2.064   3.912  16.648  0.0006 -0.6277  0.6120
  472TMC3    C5 7024   2.046   3.808  16.557  0.4312  0.2029 -0.0219
  472TMC3    C6 7025   1.995   3.817  16.435  0.0604 -0.7792 -0.8690
  472TMC3     C 7026   1.974   4.121  16.720  0.4224 -0.3963 -1.0970
  472TMC3     O 7027   1.881   4.187  16.685 -0.9814  0.6944 -0.0505
  472TMC3     H 7028   1.917   4.130  16.451  0.9627  1.4964  1.0047
  472TMC3    H1 7029   2.111   3.893  16.744  0.3761  0.4652  0.6418
  472TMC3    H2 7030   1.999   3.736  16.362  0.5516  0.5973 -2.3806
  472TMC3    C7 7031   2.034   3.679  16.625 -1.2957  0.2156 -0.0509
  472TMC3    C8 7032   1.818   3.928  16.356 -0.3724  0.0560  0.1698
  472TMC3    O1 7033   2.066   3.669  16.748  0.0141 -0.5432  0.6990
  472TMC3    O2 7034   1.789   3.967  16.242  0.0695 -0.6258  0.4663
  473MPD2     C 7035   2.242   1.717  13.824 -0.3893 -0.0835  1.1554
  473MPD2    C1 7036   2.336   1.816  13.809 -0.2996  0.0574 -0.2275
  473MPD2    C2 7037   2.395   1.874  13.926  0.6960 -1.0903  0.2312
  473MPD2    C3 7038   2.357   1.830  14.053  0.4515  0.1056  0.5806
  473MPD2    C4 7039   2.265   1.729  14.062  1.2053  0.2125  0.2401
  473MPD2    C5 7040   2.207   1.678  13.951  0.2502  0.2205  0.9726
  473MPD2     H 7041   2.471   1.951  13.915 -0.7685  0.5439  1.5294
  473MPD2    H1 7042   2.241   1.689  14.160 -0.1203 -0.8341 -0.5150
  473MPD2    H2 7043   2.199   1.673  13.735 -0.6460 -0.5200  1.4927
  473MPD2    H3 7044   2.143   1.592  13.966  1.3203 -0.6917  0.2732
  473MPD2     N 7045   2.390   1.900  14.172 -0.1654  0.3002  0.1027
  473MPD2    H5 7046   2.336   1.884  14.256  0.3573 -0.3749  0.3113
  473MPD2    N1 7047   2.374   1.864  13.677 -0.0346 -0.0230 -0.1268
  473MPD2    H7 7048   2.423   1.953  13.675 -0.4761  0.2481  1.0471
  474TMC3    C1 7049   2.498   2.061  14.315  0.1200  0.3495  0.3146
  474TMC3    C2 7050   2.375   2.087  14.371  0.6380  0.6053  0.2494
  474TMC3    C3 7051   2.378   2.157  14.480 -0.4590  0.1290  0.4409
  474TMC3    C4 7052   2.614   2.109  14.365 -0.4174 -0.0206  0.5006
  474TMC3    C5 7053   2.606   2.185  14.479 -0.1372  0.2983 -0.8327
  474TMC3    C6 7054   2.485   2.209  14.542  0.1336 -0.5341 -0.2350
  474TMC3     C 7055   2.505   1.982  14.193  0.7175 -0.8405  0.9847
  474TMC3     O 7056   2.605   1.994  14.124  0.0401 -0.2768  0.2901
  474TMC3     H 7057   2.277   2.061  14.333  0.5412 -0.0657  0.9487
  474TMC3    H1 7058   2.709   2.091  14.316 -0.3971  0.7840  0.2477
  474TMC3    H2 7059   2.465   2.254  14.639  1.7047  1.5764 -0.9009
  474TMC3    C7 7060   2.727   2.224  14.537 -0.0437  0.8310 -0.0309
  474TMC3    C8 7061   2.252   2.214  14.518  0.8455  0.8272  0.4372
  474TMC3    O1 7062   2.835   2.177  14.491 -0.2207  0.1377 -0.5307
  474TMC3    O2 7063   2.165   2.139  14.566 -0.9300  0.6951  0.0043
  475MPD2     C 7064   1.001   0.342  10.147  0.1524  0.4647 -0.4810
  475MPD2    C1 7065   0.937   0.412  10.242  0.3102 -0.0960 -0.4465
  475MPD2    C2 7066   0.871   0.347  10.345 -0.5090  0.2930  0.6722
  475MPD2    C3 7067   0.852   0.207  10.334  0.2934 -0.0846 -0.7690
  475MPD2    C4 7068   0.924   0.140  10.243  0.0747  0.2040 -0.1997
  475MPD2    C5 7069   1.000   0.205  10.150  0.0473  0.4509 -0.2076
  475MPD2     H 7070   0.822   0.406  10.422 -0.3993 -1.9644  2.4577
  475MPD2    H1 7071   0.924   0.032  10.238  1.0306  0.1508  1.2615
  475MPD2    H2 7072   1.054   0.393  10.067  0.9645 -0.7467 -0.7030
  475MPD2    H3 7073   1.046   0.145  10.073 -0.0328 -0.5419  0.5230
  475MPD2     N 7074   0.768   0.149  10.431  0.8895  0.1946 -0.0595
  475MPD2    H5 7075   0.724   0.211  10.499  2.1273 -0.6479  1.5372
  475MPD2    N1 7076   0.936   0.549  10.217 -0.1869 -0.5031 -0.3302
  475MPD2    H7 7077   1.014   0.581  10.161  0.2147 -0.4637  0.2508
  476TMC3    C1 7078   0.720   0.616  10.326  0.2492  0.5298  0.2068
  476TMC3    C2 7079   0.629   0.525  10.278  0.2200  0.3627 -0.2924
  476TMC3    C3 7080   0.513   0.511  10.349 -0.1751 -0.3015 -0.3669
  476TMC3    C4 7081   0.689   0.692  10.432  0.7723  0.0708 -0.7416
  476TMC3    C5 7082   0.570   0.679  10.494  0.7838  0.5933  0.1105
  476TMC3    C6 7083   0.477   0.591  10.448 -0.1068 -0.0312 -0.0706
  476TMC3     C 7084   0.846   0.644  10.263 -0.7159 -0.7698  0.0198
  476TMC3     O 7085   0.855   0.764  10.248  0.1668  0.8852  0.3378
  476TMC3     H 7086   0.649   0.465  10.190  1.0799  0.0249  0.1332
  476TMC3    H1 7087   0.769   0.757  10.466 -2.1459  2.6610  1.1961
  476TMC3    H2 7088   0.382   0.586  10.500  0.5733 -1.1931  1.0329
  476TMC3    C7 7089   0.560   0.721  10.633  0.1430 -0.1830  0.0649
  476TMC3    C8 7090   0.393   0.454  10.294  0.3057  0.5368  0.0745
  476TMC3    O1 7091   0.520   0.646  10.720  0.5074  0.0958  0.1229
  476TMC3    O2 7092   0.288   0.515  10.303 -0.3111  0.4883 -0.1149
  477MPD2     C 7093   3.317   1.846  11.320  0.8769 -0.2677  0.1409
  477MPD2    C1 7094   3.219   1.748  11.351 -0.1485  0.4014 -0.1292
  477MPD2    C2 7095   3.257   1.626  11.393  0.1372  0.3286 -1.0534
  477MPD2    C3 7096   3.386   1.592  11.406  0.0042  0.5537  0.4614
  477MPD2    C4 7097   3.482   1.685  11.354 -0.2755 -0.5129 -0.2690
  477MPD2    C5 7098   3.448   1.811  11.326 -0.8234 -0.1368  0.4056
  477MPD2     H 7099   3.187   1.551  11.428  0.2589  0.9036  0.4332
  477MPD2    H1 7100   3.589   1.665  11.362  0.3667  3.1498  0.0448
  477MPD2    H2 7101   3.288   1.947  11.293 -0.2046 -0.9836 -1.3734
  477MPD2    H3 7102   3.513   1.890  11.292 -0.7561 -0.0240  0.7870
  477MPD2     N 7103   3.410   1.462  11.466 -0.4195  0.2727 -0.2311
  477MPD2    H5 7104   3.332   1.400  11.482 -0.6553  1.2655  2.4775
  477MPD2    N1 7105   3.092   1.786  11.342  0.2540  0.2707  0.0718
  477MPD2    H7 7106   3.065   1.880  11.313 -2.4548 -0.5510 -0.0987
  478TMC3    C1 7107   2.874   1.776  11.293 -0.1056  0.1306  0.6534
  478TMC3    C2 7108   2.750   1.760  11.348  0.0085  0.1190  0.5164
  478TMC3    C3 7109   2.643   1.832  11.301  0.4303  0.4712 -0.1188
  478TMC3    C4 7110   2.890   1.842  11.176  0.3448 -0.0539  0.1487
  478TMC3    C5 7111   2.774   1.902  11.124 -0.7039 -0.7163  0.0799
  478TMC3    C6 7112   2.651   1.897  11.184  0.2485 -0.6377 -0.3384
  478TMC3     C 7113   2.983   1.702  11.341 -0.1323 -0.2990  0.3722
  478TMC3     O 7114   2.953   1.586  11.365  0.1996 -0.5176  0.5505
  478TMC3     H 7115   2.731   1.697  11.434 -0.4509  1.1809  1.1835
  478TMC3    H1 7116   2.986   1.829  11.126  1.4319  1.5921  1.7784
  478TMC3    H2 7117   2.573   1.961  11.145  1.7137  0.4459 -1.4432
  478TMC3    C7 7118   2.805   1.960  10.991 -0.2109 -0.2034 -0.2757
  478TMC3    C8 7119   2.551   1.875  11.400  0.3239 -0.2861  0.2496
  478TMC3    O1 7120   2.923   1.972  10.965 -0.1830 -0.5633 -0.0756
  478TMC3    O2 7121   2.541   1.791  11.493  0.3995 -0.1073 -0.0874
  479MPD2     C 7122   1.804   3.613  15.385 -0.4165  0.0110 -0.1782
  479MPD2    C1 7123   1.758   3.521  15.477  0.5405  0.1315  0.0334
  479MPD2    C2 7124   1.805   3.526  15.610  0.2879  0.1335  0.8031
  479MPD2    C3 7125   1.908   3.618  15.652 -0.2233 -0.2678  0.5750
  479MPD2    C4 7126   1.962   3.691  15.545  0.1606 -0.5627  0.2857
  479MPD2    C5 7127   1.911   3.690  15.413 -0.2577  0.4974 -0.6574
  479MPD2     H 7128   1.782   3.440  15.672 -1.7843 -1.2669 -1.8943
  479MPD2    H1 7129   2.045   3.755  15.572 -0.9437  0.9560  0.0789
  479MPD2    H2 7130   1.772   3.611  15.281 -3.0775 -0.7358  0.6496
  479MPD2    H3 7131   1.953   3.755  15.337 -1.6276 -0.6225 -2.3863
  479MPD2     N 7132   1.964   3.628  15.785  0.2637 -0.0492 -0.4026
  479MPD2    H5 7133   2.049   3.683  15.787  0.0799  0.2642 -1.2650
  479MPD2    N1 7134   1.659   3.426  15.442 -0.2717 -0.7818 -0.4950
  479MPD2    H7 7135   1.620   3.439  15.350  1.5806  0.3171 -1.1095
  480TMC3    C1 7136   1.639   3.382  16.047  0.6318 -0.5451  0.6961
  480TMC3    C2 7137   1.525   3.446  15.997 -0.5803  0.4258  0.6994
  480TMC3    C3 7138   1.547   3.544  15.908  0.4708 -0.7553  0.9310
  480TMC3    C4 7139   1.767   3.413  15.996  0.0110  0.7846  0.1785
  480TMC3    C5 7140   1.777   3.515  15.905 -1.3403 -0.3090 -1.2972
  480TMC3    C6 7141   1.670   3.589  15.871  0.8003 -1.1292 -0.4651
  480TMC3     C 7142   1.630   3.278  16.151 -0.2805 -0.8625  0.3398
  480TMC3     O 7143   1.732   3.213  16.183 -0.4030  0.3690  0.0077
  480TMC3     H 7144   1.429   3.401  16.015  0.5568 -1.2093  2.7116
  480TMC3    H1 7145   1.858   3.365  16.032 -0.2500 -1.2922 -1.8823
  480TMC3    H2 7146   1.669   3.674  15.803 -2.1653 -2.6400 -2.3487
  480TMC3    C7 7147   1.906   3.581  15.905 -0.9196  0.0305  0.1591
  480TMC3    C8 7148   1.433   3.588  15.831  0.1978 -0.3696  0.2830
  480TMC3    O1 7149   1.959   3.583  16.015  0.3474 -0.0603  0.1317
  480TMC3    O2 7150   1.325   3.550  15.877  0.0204 -0.1262  0.5557
  481MPD2     C 7151   3.391   3.528  14.416  0.0130 -0.2010 -0.4785
  481MPD2    C1 7152   3.300   3.427  14.448 -0.1882  0.2328 -0.2346
  481MPD2    C2 7153   3.287   3.388  14.580 -0.1387  0.4194 -0.5587
  481MPD2    C3 7154   3.358   3.462  14.676 -0.7978  0.1977  0.3336
  481MPD2    C4 7155   3.453   3.550  14.640 -1.1023  0.2823  0.0364
  481MPD2    C5 7156   3.478   3.574  14.512 -0.0641 -1.2972  0.2751
  481MPD2     H 7157   3.212   3.313  14.603  0.9563 -0.9206 -1.3075
  481MPD2    H1 7158   3.514   3.591  14.720 -1.3356 -1.0450  0.8974
  481MPD2    H2 7159   3.410   3.551  14.312 -1.2510 -2.4939 -1.2101
  481MPD2    H3 7160   3.560   3.634  14.474 -1.6124  0.0204 -1.0074
  481MPD2     N 7161   3.352   3.438  14.813 -0.1846  0.0434 -0.1810
  481MPD2    H5 7162   3.416   3.493  14.870  1.1079  0.3784 -1.9406
  481MPD2    N1 7163   3.241   3.367  14.333 -0.1054  0.4238 -0.2054
  481MPD2    H7 7164   3.268   3.396  14.240 -0.6576 -2.0205 -1.1465
  482TMC3    C1 7165   3.095   3.233  14.208 -0.0615  0.0574  0.3887
  482TMC3    C2 7166   3.065   3.105  14.175 -0.0564 -0.4403  0.3834
  482TMC3    C3 7167   2.988   3.084  14.063  0.1911 -0.2329 -0.1381
  482TMC3    C4 7168   3.047   3.337  14.133 -0.4420 -0.0880 -0.5705
  482TMC3    C5 7169   2.978   3.313  14.019  0.4326 -0.1673  0.4876
  482TMC3    C6 7170   2.939   3.188  13.986 -0.4053  0.4859  0.5067
  482TMC3     C 7171   3.163   3.258  14.330 -0.3006  0.9108 -0.0547
  482TMC3     O 7172   3.147   3.169  14.411  0.4736 -0.3303  0.1204
  482TMC3     H 7173   3.105   3.025  14.237  2.5581 -0.2769 -1.1021
  482TMC3    H1 7174   3.086   3.434  14.161  0.3877 -1.0920  1.7560
  482TMC3    H2 7175   2.889   3.158  13.894 -1.0096  1.2511  0.5840
  482TMC3    C7 7176   2.988   3.401  13.900  0.0046 -0.6919  0.4872
  482TMC3    C8 7177   2.992   2.958  13.994  0.1345 -0.4000  0.1689
  482TMC3    O1 7178   2.933   3.365  13.793  0.4038 -0.3537  0.2925
  482TMC3    O2 7179   2.891   2.921  13.943 -0.0900 -0.0822  0.5114
  483TMC3    C1 7180   0.831   1.455   0.866  0.5636 -0.3607 -0.3790
  483TMC3    C2 7181   0.896   1.570   0.895  0.1299  0.4868 -0.8496
  483TMC3    C3 7182   0.898   1.618   1.025 -0.5199 -0.2781  0.4636
  483TMC3    C4 7183   0.784   1.380   0.975  0.0017 -0.2167  0.9013
  483TMC3    C5 7184   0.795   1.434   1.100 -0.3079  0.8297 -0.6166
  483TMC3    C6 7185   0.841   1.552   1.128 -0.1888 -0.6083  0.6575
  483TMC3     C 7186   0.844   1.387   0.738 -0.2759  0.1769  0.1921
  483TMC3     O 7187   0.807   1.445   0.634  0.1985 -0.4088 -0.6244
  483TMC3     H 7188   0.929   1.631   0.812 -1.1128  1.3093 -0.7351
  483TMC3    H1 7189   0.736   1.284   0.963  1.0380 -0.8059  1.4381
  483TMC3    H2 7190   0.855   1.574   1.233 -3.6558 -1.8729  1.3885
  483TMC3    C7 7191   0.787   1.336   1.212 -0.5279  0.1326 -0.7404
  483TMC3    C8 7192   0.991   1.727   1.038  0.3492 -0.3743 -0.6064
  483TMC3    O1 7193   0.810   1.220   1.187  0.1149  0.1895  0.2445
  483TMC3    O2 7194   1.053   1.744   0.937  0.3148  0.4261  0.4031
  484MPD2     C 7195   3.790   0.330  12.752  0.2693  0.0668 -0.4629
  484MPD2    C1 7196   3.825   0.210  12.817  0.1827  0.2608 -0.7531
  484MPD2    C2 7197   3.957   0.181  12.831  0.0948 -0.4600 -0.2469
  484MPD2    C3 7198   4.051   0.270  12.802  0.0516 -0.4687  0.5921
  484MPD2    C4 7199   4.020   0.397  12.751  0.0776 -0.2288 -0.1811
  484MPD2    C5 7200   3.888   0.417  12.720 -0.3948 -0.7499 -0.2560
  484MPD2     H 7201   3.979   0.085  12.876 -2.1041 -1.7656 -1.9430
  484MPD2    H1 7202   4.090   0.474  12.720  0.9885 -0.6739  0.7450
  484MPD2    H2 7203   3.684   0.354  12.743  0.0573 -1.1618 -1.2281
  484MPD2    H3 7204   3.859   0.514  12.682  0.4757 -0.3852  0.0074
  484MPD2     N 7205   4.189   0.238  12.813 -0.5220  0.1172 -0.4351
  484MPD2    H5 7206   4.255   0.311  12.784  1.3916 -0.7776  1.6767
  484MPD2    N1 7207   3.718   0.120  12.858  0.1459 -0.5369  0.4798
  484MPD2    H7 7208   3.622   0.139  12.834  1.2356  0.0127 -3.4950
  485TMC3    C1 7209   4.392   0.117  12.857  0.0443  0.3997 -0.1040
  485TMC3    C2 7210   4.446   0.054  12.968  0.1255  0.3374 -0.6645
  485TMC3    C3 7211   4.575   0.066  12.999  0.0313 -0.2708 -0.2436
  485TMC3    C4 7212   4.478   0.178  12.764  0.3798  0.1189  0.2141
  485TMC3    C5 7213   4.614   0.183  12.794 -0.2831  0.5185  0.4701
  485TMC3    C6 7214   4.656   0.126  12.909 -0.4443  0.4438  0.9371
  485TMC3     C 7215   4.242   0.120  12.850  0.0204  0.6536  0.9173
  485TMC3     O 7216   4.190   0.017  12.890  0.0691  0.0472  0.2384
  485TMC3     H 7217   4.378   0.003  13.036 -0.2720  1.3496 -0.3039
  485TMC3    H1 7218   4.449   0.232  12.674  0.1642 -0.2896  0.0389
  485TMC3    H2 7219   0.032   0.152  12.943 -0.3484 -0.2159  1.1581
  485TMC3    C7 7220   4.703   0.161  12.686 -0.4155  0.0027  0.1154
  485TMC3    C8 7221   4.644   4.671  13.058  0.1600  0.0662  0.3242
  485TMC3    O1 7222   0.068   0.081  12.722 -0.2105  0.0136  0.3943
  485TMC3    O2 7223   4.594   4.611  13.155  0.3425 -0.1102  0.2151
  486MPD2     C 7224   1.743   3.787  12.974 -0.2542  0.1637  0.4748
  486MPD2    C1 7225   1.626   3.732  12.949  0.7279 -0.0031 -0.7786
  486MPD2    C2 7226   1.520   3.818  12.940 -0.2802  0.2006 -0.8063
  486MPD2    C3 7227   1.537   3.959  12.949  0.0609 -0.4183  0.3589
  486MPD2    C4 7228   1.662   4.015  12.979 -0.5934  0.0054 -0.3759
  486MPD2    C5 7229   1.756   3.923  13.000  1.1670  0.0414 -0.4443
  486MPD2     H 7230   1.421   3.779  12.924  0.1914 -0.6047 -1.7118
  486MPD2    H1 7231   1.687   4.118  12.998  1.0900 -0.5096  0.1971
  486MPD2    H2 7232   1.829   3.726  13.000 -2.3871 -2.3983  1.4235
  486MPD2    H3 7233   1.854   3.955  13.034  0.9291  0.5284 -0.2250
  486MPD2     N 7234   1.424   4.041  12.928 -0.1771 -0.2817 -0.3207
  486MPD2    H5 7235   1.338   3.990  12.911 -1.7855  2.1885  0.3979
  486MPD2    N1 7236   1.618   3.588  12.948  0.1337 -0.2873  0.0052
  486MPD2    H7 7237   1.695   3.536  12.990  0.4292 -0.9811 -1.3972
  487TMC3    C1 7238   1.533   3.378  12.865  0.1728 -0.1546 -0.4813
  487TMC3    C2 7239   1.428   3.303  12.811  0.3559 -0.5074  0.2586
  487TMC3    C3 7240   1.451   3.169  12.779 -0.1175  0.7371  0.7711
  487TMC3    C4 7241   1.652   3.320  12.893  0.5135 -0.8555  0.1851
  487TMC3    C5 7242   1.666   3.185  12.860  0.7474 -0.0659 -0.5997
  487TMC3    C6 7243   1.570   3.108  12.802  0.5142 -0.3191  0.4198
  487TMC3     C 7244   1.509   3.519  12.897  0.0452  0.8566 -0.3064
  487TMC3     O 7245   1.394   3.558  12.877  0.2159 -0.4787  0.4015
  487TMC3     H 7246   1.332   3.349  12.793  1.0564  0.9088  0.1956
  487TMC3    H1 7247   1.738   3.376  12.927  1.6085 -1.2387 -1.9558
  487TMC3    H2 7248   1.593   3.012  12.755  0.1845 -0.2071  0.0351
  487TMC3    C7 7249   1.731   3.105  12.961 -0.1672 -0.1627 -0.1012
  487TMC3    C8 7250   1.342   3.078  12.809  0.2670 -0.4719  0.3158
  487TMC3    O1 7251   1.795   3.162  13.049 -0.4875  0.2086  0.3705
  487TMC3    O2 7252   1.381   2.971  12.863  0.0249  0.1081  0.3285
  488MPD2     C 7253   1.507   0.368  16.378  0.1715  0.0618 -0.1223
  488MPD2    C1 7254   1.426   0.476  16.346 -0.2284  0.5105  0.8685
  488MPD2    C2 7255   1.304   0.475  16.403  0.1151 -0.4645  0.2852
  488MPD2    C3 7256   1.262   0.374  16.486 -0.5650 -1.0943 -0.4830
  488MPD2    C4 7257   1.333   0.261  16.487 -0.6012  0.5929  0.2306
  488MPD2    C5 7258   1.463   0.264  16.436 -0.3814 -0.1922  0.0327
  488MPD2     H 7259   1.236   0.558  16.389  1.9530  0.8768 -0.7417
  488MPD2    H1 7260   1.308   0.167  16.536 -0.4650 -0.4669 -1.7244
  488MPD2    H2 7261   1.604   0.374  16.332 -0.0325  0.9443 -0.4397
  488MPD2    H3 7262   1.522   0.174  16.437  0.7669  0.5882  1.8820
  488MPD2     N 7263   1.136   0.387  16.546  0.2078 -0.0165 -0.3924
  488MPD2    H5 7264   1.092   0.477  16.529  1.4266  0.7940  0.7359
  488MPD2    N1 7265   1.464   0.586  16.270 -0.2414 -0.0384  0.2103
  488MPD2    H7 7266   1.396   0.661  16.272 -0.6502 -0.4663  2.1105
  489TMC3    C1 7267   0.971   0.362  16.720 -0.9749  0.1809 -0.2160
  489TMC3    C2 7268   0.996   0.403  16.851 -0.1748  0.4575 -0.2671
  489TMC3    C3 7269   0.929   0.507  16.897  0.2514  0.0633  0.1169
  489TMC3    C4 7270   0.862   0.416  16.651  0.2415  0.3204 -0.1721
  489TMC3    C5 7271   0.793   0.512  16.710 -0.4957  0.5032  0.2551
  489TMC3    C6 7272   0.827   0.565  16.830  0.6624  0.7710  0.5356
  489TMC3     C 7273   1.089   0.314  16.650  0.6859  0.1908 -0.8693
  489TMC3     O 7274   1.142   0.216  16.705 -0.0287  0.2624 -0.3845
  489TMC3     H 7275   1.083   0.368  16.905  0.5271  3.0022  0.2465
  489TMC3    H1 7276   0.845   0.387  16.548 -0.9410  2.0521 -0.4632
  489TMC3    H2 7277   0.764   0.638  16.879 -0.2627  0.1494  0.2797
  489TMC3    C7 7278   0.667   0.550  16.639 -0.5680 -0.1327  0.4028
  489TMC3    C8 7279   1.016   0.600  16.975 -0.1602  0.6791 -0.7671
  489TMC3    O1 7280   0.643   0.486  16.537  0.7324  0.1507 -0.0819
  489TMC3    O2 7281   1.130   0.570  16.983 -0.2549  0.2995 -0.1411
  490MPD2     C 7282   2.184   4.634  17.382  0.1238  0.3751  0.2308
  490MPD2    C1 7283   2.161   4.625  17.517 -0.6036  0.3285  0.1681
  490MPD2    C2 7284   2.269   4.652  17.602  0.2890  0.1617  0.8842
  490MPD2    C3 7285   2.392   4.695  17.549 -0.3377 -0.5324 -0.9195
  490MPD2    C4 7286   2.405   4.707  17.411 -0.4119 -0.1233  0.7909
  490MPD2    C5 7287   2.302   4.679  17.332 -0.8953 -0.0608 -0.2093
  490MPD2     H 7288   2.276   4.625   0.011  1.5053  1.3976  1.1334
  490MPD2    H1 7289   2.502   0.005  17.367 -1.0841 -1.9785 -1.5732
  490MPD2    H2 7290   2.109   4.620  17.304  0.1379  0.0863  0.2690
  490MPD2    H3 7291   2.303   4.702  17.226 -0.2412 -3.1811 -0.8578
  490MPD2     N 7292   2.510   0.003  17.620 -0.6206  0.2054 -0.3593
  490MPD2    H5 7293   2.592   0.017  17.562  0.4362  2.7547  1.7401
  490MPD2    N1 7294   2.046   4.568  17.575 -0.4566  0.3369  0.0046
  490MPD2    H7 7295   2.049   4.546  17.674 -1.2252  2.0273  0.3868
  491TMC3    C1 7296   1.855   4.442  17.575 -0.1274  0.1502 -0.2638
  491TMC3    C2 7297   1.899   4.403   0.006  0.3080  0.1271  0.2820
  491TMC3    C3 7298   1.906   4.273   0.042  0.3117 -0.1512 -0.3234
  491TMC3    C4 7299   1.829   4.340  17.488 -0.4057 -0.2233  0.4005
  491TMC3    C5 7300   1.834   4.208  17.525  0.1658  0.0945 -1.0794
  491TMC3    C6 7301   1.857   4.174  17.654  0.0239  0.9481  0.1487
  491TMC3     C 7302   1.928   4.538  17.502 -0.7809  0.2057  0.3104
  491TMC3     O 7303   1.894   4.566  17.386  0.6803  0.1602 -0.3929
  491TMC3     H 7304   1.934   4.476   0.079  0.5251  0.7198 -0.4110
  491TMC3    H1 7305   1.789   4.364  17.390  1.0508 -0.7798 -0.3317
  491TMC3    H2 7306   1.839   4.071  17.686 -0.0392  0.2282 -2.2065
  491TMC3    C7 7307   1.805   4.101  17.426  0.0093  0.0976 -0.4329
  491TMC3    C8 7308   1.902   4.243   0.183 -0.2989 -0.2370  0.0269
  491TMC3    O1 7309   1.729   4.133  17.336 -0.1181  0.0064  0.0879
  491TMC3    O2 7310   1.844   4.313   0.263  0.1650  0.4099  0.8116
  492MPD2     C 7311   2.312   0.575  11.398  0.2726  0.0230 -0.4061
  492MPD2    C1 7312   2.252   0.498  11.298 -0.0265 -0.5302  0.5335
  492MPD2    C2 7313   2.203   0.373  11.334  0.3231 -0.3301  0.0619
  492MPD2    C3 7314   2.194   0.343  11.472 -0.3401  0.5433  0.4143
  492MPD2    C4 7315   2.226   0.438  11.566  0.1191  0.0750  0.0482
  492MPD2    C5 7316   2.294   0.550  11.527 -0.4555 -0.3012  0.4432
  492MPD2     H 7317   2.167   0.306  11.256 -0.0053 -0.7952  0.6108
  492MPD2    H1 7318   2.219   0.415  11.672 -0.5457  1.2879  0.2633
  492MPD2    H2 7319   2.376   0.659  11.375 -0.0962  0.2430 -0.6271
  492MPD2    H3 7320   2.333   0.621  11.600 -0.1114  2.5569 -2.5045
  492MPD2     N 7321   2.146   0.225  11.516  0.9155 -0.3633 -0.6257
  492MPD2    H5 7322   2.143   0.208  11.616  0.0270 -0.8428 -0.7320
  492MPD2    N1 7323   2.266   0.555  11.165  0.5541  0.3717  0.3598
  492MPD2    H7 7324   2.306   0.649  11.163 -0.0285  0.6699  2.2678
  493TMC3    C1 7325   2.244   0.597  10.938 -0.2032  0.6409  0.8288
  493TMC3    C2 7326   2.370   0.647  10.923 -0.3316 -0.6299 -0.3155
  493TMC3    C3 7327   2.401   0.731  10.818  0.0048  0.4061 -0.4182
  493TMC3    C4 7328   2.154   0.609  10.839  0.6284  0.0714  0.2393
  493TMC3    C5 7329   2.189   0.684  10.729  0.0794  0.3175  0.4092
  493TMC3    C6 7330   2.309   0.752  10.718 -0.2083 -0.0758  0.1272
  493TMC3     C 7331   2.204   0.515  11.053  0.2561 -0.4853  0.1038
  493TMC3     O 7332   2.128   0.422  11.025  0.2906  0.1679  0.1883
  493TMC3     H 7333   2.447   0.631  10.998  0.6264  0.5194 -1.0590
  493TMC3    H1 7334   2.055   0.566  10.841 -0.4567  2.4979 -0.4176
  493TMC3    H2 7335   2.334   0.814  10.633  1.6683  0.7250  1.2373
  493TMC3    C7 7336   2.095   0.674  10.617  0.5459 -0.4228 -0.0552
  493TMC3    C8 7337   2.514   0.817  10.824  0.5784 -0.1537  0.4759
  493TMC3    O1 7338   2.028   0.571  10.606 -0.4412  0.3519 -0.2178
  493TMC3    O2 7339   2.605   0.790  10.903  0.0366  0.4299 -0.1970
  494TMC3    C1 7340   2.889   1.702   0.368 -0.2499  0.1371  0.3820
  494TMC3    C2 7341   2.913   1.569   0.391 -0.3872  0.3373  0.0265
  494TMC3    C3 7342   3.040   1.533   0.416 -0.3805  0.1019 -0.2907
  494TMC3    C4 7343   2.994   1.786   0.326  0.2111 -0.6298 -0.3738
  494TMC3    C5 7344   3.121   1.740   0.338 -0.4104 -0.2254 -0.1701
  494TMC3    C6 7345   3.142   1.617   0.391  0.2854  0.4983  0.2131
  494TMC3     C 7346   2.763   1.726   0.296  0.5968  0.1170  0.1610
  494TMC3     O 7347   2.784   1.784   0.193  0.4910  0.0537  0.6515
  494TMC3     H 7348   2.840   1.489   0.397  0.3047 -0.2789  0.2155
  494TMC3    H1 7349   2.971   1.873   0.266  1.4557 -0.5261 -0.7045
  494TMC3    H2 7350   3.243   1.578   0.382 -0.0614  0.0743 -1.8727
  494TMC3    C7 7351   3.211   1.787   0.233  0.0892  0.6719  0.8201
  494TMC3    C8 7352   3.061   1.411   0.499  0.7254 -0.2242 -0.1498
  494TMC3    O1 7353   3.268   1.704   0.165  0.1525  0.3446  0.0558
  494TMC3    O2 7354   2.964   1.343   0.522 -0.1033 -0.6631  0.2216
  495TMC3    C1 7355   1.639   3.656  14.864 -0.1278  0.1257  0.7592
  495TMC3    C2 7356   1.565   3.737  14.777 -0.0719  0.3010  0.7822
  495TMC3    C3 7357   1.447   3.784  14.828  0.8352 -0.4993 -0.3769
  495TMC3    C4 7358   1.606   3.631  14.993  0.1805  1.0638  0.4192
  495TMC3    C5 7359   1.486   3.680  15.030  0.0714  0.1254 -0.2243
  495TMC3    C6 7360   1.404   3.756  14.955 -0.0254  0.5881 -0.3036
  495TMC3     C 7361   1.677   3.535  14.798  0.3549 -0.6206  0.1555
  495TMC3     O 7362   1.622   3.521  14.690  0.0739  0.2933 -0.1733
  495TMC3     H 7363   1.612   3.758  14.682 -0.3765  0.6348  0.7081
  495TMC3    H1 7364   1.668   3.563  15.050 -0.2538 -0.5514 -1.0519
  495TMC3    H2 7365   1.308   3.786  14.996 -1.2356 -0.9295 -2.0083
  495TMC3    C7 7366   1.470   3.670  15.178 -0.0288 -0.0764  0.0811
  495TMC3    C8 7367   1.346   3.771  14.725  0.0296 -0.0827  0.2268
  495TMC3    O1 7368   1.552   3.601  15.232  0.1815  0.4099  0.3209
  495TMC3    O2 7369   1.239   3.831  14.729 -0.1691  0.0549  0.2407
  496MPD2     C 7370   3.470   3.692  15.256 -0.3475  0.2045 -0.5829
  496MPD2    C1 7371   3.572   3.647  15.343  0.1294 -0.1667  0.4589
  496MPD2    C2 7372   3.536   3.578  15.462 -0.2497 -0.4103  0.2838
  496MPD2    C3 7373   3.413   3.519  15.480  0.0289  0.1029  0.2769
  496MPD2    C4 7374   3.316   3.553  15.392  0.4184 -0.0558 -0.3024
  496MPD2    C5 7375   3.337   3.657  15.293  0.4619  0.1037 -0.9785
  496MPD2     H 7376   3.621   3.554  15.525  0.5416  1.0626 -0.2181
  496MPD2    H1 7377   3.215   3.513  15.394 -0.3303  1.9192  1.0362
  496MPD2    H2 7378   3.481   3.752  15.167  1.1938 -1.2705 -1.3703
  496MPD2    H3 7379   3.254   3.688  15.231 -0.7003  1.3365  1.1852
  496MPD2     N 7380   3.377   3.431  15.583 -0.5259 -0.4280 -0.0862
  496MPD2    H5 7381   3.287   3.385  15.581 -0.4730 -0.3893 -2.4286
  496MPD2    N1 7382   3.713   3.659  15.324  0.0762 -0.1183 -0.6351
  496MPD2    H7 7383   3.772   3.617  15.395 -0.6097  0.4492  0.2751
  497TMC3    C1 7384   3.375   3.345  15.807  0.3521  0.4795  0.2746
  497TMC3    C2 7385   3.287   3.251  15.764  0.8423  0.3708  0.1071
  497TMC3    C3 7386   3.185   3.214  15.849 -0.9285 -0.0284 -0.6616
  497TMC3    C4 7387   3.376   3.388  15.934 -0.9032 -0.0661  0.3031
  497TMC3    C5 7388   3.270   3.351  16.014 -0.0350 -0.1291 -0.4529
  497TMC3    C6 7389   3.172   3.271  15.974 -0.6129 -0.4489 -0.3238
  497TMC3     C 7390   3.448   3.413  15.699  0.0519 -0.6548  0.5626
  497TMC3     O 7391   3.525   3.498  15.742  0.3134  0.5546  0.7044
  497TMC3     H 7392   3.305   3.192  15.675  0.0251  0.1163  0.1078
  497TMC3    H1 7393   3.446   3.467  15.960  1.0556 -1.2472 -1.3247
  497TMC3    H2 7394   3.089   3.239  16.036  0.4365 -0.6043  0.9823
  497TMC3    C7 7395   3.273   3.390  16.159 -0.3659 -0.5358 -0.8525
  497TMC3    C8 7396   3.088   3.127  15.797  0.1061  0.7936  0.4585
  497TMC3    O1 7397   3.186   3.341  16.225 -0.0751 -0.0141 -0.0430
  497TMC3    O2 7398   3.114   3.052  15.700  0.4085 -0.2195  0.9083
  498MPD2     C 7399   0.265   3.292  10.227 -0.2363  0.2456  0.2040
  498MPD2    C1 7400   0.187   3.406  10.205  0.7803  0.2463 -0.1422
  498MPD2    C2 7401   0.055   3.392  10.254 -0.6201 -0.5289 -0.0789
  498MPD2    C3 7402   0.007   3.289  10.335  0.4175 -0.0364 -0.5264
  498MPD2    C4 7403   0.090   3.194  10.373 -0.4847 -0.4026 -0.4488
  498MPD2    C5 7404   0.220   3.191  10.314  0.1846 -0.2146 -0.0202
  498MPD2     H 7405   4.708   3.471  10.230  0.0396 -0.1607 -0.8024
  498MPD2    H1 7406   0.061   3.116  10.443 -0.7671 -0.5968 -0.7809
  498MPD2    H2 7407   0.365   3.280  10.189  0.7441  1.5909  2.3386
  498MPD2    H3 7408   0.294   3.117  10.342 -0.7158 -1.0858  0.0529
  498MPD2     N 7409   4.596   3.291  10.375  0.4771 -0.5417 -0.2642
  498MPD2    H5 7410   4.540   3.369  10.342 -1.3311 -1.6529  0.2104
  498MPD2    N1 7411   0.225   3.514  10.131  0.1716 -0.6077 -0.2505
  498MPD2    H7 7412   0.155   3.588  10.122 -0.0071 -0.8498 -0.8045
  499TMC3    C1 7413   0.384   3.656  10.027 -0.0988 -0.8214  0.4828
  499TMC3    C2 7414   0.489   3.655   9.942 -0.1844 -0.5275 -0.6702
  499TMC3    C3 7415   0.527   3.772   9.885  1.2185 -0.8678  0.8561
  499TMC3    C4 7416   0.322   3.769  10.074 -0.1134 -0.2930  0.1782
  499TMC3    C5 7417   0.368   3.883  10.008 -0.6342  0.6884  0.6038
  499TMC3    C6 7418   0.469   3.888   9.915  0.0622 -0.0992 -0.6363
  499TMC3     C 7419   0.349   3.522  10.079 -0.1668 -0.1838  0.5933
  499TMC3     O 7420   0.453   3.450  10.088 -0.0064  0.1185 -0.2139
  499TMC3     H 7421   0.546   3.568   9.913  0.1691 -0.1677 -1.0446
  499TMC3    H1 7422   0.243   3.770  10.148  0.8623  0.5395  1.2055
  499TMC3    H2 7423   0.498   3.977   9.859  0.4249  1.0846  1.4153
  499TMC3    C7 7424   0.306   4.009  10.034  0.7551 -0.2754  0.0043
  499TMC3    C8 7425   0.630   3.781   9.779  0.6573 -0.1861  0.1026
  499TMC3    O1 7426   0.367   4.111  10.009  0.1703 -0.7709 -0.0629
  499TMC3    O2 7427   0.677   3.889   9.751 -0.0586  0.3425  0.3091
  500MPD2     C 7428   1.643   1.104   9.936 -0.2401  0.1725 -0.2374
  500MPD2    C1 7429   1.549   1.193   9.988  0.1005 -1.2588 -0.2283
  500MPD2    C2 7430   1.412   1.157   9.989  0.2771  0.4819 -0.1759
  500MPD2    C3 7431   1.374   1.035   9.935 -0.3752  0.4238  0.2693
  500MPD2    C4 7432   1.470   0.954   9.886 -0.3591 -0.3217 -0.2253
  500MPD2    C5 7433   1.599   0.992   9.885  0.1751  0.2911  0.2571
  500MPD2     H 7434   1.342   1.228  10.030 -1.2474 -0.0576 -1.8469
  500MPD2    H1 7435   1.448   0.855   9.846 -0.5961 -0.3815  0.0492
  500MPD2    H2 7436   1.751   1.116   9.945 -0.0816 -0.8957 -0.7795
  500MPD2    H3 7437   1.673   0.919   9.853  0.5596  0.7274  0.1640
  500MPD2     N 7438   1.245   0.980   9.933 -0.0309  0.3928 -0.8616
  500MPD2    H5 7439   1.235   0.894   9.881 -1.0204  0.6322 -1.0746
  500MPD2    N1 7440   1.587   1.316  10.058  0.3798 -0.0856 -0.0364
  500MPD2    H7 7441   1.522   1.373  10.110  1.9056  0.7858  0.9235
  501TMC3    C1 7442   1.739   1.461  10.176 -0.1962  0.7475  0.1965
  501TMC3    C2 7443   1.839   1.552  10.153 -0.4331  0.6165 -0.1716
  501TMC3    C3 7444   1.866   1.637  10.254 -0.2490  0.4325 -0.9264
  501TMC3    C4 7445   1.672   1.440  10.299  0.5938 -0.3072 -0.1315
  501TMC3    C5 7446   1.718   1.523  10.403  0.0898  0.0103 -0.0644
  501TMC3    C6 7447   1.810   1.627  10.377  0.5921 -0.0659  0.4089
  501TMC3     C 7448   1.719   1.362  10.069 -0.5546 -0.4754  0.1448
  501TMC3     O 7449   1.818   1.326  10.003 -0.3144 -0.2764 -1.0650
  501TMC3     H 7450   1.885   1.562  10.055  0.4626  1.2164  0.3034
  501TMC3    H1 7451   1.600   1.360  10.308 -1.3924  1.6349  1.2652
  501TMC3    H2 7452   1.841   1.692  10.458 -0.5424  1.0491 -0.0645
  501TMC3    C7 7453   1.640   1.547  10.516 -0.0032 -0.0429 -0.0109
  501TMC3    C8 7454   1.959   1.741  10.238 -0.0311  0.7620 -0.3418
  501TMC3    O1 7455   1.687   1.608  10.612 -0.4674  0.0078  0.2440
  501TMC3    O2 7456   2.009   1.785  10.342 -0.1659  0.0311  0.0310
  502TMC3    C1 7457   1.010   3.991  15.084 -0.3971  1.0298  0.1218
  502TMC3    C2 7458   1.032   4.071  14.976 -0.2739  0.3553  0.3494
  502TMC3    C3 7459   0.951   4.176  14.948 -0.1635 -0.1754 -0.1130
  502TMC3    C4 7460   0.890   4.009  15.156  0.1232  0.3110 -0.3911
  502TMC3    C5 7461   0.802   4.107  15.116 -0.4958  0.2703 -0.1456
  502TMC3    C6 7462   0.824   4.186  15.003 -0.3695 -0.8934 -0.1104
  502TMC3     C 7463   1.126   3.999  15.166  0.8400 -0.5091  0.0271
  502TMC3     O 7464   1.233   4.014  15.115 -0.7681  0.2959  0.2672
  502TMC3     H 7465   1.119   4.040  14.920 -1.1254 -2.2269  0.4793
  502TMC3    H1 7466   0.860   3.929  15.222 -0.1444  0.4824 -0.3055
  502TMC3    H2 7467   0.753   4.261  14.969  0.3887  1.0672  2.6645
  502TMC3    C7 7468   0.693   4.120  15.217  0.3185 -0.3074  0.2063
  502TMC3    C8 7469   1.018   4.298  14.940 -0.1008  0.4087 -0.3289
  502TMC3    O1 7470   0.720   4.061  15.320 -0.1014 -0.4224  0.1018
  502TMC3    O2 7471   0.960   4.404  14.925  0.1076  0.1847 -0.3428
  503MPD2     C 7472   2.943   0.997  16.789  0.1790  0.2056 -0.3334
  503MPD2    C1 7473   2.910   0.989  16.925 -0.3677 -0.5027 -1.1411
  503MPD2    C2 7474   2.923   0.866  16.991  0.3724  0.5752  0.0384
  503MPD2    C3 7475   2.986   0.755  16.929  0.0947  0.8995 -0.4230
  503MPD2    C4 7476   3.027   0.768  16.803  0.2140 -0.3309 -0.4834
  503MPD2    C5 7477   2.998   0.884  16.730 -0.2052 -0.0264  0.0263
  503MPD2     H 7478   2.915   0.854  17.098 -1.8699 -0.6337 -0.2720
  503MPD2    H1 7479   3.086   0.691  16.755  2.3668  1.1515 -0.2288
  503MPD2    H2 7480   2.924   1.080  16.723  1.6764  0.6504 -0.1843
  503MPD2    H3 7481   3.045   0.891  16.633  0.1542 -1.7150  0.0749
  503MPD2     N 7482   3.023   0.643  17.012 -0.4062  0.5446 -0.2537
  503MPD2    H5 7483   2.999   0.657  17.109 -0.6110  0.0506 -0.2312
  503MPD2    N1 7484   2.870   1.097  17.004  0.6583  0.0242  0.0865
  503MPD2    H7 7485   2.825   1.085  17.094  0.2596 -0.2562 -0.1509
  504TMC3    C1 7486   3.144   0.444  17.082 -0.1037 -0.0260 -0.3339
  504TMC3    C2 7487   3.124   0.490  17.211 -0.4085 -0.4390 -0.9688
  504TMC3    C3 7488   3.215   0.458  17.307  0.1342 -0.4665  0.2717
  504TMC3    C4 7489   3.248   0.361  17.056  0.1451 -0.3990  0.5555
  504TMC3    C5 7490   3.335   0.339  17.158  0.2518 -1.0880 -0.3274
  504TMC3    C6 7491   3.328   0.390  17.284  0.0367  0.1052  0.2157
  504TMC3     C 7492   3.100   0.535  16.974 -0.5854  0.2246 -1.2559
  504TMC3     O 7493   3.152   0.511  16.863 -0.3870 -0.5291 -0.4128
  504TMC3     H 7494   3.029   0.530  17.245  0.6890  1.3590 -0.0172
  504TMC3    H1 7495   3.269   0.316  16.959 -2.2201 -2.2551  0.8915
  504TMC3    H2 7496   3.409   0.388  17.357  1.1159 -3.8175 -1.0924
  504TMC3    C7 7497   3.456   0.263  17.119 -0.1184  0.5734 -0.2665
  504TMC3    C8 7498   3.191   0.509  17.447 -0.2406  0.3849  0.0971
  504TMC3    O1 7499   3.464   0.222  17.004  0.1795  0.2411  0.0595
  504TMC3    O2 7500   3.111   0.598  17.456 -0.0628 -0.4260  0.3167
  505MPD2     C 7501   3.097   3.421  10.526 -0.3170 -0.2675  0.7718
  505MPD2    C1 7502   3.157   3.490  10.631  0.2555 -0.5079 -0.4082
  505MPD2    C2 7503   3.212   3.615  10.607  0.5322  0.9922  0.2954
  505MPD2    C3 7504   3.222   3.663  10.476  0.4096 -0.5050 -0.8873
  505MPD2    C4 7505   3.164   3.588  10.376  0.0493 -0.3329 -0.0126
  505MPD2    C5 7506   3.108   3.468  10.407 -0.9405 -0.5426  0.5440
  505MPD2     H 7507   3.257   3.681  10.680  2.7802 -2.2819  1.8791
  505MPD2    H1 7508   3.161   3.617  10.272  0.5819 -2.7755 -0.7200
  505MPD2    H2 7509   3.039   3.331  10.547 -0.4651 -0.2304  0.5247
  505MPD2    H3 7510   3.058   3.409  10.331  2.3163 -2.5521 -0.0412
  505MPD2     N 7511   3.292   3.783  10.451  0.0426  0.1621 -0.2844
  505MPD2    H5 7512   3.333   3.827  10.532  1.1418 -0.4552 -0.5103
  505MPD2    N1 7513   3.164   3.421  10.757 -0.6244 -0.8787 -0.1186
  505MPD2    H7 7514   3.118   3.332  10.774 -0.5230 -1.5813 -3.7145
  506TMC3    C1 7515   3.255   3.378  10.976 -0.3767 -0.2697 -0.5227
  506TMC3    C2 7516   3.332   3.267  10.942 -0.2249  0.3939 -0.7980
  506TMC3    C3 7517   3.431   3.230  11.031 -0.1573  0.4423 -0.2340
  506TMC3    C4 7518   3.289   3.462  11.082 -0.0265  0.2400  0.4004
  506TMC3    C5 7519   3.395   3.425  11.164  0.1818  0.2314 -0.3032
  506TMC3    C6 7520   3.456   3.300  11.142  0.4730 -0.3054  0.7189
  506TMC3     C 7521   3.244   3.466  10.861 -0.3137  0.5123 -0.8990
  506TMC3     O 7522   3.304   3.570  10.876 -0.3165 -0.0558 -0.1305
  506TMC3     H 7523   3.314   3.218  10.847 -1.3923  0.1191 -0.4321
  506TMC3    H1 7524   3.237   3.556  11.096 -1.2284 -0.7606  2.7573
  506TMC3    H2 7525   3.552   3.284  11.189  1.9242  0.2633 -2.1215
  506TMC3    C7 7526   3.496   3.530  11.178  0.4118  0.5503  0.7108
  506TMC3    C8 7527   3.559   3.202  10.968 -0.2074 -0.5833  0.3960
  506TMC3    O1 7528   3.572   3.508  11.270  0.1476 -0.2085  0.3822
  506TMC3    O2 7529   3.580   3.243  10.853 -0.3382  0.1243  0.0819
  507TMC3    C1 7530   4.691   0.585  14.524  0.0636  0.3968 -0.6886
  507TMC3    C2 7531   0.049   0.521  14.442  0.1685 -0.2841 -0.2234
  507TMC3    C3 7532   0.144   0.590  14.371 -0.1096  0.3575 -0.0159
  507TMC3    C4 7533   4.693   0.717  14.541  0.5462  0.0223  0.2664
  507TMC3    C5 7534   0.055   0.790  14.454  0.8974  0.0306  0.0744
  507TMC3    C6 7535   0.147   0.726  14.376  0.3663 -0.4784 -0.3016
  507TMC3     C 7536   4.596   0.508  14.600 -0.5045  0.1102 -0.2318
  507TMC3     O 7537   4.488   0.567  14.613  0.1936  0.8090 -0.1070
  507TMC3     H 7538   0.042   0.414  14.427 -2.6037  0.0555 -1.4816
  507TMC3    H1 7539   4.627   0.755  14.617 -2.7314  0.8707 -2.9886
  507TMC3    H2 7540   0.206   0.790  14.311  0.1499 -1.1797 -1.1922
  507TMC3    C7 7541   4.711   0.889  14.383 -0.1904 -0.1385  0.2551
  507TMC3    C8 7542   0.144   0.537  14.235 -0.2562 -0.6621  0.0253
  507TMC3    O1 7543   0.000   0.883  14.260  0.4960 -0.1761 -0.2993
  507TMC3    O2 7544   0.167   0.420  14.218 -0.9502  0.1226  1.3133
  508MPD2     C 7545   0.481   2.142  16.443  0.0395 -0.5671  0.3264
  508MPD2    C1 7546   0.487   2.276  16.472 -0.2164 -0.3362 -0.1729
  508MPD2    C2 7547   0.436   2.369  16.386 -0.0750 -0.3595  0.3875
  508MPD2    C3 7548   0.379   2.324  16.267  0.4291  1.1833 -0.0677
  508MPD2    C4 7549   0.376   2.185  16.240  0.2377 -0.2164  0.0898
  508MPD2    C5 7550   0.434   2.097  16.327  0.3863 -0.0428 -0.2804
  508MPD2     H 7551   0.451   2.474  16.408 -2.2604  0.4980 -2.2473
  508MPD2    H1 7552   0.332   2.152  16.146  1.0458 -0.1999 -0.2992
  508MPD2    H2 7553   0.536   2.079  16.512 -0.6884 -0.0322  1.3988
  508MPD2    H3 7554   0.419   1.992  16.304  2.2555  0.1661 -2.4068
  508MPD2     N 7555   0.350   2.423  16.172 -0.6332  0.5798  0.2072
  508MPD2    H5 7556   0.381   2.518  16.186  1.8066 -0.1473 -0.1894
  508MPD2    N1 7557   0.544   2.307  16.597  0.2567  0.6798 -0.0255
  508MPD2    H7 7558   0.595   2.232  16.643 -0.4091  0.9289  1.1395
  509TMC3    C1 7559   0.251   2.629  15.782  0.2209 -0.8359  0.9511
  509TMC3    C2 7560   0.356   2.719  15.804 -0.0494 -0.1622  0.1664
  509TMC3    C3 7561   0.456   2.688  15.901 -0.1225 -0.9750 -0.5643
  509TMC3    C4 7562   0.216   2.529  15.870  0.5808 -0.0089  0.3384
  509TMC3    C5 7563   0.313   2.508  15.962  0.3462  0.0309 -0.7697
  509TMC3    C6 7564   0.435   2.575  15.972 -0.2543 -0.2262  0.8392
  509TMC3     C 7565   0.143   2.666  15.692 -0.4719 -0.8418 -0.3336
  509TMC3     O 7566   0.072   2.583  15.634 -0.0952  0.3471 -0.2257
  509TMC3     H 7567   0.383   2.790  15.726 -2.4969  0.8670  0.2610
  509TMC3    H1 7568   0.138   2.454  15.860  0.1945  0.5327 -0.7800
  509TMC3    H2 7569   0.504   2.538  16.047  1.5579  0.3310 -0.5692
  509TMC3    C7 7570   0.286   2.403  16.052  0.6381  0.6629  0.5560
  509TMC3    C8 7571   0.583   2.758  15.906 -0.6877  0.1719  0.0914
  509TMC3    O1 7572   0.214   2.312  16.009 -0.2859  0.0059 -0.0620
  509TMC3    O2 7573   0.678   2.696  15.946  0.5158 -0.1053  0.4462
  510MPD2     C 7574   3.395   4.458  14.507  0.2658  0.5410  0.7187
  510MPD2    C1 7575   3.365   4.329  14.531 -0.2909  0.5806 -0.3991
  510MPD2    C2 7576   3.444   4.228  14.482  0.5850  0.1473  0.1589
  510MPD2    C3 7577   3.557   4.255  14.409 -0.4213 -0.4352  0.2183
  510MPD2    C4 7578   3.585   4.386  14.382 -0.1918  0.1251 -0.2607
  510MPD2    C5 7579   3.508   4.484  14.432 -0.3259  0.6529 -0.3298
  510MPD2     H 7580   3.419   4.127  14.511  0.1820 -0.1334 -1.2019
  510MPD2    H1 7581   3.677   4.417  14.333 -0.6381  0.1859 -1.0640
  510MPD2    H2 7582   3.335   4.541  14.543  1.0247  2.1969 -1.8899
  510MPD2    H3 7583   3.527   4.588  14.409 -1.2653  1.2151  1.4820
  510MPD2     N 7584   3.646   4.146  14.380  0.2966 -0.2865  0.1365
  510MPD2    H5 7585   3.619   4.062  14.430 -1.7552 -0.0511 -0.5619
  510MPD2    N1 7586   3.252   4.300  14.614  1.0237  0.2083 -0.0413
  510MPD2    H7 7587   3.216   4.376  14.670 -1.4469 -2.5242  2.1473
  511TMC3    C1 7588   3.061   4.183  14.691  0.0131 -0.3023 -0.3545
  511TMC3    C2 7589   3.058   4.239  14.809  0.0710  0.1076 -0.0748
  511TMC3    C3 7590   2.962   4.194  14.891  0.4719 -0.0158  0.2577
  511TMC3    C4 7591   2.962   4.100  14.646 -0.2232 -0.1401 -0.2082
  511TMC3    C5 7592   2.875   4.050  14.737 -1.3219  0.0979 -0.2750
  511TMC3    C6 7593   2.874   4.095  14.869  0.2118  0.5850 -0.7035
  511TMC3     C 7594   3.176   4.185  14.601  0.0683  0.1739 -0.4687
  511TMC3     O 7595   3.183   4.092  14.524 -0.4114  0.0697 -0.3328
  511TMC3     H 7596   3.134   4.309  14.842  0.8471 -0.7685  0.0030
  511TMC3    H1 7597   2.960   4.062  14.545 -2.7081  1.0932 -0.6009
  511TMC3    H2 7598   2.807   4.065  14.949 -0.1926 -0.2615 -1.3744
  511TMC3    C7 7599   2.801   3.933  14.703 -1.0033  0.3791 -0.4145
  511TMC3    C8 7600   2.966   4.253  15.023  0.2209 -0.2450 -0.1479
  511TMC3    O1 7601   2.813   3.895  14.587  0.1261  0.7081  0.5699
  511TMC3    O2 7602   3.000   4.367  15.041  0.1449 -0.4933  0.1467
  512TMC3    C1 7603   1.905   3.597  13.440 -0.3955  0.6129  0.2866
  512TMC3    C2 7604   2.034   3.601  13.488  0.6053 -0.7318  0.8007
  512TMC3    C3 7605   2.133   3.543  13.418  0.4393  0.2865 -0.1686
  512TMC3    C4 7606   1.884   3.531  13.322  0.1876 -0.3520 -0.3115
  512TMC3    C5 7607   1.983   3.472  13.254 -0.0525 -0.2840 -0.5927
  512TMC3    C6 7608   2.109   3.479  13.300 -0.5055  0.9402 -0.6187
  512TMC3     C 7609   1.790   3.665  13.503  0.5955 -0.0921 -0.2994
  512TMC3     O 7610   1.683   3.601  13.501  0.5435  0.4607  0.7253
  512TMC3     H 7611   2.057   3.648  13.583 -2.2183  0.8717  0.6893
  512TMC3    H1 7612   1.781   3.522  13.291 -0.1316  0.2081  0.5926
  512TMC3    H2 7613   2.187   3.459  13.228 -0.6160 -0.1167 -0.4366
  512TMC3    C7 7614   1.965   3.443  13.109 -0.5894 -0.4266  0.3176
  512TMC3    C8 7615   2.267   3.514  13.473 -0.3411  0.2269 -0.5517
  512TMC3    O1 7616   1.880   3.516  13.064  0.3403 -0.5585 -0.4311
  512TMC3    O2 7617   2.322   3.415  13.422 -0.2566  0.0402 -0.4299
  513MPD2     C 7618   3.603   2.940  13.179 -0.1923  0.1108 -0.1172
  513MPD2    C1 7619   3.727   2.897  13.153  0.1557 -0.3855 -0.6903
  513MPD2    C2 7620   3.835   2.938  13.236 -0.4845  0.2922 -0.3414
  513MPD2    C3 7621   3.811   3.034  13.332  0.0512  0.2043 -0.1089
  513MPD2    C4 7622   3.685   3.085  13.351  0.4748  0.0791 -0.7961
  513MPD2    C5 7623   3.583   3.034  13.274 -0.2849  0.3726  0.1836
  513MPD2     H 7624   3.933   2.894  13.222 -1.2254 -1.0554 -1.2767
  513MPD2    H1 7625   3.678   3.172  13.416  0.9026 -0.2759 -0.2703
  513MPD2    H2 7626   3.515   2.906  13.126 -1.9894  0.5589  2.5853
  513MPD2    H3 7627   3.480   3.057  13.298 -0.7496  0.0717 -1.5587
  513MPD2     N 7628   3.928   3.093  13.380  0.4147 -0.2360  0.8515
  513MPD2    H5 7629   4.015   3.057  13.341  1.6206  2.0751  1.4544
  513MPD2    N1 7630   3.729   2.814  13.039 -0.6983  0.3986  0.0016
  513MPD2    H7 7631   3.637   2.781  13.013 -0.0198 -1.2730 -0.3126
  514TMC3    C1 7632   3.969   2.848  12.979  0.3464  0.1179 -0.4520
  514TMC3    C2 7633   3.961   2.985  12.951 -0.2271 -0.6787  0.0295
  514TMC3    C3 7634   4.055   3.039  12.874  0.0456  0.2668  0.2512
  514TMC3    C4 7635   4.079   2.776  12.936  0.4513 -0.6207 -0.1427
  514TMC3    C5 7636   4.178   2.838  12.864  0.5610  0.4810  0.3738
  514TMC3    C6 7637   4.169   2.969  12.837  0.1198  0.1319  0.2768
  514TMC3     C 7638   3.848   2.770  12.975 -0.5751  0.2081  0.1753
  514TMC3     O 7639   3.859   2.675  12.894 -0.3897 -0.0681  0.1331
  514TMC3     H 7640   3.868   3.041  12.963  1.0982  1.3253  0.9506
  514TMC3    H1 7641   4.096   2.674  12.968 -0.6213 -0.8177 -0.2240
  514TMC3    H2 7642   4.248   3.019  12.782 -0.5085 -1.6258 -2.2554
  514TMC3    C7 7643   4.278   2.755  12.816  0.4318 -0.2714  0.6515
  514TMC3    C8 7644   4.056   3.181  12.853 -0.5638  1.2545 -0.3054
  514TMC3    O1 7645   4.222   2.666  12.760 -0.3774  0.0458  0.0049
  514TMC3    O2 7646   4.011   3.251  12.945  0.4134  0.1721 -0.2006
  515MPD2     C 7647   2.006   0.471  15.051  0.8105  0.0570  0.4739
  515MPD2    C1 7648   2.001   0.452  14.916  0.0635 -0.0053 -0.6705
  515MPD2    C2 7649   2.014   0.555  14.822  0.4984 -0.5879  0.4344
  515MPD2    C3 7650   2.061   0.677  14.871 -0.9095  0.0563 -0.2231
  515MPD2    C4 7651   2.067   0.697  15.004  0.0222 -0.1988  0.1118
  515MPD2    C5 7652   2.033   0.594  15.086  0.0997 -0.3503  0.4794
  515MPD2     H 7653   2.014   0.533  14.715 -0.2788 -0.5253  0.4265
  515MPD2    H1 7654   2.092   0.793  15.047 -1.5666 -0.6146  1.9640
  515MPD2    H2 7655   1.963   0.403  15.124  0.8230 -1.5752 -1.0281
  515MPD2    H3 7656   2.033   0.616  15.193 -0.4867 -0.6843  0.5528
  515MPD2     N 7657   2.113   0.779  14.783  0.0880 -0.6450 -0.4988
  515MPD2    H5 7658   2.129   0.869  14.827 -1.3396 -0.8225  0.3920
  515MPD2    N1 7659   1.965   0.326  14.863 -0.4988 -0.1486  0.6159
  515MPD2    H7 7660   1.959   0.317  14.762  2.4600 -1.3175  0.5582
  516TMC3    C1 7661   1.910   0.099  14.861  0.8993 -0.7059 -0.4604
  516TMC3    C2 7662   1.842   0.107  14.748  0.1374 -0.2071  0.2180
  516TMC3    C3 7663   1.794   4.719  14.682 -0.0538 -0.2069 -0.1524
  516TMC3    C4 7664   1.925   4.707  14.929  0.7382  0.2012  0.0729
  516TMC3    C5 7665   1.862   4.598  14.875  0.1336  1.3074 -0.4159
  516TMC3    C6 7666   1.800   4.595  14.747 -0.1693 -0.6023 -0.6527
  516TMC3     C 7667   1.939   0.213  14.935 -0.0541 -0.3353 -0.2228
  516TMC3     O 7668   1.950   0.188  15.056  0.6375 -0.4691 -0.2647
  516TMC3     H 7669   1.822   0.206  14.710  0.5264  0.0228  0.6170
  516TMC3    H1 7670   1.987   4.688  15.016 -0.5301 -1.5293  0.5889
  516TMC3    H2 7671   1.756   4.505  14.707 -0.8390  0.1395 -1.5801
  516TMC3    C7 7672   1.852   4.479  14.961 -0.3517  0.2961 -0.4216
  516TMC3    C8 7673   1.720   0.012  14.552  0.0307  0.3729 -0.4023
  516TMC3    O1 7674   1.920   4.478  15.063 -0.0793  0.3337  0.2557
  516TMC3    O2 7675   1.635   4.655  14.524  0.1185  0.1291  0.8284
  517MPD2     C 7676   1.266   1.795   0.301 -0.3082  0.7454 -0.1324
  517MPD2    C1 7677   1.399   1.767   0.328 -0.2600  0.2371 -0.4357
  517MPD2    C2 7678   1.469   1.851   0.416 -0.7753 -1.4117 -0.2137
  517MPD2    C3 7679   1.408   1.929   0.502 -0.1082 -0.7975  0.5243
  517MPD2    C4 7680   1.270   1.946   0.493  0.4380  0.1535 -0.5073
  517MPD2    C5 7681   1.204   1.888   0.387 -1.3370 -0.7917 -0.5616
  517MPD2     H 7682   1.573   1.820   0.426 -0.3949  0.4953  1.9532
  517MPD2    H1 7683   1.212   2.022   0.545 -0.5695 -1.8789  1.3316
  517MPD2    H2 7684   1.203   1.741   0.231 -1.4631  1.0417  0.6842
  517MPD2    H3 7685   1.098   1.909   0.379 -1.0338  1.7145  1.7195
  517MPD2     N 7686   1.467   2.006   0.601 -0.8258  0.2338  0.1828
  517MPD2    H5 7687   1.412   2.054   0.671 -0.1109  0.4480  0.6032
  517MPD2    N1 7688   1.471   1.660   0.270 -0.0626 -0.4830 -0.5567
  517MPD2    H7 7689   1.569   1.641   0.286 -0.3404 -0.4574  1.2280
  518TMC3    C1 7690   1.519   1.470   0.148  1.1066 -0.3990 -0.5459
  518TMC3    C2 7691   1.486   1.333   0.125  0.4197 -0.0351 -1.2377
  518TMC3    C3 7692   1.581   1.253   0.067 -0.5391 -0.1419 -0.2387
  518TMC3    C4 7693   1.642   1.519   0.103  0.1914 -0.2339 -0.0248
  518TMC3    C5 7694   1.732   1.425   0.053  0.3972 -1.1799 -0.0964
  518TMC3    C6 7695   1.705   1.293   0.036  0.6667 -0.6169 -0.1094
  518TMC3     C 7696   1.420   1.555   0.195 -0.3693  0.4663 -0.3395
  518TMC3     O 7697   1.302   1.532   0.171 -0.2405 -0.7750  0.5531
  518TMC3     H 7698   1.388   1.296   0.156  0.6911  1.3021  1.2399
  518TMC3    H1 7699   1.668   1.624   0.092  1.4305 -0.7054 -1.6472
  518TMC3    H2 7700   1.757   1.231  17.660  1.6799 -0.6862  0.6899
  518TMC3    C7 7701   1.864   1.472   0.016  0.6387  0.4992 -0.1147
  518TMC3    C8 7702   1.542   1.109   0.036  0.7374 -0.0669 -0.0087
  518TMC3    O1 7703   1.859   1.593  17.675  0.1639  0.7240  0.1143
  518TMC3    O2 7704   1.635   1.042  17.695  0.1789  0.0732  0.1971
  519MPD2     C 7705   3.127   0.543  14.415 -0.1658  0.3690 -0.4808
  519MPD2    C1 7706   3.139   0.531  14.278 -0.5130 -0.3195 -0.5415
  519MPD2    C2 7707   3.228   0.447  14.220 -0.3594  0.0436 -0.5020
  519MPD2    C3 7708   3.307   0.363  14.296  0.1189  0.4560  0.2783
  519MPD2    C4 7709   3.310   0.384  14.433  0.5711 -0.0171  0.4132
  519MPD2    C5 7710   3.215   0.466  14.490  0.2992  0.7733  0.6531
  519MPD2     H 7711   3.240   0.437  14.113  0.6348  0.1802 -0.4084
  519MPD2    H1 7712   3.372   0.323  14.498 -0.3163 -1.7528 -0.3887
  519MPD2    H2 7713   3.048   0.608  14.449 -0.1132  0.1937 -0.0248
  519MPD2    H3 7714   3.203   0.464  14.598  0.5825  0.2808  0.6749
  519MPD2     N 7715   3.389   0.274  14.227  0.3209 -0.4805 -0.2643
  519MPD2    H5 7716   3.358   0.256  14.131 -1.9651  0.2012  0.3404
  519MPD2    N1 7717   3.055   0.603  14.191  0.2202  0.3788 -0.0945
  519MPD2    H7 7718   2.988   0.667  14.234  1.0658  1.3451 -0.2140
  520TMC3    C1 7719   3.543   0.100  14.181  0.5049  0.3355  0.0675
  520TMC3    C2 7720   3.461   0.041  14.088  0.8857  0.2876  0.3421
  520TMC3    C3 7721   3.516   4.678  13.994 -0.3374 -0.0253 -0.4770
  520TMC3    C4 7722   3.674   0.059  14.192  0.0135  0.3789 -0.3271
  520TMC3    C5 7723   3.720   4.689  14.104  0.4439  0.4737 -0.3124
  520TMC3    C6 7724   3.647   4.638  14.001  0.7196 -0.3547  0.1527
  520TMC3     C 7725   3.486   0.192  14.278 -0.5567  0.8148 -0.5340
  520TMC3     O 7726   3.551   0.221  14.378 -0.0309 -0.0634  0.5510
  520TMC3     H 7727   3.364   0.076  14.058  1.0366  0.4276  0.0190
  520TMC3    H1 7728   3.738   0.101  14.269  1.7044 -0.7076 -1.1514
  520TMC3    H2 7729   3.681   4.558  13.936 -2.5235  0.9730 -3.1467
  520TMC3    C7 7730   3.831   4.601  14.149 -0.4421 -0.5744 -0.6958
  520TMC3    C8 7731   3.450   4.640  13.869 -0.7581 -0.0319 -0.3869
  520TMC3    O1 7732   3.864   4.608  14.266 -0.0210  0.4812 -0.4455
  520TMC3    O2 7733   3.508   4.602  13.770 -0.8678 -0.5923 -0.6275
  521MPD2     C 7734   3.959   3.310  17.610 -0.0936 -0.3265 -0.0249
  521MPD2    C1 7735   3.989   3.212  17.518 -0.1521 -0.8538  0.0592
  521MPD2    C2 7736   4.118   3.202  17.468 -0.2958  0.3487  0.0851
  521MPD2    C3 7737   4.216   3.288  17.520 -0.6051  0.0770 -0.3008
  521MPD2    C4 7738   4.184   3.385  17.613  0.5815  0.3171 -0.5657
  521MPD2    C5 7739   4.057   3.397  17.661  0.1839 -0.3020  0.2624
  521MPD2     H 7740   4.139   3.119  17.402  1.1570  0.6645  0.1588
  521MPD2    H1 7741   4.258   3.452  17.655  0.6273  0.3686 -0.7298
  521MPD2    H2 7742   3.857   3.331  17.639  0.6834  3.9900 -0.4581
  521MPD2    H3 7743   4.024   3.463   0.045 -0.5013  2.7380 -2.5403
  521MPD2     N 7744   4.354   3.281  17.481  0.4905 -0.1157 -0.2931
  521MPD2    H5 7745   4.406   3.362  17.514 -0.0019 -0.3846  1.1362
  521MPD2    N1 7746   3.885   3.125  17.477  0.2779  0.1367 -0.7231
  521MPD2    H7 7747   3.790   3.133  17.512 -0.4028 -2.7282 -1.9078
  522TMC3    C1 7748   4.529   3.233  17.325  0.8867 -0.0012 -0.3807
  522TMC3    C2 7749   4.628   3.175  17.404 -0.1489  0.6261 -0.3059
  522TMC3    C3 7750   0.005   3.107  17.340 -0.3622 -0.2866 -0.5618
  522TMC3    C4 7751   4.530   3.225  17.191 -0.1339  0.3398 -0.6173
  522TMC3    C5 7752   4.634   3.160  17.132  0.1399 -1.1516 -0.3793
  522TMC3    C6 7753   0.019   3.110  17.203 -0.5600  0.1864 -0.3418
  522TMC3     C 7754   4.400   3.203  17.377 -0.6238  0.6903 -0.4301
  522TMC3     O 7755   4.345   3.118  17.311  0.2668  0.3460 -0.1475
  522TMC3     H 7756   4.610   3.167  17.510  1.5767  0.4623 -0.0300
  522TMC3    H1 7757   4.439   3.261  17.145 -0.8476  2.0482  2.1595
  522TMC3    H2 7758   0.109   3.074  17.155 -0.8297 -0.3962 -0.4020
  522TMC3    C7 7759   4.637   3.154  16.987  0.4413 -0.2389  0.3448
  522TMC3    C8 7760   0.105   3.038  17.429  0.1964  0.0066  0.0462
  522TMC3    O1 7761   0.027   3.154  16.941  0.1863  0.0349  0.0325
  522TMC3    O2 7762   0.084   3.045  17.550 -0.4414  0.2355 -0.8561
  523MPD2     C 7763   2.418   3.392  10.292 -0.3648 -0.1581 -0.0859
  523MPD2    C1 7764   2.320   3.351  10.199  0.5935  1.1900 -0.2174
  523MPD2    C2 7765   2.236   3.450  10.143  0.3180  0.1577 -0.1329
  523MPD2    C3 7766   2.245   3.586  10.177 -0.0680  0.1699  0.8863
  523MPD2    C4 7767   2.346   3.618  10.264 -0.4171 -0.1595 -0.3441
  523MPD2    C5 7768   2.427   3.522  10.326 -0.1279  0.0049 -0.1967
  523MPD2     H 7769   2.160   3.417  10.073  0.8818 -3.1690  0.8607
  523MPD2    H1 7770   2.355   3.719  10.304 -1.4134 -0.9792  1.9750
  523MPD2    H2 7771   2.475   3.317  10.345 -0.1900  0.1812  0.2045
  523MPD2    H3 7772   2.507   3.556  10.391  0.4579  1.3291 -1.6020
  523MPD2     N 7773   2.152   3.686  10.127 -0.0789  0.5528  0.4858
  523MPD2    H5 7774   2.167   3.780  10.162  0.2537  0.3362  0.9132
  523MPD2    N1 7775   2.305   3.210  10.178  0.5133 -0.5597 -0.6355
  523MPD2    H7 7776   2.362   3.145  10.231  1.5864 -0.1967 -1.3519
  524TMC3    C1 7777   2.018   3.792   9.969 -0.9633  0.4817  0.5508
  524TMC3    C2 7778   1.918   3.775   9.874 -0.1252 -0.4463  0.0722
  524TMC3    C3 7779   1.870   3.892   9.821 -0.7535  0.0155 -0.8029
  524TMC3    C4 7780   2.070   3.923  10.000 -0.3408  0.0577  0.7320
  524TMC3    C5 7781   2.011   4.034   9.946 -0.3010  0.3332 -1.0486
  524TMC3    C6 7782   1.909   4.016   9.853 -0.5410  0.2705  0.3083
  524TMC3     C 7783   2.057   3.658  10.026 -0.2479  0.7273  0.1103
  524TMC3     O 7784   2.018   3.556   9.972  0.0770 -0.0371 -0.4865
  524TMC3     H 7785   1.863   3.682   9.867 -0.1060 -0.5262  0.9720
  524TMC3    H1 7786   2.159   3.944  10.058  0.6098 -1.6569 -0.0949
  524TMC3    H2 7787   1.874   4.097   9.791  0.2326  1.4020  1.3692
  524TMC3    C7 7788   2.050   4.166   9.993 -0.1367  0.5352  0.0204
  524TMC3    C8 7789   1.766   3.888   9.724  0.5524  1.0575  0.1064
  524TMC3    O1 7790   2.162   4.171  10.049  0.0887 -0.2492 -0.4414
  524TMC3    O2 7791   1.689   3.983   9.706 -0.1659 -0.4773 -0.3478
  525MPD2     C 7792   4.610   4.393  14.731 -0.6798  0.3725  0.2436
  525MPD2    C1 7793   0.013   4.366  14.784 -0.0534  0.2739 -0.2832
  525MPD2    C2 7794   0.126   4.417  14.720 -0.7596  0.0639 -0.0248
  525MPD2    C3 7795   0.107   4.505  14.616 -0.1744  0.6616 -0.0324
  525MPD2    C4 7796   4.702   4.536  14.574 -0.5765 -0.5590 -0.7763
  525MPD2    C5 7797   4.589   4.487  14.628  0.1752 -0.5308 -0.3793
  525MPD2     H 7798   0.227   4.405  14.759  0.1753  2.3233 -1.7816
  525MPD2    H1 7799   4.687   4.590  14.482 -0.9349  0.7197  0.0383
  525MPD2    H2 7800   4.519   4.358  14.778 -1.5241 -1.0078 -2.4016
  525MPD2    H3 7801   4.493   4.518  14.589 -0.1363  0.3277  1.0902
  525MPD2     N 7802   0.216   4.580  14.556 -0.0834 -0.2632  0.4729
  525MPD2    H5 7803   0.181   4.632  14.476 -0.0636 -0.9809 -0.0106
  525MPD2    N1 7804   0.042   4.286  14.892  0.5378  0.2922 -0.4238
  525MPD2    H7 7805   0.134   4.244  14.902  0.0296 -1.2104 -2.0790
  526TMC3    C1 7806   4.722   4.174  15.077  0.3280  0.2920 -0.3679
  526TMC3    C2 7807   4.657   4.167  15.199 -0.2348  0.1400  0.1697
  526TMC3    C3 7808   4.699   4.069  15.288 -0.3655  0.1315  0.0961
  526TMC3    C4 7809   0.105   4.096  15.044 -0.0738  0.0131  0.2064
  526TMC3    C5 7810   0.157   4.010  15.148  0.5542 -0.1384 -0.4157
  526TMC3    C6 7811   0.096   4.005  15.270  0.1435 -0.3456 -0.0492
  526TMC3     C 7812   4.668   4.263  14.979  0.0886  0.8829 -0.0506
  526TMC3     O 7813   4.581   4.336  15.010  0.3146  0.3809 -0.5640
  526TMC3     H 7814   4.572   4.231  15.218  0.4686  1.0006  0.3966
  526TMC3    H1 7815   0.155   4.102  14.948  0.2542 -2.1747  0.2462
  526TMC3    H2 7816   0.122   3.925  15.339 -1.8764 -0.0534  1.0468
  526TMC3    C7 7817   0.291   3.954  15.134 -0.9087  0.0844 -0.9774
  526TMC3    C8 7818   4.653   4.104  15.427  0.0906 -0.2628  0.2934
  526TMC3    O1 7819   0.331   3.888  15.225 -0.1887  0.0895 -0.1402
  526TMC3    O2 7820   0.010   4.112  15.521  0.5725 -0.2693  0.5200
  527MPD2     C 7821   2.759   1.686   1.096 -0.1884 -0.0910 -0.1747
  527MPD2    C1 7822   2.845   1.642   1.190  0.0678 -0.1483  0.2725
  527MPD2    C2 7823   2.966   1.705   1.209 -0.0860 -0.0953 -0.1219
  527MPD2    C3 7824   3.013   1.777   1.104 -0.0632 -0.6263 -0.3042
  527MPD2    C4 7825   2.927   1.826   1.010 -0.3570  0.3235  0.5145
  527MPD2    C5 7826   2.800   1.791   1.018  0.0739  0.3234  0.0412
  527MPD2     H 7827   3.036   1.689   1.290 -0.4696  1.6684  0.5511
  527MPD2    H1 7828   2.953   1.911   0.948 -1.5526  0.6460  0.4479
  527MPD2    H2 7829   2.654   1.664   1.079 -0.3765  0.9260 -0.3503
  527MPD2    H3 7830   2.729   1.830   0.945  0.8415 -1.9933 -1.9532
  527MPD2     N 7831   3.145   1.828   1.117 -0.6840  0.2394 -0.9399
  527MPD2    H5 7832   3.200   1.798   1.197 -1.8841 -1.8234 -0.8906
  527MPD2    N1 7833   2.805   1.551   1.294 -0.0267  0.0442 -0.0059
  527MPD2    H7 7834   2.877   1.517   1.357  1.1764  0.9633 -0.8897
  528TMC3    C1 7835   2.667   1.415   1.443  0.1067 -0.0509 -0.1041
  528TMC3    C2 7836   2.750   1.437   1.555  0.4662 -0.4502 -0.5492
  528TMC3    C3 7837   2.703   1.383   1.672  0.0415  0.3564 -0.3412
  528TMC3    C4 7838   2.552   1.342   1.449 -0.6560 -0.7669 -0.0018
  528TMC3    C5 7839   2.517   1.288   1.565  0.9803  0.2200 -0.1909
  528TMC3    C6 7840   2.592   1.309   1.681 -0.0420 -0.3025 -0.0413
  528TMC3     C 7841   2.685   1.494   1.316 -0.6670 -0.4635  0.1353
  528TMC3     O 7842   2.596   1.479   1.232 -0.2364  0.2209  0.4730
  528TMC3     H 7843   2.836   1.502   1.539 -0.2427  0.7815  0.6440
  528TMC3    H1 7844   2.499   1.323   1.356 -0.3621  1.1562 -0.5736
  528TMC3    H2 7845   2.564   1.249   1.767 -0.8353  0.6203  0.3387
  528TMC3    C7 7846   2.417   1.178   1.567  1.2707 -1.1085 -0.1237
  528TMC3    C8 7847   2.778   1.428   1.784 -0.4891 -0.3382  0.2939
  528TMC3    O1 7848   2.407   1.105   1.664  0.3762  0.3816 -0.2366
  528TMC3    O2 7849   2.883   1.485   1.761  0.0600  0.1359  0.0449
  529MPD2     C 7850   0.736   0.837   0.839 -0.6771  0.2653  0.5610
  529MPD2    C1 7851   0.762   0.710   0.792 -0.1915  0.6346 -0.5472
  529MPD2    C2 7852   0.775   0.689   0.651 -0.0072 -0.3196 -0.3216
  529MPD2    C3 7853   0.737   0.785   0.558 -0.5391 -0.0054 -0.1281
  529MPD2    C4 7854   0.698   0.906   0.610  0.2614  0.8894 -0.3161
  529MPD2    C5 7855   0.708   0.934   0.745 -0.4664 -0.1631 -0.2710
  529MPD2     H 7856   0.811   0.591   0.621 -0.8707 -0.5138 -0.7091
  529MPD2    H1 7857   0.665   0.989   0.548 -0.8492  0.2277 -0.6046
  529MPD2    H2 7858   0.731   0.862   0.944  2.0761  2.7511  0.0951
  529MPD2    H3 7859   0.673   1.033   0.773 -1.5121  0.2714 -3.0497
  529MPD2     N 7860   0.730   0.775   0.419  0.1016  0.8364  0.0100
  529MPD2    H5 7861   0.705   0.854   0.361 -2.0774 -0.0627 -0.2676
  529MPD2    N1 7862   0.784   0.601   0.881  0.3696 -0.0972  0.3880
  529MPD2    H7 7863   0.802   0.509   0.841  3.8549  0.4108  0.7454
  530TMC3    C1 7864   0.757   0.476   1.071  0.5849  0.0380 -0.0206
  530TMC3    C2 7865   0.784   0.457   1.202  0.0278  0.2099 -0.3212
  530TMC3    C3 7866   0.778   0.326   1.258 -0.5886  1.2593 -0.0383
  530TMC3    C4 7867   0.720   0.373   0.987 -0.5454 -0.3312 -0.2020
  530TMC3    C5 7868   0.701   0.251   1.049 -0.1104  0.1023 -0.0110
  530TMC3    C6 7869   0.743   0.220   1.178 -0.3052 -0.1228 -0.5242
  530TMC3     C 7870   0.786   0.605   1.014  0.1652  0.3937  0.3771
  530TMC3     O 7871   0.789   0.697   1.095  0.3374 -0.0834  0.1689
  530TMC3     H 7872   0.800   0.539   1.271  0.2401  1.0821 -1.3999
  530TMC3    H1 7873   0.684   0.386   0.885 -0.6435  2.8009  0.2546
  530TMC3    H2 7874   0.738   0.121   1.219 -3.4140 -0.0439 -0.7111
  530TMC3    C7 7875   0.640   0.142   0.977  0.1220 -0.2555 -0.0526
  530TMC3    C8 7876   0.802   0.314   1.405 -0.1635  0.3659  0.0095
  530TMC3    O1 7877   0.615   0.163   0.858 -0.0983 -0.2949  0.0782
  530TMC3    O2 7878   0.767   0.410   1.469  0.3841 -0.4743 -0.1496
  531MPD2     C 7879   4.628   2.998  13.103  0.6286  0.3392 -0.4443
  531MPD2    C1 7880   4.497   2.979  13.129  0.6983 -0.2863  0.0406
  531MPD2    C2 7881   4.418   2.915  13.034 -0.0493  0.9927  0.3780
  531MPD2    C3 7882   4.479   2.862  12.917 -0.0440 -0.0840  0.3315
  531MPD2    C4 7883   4.617   2.879  12.898  0.3107 -0.0037 -0.1674
  531MPD2    C5 7884   4.689   2.939  12.994  0.7789  0.2365  0.3913
  531MPD2     H 7885   4.315   2.890  13.056  0.6994 -1.2134  1.3469
  531MPD2    H1 7886   4.667   2.837  12.811 -1.3625 -1.0689 -0.6221
  531MPD2    H2 7887   4.684   3.045  13.182 -0.3035  1.5398 -0.4937
  531MPD2    H3 7888   0.074   2.942  12.991  0.8412 -3.8612 -0.8028
  531MPD2     N 7889   4.410   2.795  12.809 -0.2631  0.1986 -0.2719
  531MPD2    H5 7890   4.471   2.751  12.741  0.3266  0.3180  0.1753
  531MPD2    N1 7891   4.441   3.056  13.232 -0.4120 -0.6031  0.5463
  531MPD2    H7 7892   4.501   3.105  13.298 -1.5819  1.7691 -0.1517
  532TMC3    C1 7893   4.265   3.146  13.367 -1.4759  0.0627 -0.3281
  532TMC3    C2 7894   4.143   3.200  13.357  0.0388 -0.4965  0.5837
  532TMC3    C3 7895   4.076   3.247  13.465  0.5100  0.0797  0.2402
  532TMC3    C4 7896   4.336   3.136  13.480 -0.1883 -0.2070  0.0536
  532TMC3    C5 7897   4.267   3.197  13.589 -0.1478 -0.8036 -0.6386
  532TMC3    C6 7898   4.140   3.249  13.587  0.0561 -0.1353  0.9468
  532TMC3     C 7899   4.302   3.063  13.251 -0.0267 -0.1892  0.4455
  532TMC3     O 7900   4.215   3.033  13.179  0.5306 -0.2170 -0.1014
  532TMC3     H 7901   4.107   3.203  13.255  0.4894  0.2868  0.4510
  532TMC3    H1 7902   4.434   3.091  13.486 -1.2138 -2.2700  1.2430
  532TMC3    H2 7903   4.091   3.294  13.672  0.5014  0.2823  0.9848
  532TMC3    C7 7904   4.330   3.235  13.712 -0.0478  0.0382 -0.2110
  532TMC3    C8 7905   3.939   3.201  13.463  0.3329 -1.6563 -0.3529
  532TMC3    O1 7906   4.328   3.356  13.734 -0.8105 -0.2835  0.5771
  532TMC3    O2 7907   3.865   3.236  13.552 -0.2366 -0.3395 -0.0511
  533TMC3    C1 7908   0.418   4.696  14.533  0.6859 -0.2230 -0.2856
  533TMC3    C2 7909   0.544   0.003  14.572 -0.3111 -0.5805  0.4628
  533TMC3    C3 7910   0.586   0.131  14.557  0.1051  0.3289  0.2452
  533TMC3    C4 7911   0.334   0.071  14.478  0.2457  0.2627 -0.2398
  533TMC3    C5 7912   0.376   0.202  14.479  0.2373 -0.8795 -0.5031
  533TMC3    C6 7913   0.502   0.230  14.517  0.3052  0.6328  0.1506
  533TMC3     C 7914   0.350   4.580  14.595 -0.4543 -0.2231  0.2144
  533TMC3     O 7915   0.412   4.517  14.682  0.0969 -0.7775 -0.3804
  533TMC3     H 7916   0.616   4.649  14.593  1.6073  1.3277  0.8471
  533TMC3    H1 7917   0.238   0.054  14.430  0.1912  1.6159 -0.6022
  533TMC3    H2 7918   0.535   0.333  14.507  0.9508  0.2078 -2.2245
  533TMC3    C7 7919   0.268   0.285  14.539  0.1111 -0.2108 -0.0672
  533TMC3    C8 7920   0.730   0.136  14.530 -0.2172 -0.0719 -0.0818
  533TMC3    O1 7921   0.159   0.228  14.560  0.3518  0.5144 -0.2170
  533TMC3    O2 7922   0.803   0.054  14.587 -0.4311 -0.2486  0.4587
  534MPD2     C 7923   2.718   0.778   2.362 -0.1866 -0.5610  0.3358
  534MPD2    C1 7924   2.719   0.798   2.221 -0.4521  0.5172  0.0001
  534MPD2    C2 7925   2.647   0.717   2.138  0.6392 -0.5865  0.1394
  534MPD2    C3 7926   2.569   0.615   2.193 -0.3049  0.1351 -0.7605
  534MPD2    C4 7927   2.563   0.596   2.332  0.8320 -0.1581  0.0896
  534MPD2    C5 7928   2.639   0.681   2.408 -0.1168 -0.5613 -0.0006
  534MPD2     H 7929   2.656   0.724   2.031 -2.0915 -1.2886 -0.1348
  534MPD2    H1 7930   2.501   0.518   2.374  1.7480  0.1261  1.9287
  534MPD2    H2 7931   2.766   0.844   2.433 -0.3872  1.7080 -1.6511
  534MPD2    H3 7932   2.627   0.673   2.516  2.0624  1.3111  0.3844
  534MPD2     N 7933   2.506   0.536   2.097  0.2865  0.2769 -0.5709
  534MPD2    H5 7934   2.530   0.554   2.000  0.9001 -0.2415 -0.5164
  534MPD2    N1 7935   2.802   0.886   2.151  0.0355  0.3586  0.3244
  534MPD2    H7 7936   2.790   0.883   2.051  2.4293  0.2058  0.0336
  535TMC3    C1 7937   2.417   0.351   1.993 -0.0023  0.7580 -0.9386
  535TMC3    C2 7938   2.360   0.232   1.998 -0.5308 -0.1032 -0.0023
  535TMC3    C3 7939   2.328   0.172   1.876  0.3332 -0.4757  0.2239
  535TMC3    C4 7940   2.425   0.425   1.875 -0.3411  0.1737 -0.1607
  535TMC3    C5 7941   2.403   0.358   1.758  0.6127 -0.4710  0.8877
  535TMC3    C6 7942   2.353   0.232   1.755 -0.0199  0.1789  0.0371
  535TMC3     C 7943   2.446   0.415   2.120 -0.2001 -0.5190  0.4586
  535TMC3     O 7944   2.429   0.352   2.223  0.1294 -0.3132  0.6199
  535TMC3     H 7945   2.350   0.189   2.097  0.7974  0.2957  0.3077
  535TMC3    H1 7946   2.464   0.526   1.865 -1.3164  0.4173 -1.4104
  535TMC3    H2 7947   2.327   0.187   1.660 -0.3024  0.5506 -0.0608
  535TMC3    C7 7948   2.354   0.442   1.653 -0.0373 -0.4455 -0.8445
  535TMC3    C8 7949   2.185   0.140   1.870  0.5793 -0.1980  0.6829
  535TMC3    O1 7950   2.428   0.531   1.616  0.3549  0.2717 -0.2625
  535TMC3    O2 7951   2.138   0.121   1.755  0.2576 -0.0935  0.1195
  536MPD2     C 7952   1.567   4.112  16.491 -0.2693  0.1186  0.9207
  536MPD2    C1 7953   1.439   4.055  16.508  0.2898 -0.4723  0.3498
  536MPD2    C2 7954   1.342   4.095  16.410 -0.2480 -0.4319  1.1924
  536MPD2    C3 7955   1.375   4.184  16.304  0.1382 -0.1112 -0.0327
  536MPD2    C4 7956   1.504   4.228  16.283 -0.4692  0.6441 -0.3530
  536MPD2    C5 7957   1.600   4.192  16.382 -0.3243 -0.1953  0.3830
  536MPD2     H 7958   1.239   4.062  16.423  0.2658 -3.6193 -2.6700
  536MPD2    H1 7959   1.528   4.281  16.191  0.1926  2.4344  0.8431
  536MPD2    H2 7960   1.643   4.080  16.562  0.8868 -0.5759 -0.6416
  536MPD2    H3 7961   1.700   4.235  16.388  0.2664 -1.5692  0.2778
  536MPD2     N 7962   1.277   4.244  16.226 -0.2406  0.2553 -0.5591
  536MPD2    H5 7963   1.315   4.313  16.161  0.6686  1.0877  0.8495
  536MPD2    N1 7964   1.422   3.969  16.620  0.0407 -1.0563  0.0675
  536MPD2    H7 7965   1.508   3.960  16.674  0.5728 -1.5702 -0.8466
  537TMC3    C1 7966   1.313   3.821  16.771  0.2469 -0.3313  0.1348
  537TMC3    C2 7967   1.418   3.850  16.853 -0.1178  0.5260  0.3509
  537TMC3    C3 7968   1.422   3.775  16.966 -0.0253 -0.6078 -0.5290
  537TMC3    C4 7969   1.218   3.730  16.784  0.1021  0.5558 -0.8676
  537TMC3    C5 7970   1.227   3.656  16.898 -0.1194 -0.4778 -0.2908
  537TMC3    C6 7971   1.335   3.669  16.986 -0.1596 -0.7306  0.2593
  537TMC3     C 7972   1.307   3.896  16.647 -0.1541  0.0670 -0.4666
  537TMC3     O 7973   1.199   3.893  16.592 -0.4324 -0.2084  0.2592
  537TMC3     H 7974   1.483   3.937  16.849  0.0074  0.3114 -3.0180
  537TMC3    H1 7975   1.138   3.721  16.711 -2.3196 -0.0849  1.8753
  537TMC3    H2 7976   1.366   3.604  17.067  0.1230  1.2587  1.7627
  537TMC3    C7 7977   1.138   3.547  16.922  0.1446 -0.0412  0.1177
  537TMC3    C8 7978   1.527   3.818  17.063  0.2923 -0.1999  0.3957
  537TMC3    O1 7979   1.098   3.495  16.818 -0.4852  0.3997 -0.1404
  537TMC3    O2 7980   1.609   3.902  17.022 -0.5901 -0.0219  0.0514
  538TMC3    C1 7981   2.998   2.888  10.566 -0.3948  0.6959 -0.0705
  538TMC3    C2 7982   3.094   2.914  10.469 -0.1242  0.4493 -0.6902
  538TMC3    C3 7983   3.068   3.024  10.392 -0.2051 -0.2940  0.1781
  538TMC3    C4 7984   2.884   2.964  10.583 -0.0853 -0.2203  0.4211
  538TMC3    C5 7985   2.875   3.080  10.513  0.0186  0.1383 -0.1794
  538TMC3    C6 7986   2.963   3.111  10.416  0.2932  0.5615  0.1776
  538TMC3     C 7987   3.016   2.790  10.676  0.0353  0.2270 -0.4176
  538TMC3     O 7988   2.910   2.752  10.721  0.1385  0.1117  0.7011
  538TMC3     H 7989   3.179   2.850  10.451  0.3483  0.8184  0.2452
  538TMC3    H1 7990   2.820   2.948  10.669  1.6584 -1.4162  1.4833
  538TMC3    H2 7991   2.945   3.199  10.355 -1.2505  1.4361  1.8739
  538TMC3    C7 7992   2.777   3.180  10.539 -0.3370  0.0902  0.3941
  538TMC3    C8 7993   3.177   3.070  10.313 -0.1100  0.5513  0.2743
  538TMC3    O1 7994   2.723   3.235  10.443 -0.3174 -0.2646 -0.1236
  538TMC3    O2 7995   3.282   3.030  10.356 -0.1822  0.2385 -0.3087
  539MPD2     C 7996   2.370   2.026  11.578  0.0688  0.2976 -0.1766
  539MPD2    C1 7997   2.445   2.081  11.480  0.3301 -0.1236 -0.6226
  539MPD2    C2 7998   2.430   2.219  11.458  0.6296 -0.0981 -0.1878
  539MPD2    C3 7999   2.347   2.293  11.534 -0.7665  0.3613 -0.1986
  539MPD2    C4 8000   2.272   2.237  11.640 -0.9678 -0.0770 -0.4657
  539MPD2    C5 8001   2.290   2.105  11.662 -0.0465  0.5542 -0.0609
  539MPD2     H 8002   2.499   2.261  11.385  1.7450  0.8189  1.3889
  539MPD2    H1 8003   2.220   2.294  11.716 -0.1836 -0.6409  0.4994
  539MPD2    H2 8004   2.367   1.920  11.600  2.9925  0.2953  0.1302
  539MPD2    H3 8005   2.246   2.063  11.752  0.1649  1.0446  0.2666
  539MPD2     N 8006   2.326   2.431  11.518  0.4751 -0.4770  0.2581
  539MPD2    H5 8007   2.262   2.486  11.575  0.9238  0.4094 -0.0876
  539MPD2    N1 8008   2.527   2.008  11.395 -0.3066  0.1140  0.5032
  539MPD2    H7 8009   2.582   2.059  11.326 -0.1308 -0.9014 -0.1048
  540TMC3    C1 8010   2.360   2.652  11.422 -0.8560  0.4967  0.1581
  540TMC3    C2 8011   2.381   2.722  11.304 -0.1070 -0.3004  0.3396
  540TMC3    C3 8012   2.353   2.857  11.306  0.6477 -0.1637 -0.2604
  540TMC3    C4 8013   2.314   2.712  11.538  0.5519  0.2602 -0.2994
  540TMC3    C5 8014   2.295   2.848  11.534  0.9511  0.1965 -0.9482
  540TMC3    C6 8015   2.308   2.925  11.417 -0.0321 -0.7934 -0.0130
  540TMC3     C 8016   2.386   2.510  11.414 -0.3655  0.5301 -0.0365
  540TMC3     O 8017   2.455   2.470  11.324 -0.4581 -0.0960 -0.2659
  540TMC3     H 8018   2.414   2.677  11.211  1.7713  0.5120  0.6118
  540TMC3    H1 8019   2.302   2.651  11.627  0.5113  0.0161 -0.4718
  540TMC3    H2 8020   2.276   3.027  11.398  0.4221 -1.0866 -2.3256
  540TMC3    C7 8021   2.229   2.909  11.652  0.1830  0.6561 -0.5764
  540TMC3    C8 8022   2.340   2.918  11.169 -0.1184 -0.0344  0.5178
  540TMC3    O1 8023   2.213   2.830  11.745  0.4480  0.6253 -0.1129
  540TMC3    O2 8024   2.350   3.042  11.172  1.0805  1.0244  0.4653
  541MPD2     C 8025   1.343   3.324  13.395 -0.3601 -0.2113 -0.7752
  541MPD2    C1 8026   1.215   3.279  13.371  0.5022  0.4099 -0.2810
  541MPD2    C2 8027   1.151   3.322  13.260  0.2861  0.3695 -0.2132
  541MPD2    C3 8028   1.220   3.419  13.180 -0.6214  0.2130 -0.0086
  541MPD2    C4 8029   1.341   3.470  13.210 -0.5572 -0.1591 -0.2827
  541MPD2    C5 8030   1.406   3.416  13.322 -0.3144  0.1448  0.2914
  541MPD2     H 8031   1.060   3.267  13.240  0.1182  0.4969  0.1941
  541MPD2    H1 8032   1.385   3.555  13.159 -0.1145 -0.6231 -0.6857
  541MPD2    H2 8033   1.402   3.282  13.475 -0.5582 -1.0355 -1.0589
  541MPD2    H3 8034   1.508   3.446  13.342 -0.4548 -0.8399  2.3903
  541MPD2     N 8035   1.158   3.475  13.069  0.0307 -0.4289 -0.9426
  541MPD2    H5 8036   1.195   3.543  13.003 -0.9939  0.2431 -0.8183
  541MPD2    N1 8037   1.157   3.172  13.445  0.0364  0.1581  0.3394
  541MPD2    H7 8038   1.057   3.164  13.430  0.6297 -1.0828 -3.0427
  542TMC3    C1 8039   0.992   3.529  12.914  0.6761 -0.8058  0.1847
  542TMC3    C2 8040   1.087   3.557  12.818 -0.0314  0.2949  0.1185
  542TMC3    C3 8041   1.041   3.628  12.706  0.1193  0.2880 -1.1381
  542TMC3    C4 8042   0.864   3.570  12.909  0.3035  0.0281  0.1797
  542TMC3    C5 8043   0.822   3.636  12.795 -0.1052  0.1491  0.5376
  542TMC3    C6 8044   0.907   3.664  12.693  0.5053  0.3860  0.1445
  542TMC3     C 8045   1.024   3.458  13.033 -0.6534 -0.2388  0.3602
  542TMC3     O 8046   0.934   3.394  13.089  0.4553  0.4466  0.0529
  542TMC3     H 8047   1.185   3.510  12.823 -0.3698 -0.2602  1.5544
  542TMC3    H1 8048   0.797   3.556  12.994 -0.2171 -2.8070 -0.7066
  542TMC3    H2 8049   0.879   3.734  12.616 -1.9880  0.3811  1.0729
  542TMC3    C7 8050   0.685   3.656  12.772  0.3759  0.7182 -0.3099
  542TMC3    C8 8051   1.120   3.619  12.592 -0.2121  0.5154  0.1171
  542TMC3    O1 8052   0.648   3.684  12.658  0.3482 -0.6895 -0.2742
  542TMC3    O2 8053   1.058   3.610  12.491 -0.7299  0.4666  0.3789
  543TMC3    C1 8054   0.028   4.615  17.625  0.1774 -0.2544  0.5475
  543TMC3    C2 8055   4.676   4.510  17.654 -0.5358 -0.2934  0.1746
  543TMC3    C3 8056   4.649   4.494   0.089 -0.1102 -0.4724  0.5501
  543TMC3    C4 8057   0.063   4.715   0.026 -0.0506 -0.0389 -0.4955
  543TMC3    C5 8058   0.005   4.703   0.148 -0.2080  0.4079  0.2676
  543TMC3    C6 8059   4.666   4.589   0.184  0.4746  0.2318 -0.5633
  543TMC3     C 8060   0.043   4.652  17.490  0.1402  0.1811  0.2304
  543TMC3     O 8061   0.150   4.704  17.468 -0.1456 -1.2916 -0.4501
  543TMC3     H 8062   4.663   4.427  17.585  0.6844  0.2523 -0.7141
  543TMC3    H1 8063   0.116   0.080  17.690 -2.5816  1.7557  0.2637
  543TMC3    H2 8064   4.642   4.567   0.288 -0.2812  0.9010 -0.6002
  543TMC3    C7 8065   0.030   0.094   0.235  0.0014 -0.4813  0.4815
  543TMC3    C8 8066   4.620   4.354   0.126  0.5739 -0.1619  0.1944
  543TMC3    O1 8067   0.126   0.168   0.207  0.0330  0.2893  0.4085
  543TMC3    O2 8068   4.580   4.276   0.045  0.2805  1.0270 -0.2816
  544MPD2     C 8069   0.050   3.948   0.385  0.4108 -0.2028 -0.5482
  544MPD2    C1 8070   4.718   3.959   0.259 -0.1206 -0.4077  0.2587
  544MPD2    C2 8071   4.683   4.083   0.222  0.7000  0.1530 -0.5539
  544MPD2    C3 8072   4.687   4.195   0.308 -0.3546  0.9425 -0.1128
  544MPD2    C4 8073   0.016   4.184   0.434 -0.0751  0.2513 -0.0881
  544MPD2    C5 8074   0.055   4.058   0.467 -0.3287  0.1283 -0.1161
  544MPD2     H 8075   4.636   4.088   0.124 -1.4882  1.7074  0.6079
  544MPD2    H1 8076   0.039   4.272   0.493 -0.9329  0.3516  0.1028
  544MPD2    H2 8077   0.084   3.855   0.427 -0.3252 -0.2577 -0.0765
  544MPD2    H3 8078   0.106   4.043   0.561  1.3480  1.2255 -0.8460
  544MPD2     N 8079   4.658   4.323   0.259 -0.2590  0.6079 -0.6421
  544MPD2    H5 8080   4.692   4.394   0.323 -0.5589 -2.7897  3.2353
  544MPD2    N1 8081   4.702   3.855   0.169 -0.1117  0.2291  0.6085
  544MPD2    H7 8082   4.637   3.875   0.094  1.4140 -0.6905 -0.9705
  545TMC3    C1 8083   0.016   3.646   0.065  0.8823 -0.2250  0.2268
  545TMC3    C2 8084   4.653   3.675  17.665  0.1524 -0.5149 -0.3602
  545TMC3    C3 8085   4.667   3.606  17.543  0.0333  0.4523 -0.3285
  545TMC3    C4 8086   0.126   3.568   0.049 -0.1757  0.3119 -0.0673
  545TMC3    C5 8087   0.143   3.505  17.627  0.0316  0.4498  0.7258
  545TMC3    C6 8088   0.045   3.516  17.531  0.3818 -0.4147  0.3647
  545TMC3     C 8089   0.037   3.729   0.186  0.4894  0.5784  0.3808
  545TMC3     O 8090   0.088   3.686   0.288 -0.3609  0.4831  0.3031
  545TMC3     H 8091   4.564   3.732  17.690  0.2889 -0.5195  0.1225
  545TMC3    H1 8092   0.189   3.538   0.131  0.4347 -0.1944 -0.7151
  545TMC3    H2 8093   0.044   3.464  17.436  0.1765  0.6083 -0.1936
  545TMC3    C7 8094   0.256   3.420  17.595 -0.4680  0.3320  0.0205
  545TMC3    C8 8095   4.546   3.583  17.468  0.2176 -0.2696  0.0154
  545TMC3    O1 8096   0.253   3.372  17.482  0.0521  0.5132 -0.2468
  545TMC3    O2 8097   4.455   3.556  17.542  0.2660 -0.5203 -0.1667
  546MPD2     C 8098   1.477   4.329   0.008 -0.5522 -0.0680 -0.1882
  546MPD2    C1 8099   1.429   4.375  17.581  0.3039 -0.2542  0.7680
  546MPD2    C2 8100   1.462   4.499  17.540 -0.0622  0.7903 -0.1404
  546MPD2    C3 8101   1.534   4.586  17.620  0.0884  0.1190  0.1834
  546MPD2    C4 8102   1.596   4.535   0.034  0.3271 -0.1064 -0.1835
  546MPD2    C5 8103   1.572   4.401   0.077  0.2492  0.1255 -0.9991
  546MPD2     H 8104   1.415   4.535  17.449  0.8368  2.2767 -0.0099
  546MPD2    H1 8105   1.666   4.589   0.097  1.2685 -0.3366 -1.0343
  546MPD2    H2 8106   1.460   4.230   0.048 -1.5871 -0.8378 -2.5188
  546MPD2    H3 8107   1.625   4.368   0.166  0.9370  1.5277 -0.8859
  546MPD2     N 8108   1.559   4.723  17.583 -0.3759 -0.0859  0.5061
  546MPD2    H5 8109   1.629   0.046  17.639 -1.6576 -0.1281  2.1503
  546MPD2    N1 8110   1.348   4.286  17.512 -0.4066  0.0579  0.1310
  546MPD2    H7 8111   1.339   4.192  17.551 -1.2038  0.0795 -0.0056
  547TMC3    C1 8112   1.188   4.196  17.359  0.4668  0.0281  0.4742
  547TMC3    C2 8113   1.100   4.227  17.261 -0.1506 -0.1774  0.1049
  547TMC3    C3 8114   0.984   4.149  17.258 -0.1147 -0.4004  0.6376
  547TMC3    C4 8115   1.177   4.100  17.445  0.4149  0.6587  0.4336
  547TMC3    C5 8116   1.060   4.025  17.438 -0.0445  0.3817  0.3656
  547TMC3    C6 8117   0.958   4.047  17.345  0.3588  1.0950 -0.1721
  547TMC3     C 8118   1.284   4.302  17.390 -0.0414  0.1966 -0.0056
  547TMC3     O 8119   1.265   4.404  17.328  0.0918  0.3414 -0.2411
  547TMC3     H 8120   1.128   4.292  17.179 -0.6303 -0.4195 -0.2448
  547TMC3    H1 8121   1.245   4.070  17.523 -0.4313  1.4229  1.4762
  547TMC3    H2 8122   0.863   3.996  17.346  1.6452 -1.3427 -2.4060
  547TMC3    C7 8123   1.056   3.901  17.521  0.0700 -0.3453 -0.4337
  547TMC3    C8 8124   0.886   4.200  17.151 -0.0964 -0.1600 -0.0944
  547TMC3    O1 8125   1.126   3.899  17.623  0.2761 -0.3163 -0.1165
  547TMC3    O2 8126   0.914   4.303  17.099 -0.1767 -0.7452 -0.2925
  548MPD2     C 8127   1.537   0.893  12.168 -0.1394  0.3375  0.4976
  548MPD2    C1 8128   1.533   0.769  12.233  0.4377  0.4267  0.0066
  548MPD2    C2 8129   1.649   0.704  12.286 -0.0086 -0.0754  0.4982
  548MPD2    C3 8130   1.770   0.762  12.265  0.0871 -0.2133  0.5543
  548MPD2    C4 8131   1.780   0.877  12.199 -0.0273 -0.2521 -0.9543
  548MPD2    C5 8132   1.669   0.936  12.146  0.2384  0.1464 -0.4136
  548MPD2     H 8133   1.652   0.610  12.340  1.4235 -0.5011 -0.3347
  548MPD2    H1 8134   1.869   0.936  12.183  0.0470  0.0815  0.6821
  548MPD2    H2 8135   1.451   0.949  12.135 -0.0238 -2.0048 -3.8582
  548MPD2    H3 8136   1.683   1.032  12.098  0.6303  0.6736  0.7502
  548MPD2     N 8137   1.885   0.705  12.325  0.6761 -0.2954  0.2585
  548MPD2    H5 8138   1.886   0.606  12.348 -0.1871 -0.2273  0.6304
  548MPD2    N1 8139   1.397   0.719  12.249 -0.1938 -0.3625 -0.4451
  548MPD2    H7 8140   1.325   0.776  12.206 -1.7890 -0.4636  2.0735
  549TMC3    C1 8141   1.221   0.618  12.358 -0.5690  0.5853  0.4301
  549TMC3    C2 8142   1.156   0.733  12.338  0.2924  0.8104 -0.4138
  549TMC3    C3 8143   1.037   0.746  12.395  0.2323 -0.1419 -0.5294
  549TMC3    C4 8144   1.178   0.522  12.449 -0.1841 -0.2718  0.2272
  549TMC3    C5 8145   1.066   0.545  12.519  0.2125  0.0813  0.1259
  549TMC3    C6 8146   0.997   0.658  12.489 -0.9129  0.6030 -0.6773
  549TMC3     C 8147   1.358   0.616  12.328  0.3686  0.2695 -0.9099
  549TMC3     O 8148   1.435   0.537  12.384 -0.1926  0.0999  0.1513
  549TMC3     H 8149   1.188   0.801  12.260 -3.3501 -0.1959 -2.8284
  549TMC3    H1 8150   1.231   0.428  12.464  0.3627  0.3815  2.4366
  549TMC3    H2 8151   0.897   0.679  12.526 -1.6562 -0.6650 -1.9527
  549TMC3    C7 8152   0.992   0.455  12.609  0.2395  0.3668  0.0734
  549TMC3    C8 8153   0.928   0.842  12.354  0.2855 -0.7571 -0.5887
  549TMC3    O1 8154   0.898   0.502  12.675  0.3237 -0.1041 -0.0057
  549TMC3    O2 8155   0.812   0.808  12.372 -0.1907 -0.0867 -0.6603
  550TMC3    C1 8156   0.222   3.153  12.563 -0.0545  0.2550 -0.4003
  550TMC3    C2 8157   0.187   3.198  12.685 -0.4376 -0.5539 -0.5226
  550TMC3    C3 8158   0.072   3.268  12.691  0.0227  0.6415 -0.0905
  550TMC3    C4 8159   0.145   3.180  12.452 -0.0729 -0.8752 -0.1914
  550TMC3    C5 8160   0.040   3.262  12.467 -1.5000  0.4713  0.2824
  550TMC3    C6 8161   0.005   3.316  12.584 -0.0624  0.6131 -0.6781
  550TMC3     C 8162   0.336   3.064  12.544 -0.5832  0.3022  0.2962
  550TMC3     O 8163   0.410   3.046  12.635  0.8172 -0.2404 -0.2243
  550TMC3     H 8164   0.246   3.168  12.771  0.5156 -1.3929 -1.4635
  550TMC3    H1 8165   0.178   3.162  12.350  1.8856  0.8478  0.1479
  550TMC3    H2 8166   4.644   3.383  12.596 -1.0076 -0.7246  0.1583
  550TMC3    C7 8167   4.681   3.315  12.359  0.0093 -0.7598 -0.4648
  550TMC3    C8 8168   0.013   3.299  12.820 -0.1947  0.1087  0.4831
  550TMC3    O1 8169   4.572   3.363  12.388 -0.4692 -0.0432  0.1411
  550TMC3    O2 8170   0.090   3.299  12.914 -0.0319 -0.2084  0.3594
  551TMC3    C1 8171   2.425   1.390  13.234  0.3052  0.5933  0.5648
  551TMC3    C2 8172   2.499   1.443  13.130  0.6307 -0.4364 -0.1197
  551TMC3    C3 8173   2.612   1.502  13.143 -0.2491 -0.3993  0.0545
  551TMC3    C4 8174   2.486   1.378  13.356 -0.4184  0.3095  1.1577
  551TMC3    C5 8175   2.615   1.434  13.367 -0.0268 -0.6405  0.4742
  551TMC3    C6 8176   2.677   1.496  13.264 -0.3446  0.4427 -0.1754
  551TMC3     C 8177   2.325   1.291  13.204  0.3827 -0.4247  0.4201
  551TMC3     O 8178   2.301   1.287  13.083  0.4112  0.1758 -0.3399
  551TMC3     H 8179   2.466   1.440  13.027  1.8088 -0.7066 -0.4933
  551TMC3    H1 8180   2.441   1.334  13.445 -0.7730 -0.6258  0.5124
  551TMC3    H2 8181   2.777   1.537  13.269 -0.5898  0.9491  0.5975
  551TMC3    C7 8182   2.657   1.469  13.505  0.3919 -0.0164 -0.3892
  551TMC3    C8 8183   2.701   1.505  13.030 -0.3528 -0.0069 -0.8176
  551TMC3    O1 8184   2.605   1.396  13.588  0.7024  0.6588  0.3838
  551TMC3    O2 8185   2.818   1.470  13.050 -0.0131  0.0739 -0.2761
  552MPD2     C 8186   3.889   2.908  14.273  0.7415 -0.6377 -0.0552
  552MPD2    C1 8187   4.016   2.892  14.215  0.1205  0.0865 -0.4845
  552MPD2    C2 8188   4.122   2.893  14.299 -0.4969 -0.4043  0.3226
  552MPD2    C3 8189   4.112   2.919  14.436 -0.4276  0.3275 -0.7927
  552MPD2    C4 8190   3.986   2.930  14.494 -0.5323  0.3197 -0.6897
  552MPD2    C5 8191   3.877   2.923  14.410 -0.1986 -0.1979  0.3744
  552MPD2     H 8192   4.218   2.869  14.254 -0.7524 -2.2288  0.7524
  552MPD2    H1 8193   3.964   2.952  14.598  0.1154 -1.0179 -0.2774
  552MPD2    H2 8194   3.800   2.918  14.212  0.3007  1.6135  0.9697
  552MPD2    H3 8195   3.783   2.949  14.457  0.0490  1.2807  0.0608
  552MPD2     N 8196   4.224   2.930  14.520 -0.5429 -0.7454  0.2043
  552MPD2    H5 8197   4.193   2.957  14.613 -0.7932 -2.6748  0.6766
  552MPD2    N1 8198   4.036   2.858  14.079  0.5262 -0.2057 -0.6346
  552MPD2    H7 8199   4.132   2.841  14.050  0.6849 -1.2116  0.5122
  553TMC3    C1 8200   3.998   2.779  13.858 -0.1465 -1.0201  0.4884
  553TMC3    C2 8201   3.988   2.833  13.733  0.6341  0.1869 -0.0247
  553TMC3    C3 8202   4.020   2.743  13.631  0.3421  0.2318  0.4279
  553TMC3    C4 8203   4.039   2.654  13.891  0.2498  0.2714  0.4384
  553TMC3    C5 8204   4.075   2.571  13.790 -0.5363  0.4380  0.3732
  553TMC3    C6 8205   4.059   2.614  13.665  0.7422 -0.6736  0.8006
  553TMC3     C 8206   3.941   2.847  13.977 -0.2783 -0.4860 -0.0797
  553TMC3     O 8207   3.833   2.902  13.962 -0.3760 -0.3147  0.5934
  553TMC3     H 8208   3.961   2.937  13.718 -0.6440 -0.0672  0.5470
  553TMC3    H1 8209   4.035   2.622  13.995  1.4139  0.7791  0.6483
  553TMC3    H2 8210   4.104   2.552  13.589  0.5018  0.3096 -0.1371
  553TMC3    C7 8211   4.184   2.486  13.800 -1.0731 -0.1563 -0.1509
  553TMC3    C8 8212   4.086   2.804  13.506 -0.5052 -0.0344 -0.4929
  553TMC3    O1 8213   4.193   2.408  13.706  0.3212 -0.2055  0.1397
  553TMC3    O2 8214   4.149   2.906  13.532 -0.2371 -0.0146 -0.2530
  554TMC3    C1 8215   1.899   2.231  11.316  0.6054  0.1544 -0.6687
  554TMC3    C2 8216   1.835   2.199  11.201  0.5572 -0.9523  0.2051
  554TMC3    C3 8217   1.865   2.268  11.088  0.9085  0.1353 -0.5781
  554TMC3    C4 8218   1.991   2.329  11.316  0.1867  0.4887  0.9173
  554TMC3    C5 8219   2.031   2.397  11.206 -0.3104 -0.2256  0.0447
  554TMC3    C6 8220   1.962   2.364  11.091 -0.3231  0.5090 -0.0650
  554TMC3     C 8221   1.887   2.149  11.433  0.5129 -0.1060  0.6186
  554TMC3     O 8222   1.837   2.035  11.423 -0.0671  0.3227 -0.2077
  554TMC3     H 8223   1.763   2.118  11.202 -0.0802 -0.3866 -0.0832
  554TMC3    H1 8224   2.050   2.356  11.402 -0.9945 -0.1271  1.9139
  554TMC3    H2 8225   1.977   2.425  11.003 -0.8790 -1.4329 -1.5070
  554TMC3    C7 8226   2.083   2.537  11.210  0.3251  0.0090 -0.0327
  554TMC3    C8 8227   1.777   2.273  10.968 -0.1337  0.5123 -0.2329
  554TMC3    O1 8228   2.154   2.571  11.117 -0.2271  0.5454  0.4838
  554TMC3    O2 8229   1.814   2.343  10.875 -0.2843  0.2773 -0.5458
  555TMC3    C1 8230   0.594   1.325  14.523  0.9957 -0.4921  0.3556
  555TMC3    C2 8231   0.583   1.447  14.587  0.1219 -0.4742  0.5983
  555TMC3    C3 8232   0.594   1.455  14.725 -0.1117  0.4268 -0.7531
  555TMC3    C4 8233   0.616   1.206  14.588 -0.3463 -0.8235 -0.1976
  555TMC3    C5 8234   0.620   1.215  14.727  0.9713  0.4095 -0.8047
  555TMC3    C6 8235   0.617   1.337  14.795 -0.1241  0.3772  0.6993
  555TMC3     C 8236   0.553   1.311  14.380  0.3468  0.1347  0.2069
  555TMC3     O 8237   0.584   1.216  14.312  0.3708  0.3689  0.0668
  555TMC3     H 8238   0.557   1.539  14.536 -1.0329  0.2691  2.5200
  555TMC3    H1 8239   0.618   1.115  14.531 -2.4350 -0.6056 -0.6054
  555TMC3    H2 8240   0.605   1.336  14.902  0.9189  2.7708  0.8443
  555TMC3    C7 8241   0.642   1.098  14.815 -0.0520  0.6489  0.0157
  555TMC3    C8 8242   0.582   1.575  14.804  0.3281 -0.4704  0.4708
  555TMC3    O1 8243   0.616   1.109  14.933 -0.2576  0.2356  0.1170
  555TMC3    O2 8244   0.578   1.560  14.923 -0.3306  0.2669  0.3048
  556MPD2     C 8245   3.004   4.251  10.493  0.0187 -0.0258  0.3097
  556MPD2    C1 8246   3.033   4.114  10.505  0.4042 -0.7088  0.1477
  556MPD2    C2 8247   3.037   4.043  10.390 -0.2531  0.0036 -0.1959
  556MPD2    C3 8248   3.012   4.103  10.264  0.8369  0.3251 -0.5421
  556MPD2    C4 8249   2.995   4.237  10.251  0.3485  0.2864 -0.2759
  556MPD2    C5 8250   2.986   4.303  10.371 -0.2792 -0.1020  0.8194
  556MPD2     H 8251   3.059   3.937  10.388 -0.4064 -0.0538  1.5063
  556MPD2    H1 8252   2.976   4.289  10.158  1.8269  0.2692 -0.5951
  556MPD2    H2 8253   2.991   4.318  10.578  0.6104  0.6909 -0.1683
  556MPD2    H3 8254   2.962   4.409  10.369  0.9220  0.1863  2.0663
  556MPD2     N 8255   3.000   4.014  10.151  0.1975 -0.5355  0.1341
  556MPD2    H5 8256   3.000   3.916  10.177  0.3892 -0.8334 -1.0250
  556MPD2    N1 8257   3.067   4.054  10.629 -0.1808 -0.4481  0.1820
  556MPD2    H7 8258   3.088   3.955  10.636  1.9238 -0.0182 -0.1580
  557TMC3    C1 8259   2.944   3.931   9.946 -0.6948 -0.0466 -0.3328
  557TMC3    C2 8260   2.858   3.935   9.846 -0.2503 -0.0390  0.3437
  557TMC3    C3 8261   2.845   3.821   9.766  0.1979  0.4841  0.3551
  557TMC3    C4 8262   3.025   3.825   9.965 -0.2081  0.2783 -0.6400
  557TMC3    C5 8263   3.014   3.717   9.888  0.7699 -0.1989 -0.2102
  557TMC3    C6 8264   2.916   3.709   9.793  0.0014 -0.3697  0.0542
  557TMC3     C 8265   2.962   4.049  10.025 -0.3336  0.4145 -0.5935
  557TMC3     O 8266   2.940   4.158   9.972 -1.2192  0.0737  0.1470
  557TMC3     H 8267   2.791   4.018   9.830 -2.2746 -1.4769  1.4201
  557TMC3    H1 8268   3.103   3.832  10.039 -1.7977 -2.5443  1.3482
  557TMC3    H2 8269   2.910   3.631   9.717  0.1039 -0.5868  0.2697
  557TMC3    C7 8270   3.060   3.585   9.925 -0.5953 -0.7217 -0.6339
  557TMC3    C8 8271   2.730   3.816   9.676 -0.3558  0.3045  0.1195
  557TMC3    O1 8272   2.975   3.499   9.911  0.2771 -0.1830 -0.4953
  557TMC3    O2 8273   2.666   3.918   9.662  0.0593  0.2814  0.0731
  558TMC3    C1 8274   1.007   0.975   9.962  0.3840 -0.4044 -0.2656
  558TMC3    C2 8275   0.900   1.053   9.967 -0.6262 -0.1581 -0.1104
  558TMC3    C3 8276   0.782   0.989   9.936  0.6783  0.3704 -0.9009
  558TMC3    C4 8277   0.997   0.836   9.931 -0.3002 -0.6540 -0.5528
  558TMC3    C5 8278   0.873   0.782   9.903 -0.1461 -0.2480  0.2588
  558TMC3    C6 8279   0.760   0.858   9.898 -0.3434 -0.3046  0.0194
  558TMC3     C 8280   1.132   1.039   9.991 -0.5482  0.0371  0.0331
  558TMC3     O 8281   1.127   1.150  10.050 -0.0105  0.0711 -0.3152
  558TMC3     H 8282   0.898   1.161   9.979  0.3303 -0.2122  0.4952
  558TMC3    H1 8283   1.085   0.774   9.933 -0.0311 -0.1628  2.0815
  558TMC3    H2 8284   0.659   0.836   9.864 -0.9936 -0.3036  1.9018
  558TMC3    C7 8285   0.865   0.639   9.893  0.1861  0.5704 -0.0619
  558TMC3    C8 8286   0.672   1.085   9.927  0.8343 -0.0960  0.4092
  558TMC3    O1 8287   0.977   0.585   9.884 -0.5276  0.1377  0.2596
  558TMC3    O2 8288   0.594   1.089   9.834 -0.7067  0.4993 -0.0971
  559MPD2     C 8289   1.324   2.171  10.104 -0.7449 -0.2137 -0.0528
  559MPD2    C1 8290   1.270   2.115  10.221 -0.1288 -0.3964  0.4138
  559MPD2    C2 8291   1.351   2.075  10.322 -0.3102  0.3949 -0.2180
  559MPD2    C3 8292   1.482   2.089  10.312 -0.2838  0.3017 -0.8042
  559MPD2    C4 8293   1.538   2.150  10.206 -0.5454 -0.5375  0.3344
  559MPD2    C5 8294   1.460   2.187  10.101 -0.7189 -0.0468  0.5743
  559MPD2     H 8295   1.307   2.019  10.404  2.4538  0.1942  1.1245
  559MPD2    H1 8296   1.645   2.165  10.201 -0.5353 -0.6278  0.2780
  559MPD2    H2 8297   1.261   2.205  10.023 -2.2003 -1.8228  0.3967
  559MPD2    H3 8298   1.508   2.237  10.017 -1.0614  2.9142  2.1505
  559MPD2     N 8299   1.545   2.032  10.419 -0.2431 -0.0674 -0.9820
  559MPD2    H5 8300   1.487   1.975  10.481  1.9952 -1.3382 -0.0715
  559MPD2    N1 8301   1.135   2.088  10.244 -0.3464 -0.0298 -0.0905
  559MPD2    H7 8302   1.113   2.079  10.343  0.3176  1.5795  0.2057
  560TMC3    C1 8303   1.693   1.942  10.570 -1.0201 -0.0201 -0.6472
  560TMC3    C2 8304   1.569   1.893  10.614 -0.3729  0.7456 -0.1225
  560TMC3    C3 8305   1.544   1.865  10.748 -0.7144 -0.3982 -0.3435
  560TMC3    C4 8306   1.779   1.971  10.667 -0.3674 -0.7014 -0.0187
  560TMC3    C5 8307   1.754   1.935  10.799  0.6411 -0.0113 -0.6242
  560TMC3    C6 8308   1.645   1.870  10.839 -0.4763  0.6894  0.0323
  560TMC3     C 8309   1.676   2.032  10.456 -0.2553  0.4662  0.5339
  560TMC3     O 8310   1.771   2.107  10.430 -1.0255  0.3469 -0.1287
  560TMC3     H 8311   1.510   1.834  10.545 -0.4348 -0.3936  0.9116
  560TMC3    H1 8312   1.870   2.023  10.643 -0.2661 -1.2867 -0.9035
  560TMC3    H2 8313   1.626   1.834  10.939 -0.1265  1.8116  0.5029
  560TMC3    C7 8314   1.847   1.961  10.909  0.7822 -0.2968  0.2521
  560TMC3    C8 8315   1.403   1.864  10.780  0.4580 -0.4176 -0.1698
  560TMC3    O1 8316   1.814   1.908  11.017  0.3140  0.0382 -0.1534
  560TMC3    O2 8317   1.333   1.894  10.683 -0.0519  0.3762  0.7918
  561TMC3    C1 8318   4.520   1.261  10.890 -0.0731 -0.6950  0.1011
  561TMC3    C2 8319   4.483   1.157  10.967 -0.1455  1.0910 -0.2436
  561TMC3    C3 8320   4.400   1.184  11.068  0.4467  0.2162 -0.1425
  561TMC3    C4 8321   4.483   1.392  10.913 -0.1295  0.6422  0.0013
  561TMC3    C5 8322   4.400   1.407  11.020 -0.5636 -0.4860 -0.3599
  561TMC3    C6 8323   4.353   1.306  11.096 -0.6550  0.2604  0.0268
  561TMC3     C 8324   4.569   1.233  10.761  0.0506 -0.3777 -0.1494
  561TMC3     O 8325   4.603   1.323  10.689  0.0780 -0.2834 -0.3845
  561TMC3     H 8326   4.498   1.050  10.967  0.2562  1.1289  2.4338
  561TMC3    H1 8327   4.506   1.470  10.841 -0.2369  0.0788 -0.6387
  561TMC3    H2 8328   4.301   1.322  11.190 -0.8885 -1.8835  0.2617
  561TMC3    C7 8329   4.349   1.540  11.057 -0.1911 -0.4784  1.0137
  561TMC3    C8 8330   4.346   1.072  11.143  0.0301  0.1606 -0.0269
  561TMC3    O1 8331   4.303   1.556  11.167 -0.2151 -0.3585  0.2970
  561TMC3    O2 8332   4.431   0.991  11.176 -0.1761  0.0610  0.1292
  562TMC3    C1 8333   0.226   2.207  16.685  0.5054 -0.1499 -0.4050
  562TMC3    C2 8334   0.194   2.327  16.624  0.1860  0.2527  0.2803
  562TMC3    C3 8335   0.106   2.327  16.517  0.9358  0.5374  0.4805
  562TMC3    C4 8336   0.176   2.091  16.640 -0.2865 -0.5481 -0.3938
  562TMC3    C5 8337   0.085   2.099  16.544 -0.2400 -0.4367  0.1614
  562TMC3    C6 8338   0.051   2.213  16.470  0.0446  0.6711 -0.1609
  562TMC3     C 8339   0.296   2.213  16.813  0.5966  0.5338 -0.3712
  562TMC3     O 8340   0.373   2.122  16.839 -0.2157 -0.3915 -0.7969
  562TMC3     H 8341   0.239   2.422  16.650  2.7308 -0.8834  0.0353
  562TMC3    H1 8342   0.195   2.003  16.701 -0.4683  0.1600  0.6866
  562TMC3    H2 8343   4.711   2.212  16.383 -1.8493  2.0693  1.2099
  562TMC3    C7 8344   0.046   1.967  16.487 -0.2198 -0.7022  0.8365
  562TMC3    C8 8345   0.080   2.457  16.453 -0.2400 -0.0543 -0.1229
  562TMC3    O1 8346   4.659   1.970  16.434 -0.4021 -1.0554 -0.7475
  562TMC3    O2 8347   0.120   2.555  16.519 -0.0714 -0.7548 -0.8732
  563MPD2     C 8348   2.259   2.790  16.171 -0.3881  0.1007  0.2574
  563MPD2    C1 8349   2.303   2.918  16.185  0.7082  0.1133  0.4421
  563MPD2    C2 8350   2.441   2.936  16.221  0.0956 -0.2698  0.7563
  563MPD2    C3 8351   2.521   2.834  16.238 -0.0798  0.3987  0.4812
  563MPD2    C4 8352   2.480   2.701  16.219 -0.3235  0.0837  0.0398
  563MPD2    C5 8353   2.346   2.685  16.186 -0.5132 -0.2031 -0.1447
  563MPD2     H 8354   2.476   3.034  16.252 -0.2559  0.7584 -2.0687
  563MPD2    H1 8355   2.547   2.621  16.246  0.4717  0.3172 -1.2208
  563MPD2    H2 8356   2.154   2.768  16.155 -0.2361 -0.4696  0.0537
  563MPD2    H3 8357   2.307   2.583  16.185 -1.3266  0.0981  0.7315
  563MPD2     N 8358   2.652   2.866  16.286  0.1768 -0.1158  0.4637
  563MPD2    H5 8359   2.664   2.965  16.304 -1.4911  0.0877  0.4386
  563MPD2    N1 8360   2.217   3.031  16.177  0.4495 -0.0932 -0.4439
  563MPD2    H7 8361   2.118   3.014  16.176  0.4996 -0.3127 -1.3438
  564TMC3    C1 8362   2.167   3.254  16.256 -0.4816  0.2266 -0.0515
  564TMC3    C2 8363   2.051   3.192  16.250  0.2240 -0.2330  0.0720
  564TMC3    C3 8364   1.989   3.157  16.368 -0.1102  0.4462 -0.0556
  564TMC3    C4 8365   2.224   3.290  16.377 -0.5771  0.2117 -0.4442
  564TMC3    C5 8366   2.172   3.241  16.488  0.0745 -0.2999 -0.4847
  564TMC3    C6 8367   2.048   3.181  16.487  0.4680 -0.3262  0.2682
  564TMC3     C 8368   2.263   3.166  16.181  0.8206  0.4979 -0.7961
  564TMC3     O 8369   2.375   3.214  16.154  0.1903 -0.4484  0.1854
  564TMC3     H 8370   1.995   3.179  16.158 -0.6872 -0.7455  0.6986
  564TMC3    H1 8371   2.317   3.344  16.366  1.2539 -2.6506  1.0035
  564TMC3    H2 8372   1.993   3.165  16.579 -0.0235  2.2262  0.4172
  564TMC3    C7 8373   2.272   3.176  16.571 -0.0442 -0.0601 -0.2166
  564TMC3    C8 8374   1.918   3.032  16.362 -0.4047  0.4563 -0.1215
  564TMC3    O1 8375   2.385   3.227  16.569 -0.3781  0.0601 -0.1631
  564TMC3    O2 8376   1.911   2.973  16.468 -0.1489  0.3284  0.0657
  565TMC3    C1 8377   2.684   0.445  10.106  0.3203  0.5350  0.3796
  565TMC3    C2 8378   2.745   0.396  10.221  0.5678  0.3496 -0.4236
  565TMC3    C3 8379   2.699   0.277  10.273 -0.4704  0.2581  0.4807
  565TMC3    C4 8380   2.578   0.382  10.046 -0.1656 -0.4798  1.2884
  565TMC3    C5 8381   2.533   0.274  10.108 -0.5060 -0.3482  0.1372
  565TMC3    C6 8382   2.593   0.216  10.216 -0.2221 -0.0218 -0.7981
  565TMC3     C 8383   2.721   0.569  10.050 -0.1257 -0.1592  0.3015
  565TMC3     O 8384   2.660   0.604   9.952  0.4618  0.2937 -0.4028
  565TMC3     H 8385   2.821   0.452  10.275  1.7376  2.4805 -4.2579
  565TMC3    H1 8386   2.528   0.420   9.958  2.1250  1.3566  0.7906
  565TMC3    H2 8387   2.530   0.148  10.271  1.6736  1.1146  2.8403
  565TMC3    C7 8388   2.442   0.183  10.041 -0.2508  0.0216 -0.1172
  565TMC3    C8 8389   2.747   0.228  10.402 -0.4980  0.1984 -0.0573
  565TMC3    O1 8390   2.380   0.099  10.103 -0.3009  0.4078  0.1865
  565TMC3    O2 8391   2.840   0.289  10.453  0.2190  0.4043  0.1106
  566MPD2     C 8392   4.484   1.423  13.987  0.6440  0.1403 -0.2134
  566MPD2    C1 8393   4.530   1.309  13.914  1.2315 -0.6237 -0.4362
  566MPD2    C2 8394   4.461   1.279  13.795  0.1695  0.1669  0.0950
  566MPD2    C3 8395   4.346   1.348  13.756 -0.0163 -0.1727 -0.0384
  566MPD2    C4 8396   4.306   1.452  13.827  0.2398 -0.0978 -0.2554
  566MPD2    C5 8397   4.376   1.497  13.938 -0.6107 -0.5076  0.2468
  566MPD2     H 8398   4.497   1.198  13.733 -0.2701  0.2167 -0.2234
  566MPD2    H1 8399   4.224   1.504  13.779 -0.9550 -1.4844  0.2962
  566MPD2    H2 8400   4.524   1.455  14.083  1.5247 -0.7843 -0.2668
  566MPD2    H3 8401   4.332   1.565  14.010 -1.0445 -2.3127  1.6741
  566MPD2     N 8402   4.282   1.322  13.637 -0.5397 -0.5026 -0.2153
  566MPD2    H5 8403   4.212   1.390  13.608  0.8888  0.6196 -1.0191
  566MPD2    N1 8404   4.639   1.226  13.953 -0.0241 -1.1519 -0.2448
  566MPD2    H7 8405   4.701   1.256  14.027 -0.1539  1.1121 -1.0189
  567TMC3    C1 8406   0.079   1.062  13.953 -0.0263 -0.0462  0.1933
  567TMC3    C2 8407   0.172   1.032  13.858  0.2764 -0.1817  0.1675
  567TMC3    C3 8408   0.303   1.020  13.898 -0.4114  0.6762 -0.3771
  567TMC3    C4 8409   0.104   1.082  14.086 -0.9890  0.4459 -0.6669
  567TMC3    C5 8410   0.234   1.069  14.120 -0.4871  0.2634 -0.2884
  567TMC3    C6 8411   0.335   1.045  14.031 -0.1711 -0.0723 -0.1126
  567TMC3     C 8412   4.674   1.100  13.904  0.8071  0.3118  0.1013
  567TMC3     O 8413   4.613   1.026  13.830  0.3994 -0.2416 -0.2439
  567TMC3     H 8414   0.143   1.031  13.754 -0.3785  2.7557  0.3234
  567TMC3    H1 8415   0.025   1.093  14.160 -0.2529 -0.0354  0.1947
  567TMC3    H2 8416   0.433   1.027  14.073 -1.2701 -2.1442  1.5883
  567TMC3    C7 8417   0.264   1.065  14.262 -0.5733 -0.0867  0.0736
  567TMC3    C8 8418   0.402   1.044  13.796  0.0621 -0.1940 -0.2672
  567TMC3    O1 8419   0.361   0.996  14.291  0.1678 -0.3065 -0.0958
  567TMC3    O2 8420   0.364   1.036  13.678  0.5168 -0.8519 -0.1259
  568MPD2     C 8421   1.761   1.600  16.813  0.0733  0.2782 -0.5582
  568MPD2    C1 8422   1.815   1.687  16.903 -0.2575 -0.3452 -0.4543
  568MPD2    C2 8423   1.828   1.818  16.868 -0.2011  0.0278  0.0890
  568MPD2    C3 8424   1.804   1.860  16.741 -0.1566  0.3655 -0.1204
  568MPD2    C4 8425   1.749   1.771  16.648  0.3502 -0.2642  0.5503
  568MPD2    C5 8426   1.731   1.644  16.686 -0.2984 -0.1283  0.3611
  568MPD2     H 8427   1.862   1.889  16.943  1.7970 -1.6063  0.7201
  568MPD2    H1 8428   1.730   1.785  16.543  2.5498  1.7754  0.4269
  568MPD2    H2 8429   1.741   1.496  16.835  0.5909  0.4217  0.5996
  568MPD2    H3 8430   1.688   1.578  16.611 -1.9241  2.2790 -0.8275
  568MPD2     N 8431   1.854   1.989  16.715  0.1374 -0.3315  0.1554
  568MPD2    H5 8432   1.912   2.032  16.787  1.0620  1.9719 -1.9645
  568MPD2    N1 8433   1.818   1.651  17.042 -0.3000 -0.1468  0.0086
  568MPD2    H7 8434   1.788   1.556  17.061  1.1195 -0.8553 -1.2657
  569TMC3    C1 8435   1.942   2.159  16.582 -0.3085 -0.0594 -0.9069
  569TMC3    C2 8436   1.993   2.219  16.689  0.3456  0.8722  0.1912
  569TMC3    C3 8437   2.079   2.330  16.673 -0.2148 -0.3917 -0.8386
  569TMC3    C4 8438   1.969   2.205  16.456 -0.0538 -0.1712 -0.2951
  569TMC3    C5 8439   2.042   2.320  16.440 -0.1482 -0.4643  0.0223
  569TMC3    C6 8440   2.099   2.384  16.548  0.2857  0.8615  0.0909
  569TMC3     C 8441   1.844   2.052  16.591  0.5486  0.1095  0.4883
  569TMC3     O 8442   1.786   2.013  16.490  0.1233  0.1554 -0.9422
  569TMC3     H 8443   1.967   2.194  16.791  1.9435  2.0940  0.8895
  569TMC3    H1 8444   1.918   2.176  16.365  0.6611  1.2505 -1.1554
  569TMC3    H2 8445   2.159   2.474  16.543 -0.6594  1.4245 -1.2686
  569TMC3    C7 8446   2.025   2.386  16.314  0.0381  0.0906  0.0294
  569TMC3    C8 8447   2.055   2.438  16.778 -0.3024 -0.2563  0.3087
  569TMC3    O1 8448   1.994   2.320  16.216  0.1393  0.4458 -0.3669
  569TMC3    O2 8449   1.938   2.452  16.816  0.0566  0.4858  0.0090
  570TMC3    C1 8450   1.616   0.746  16.181 -0.6178 -0.7712 -0.4509
  570TMC3    C2 8451   1.732   0.767  16.118 -0.8135 -0.2233  0.0661
  570TMC3    C3 8452   1.790   0.895  16.131 -1.2550  0.1084  0.4798
  570TMC3    C4 8453   1.551   0.848  16.243 -0.0252  0.0239  0.5643
  570TMC3    C5 8454   1.611   0.970  16.256 -0.4007 -0.0901 -0.1653
  570TMC3    C6 8455   1.729   0.999  16.194  0.3965  0.5004 -0.3441
  570TMC3     C 8456   1.578   0.606  16.196  0.0742  0.1940 -0.7781
  570TMC3     O 8457   1.655   0.514  16.159 -0.4676 -0.5437 -0.6431
  570TMC3     H 8458   1.790   0.680  16.089  0.2617  0.9269 -1.1883
  570TMC3    H1 8459   1.466   0.827  16.308  0.9382  1.0347  2.1514
  570TMC3    H2 8460   1.782   1.093  16.208  0.0226  0.6907 -0.2206
  570TMC3    C7 8461   1.536   1.070  16.324 -0.6569  0.3970 -0.1811
  570TMC3    C8 8462   1.924   0.920  16.078  0.9285 -1.0657  0.4682
  570TMC3    O1 8463   1.465   1.045  16.419 -0.3475  1.0961 -0.0789
  570TMC3    O2 8464   1.987   1.019  16.120 -0.4488  0.2145  0.1572
  571MPD2     C 8465   4.402   2.281  16.998 -0.3300  0.3774  0.9619
  571MPD2    C1 8466   4.466   2.291  17.121 -0.4012 -0.9429  0.8319
  571MPD2    C2 8467   4.447   2.404  17.192  0.3611  0.0750  0.2542
  571MPD2    C3 8468   4.366   2.507  17.137  0.0405  0.3490 -0.0731
  571MPD2    C4 8469   4.320   2.499  17.003  0.1453  0.1103  0.6460
  571MPD2    C5 8470   4.348   2.390  16.937  0.0650  0.1842  0.2356
  571MPD2     H 8471   4.475   2.398  17.297  0.6911  0.7139  0.1998
  571MPD2    H1 8472   4.261   2.579  16.958  2.1612  2.3406  1.9431
  571MPD2    H2 8473   4.427   2.199  16.931  1.7303  0.1198  2.0512
  571MPD2    H3 8474   4.305   2.384  16.838  0.3904 -2.0037  0.2283
  571MPD2     N 8475   4.320   2.625  17.208  0.1158 -0.1170 -0.3869
  571MPD2    H5 8476   4.254   2.682  17.156  0.4691  0.9964  0.4073
  571MPD2    N1 8477   4.535   2.175  17.161 -0.4636  0.4155 -0.0896
  571MPD2    H7 8478   4.555   2.104  17.092 -1.3097  0.3346 -0.2411
  572TMC3    C1 8479   4.257   2.741  17.407 -0.4081  0.3958  0.3888
  572TMC3    C2 8480   4.131   2.694  17.418  0.2176  0.8309 -0.2156
  572TMC3    C3 8481   4.060   2.729  17.530 -0.5383  0.6645 -0.6698
  572TMC3    C4 8482   4.303   2.842  17.493  0.0057  0.2862  0.3665
  572TMC3    C5 8483   4.215   2.884  17.594  0.1416  0.1681  0.0439
  572TMC3    C6 8484   4.093   2.826  17.616  0.0389  0.3069 -0.2199
  572TMC3     C 8485   4.355   2.655  17.336 -0.8592 -0.7776  0.1371
  572TMC3     O 8486   4.443   2.603  17.406 -0.2570  0.3431 -0.3824
  572TMC3     H 8487   4.115   2.598  17.369 -0.9450  0.1253  1.5764
  572TMC3    H1 8488   4.382   2.908  17.460 -1.3566  1.9655  0.4600
  572TMC3    H2 8489   4.028   2.854   0.002 -1.6468 -1.2664 -1.0361
  572TMC3    C7 8490   4.248   2.989  17.690 -0.1868 -0.2475 -0.6988
  572TMC3    C8 8491   3.966   2.634  17.569 -0.1890 -0.1346 -0.2938
  572TMC3    O1 8492   4.158   3.032   0.061  1.1231 -0.3279 -0.4147
  572TMC3    O2 8493   3.919   2.568  17.478  0.1505  0.5275  0.7439
  573MPD2     C 8494   0.394   3.110   0.983  0.7509 -0.5114 -0.3769
  573MPD2    C1 8495   0.491   3.209   1.003  0.7882  0.3272 -0.2467
  573MPD2    C2 8496   0.591   3.215   0.903 -0.1011 -0.3058  0.2618
  573MPD2    C3 8497   0.595   3.139   0.788  0.8468  0.1661 -0.2082
  573MPD2    C4 8498   0.501   3.039   0.771  0.6569  0.4152  0.3849
  573MPD2    C5 8499   0.402   3.030   0.870 -0.1658 -0.5640  0.1228
  573MPD2     H 8500   0.666   3.291   0.923 -1.4207  0.6533  1.5262
  573MPD2    H1 8501   0.507   2.975   0.684  0.4587 -1.0507  1.4330
  573MPD2    H2 8502   0.318   3.090   1.058 -1.8179 -2.1524 -3.4636
  573MPD2    H3 8503   0.327   2.953   0.854  0.0195 -0.3492 -1.7101
  573MPD2     N 8504   0.699   3.136   0.689  0.8589  0.2858 -0.4041
  573MPD2    H5 8505   0.697   3.065   0.617  0.7021 -0.5492  0.4196
  573MPD2    N1 8506   0.489   3.285   1.120 -0.2475  0.0019 -0.0296
  573MPD2    H7 8507   0.412   3.258   1.180 -0.8237 -1.8803 -1.6389
  574TMC3    C1 8508   0.894   3.198   0.578 -0.0099  0.1240 -0.4504
  574TMC3    C2 8509   0.840   3.163   0.453  0.1015 -0.4245  0.2038
  574TMC3    C3 8510   0.919   3.146   0.343  0.2056  0.1924 -0.2848
  574TMC3    C4 8511   1.029   3.243   0.579  0.3052 -0.1658  0.1374
  574TMC3    C5 8512   1.106   3.224   0.467 -0.6405 -0.1701  0.4814
  574TMC3    C6 8513   1.052   3.176   0.349 -0.8725  0.2155  0.1430
  574TMC3     C 8514   0.804   3.223   0.689 -0.1401  0.2253  0.0531
  574TMC3     O 8515   0.824   3.320   0.757  0.3867 -0.0870  0.2198
  574TMC3     H 8516   0.735   3.148   0.429 -0.1473  1.0717  0.3643
  574TMC3    H1 8517   1.073   3.273   0.673  0.2481  0.3342  0.0033
  574TMC3    H2 8518   1.115   3.162   0.261  2.0164  0.5884  2.1513
  574TMC3    C7 8519   1.257   3.215   0.479  0.9656  0.6289 -0.2717
  574TMC3    C8 8520   0.860   3.142   0.214  0.0807  0.3920  0.4886
  574TMC3    O1 8521   1.310   3.132   0.406  0.1299 -0.0047  0.1044
  574TMC3    O2 8522   0.919   3.085   0.127  0.1904 -0.8678  0.6586
  575TMC3    C1 8523   3.188   4.717  11.130 -0.9650 -0.0216  0.4907
  575TMC3    C2 8524   3.309   0.055  11.122 -0.2523 -0.5874  1.0373
  575TMC3    C3 8525   3.332   0.150  11.026 -0.5404  0.3511 -1.1001
  575TMC3    C4 8526   3.083   0.030  11.043 -0.6266  0.6016  0.0734
  575TMC3    C5 8527   3.105   0.130  10.954  0.2750  0.1941  0.1319
  575TMC3    C6 8528   3.227   0.195  10.943 -0.3854 -0.3910 -0.4650
  575TMC3     C 8529   3.174   4.612  11.227  0.3024 -0.2161  0.3542
  575TMC3     O 8530   3.057   4.587  11.252  0.0608 -0.4342  0.3331
  575TMC3     H 8531   3.391   0.033  11.189  1.4856  0.8452 -0.6174
  575TMC3    H1 8532   2.986   4.706  11.054 -0.3974  0.0857 -0.1418
  575TMC3    H2 8533   3.240   0.270  10.867 -1.0479  1.0707  0.8578
  575TMC3    C7 8534   3.017   0.147  10.838  0.2837  0.2262  0.2392
  575TMC3    C8 8535   3.456   0.220  11.024 -0.8526 -0.3994 -0.6997
  575TMC3    O1 8536   3.000   0.254  10.782 -0.4863  0.7031  0.9169
  575TMC3    O2 8537   3.502   0.248  11.137 -0.1719  0.2095  0.3354
  576MPD2     C 8538   3.065   0.979  11.848 -0.0075 -0.1695  0.3075
  576MPD2    C1 8539   3.133   1.098  11.864  0.3097  0.0536  0.4070
  576MPD2    C2 8540   3.076   1.194  11.941  0.7981  0.7176 -0.3295
  576MPD2    C3 8541   2.957   1.186  11.996  0.1114  0.1487  0.5122
  576MPD2    C4 8542   2.882   1.072  11.981  0.0556 -0.2961  0.0603
  576MPD2    C5 8543   2.940   0.967  11.912  0.4583  0.5933 -1.2171
  576MPD2     H 8544   3.128   1.288  11.952  0.0445  1.1044 -0.0611
  576MPD2    H1 8545   2.783   1.058  12.024  0.4626  1.0671  1.4185
  576MPD2    H2 8546   3.105   0.890  11.803 -0.0393  0.7987 -1.6184
  576MPD2    H3 8547   2.890   0.872  11.898 -0.2729  1.1911 -2.6665
  576MPD2     N 8548   2.906   1.299  12.066 -0.5939 -0.7808 -0.4807
  576MPD2    H5 8549   2.965   1.382  12.073  1.3084 -2.2386  0.7437
  576MPD2    N1 8550   3.250   1.132  11.802 -0.1295  0.3034  0.6429
  576MPD2    H7 8551   3.289   1.222  11.827  1.9324  0.0635 -1.6677
  577TMC3    C1 8552   3.431   1.108  11.663 -0.2654  0.3661 -0.3202
  577TMC3    C2 8553   3.527   1.016  11.637  0.2850  0.0626 -0.4762
  577TMC3    C3 8554   3.629   1.065  11.566 -1.0176 -0.3289 -0.3945
  577TMC3    C4 8555   3.430   1.241  11.625 -0.2696 -0.5657 -0.4424
  577TMC3    C5 8556   3.537   1.283  11.557  0.4011  0.5140  0.3445
  577TMC3    C6 8557   3.641   1.200  11.526 -0.3903  0.0107 -0.6665
  577TMC3     C 8558   3.309   1.050  11.708  0.4971  0.8520 -0.1776
  577TMC3     O 8559   3.279   0.938  11.669  0.2256  0.1522 -0.2192
  577TMC3     H 8560   3.519   0.910  11.658  1.5951 -0.0325 -0.4224
  577TMC3    H1 8561   3.344   1.303  11.648  0.6895  0.5295  0.2109
  577TMC3    H2 8562   3.713   1.240  11.455  0.8465 -0.4062  0.3480
  577TMC3    C7 8563   3.535   1.414  11.496 -0.9141 -0.5280 -0.3008
  577TMC3    C8 8564   3.715   0.963  11.504 -1.1547  0.1686  0.2006
  577TMC3    O1 8565   3.643   1.464  11.482  0.0817  0.2415 -0.4007
  577TMC3    O2 8566   3.706   0.851  11.545  0.7170 -0.1495 -0.2353
  578MPD2     C 8567   1.088   0.611   1.243 -0.4099 -0.1048 -0.2346
  578MPD2    C1 8568   1.173   0.529   1.171 -0.3478  0.6835 -0.8683
  578MPD2    C2 8569   1.215   0.418   1.241  0.2032 -0.1403 -0.6120
  578MPD2    C3 8570   1.173   0.383   1.366  0.6023  0.3165  0.4201
  578MPD2    C4 8571   1.082   0.463   1.430  0.3396  0.4242  0.1396
  578MPD2    C5 8572   1.040   0.581   1.370 -0.2914  0.9204 -0.6398
  578MPD2     H 8573   1.283   0.347   1.197  0.1274 -0.3158 -0.4462
  578MPD2    H1 8574   1.048   0.431   1.528  2.2748 -1.3398  0.2252
  578MPD2    H2 8575   1.053   0.699   1.191 -0.0506  0.6722  0.8570
  578MPD2    H3 8576   0.978   0.648   1.429  0.2574  2.9302 -2.3248
  578MPD2     N 8577   1.225   0.274   1.430 -0.2082  0.0904  0.7127
  578MPD2    H5 8578   1.281   0.215   1.370 -0.4565  2.5238 -1.8893
  578MPD2    N1 8579   1.221   0.579   1.048 -0.7598  0.6103  0.2486
  578MPD2    H7 8580   1.168   0.659   1.014 -1.8509 -0.3321 -0.2615
  579TMC3    C1 8581   1.300   0.114   1.596 -0.8443 -0.4439 -0.1695
  579TMC3    C2 8582   1.374   0.115   1.711  0.6623 -0.7602  0.2763
  579TMC3    C3 8583   1.477   0.028   1.721 -0.1327 -0.4509  0.4966
  579TMC3    C4 8584   1.330   0.027   1.493  0.1275  0.0018  0.2253
  579TMC3    C5 8585   1.429   4.663   1.512 -0.2185  0.3666  0.1238
  579TMC3    C6 8586   1.507   4.658   1.629  0.7832  0.6201 -0.1412
  579TMC3     C 8587   1.231   0.242   1.564  0.6193  0.2259  1.3717
  579TMC3     O 8588   1.218   0.315   1.661 -0.8102 -0.4123 -0.3205
  579TMC3     H 8589   1.368   0.192   1.787  0.8016 -1.4326  0.9654
  579TMC3    H1 8590   1.275   0.034   1.399  0.1846  0.8189  0.2522
  579TMC3    H2 8591   1.585   4.589   1.658  1.0184  0.7153 -0.5436
  579TMC3    C7 8592   1.440   4.556   1.414 -0.1018  0.5474 -0.1556
  579TMC3    C8 8593   1.542   0.041   1.849  0.4379  0.5198 -0.3523
  579TMC3    O1 8594   1.550   4.496   1.405 -0.4724  0.0436 -0.2791
  579TMC3    O2 8595   1.482   0.090   1.940  0.6610 -0.0316  0.6362
  580TMC3    C1 8596   0.534   4.704  12.002 -0.5006 -0.0277  0.2230
  580TMC3    C2 8597   0.517   4.653  11.880 -0.0570 -0.0998 -0.0511
  580TMC3    C3 8598   0.582   4.535  11.846 -0.3099 -0.4207  0.0980
  580TMC3    C4 8599   0.607   4.637  12.098  0.0012 -0.0138  0.7794
  580TMC3    C5 8600   0.651   4.513  12.063  0.6068  0.0403  0.5802
  580TMC3    C6 8601   0.644   4.459  11.942  0.7716  0.4458 -0.5224
  580TMC3     C 8602   0.573   0.119  11.997  0.5297  0.6129 -0.5457
  580TMC3     O 8603   0.557   0.174  11.887  0.5629 -0.8903 -0.1146
  580TMC3     H 8604   0.471   4.719  11.808 -1.0216 -0.4987  0.1931
  580TMC3    H1 8605   0.618   4.673  12.200 -1.4803  0.4798  0.7635
  580TMC3    H2 8606   0.710   4.379  11.911 -0.4199 -0.5821 -0.4290
  580TMC3    C7 8607   0.725   4.446  12.167 -0.7794  0.0469 -0.1679
  580TMC3    C8 8608   0.669   4.554  11.731  0.0731 -0.9457  0.3399
  580TMC3    O1 8609   0.753   4.520  12.262  0.2059 -0.3749 -0.4428
  580TMC3    O2 8610   0.725   4.457  11.681 -0.4455 -0.1775  0.0383
  581MPD2     C 8611   3.612   0.122  14.763 -0.2258  0.6078  0.7867
  581MPD2    C1 8612   3.564   0.176  14.872  0.1979  0.3103 -0.1244
  581MPD2    C2 8613   3.432   0.208  14.883  0.3406  0.2809 -0.2143
  581MPD2    C3 8614   3.335   0.164  14.791 -0.1129 -0.1955  0.3420
  581MPD2    C4 8615   3.384   0.099  14.677 -0.0024 -0.2644 -0.3399
  581MPD2    C5 8616   3.526   0.087  14.662  0.4052 -0.0873  0.3776
  581MPD2     H 8617   3.392   0.263  14.967  0.9868  0.3463  0.0517
  581MPD2    H1 8618   3.324   0.080  14.589  1.7987 -1.4923 -1.3002
  581MPD2    H2 8619   3.715   0.093  14.742 -0.3454  1.2438 -0.6773
  581MPD2    H3 8620   3.550   0.034  14.570  1.3368  1.0672 -0.0442
  581MPD2     N 8621   3.201   0.213  14.799  0.1490 -0.4089 -0.0035
  581MPD2    H5 8622   3.176   0.280  14.871 -2.2703 -1.5137  0.1795
  581MPD2    N1 8623   3.659   0.184  14.980  0.1097  0.3224  0.7187
  581MPD2    H7 8624   3.754   0.154  14.964 -0.1289  0.0218 -0.1078
  582TMC3    C1 8625   3.707   0.156  15.211 -0.8077  0.7557  0.7802
  582TMC3    C2 8626   3.737   0.228  15.326  0.5951 -0.2263 -0.0858
  582TMC3    C3 8627   3.784   0.160  15.428 -0.4314  0.2719 -0.3013
  582TMC3    C4 8628   3.724   0.019  15.198  0.2361  0.2282  0.7021
  582TMC3    C5 8629   3.759   4.677  15.309 -0.7479 -0.2094 -0.5248
  582TMC3    C6 8630   3.805   0.023  15.420  0.1975  0.1336 -0.1187
  582TMC3     C 8631   3.627   0.222  15.108 -0.3523  0.3699  0.3118
  582TMC3     O 8632   3.544   0.300  15.156  0.2260 -0.4769  0.1792
  582TMC3     H 8633   3.715   0.334  15.334  0.7799 -0.1035 -1.1493
  582TMC3    H1 8634   3.690   4.690  15.110  2.4192  0.3328 -0.2072
  582TMC3    H2 8635   3.830   4.696  15.512 -1.5790  3.3389  2.1491
  582TMC3    C7 8636   3.657   4.576  15.334  0.0117 -0.0681  0.4140
  582TMC3    C8 8637   3.779   0.219  15.566 -0.0696 -0.3823 -0.1595
  582TMC3    O1 8638   3.661   4.484  15.254 -0.0246  0.4642 -0.6530
  582TMC3    O2 8639   3.693   0.305  15.592 -0.4838 -0.0652  0.3863
  583MPD2     C 8640   3.688   1.275  16.740 -0.7165  0.2552  0.2368
  583MPD2    C1 8641   3.716   1.397  16.686  0.1730  0.2016 -0.6365
  583MPD2    C2 8642   3.667   1.507  16.752 -0.1747 -0.6802 -0.3229
  583MPD2    C3 8643   3.593   1.498  16.870  0.4219  0.0525 -0.2215
  583MPD2    C4 8644   3.576   1.374  16.926 -0.1231  0.6215 -0.5967
  583MPD2    C5 8645   3.624   1.263  16.859  0.0364 -0.0184  0.2994
  583MPD2     H 8646   3.674   1.607  16.710  1.6939 -0.7979 -0.3113
  583MPD2    H1 8647   3.521   1.355  17.017 -1.0119  1.3486 -0.9835
  583MPD2    H2 8648   3.720   1.181  16.698 -1.1478  0.1736  0.1002
  583MPD2    H3 8649   3.598   1.168  16.906  0.4335  0.3079  1.1884
  583MPD2     N 8650   3.554   1.617  16.941  0.1481 -0.2579 -0.2936
  583MPD2    H5 8651   3.547   1.700  16.885 -0.4336 -0.0897  0.0331
  583MPD2    N1 8652   3.762   1.419  16.556  0.3898 -0.2638  0.1584
  583MPD2    H7 8653   3.782   1.516  16.533  1.8581 -1.0420 -1.8579
  584TMC3    C1 8654   3.507   1.756  17.123 -0.0827  0.0912  0.6893
  584TMC3    C2 8655   3.434   1.851  17.046 -0.3970  0.3093  0.2169
  584TMC3    C3 8656   3.394   1.970  17.098 -0.5082 -0.5831  0.8954
  584TMC3    C4 8657   3.539   1.786  17.252 -1.4140  0.4089 -0.6484
  584TMC3    C5 8658   3.487   1.902  17.307 -0.1044 -0.0018 -0.6924
  584TMC3    C6 8659   3.415   1.985  17.230 -0.2678 -0.3558  1.0957
  584TMC3     C 8660   3.539   1.625  17.078  0.0060 -0.3272 -0.2136
  584TMC3     O 8661   3.565   1.538  17.162 -0.1628 -0.3260  0.0844
  584TMC3     H 8662   3.427   1.834  16.939  0.7203  1.7936 -0.0838
  584TMC3    H1 8663   3.598   1.712  17.306 -0.5715  0.3753 -1.6203
  584TMC3    H2 8664   3.379   2.079  17.272  1.8182 -0.1891  2.5067
  584TMC3    C7 8665   3.469   1.895  17.452  0.3774  0.1479  0.4513
  584TMC3    C8 8666   3.377   2.082  17.010 -0.2297  0.1265  0.3031
  584TMC3    O1 8667   3.461   1.781  17.495  0.1443  0.1283  0.6397
  584TMC3    O2 8668   3.332   2.066  16.897  0.2081 -0.6276 -0.2059
  585MPD2     C 8669   2.524   0.159   0.883 -0.1523  0.2597  0.6966
  585MPD2    C1 8670   2.531   0.279   0.811  0.3941 -0.1791  0.2630
  585MPD2    C2 8671   2.607   0.277   0.693  0.2278  0.1739 -0.2057
  585MPD2    C3 8672   2.635   0.160   0.635  0.0007  0.5853  0.1006
  585MPD2    C4 8673   2.606   0.041   0.706 -0.4805 -0.5163  0.0490
  585MPD2    C5 8674   2.569   0.046   0.832 -0.0145 -0.0191  0.2726
  585MPD2     H 8675   2.629   0.374   0.651  1.0543  0.6045  1.2070
  585MPD2    H1 8676   2.638   4.671   0.661 -1.0095 -0.0541 -1.3020
  585MPD2    H2 8677   2.467   0.151   0.975 -1.4459 -0.0745 -0.1300
  585MPD2    H3 8678   2.549   4.681   0.890 -1.6879 -0.7338 -1.3775
  585MPD2     N 8679   2.683   0.151   0.500  0.4055 -0.6374  1.0803
  585MPD2    H5 8680   2.678   0.059   0.457 -1.0740 -0.6630  1.3287
  585MPD2    N1 8681   2.466   0.393   0.865  0.2626 -0.0261  0.7464
  585MPD2    H7 8682   2.393   0.379   0.934 -0.6571 -2.4691 -0.7216
  586TMC3    C1 8683   2.732   0.216   0.288  0.5969  0.3101 -0.1556
  586TMC3    C2 8684   2.826   0.267   0.211 -0.8465  0.1402 -0.1299
  586TMC3    C3 8685   2.822   0.240   0.077 -0.0541 -0.1642  0.2102
  586TMC3    C4 8686   2.639   0.131   0.238  0.1732  0.4503  0.4553
  586TMC3    C5 8687   2.631   0.108   0.103 -0.2293  0.5854 -0.1589
  586TMC3    C6 8688   2.723   0.162   0.022 -0.0975  0.0814 -0.8174
  586TMC3     C 8689   2.732   0.250   0.426  0.3950  0.7303  0.4313
  586TMC3     O 8690   2.764   0.364   0.458 -0.0267  0.0511  0.2845
  586TMC3     H 8691   2.912   0.316   0.254 -0.8014 -0.0835  0.0344
  586TMC3    H1 8692   2.564   0.086   0.302  0.4013  1.6620  1.5573
  586TMC3    H2 8693   2.736   0.138  17.613 -1.8868  1.8742 -1.4413
  586TMC3    C7 8694   2.515   0.028   0.061 -0.0370  0.2279  1.0353
  586TMC3    C8 8695   2.947   0.204   0.019 -0.5147  0.2772  0.2597
  586TMC3    O1 8696   2.430   0.011   0.147  0.0847 -0.0777 -0.3426
  586TMC3    O2 8697   3.019   0.127   0.083 -0.1030  0.9223 -0.4426
  587TMC3    C1 8698   0.093   4.107  17.010  0.5533  0.5651 -0.0223
  587TMC3    C2 8699   0.091   4.184  16.895 -0.4041  0.4536  0.3066
  587TMC3    C3 8700   0.158   4.300  16.881 -0.6318 -1.0197  0.2144
  587TMC3    C4 8701   0.167   4.155  17.120 -0.0476  0.1901  0.0091
  587TMC3    C5 8702   0.224   4.278  17.107 -0.2066 -0.5795  0.4591
  587TMC3    C6 8703   0.225   4.351  16.994  0.3371 -0.1233 -0.2302
  587TMC3     C 8704   4.717   4.009  17.036 -0.5063 -0.2962  0.6653
  587TMC3     O 8705   0.014   3.948  17.144  0.6992  0.0923 -0.1501
  587TMC3     H 8706   0.028   4.156  16.811  0.1894 -0.6460  0.2187
  587TMC3    H1 8707   0.183   4.092  17.207  0.1541  0.1779 -0.0359
  587TMC3    H2 8708   0.265   4.451  16.987  1.4247 -0.4316  1.4794
  587TMC3    C7 8709   0.284   4.344  17.219  0.1227 -0.2144  0.0565
  587TMC3    C8 8710   0.136   4.384  16.760  0.6855 -0.0357  0.4527
  587TMC3    O1 8711   0.350   4.446  17.210 -0.0712 -0.0599 -0.1487
  587TMC3    O2 8712   0.238   4.422  16.700  0.3186 -0.1276 -0.2264
  588TMC3    C1 8713   2.513   2.502   9.586 -0.7321  0.7081 -0.0483
  588TMC3    C2 8714   2.467   2.380   9.621 -0.2800  0.4910  0.5472
  588TMC3    C3 8715   2.536   2.298   9.709  0.7503 -0.2050  0.8335
  588TMC3    C4 8716   2.638   2.539   9.629  0.9172  0.3018  0.1841
  588TMC3    C5 8717   2.708   2.449   9.708  0.1335  0.7529 -0.9104
  588TMC3    C6 8718   2.657   2.332   9.751  0.5856  0.2066  0.4982
  588TMC3     C 8719   2.409   2.602   9.560 -0.1517  0.3907  0.1178
  588TMC3     O 8720   2.294   2.564   9.558  0.1185 -0.1555 -0.1921
  588TMC3     H 8721   2.359   2.366   9.615  0.0196 -2.1661  0.9812
  588TMC3    H1 8722   2.688   2.627   9.589 -1.3045  1.6349  0.3144
  588TMC3    H2 8723   2.720   2.268   9.813  1.1747 -0.4909 -0.8233
  588TMC3    C7 8724   2.813   2.515   9.780 -0.1121  0.6472  0.2599
  588TMC3    C8 8725   2.452   2.189   9.766 -0.0389  0.3539  0.1305
  588TMC3    O1 8726   2.915   2.455   9.801  0.1163  0.6686 -0.5023
  588TMC3    O2 8727   2.344   2.167   9.716 -0.0567 -0.0975 -0.1607
  589TMC3    C1 8728   1.585   3.827   1.815 -0.7659  0.3616 -0.3146
  589TMC3    C2 8729   1.701   3.861   1.880  0.1672  0.2950 -0.9154
  589TMC3    C3 8730   1.807   3.774   1.856 -0.0168  0.5937 -0.2463
  589TMC3    C4 8731   1.564   3.724   1.729  0.1851  0.0062 -0.3085
  589TMC3    C5 8732   1.666   3.637   1.720 -0.1187 -0.1689  0.1887
  589TMC3    C6 8733   1.795   3.663   1.773 -0.5010 -0.5731  0.5088
  589TMC3     C 8734   1.471   3.913   1.823  0.2413  0.6325 -0.8310
  589TMC3     O 8735   1.399   3.918   1.727  0.3469  0.3029 -0.1869
  589TMC3     H 8736   1.707   3.943   1.950  1.0467 -1.2257  0.8027
  589TMC3    H1 8737   1.465   3.696   1.695 -0.4685  0.7702  0.9495
  589TMC3    H2 8738   1.862   3.579   1.783  1.0946  0.8616  1.8281
  589TMC3    C7 8739   1.656   3.516   1.637 -0.0198  0.0188 -0.4401
  589TMC3    C8 8740   1.935   3.793   1.926 -0.5340  0.0571 -0.0870
  589TMC3    O1 8741   1.744   3.433   1.644  0.0027  0.2557  0.1844
  589TMC3    O2 8742   1.940   3.888   2.000 -0.6131 -0.7590 -0.3248
  590MPD2     C 8743   1.127   2.223  17.024  0.3433 -0.5457 -0.3598
  590MPD2    C1 8744   1.083   2.296  16.919 -0.2272  0.2182 -1.3053
  590MPD2    C2 8745   1.172   2.339  16.824  0.6885  0.7297 -0.6129
  590MPD2    C3 8746   1.308   2.313  16.839  0.3374 -0.0969 -0.1578
  590MPD2    C4 8747   1.349   2.223  16.936  0.3232  0.5469 -0.2262
  590MPD2    C5 8748   1.257   2.187  17.033 -0.0662  0.2309  0.4761
  590MPD2     H 8749   1.139   2.401  16.741 -3.5905 -0.0966  0.4792
  590MPD2    H1 8750   1.452   2.193  16.950  1.0982  2.6232 -1.5468
  590MPD2    H2 8751   1.059   2.182  17.098  2.1828 -1.2642  0.9276
  590MPD2    H3 8752   1.287   2.116  17.110 -1.3692 -1.3226 -0.4470
  590MPD2     N 8753   1.396   2.378  16.748 -0.2865  0.6243  0.4313
  590MPD2    H5 8754   1.352   2.446  16.686  0.5000  2.5208  1.9633
  590MPD2    N1 8755   0.945   2.323  16.898  0.8725  0.2562 -0.0732
  590MPD2    H7 8756   0.919   2.360  16.807 -1.5038 -1.6319 -0.1423
  591TMC3    C1 8757   1.592   2.444  16.630 -1.0095  0.5729 -0.7049
  591TMC3    C2 8758   1.660   2.396  16.524  0.4152  0.4767  0.3491
  591TMC3    C3 8759   1.673   2.476  16.411  1.1109 -0.1377  0.6132
  591TMC3    C4 8760   1.548   2.569  16.644 -0.6902  0.1643  0.0748
  591TMC3    C5 8761   1.583   2.648  16.538  0.0646  0.0289  1.1552
  591TMC3    C6 8762   1.646   2.611  16.420  0.5480 -0.0639 -0.7012
  591TMC3     C 8763   1.528   2.346  16.717  0.0367  0.8700 -0.1411
  591TMC3     O 8764   1.591   2.249  16.755  0.1099 -0.2461  0.4507
  591TMC3     H 8765   1.668   2.290  16.502 -1.9087 -0.1285  2.4619
  591TMC3    H1 8766   1.498   2.599  16.736 -1.7445  0.2953 -0.5407
  591TMC3    H2 8767   1.653   2.674  16.332  2.7832  0.9426  0.1989
  591TMC3    C7 8768   1.532   2.783  16.554 -0.4904 -0.5487 -0.1041
  591TMC3    C8 8769   1.634   2.407  16.300  0.0564  0.0133  0.0210
  591TMC3    O1 8770   1.453   2.805  16.649  0.0003 -0.4019 -0.1080
  591TMC3    O2 8771   1.687   2.298  16.288 -0.1080  0.1090 -0.5577
  592MPD2     C 8772   1.853   0.435  11.582 -0.9815 -0.1968  0.4078
  592MPD2    C1 8773   1.883   0.449  11.721 -0.0690 -0.0233  0.4574
  592MPD2    C2 8774   1.855   0.342  11.808  0.4170 -0.2133 -0.1305
  592MPD2    C3 8775   1.806   0.222  11.757  0.7696  0.3612  0.1847
  592MPD2    C4 8776   1.773   0.227  11.625 -0.6059  0.5490  0.5460
  592MPD2    C5 8777   1.803   0.321  11.536 -0.1987 -0.0424 -0.1580
  592MPD2     H 8778   1.869   0.347  11.915  1.7566 -3.8028 -0.1440
  592MPD2    H1 8779   1.731   0.139  11.578  1.7974 -0.4890  0.3272
  592MPD2    H2 8780   1.885   0.511  11.511 -0.6396 -1.3117 -0.6360
  592MPD2    H3 8781   1.767   0.311  11.434 -2.1289 -1.6395  0.6764
  592MPD2     N 8782   1.782   0.104  11.838  0.4941 -0.1332 -0.0759
  592MPD2    H5 8783   1.796   0.117  11.938 -0.1569  0.1020 -0.0198
  592MPD2    N1 8784   1.946   0.570  11.761 -0.2365  0.6421 -0.0150
  592MPD2    H7 8785   1.950   0.638  11.686 -1.7868 -0.0414 -0.7193
  593TMC3    C1 8786   2.033   0.737  11.904 -0.1455 -0.4709 -1.0613
  593TMC3    C2 8787   2.119   0.755  12.013  0.2865  0.0310 -0.5658
  593TMC3    C3 8788   2.198   0.870  12.018  0.5154 -0.8162  0.3829
  593TMC3    C4 8789   2.006   0.832  11.806  0.0433  0.4844 -0.0169
  593TMC3    C5 8790   2.088   0.941  11.820  0.1852  0.2804  0.0612
  593TMC3    C6 8791   2.176   0.968  11.926 -0.1872 -0.0712 -0.0344
  593TMC3     C 8792   1.980   0.603  11.894 -0.0636 -0.0499 -0.2288
  593TMC3     O 8793   2.004   0.529  11.989 -0.0561 -0.2084 -0.2581
  593TMC3     H 8794   2.117   0.685  12.095  1.5340  2.1127  1.2557
  593TMC3    H1 8795   1.933   0.819  11.726 -0.7367  0.0754  0.7745
  593TMC3    H2 8796   2.236   1.058  11.928  1.9847 -1.5086 -0.1886
  593TMC3    C7 8797   2.119   1.015  11.704  0.4259 -0.7900 -0.1060
  593TMC3    C8 8798   2.281   0.901  12.133 -0.1043 -0.0579  0.1874
  593TMC3    O1 8799   2.236   1.035  11.675  0.0736 -0.0992  0.4050
  593TMC3    O2 8800   2.307   1.020  12.155 -0.4194  1.0657  0.4605
  594MPD2     C 8801   0.238   2.986  14.214 -0.6781 -0.0480  0.6908
  594MPD2    C1 8802   0.211   3.049  14.336 -0.3669 -0.2651  0.0663
  594MPD2    C2 8803   0.287   3.158  14.379  1.0224  0.2184 -0.8272
  594MPD2    C3 8804   0.391   3.201  14.302 -0.6281 -0.4271 -0.1909
  594MPD2    C4 8805   0.411   3.142  14.179 -0.1263 -0.0245  0.6686
  594MPD2    C5 8806   0.345   3.028  14.141  0.0486 -0.6866 -0.6654
  594MPD2     H 8807   0.266   3.211  14.471  3.4384 -0.3347  0.0471
  594MPD2    H1 8808   0.488   3.176  14.111  1.0419 -1.8288  1.1009
  594MPD2    H2 8809   0.191   2.892  14.189 -0.8731  0.2894 -0.2270
  594MPD2    H3 8810   0.369   2.981  14.047  1.9337 -1.9515  0.4532
  594MPD2     N 8811   0.461   3.317  14.347  0.0878  0.1402 -0.0372
  594MPD2    H5 8812   0.410   3.372  14.415 -0.7202  0.6346 -1.0325
  594MPD2    N1 8813   0.107   2.987  14.413 -0.4686  0.2371  0.3006
  594MPD2    H7 8814   0.040   2.930  14.362  0.8522 -1.3109  0.3045
  595TMC3    C1 8815   0.778   3.657  14.362 -0.7099 -0.3776  0.3163
  595TMC3    C2 8816   0.735   3.534  14.318  0.5170 -0.4163  0.1054
  595TMC3    C3 8817   0.601   3.509  14.333  0.2573 -0.7099 -0.0268
  595TMC3    C4 8818   0.694   3.739  14.424  0.8881 -0.1631  0.2775
  595TMC3    C5 8819   0.559   3.705  14.440  0.6158 -0.2700  0.6774
  595TMC3    C6 8820   0.504   3.590  14.389 -0.7695 -0.0866  0.9390
  595TMC3     C 8821   0.912   3.654  14.425  0.0793 -0.7623  0.4841
  595TMC3     O 8822   0.915   3.695  14.540 -0.1653 -0.1846  0.4638
  595TMC3     H 8823   0.808   3.466  14.276  1.7981 -0.7646  2.8411
  595TMC3    H1 8824   0.734   3.827  14.472 -0.0426  0.0541  0.6634
  595TMC3    H2 8825   0.399   3.564  14.404 -0.5218 -1.4949  0.2581
  595TMC3    C7 8826   0.496   3.749  14.562  0.4439 -0.3206  0.6952
  595TMC3    C8 8827   0.560   3.379  14.280  0.1290  0.2308 -0.5578
  595TMC3    O1 8828   0.376   3.755  14.566 -0.3085 -0.3908  0.2972
  595TMC3    O2 8829   0.620   3.338  14.180 -0.1745 -0.2561 -0.1295
  596MPD2     C 8830   4.342   1.426  16.554  0.2249 -0.4456 -0.4459
  596MPD2    C1 8831   4.320   1.556  16.505 -0.0238 -0.2848  0.0287
  596MPD2    C2 8832   4.351   1.590  16.376 -0.0339  0.5812 -0.1398
  596MPD2    C3 8833   4.398   1.501  16.286 -0.4245 -0.2797  0.6700
  596MPD2    C4 8834   4.420   1.374  16.330  0.0695  0.0670  0.8154
  596MPD2    C5 8835   4.394   1.345  16.460 -0.6702 -0.8315 -0.3733
  596MPD2     H 8836   4.333   1.690  16.340 -0.8385  0.2811 -0.5809
  596MPD2    H1 8837   4.449   1.287  16.272 -1.7764  0.5401 -0.8072
  596MPD2    H2 8838   4.320   1.395  16.655  3.2069  0.2395  0.4152
  596MPD2    H3 8839   4.419   1.243  16.487 -0.6237 -0.1098  2.3152
  596MPD2     N 8840   4.416   1.545  16.155  0.6839  0.3180  0.0089
  596MPD2    H5 8841   4.399   1.642  16.131 -1.2330  0.6709  2.8878
  596MPD2    N1 8842   4.266   1.664  16.584 -0.6032  0.0620  0.2811
  596MPD2    H7 8843   4.268   1.757  16.544  0.1078  0.1556  0.5264
  597TMC3    C1 8844   4.216   1.782  16.775  0.1905 -0.3114 -0.2648
  597TMC3    C2 8845   4.193   1.895  16.695  0.0317  0.2134  0.8645
  597TMC3    C3 8846   4.171   2.008  16.754  0.1432 -0.4241  0.3675
  597TMC3    C4 8847   4.208   1.790  16.915 -0.4983 -0.2816 -0.7891
  597TMC3    C5 8848   4.189   1.914  16.971 -0.3481 -0.7041  1.2429
  597TMC3    C6 8849   4.174   2.023  16.889  0.0027  0.1896 -0.4888
  597TMC3     C 8850   4.224   1.656  16.715  0.3676 -0.0786 -0.1724
  597TMC3     O 8851   4.210   1.557  16.777  0.1314  0.5622  0.0011
  597TMC3     H 8852   4.183   1.885  16.587  2.1142  1.8884  0.5232
  597TMC3    H1 8853   4.233   1.708  16.980  0.4534  0.6062 -0.0412
  597TMC3    H2 8854   4.154   2.123  16.925  1.0431  0.3989 -0.5022
  597TMC3    C7 8855   4.171   1.914  17.117 -0.0465  0.3160  0.0378
  597TMC3    C8 8856   4.168   2.133  16.682  0.2964 -0.0318 -0.1705
  597TMC3    O1 8857   4.147   1.811  17.178  0.2401 -0.4058 -0.5388
  597TMC3    O2 8858   4.077   2.206  16.715  0.0505 -0.8483  0.0919
  598TMC3    C1 8859   2.639   3.369  15.463 -0.5289 -0.7531 -0.7273
  598TMC3    C2 8860   2.555   3.274  15.516  0.2623 -0.1432  0.0600
  598TMC3    C3 8861   2.450   3.247  15.443  0.1858  0.1014 -0.1618
  598TMC3    C4 8862   2.624   3.429  15.344 -0.1587 -0.6651 -0.4398
  598TMC3    C5 8863   2.518   3.383  15.271  0.0669  0.4493  0.4008
  598TMC3    C6 8864   2.428   3.292  15.316 -0.6844  0.2078 -0.0247
  598TMC3     C 8865   2.758   3.408  15.536  0.5169 -0.4381 -0.7099
  598TMC3     O 8866   2.856   3.448  15.473 -0.1742 -0.1559 -0.0581
  598TMC3     H 8867   2.584   3.218  15.605  2.5665  0.6914 -0.1680
  598TMC3    H1 8868   2.693   3.505  15.308  2.1308 -2.5549 -0.0036
  598TMC3    H2 8869   2.333   3.278  15.266 -1.3551  3.3904  0.2983
  598TMC3    C7 8870   2.485   3.439  15.135 -0.1547  0.1813  0.0842
  598TMC3    C8 8871   2.370   3.131  15.473  0.0148 -0.3290  0.1681
  598TMC3    O1 8872   2.382   3.404  15.077  0.2754 -0.0794 -0.1538
  598TMC3    O2 8873   2.323   3.072  15.377 -0.6765 -0.0203  0.0524
  599MPD2     C 8874   2.783   0.703  15.993  0.5494  0.8338  0.0520
  599MPD2    C1 8875   2.738   0.575  15.958 -0.4018  0.3160  0.7440
  599MPD2    C2 8876   2.605   0.536  15.980 -0.2932 -0.0286  0.3661
  599MPD2    C3 8877   2.526   0.638  16.039 -0.1816 -0.0618 -0.0622
  599MPD2    C4 8878   2.576   0.762  16.078  0.5179  0.0704 -0.1743
  599MPD2    C5 8879   2.701   0.795  16.049  0.4970 -0.7806  0.5981
  599MPD2     H 8880   2.572   0.435  15.959  0.9526  0.1913 -2.6895
  599MPD2    H1 8881   2.521   0.838  16.132  1.9594 -1.3511  3.2655
  599MPD2    H2 8882   2.884   0.739  15.981  0.4255  0.9290 -0.7303
  599MPD2    H3 8883   2.738   0.890  16.084 -2.1456 -0.1882  1.7342
  599MPD2     N 8884   2.397   0.625  16.085  0.1052  0.1823  0.5704
  599MPD2    H5 8885   2.355   0.710  16.121 -1.6479  0.0057 -1.0599
  599MPD2    N1 8886   2.835   0.488  15.913  0.1693 -0.2460 -0.1058
  599MPD2    H7 8887   2.926   0.530  15.900 -0.5061  1.2388 -0.0842
  600TMC3    C1 8888   2.180   0.518  16.101  0.8641  0.7361  0.5552
  600TMC3    C2 8889   2.097   0.413  16.057  0.0712  0.0700 -0.5435
  600TMC3    C3 8890   1.981   0.391  16.122 -0.5478 -0.0586 -0.0834
  600TMC3    C4 8891   2.149   0.600  16.204  1.3120 -0.4172  0.2664
  600TMC3    C5 8892   2.035   0.568  16.272  0.1219  0.0575 -0.2742
  600TMC3    C6 8893   1.952   0.465  16.233  0.4050  0.5498 -0.2336
  600TMC3     C 8894   2.311   0.532  16.031 -0.5140  0.1861 -0.2004
  600TMC3     O 8895   2.340   0.451  15.946 -0.0848  0.2999 -1.0076
  600TMC3     H 8896   2.127   0.356  15.970 -1.9642 -0.1347 -1.1256
  600TMC3    H1 8897   2.226   0.668  16.238  1.4990 -0.8893  0.7873
  600TMC3    H2 8898   1.855   0.452  16.280  1.7150 -2.1399  1.7240
  600TMC3    C7 8899   1.974   0.661  16.367  0.2045 -0.3241  0.3245
  600TMC3    C8 8900   1.934   0.258  16.118 -0.3261  0.5898  0.0319
  600TMC3    O1 8901   1.860   0.641  16.411 -0.3754 -0.1663  0.0605
  600TMC3    O2 8902   2.003   0.180  16.048  0.6249  0.7448 -0.6582
  601MPD2     C 8903   4.565   3.343   0.198 -0.3450 -0.0987 -0.0582
  601MPD2    C1 8904   4.429   3.332   0.186 -0.0150 -0.2970 -0.4307
  601MPD2    C2 8905   4.371   3.218   0.122 -0.2282  0.2535  0.3948
  601MPD2    C3 8906   4.447   3.118   0.069 -0.4856 -0.5626 -0.0717
  601MPD2    C4 8907   4.584   3.133   0.080  0.5576  0.2974  0.9133
  601MPD2    C5 8908   4.640   3.244   0.136  0.1648 -0.4548 -0.8126
  601MPD2     H 8909   4.262   3.213   0.120 -0.2076  0.1058 -0.4287
  601MPD2    H1 8910   4.648   3.056   0.037 -1.0678 -0.2337 -0.5439
  601MPD2    H2 8911   4.617   3.429   0.237 -1.4362  0.1477  0.8210
  601MPD2    H3 8912   0.025   3.252   0.132  0.1402  0.3007  0.2934
  601MPD2     N 8913   4.385   3.015  17.693 -0.3778 -0.1926 -0.1513
  601MPD2    H5 8914   4.441   2.951  17.637  2.3092  2.9308 -1.0650
  601MPD2    N1 8915   4.337   3.431   0.229 -0.1414  0.2436 -0.3723
  601MPD2    H7 8916   4.239   3.413   0.211  0.3048 -0.2014 -2.3284
  602TMC3    C1 8917   4.261   3.636   0.309  1.0783 -0.2940 -0.5478
  602TMC3    C2 8918   4.299   3.769   0.320  0.6709  0.1442  0.5137
  602TMC3    C3 8919   4.196   3.861   0.318  0.1827 -0.1464  0.9823
  602TMC3    C4 8920   4.131   3.594   0.305 -0.4669  0.0128 -0.4604
  602TMC3    C5 8921   4.033   3.692   0.303  0.1740  0.4955 -0.2083
  602TMC3    C6 8922   4.069   3.822   0.309 -0.3558 -0.1214  0.3960
  602TMC3     C 8923   4.370   3.550   0.295 -0.6809 -0.1055 -0.0003
  602TMC3     O 8924   4.477   3.597   0.323  0.1516 -0.2396  0.7078
  602TMC3     H 8925   4.402   3.802   0.322  0.4682  0.6651  2.1216
  602TMC3    H1 8926   4.105   3.489   0.303 -3.1585  0.6912 -1.3301
  602TMC3    H2 8927   3.995   3.898   0.331  0.4949  0.9725 -0.5089
  602TMC3    C7 8928   3.913   3.659   0.224 -0.2125 -0.3215  0.1907
  602TMC3    C8 8929   4.238   3.994   0.287 -0.1148  0.2957 -0.5956
  602TMC3    O1 8930   3.862   3.551   0.238  0.5988  0.1528  0.1190
  602TMC3    O2 8931   4.356   4.020   0.272 -0.1252  0.3770  0.1804
  603TMC3    C1 8932   2.634   4.376  10.952  0.0624 -0.3308  0.1244
  603TMC3    C2 8933   2.665   4.332  11.076  0.5231 -0.5236 -0.4735
  603TMC3    C3 8934   2.679   4.429  11.174  0.1664 -0.5800 -0.9743
  603TMC3    C4 8935   2.613   4.510  10.931 -0.1784  0.3488 -0.5764
  603TMC3    C5 8936   2.631   4.606  11.027  0.5110 -0.1926 -0.2651
  603TMC3    C6 8937   2.670   4.569  11.157 -0.4849 -0.2425  0.0100
  603TMC3     C 8938   2.577   4.284  10.860 -0.1621  0.0942 -0.2806
  603TMC3     O 8939   2.587   4.167  10.891 -0.0798  0.0260 -0.2389
  603TMC3     H 8940   2.669   4.226  11.099 -2.3382 -0.0713  2.1435
  603TMC3    H1 8941   2.619   4.542  10.827 -1.4530 -0.9134 -1.0422
  603TMC3    H2 8942   2.667   4.633  11.244  0.5182 -1.2532  0.7961
  603TMC3    C7 8943   2.653   0.019  10.981 -0.2274  0.2530 -0.3808
  603TMC3    C8 8944   2.732   4.376  11.299 -0.9462 -0.1832  0.3195
  603TMC3    O1 8945   2.717   0.089  11.058 -0.1345 -0.0067 -0.2067
  603TMC3    O2 8946   2.733   4.253  11.311  0.6683 -0.0360  0.0986
  604MPD2     C 8947   3.443   2.824  16.593 -0.0343 -0.1628 -0.0324
  604MPD2    C1 8948   3.346   2.728  16.575 -0.8649 -0.6634  0.3794
  604MPD2    C2 8949   3.349   2.651  16.463 -0.4879  1.3165  0.2923
  604MPD2    C3 8950   3.436   2.671  16.357 -0.1239 -0.3694 -0.2707
  604MPD2    C4 8951   3.513   2.778  16.371  0.6501  0.6107 -0.3341
  604MPD2    C5 8952   3.524   2.841  16.485  0.3699 -0.6506  0.1436
  604MPD2     H 8953   3.286   2.563  16.470  0.3150  0.8199  1.1648
  604MPD2    H1 8954   3.587   2.811  16.299  0.4399  2.5806  0.3461
  604MPD2    H2 8955   3.456   2.884  16.682  2.2417 -0.7728  0.0482
  604MPD2    H3 8956   3.592   2.926  16.489 -0.6129  0.0488  2.5412
  604MPD2     N 8957   3.434   2.583  16.248 -0.3943  0.9918 -0.8708
  604MPD2    H5 8958   3.377   2.500  16.236  0.2338  0.5399 -0.7265
  604MPD2    N1 8959   3.250   2.729  16.679 -0.1242 -0.2839 -0.3391
  604MPD2    H7 8960   3.252   2.813  16.736  0.0426 -1.3675  1.2304
  605TMC3    C1 8961   3.045   2.721  16.795  0.2438  0.4518  0.6775
  605TMC3    C2 8962   3.118   2.810  16.871  0.5869 -0.5912 -0.0348
  605TMC3    C3 8963   3.070   2.938  16.890 -0.2278  0.0386  0.4527
  605TMC3    C4 8964   2.919   2.756  16.746  0.8650 -0.7229 -0.1609
  605TMC3    C5 8965   2.876   2.883  16.774 -0.2989 -0.1715 -0.4689
  605TMC3    C6 8966   2.953   2.980  16.833  0.0657  0.1494 -0.9897
  605TMC3     C 8967   3.134   2.660  16.695 -0.2737  0.2221 -0.0237
  605TMC3     O 8968   3.083   2.582  16.614  0.0330  0.3874 -0.5093
  605TMC3     H 8969   3.214   2.782  16.913  0.7522 -1.1311 -0.7649
  605TMC3    H1 8970   2.868   2.689  16.678 -1.6729  0.4244  0.6283
  605TMC3    H2 8971   2.925   3.082  16.858 -0.2365 -0.6596  1.9663
  605TMC3    C7 8972   2.729   2.915  16.769  0.2983 -0.3152  0.8484
  605TMC3    C8 8973   3.180   3.032  16.874 -0.3257 -0.2857 -0.3851
  605TMC3    O1 8974   2.695   3.024  16.810 -0.0042 -0.4306 -0.1348
  605TMC3    O2 8975   3.287   2.993  16.824  0.0922 -0.4010  0.3070
  606TMC3    C1 8976   4.680   0.398  17.224 -0.4171  0.1133 -0.0975
  606TMC3    C2 8977   0.082   0.356  17.228 -0.3101  0.3592  0.5975
  606TMC3    C3 8978   0.128   0.312  17.353  0.0524  0.4284 -0.3795
  606TMC3    C4 8979   4.585   0.368  17.320  0.0026 -0.9309 -0.3842
  606TMC3    C5 8980   4.634   0.307  17.431 -0.0469  0.0570  0.0557
  606TMC3    C6 8981   0.044   0.281  17.452  0.5290 -0.2029  0.1528
  606TMC3     C 8982   4.630   0.459  17.104  0.2561 -0.0607  0.3328
  606TMC3     O 8983   4.685   0.427  17.001 -0.1228  0.8021  0.7492
  606TMC3     H 8984   0.151   0.385  17.150  0.3308 -0.7838  0.7361
  606TMC3    H1 8985   4.478   0.378  17.311  0.1265  0.7415  0.0346
  606TMC3    H2 8986   0.081   0.251  17.550 -0.7146  1.8188  1.2343
  606TMC3    C7 8987   4.555   0.324  17.556  0.0711  0.0036 -0.1094
  606TMC3    C8 8988   0.266   0.326  17.379 -0.9068 -0.7840  1.1617
  606TMC3    O1 8989   4.605   0.274  17.656  0.1804  0.4704  0.1709
  606TMC3    O2 8990   0.334   0.413  17.325  0.1924  0.5260 -0.3283
  607MPD2     C 8991   1.682   4.235  11.650  0.2742 -0.1654  0.3866
  607MPD2    C1 8992   1.790   4.297  11.713 -0.4242 -0.1162 -0.2813
  607MPD2    C2 8993   1.822   4.270  11.846  0.8959 -0.0948 -0.2427
  607MPD2    C3 8994   1.756   4.165  11.914 -0.3383 -1.0432  0.2167
  607MPD2    C4 8995   1.651   4.098  11.845  0.7433  0.0315  0.1610
  607MPD2    C5 8996   1.614   4.135  11.716  0.1189  0.1419  0.1765
  607MPD2     H 8997   1.907   4.314  11.897  0.0129 -0.1290  1.2684
  607MPD2    H1 8998   1.604   4.012  11.891  1.5275 -1.7557 -2.4095
  607MPD2    H2 8999   1.654   4.265  11.550 -1.1604 -1.8512  0.2820
  607MPD2    H3 9000   1.528   4.100  11.660  0.8527 -0.9618 -0.2708
  607MPD2     N 9001   1.791   4.152  12.051 -0.5922 -0.0541 -0.0636
  607MPD2    H5 9002   1.852   4.223  12.089 -1.5766  1.5282 -1.4675
  607MPD2    N1 9003   1.879   4.390  11.650  0.4340  0.2362  0.2228
  607MPD2    H7 9004   1.957   4.424  11.706 -0.5625 -0.6045  2.1291
  608TMC3    C1 9005   1.992   4.503  11.495  0.4775 -0.0108  0.4889
  608TMC3    C2 9006   2.100   4.459  11.577 -0.2478 -0.4816  0.0342
  608TMC3    C3 9007   2.171   4.553  11.642 -0.1823 -0.6022  0.2819
  608TMC3    C4 9008   1.984   4.629  11.453  0.3733 -0.8212  0.1162
  608TMC3    C5 9009   2.076   4.718  11.505 -0.4473  0.1093  0.3038
  608TMC3    C6 9010   2.168   4.681  11.602  0.4194 -0.0278  1.3521
  608TMC3     C 9011   1.879   4.428  11.520 -0.4197  0.5880  0.5927
  608TMC3     O 9012   1.796   4.427  11.428  0.3475  0.2216 -0.1474
  608TMC3     H 9013   2.120   4.354  11.596 -2.4471 -1.0576 -0.9367
  608TMC3    H1 9014   1.917   4.658  11.372 -1.2048 -3.2638  0.5436
  608TMC3    H2 9015   2.252   0.023  11.623  1.5670 -0.6006 -1.3708
  608TMC3    C7 9016   2.098   0.124  11.435  0.7161 -0.1359  0.4054
  608TMC3    C8 9017   2.168   4.528  11.785  0.3570 -0.5773  0.1658
  608TMC3    O1 9018   2.087   0.118  11.312 -0.4958  0.2486  0.0929
  608TMC3    O2 9019   2.103   4.431  11.812  0.7618 -0.0773  1.0869
  609TMC3    C1 9020   0.626   3.766   9.336 -0.6378  0.4171 -0.2601
  609TMC3    C2 9021   0.706   3.874   9.374 -0.0724  0.4000 -0.2286
  609TMC3    C3 9022   0.820   3.895   9.303 -1.1034 -0.6181 -0.4173
  609TMC3    C4 9023   0.662   3.679   9.237 -0.2307  0.1896 -0.1198
  609TMC3    C5 9024   0.777   3.701   9.170  0.3800  0.0998  0.1798
  609TMC3    C6 9025   0.862   3.808   9.203 -0.5044  0.6873 -0.5407
  609TMC3     C 9026   0.501   3.734   9.402 -0.0123  0.4901 -0.5341
  609TMC3     O 9027   0.454   3.620   9.392 -0.1338 -0.8102 -0.7578
  609TMC3     H 9028   0.686   3.924   9.468 -0.1604  0.1962 -0.1395
  609TMC3    H1 9029   0.593   3.598   9.217 -0.7229  0.0247  2.2669
  609TMC3    H2 9030   0.959   3.832   9.162 -1.4383  2.3333 -1.7541
  609TMC3    C7 9031   0.848   3.595   9.102 -0.0380 -0.0821 -1.0117
  609TMC3    C8 9032   0.914   3.998   9.345  0.0009 -0.1651  0.4172
  609TMC3    O1 9033   0.965   3.623   9.095  0.0889  0.3173  0.0258
  609TMC3    O2 9034   1.000   4.028   9.267 -0.0451 -0.7771 -0.0327
  610TMC3    C1 9035   1.980   4.177  12.803  0.3783  0.3301  0.3021
  610TMC3    C2 9036   1.967   4.230  12.930  0.0050  0.1062  0.4296
  610TMC3    C3 9037   2.083   4.253  12.999  0.2983 -0.2696  0.7078
  610TMC3    C4 9038   2.103   4.130  12.754 -0.6869 -0.8218 -0.2972
  610TMC3    C5 9039   2.217   4.159  12.825 -0.2741 -0.3674 -0.5043
  610TMC3    C6 9040   2.204   4.226  12.946  0.2018 -0.5294 -0.0475
  610TMC3     C 9041   1.860   4.151  12.729 -0.6182  0.1563  0.3748
  610TMC3     O 9042   1.864   4.050  12.656 -0.2219  0.0323  0.5046
  610TMC3     H 9043   1.868   4.243  12.973  0.0276  0.7935  0.2760
  610TMC3    H1 9044   2.116   4.080  12.659 -1.3479 -1.2097 -0.1867
  610TMC3    H2 9045   2.302   4.243  12.990  0.5131 -1.8474 -0.2254
  610TMC3    C7 9046   2.332   4.076  12.810 -0.3269  0.1913  0.4298
  610TMC3    C8 9047   2.072   4.349  13.107 -0.1083  0.2127  0.1796
  610TMC3    O1 9048   2.441   4.113  12.852 -0.3824 -0.5218 -0.3006
  610TMC3    O2 9049   1.960   4.365  13.157 -0.7517 -0.8767  0.0319
  611MPD2     C 9050   1.565   4.670  10.484  0.5784 -0.0354 -0.3373
  611MPD2    C1 9051   1.685   4.623  10.446 -0.0588  0.3542 -0.6363
  611MPD2    C2 9052   1.778   4.716  10.408 -1.0665  0.6521  0.4182
  611MPD2    C3 9053   1.746   0.126  10.410 -0.9533 -0.5752 -0.8709
  611MPD2    C4 9054   1.630   0.174  10.457 -0.2419  0.1264 -0.4252
  611MPD2    C5 9055   1.537   0.082  10.502  0.6605 -0.2208  0.2681
  611MPD2     H 9056   1.858   4.682  10.344 -1.2146 -1.0543  1.1534
  611MPD2    H1 9057   1.612   0.280  10.468  2.0048  0.3844  0.9310
  611MPD2    H2 9058   1.493   4.599  10.523 -0.3256 -0.0088 -1.9500
  611MPD2    H3 9059   1.443   0.102  10.553  0.1415  1.9022 -1.5456
  611MPD2     N 9060   1.848   0.220  10.369  1.1936  0.0708  0.5536
  611MPD2    H5 9061   1.830   0.318  10.352  0.1050 -0.1114  0.6386
  611MPD2    N1 9062   1.702   4.486  10.421 -0.4688 -0.0418 -0.4505
  611MPD2    H7 9063   1.616   4.432  10.430 -0.0209 -0.8125 -0.8169
  612TMC3    C1 9064   2.050   0.310  10.325  0.2457  0.0879  0.4041
  612TMC3    C2 9065   2.151   0.343  10.410 -0.2967  0.4642  0.5054
  612TMC3    C3 9066   2.240   0.432  10.363 -0.2942 -0.7131  1.5443
  612TMC3    C4 9067   2.055   0.343  10.194  0.0212 -0.3688  0.2831
  612TMC3    C5 9068   2.159   0.425  10.150 -0.4277 -0.2551  0.4147
  612TMC3    C6 9069   2.252   0.469  10.235  0.5368  0.5095 -0.5414
  612TMC3     C 9070   1.983   0.193  10.366 -0.6336 -0.3389 -0.0551
  612TMC3     O 9071   2.046   0.094  10.405  0.4836 -0.0005  0.2496
  612TMC3     H 9072   2.140   0.310  10.512  3.9161  0.2755  0.9103
  612TMC3    H1 9073   1.969   0.323  10.131  0.5263 -3.5009  0.6008
  612TMC3    H2 9074   2.342   0.520  10.202 -0.2673  1.4793 -1.2814
  612TMC3    C7 9075   2.194   0.446  10.012 -0.0157  0.5451  0.4448
  612TMC3    C8 9076   2.364   0.447  10.446  0.1941  0.0697  0.5073
  612TMC3    O1 9077   2.279   0.531   9.980 -0.2735 -0.0148  0.0507
  612TMC3    O2 9078   2.437   0.544  10.419  0.0884 -0.0363  0.1447
  613MPD2     C 9079   0.548   2.227  15.877 -0.8451 -0.0992 -0.0161
  613MPD2    C1 9080   0.528   2.118  15.794  0.9054  0.7435  0.0102
  613MPD2    C2 9081   0.574   1.987  15.825 -1.2642 -0.3822 -0.0017
  613MPD2    C3 9082   0.647   1.969  15.941  0.7241 -0.1920  0.8054
  613MPD2    C4 9083   0.664   2.069  16.030  0.0883 -0.3041  0.2050
  613MPD2    C5 9084   0.610   2.189  16.000  0.1656 -0.2034 -0.9700
  613MPD2     H 9085   0.547   1.904  15.762 -0.7659  0.6616 -1.5995
  613MPD2    H1 9086   0.710   2.056  16.127 -0.1863  1.1032  0.5253
  613MPD2    H2 9087   0.509   2.324  15.850  0.1376  0.3000  0.0148
  613MPD2    H3 9088   0.620   2.271  16.071 -0.9785  0.3168 -1.4107
  613MPD2     N 9089   0.687   1.842  15.973 -0.1760  0.2294  0.1038
  613MPD2    H5 9090   0.669   1.767  15.908 -0.0088  1.0257 -0.8660
  613MPD2    N1 9091   0.453   2.121  15.680 -0.0142 -0.5679  0.4594
  613MPD2    H7 9092   0.423   2.028  15.650 -0.5540 -0.2003 -0.1389
  614TMC3    C1 9093   0.318   2.191  15.494  0.4792 -0.5522  0.8248
  614TMC3    C2 9094   0.264   2.070  15.523 -1.0556 -0.0647 -0.1397
  614TMC3    C3 9095   0.288   1.965  15.439 -0.1129 -0.2825  0.2033
  614TMC3    C4 9096   0.379   2.208  15.370 -0.0168  0.1482  0.9428
  614TMC3    C5 9097   0.405   2.100  15.291 -0.1901 -0.3010 -0.3129
  614TMC3    C6 9098   0.349   1.976  15.318  0.4834  0.1746  0.2828
  614TMC3     C 9099   0.416   2.229  15.602  0.0108  0.4003  0.2146
  614TMC3     O 9100   0.464   2.342  15.588 -0.3120  0.6375  0.0510
  614TMC3     H 9101   0.221   2.050  15.621 -3.4219  0.4346 -1.0729
  614TMC3    H1 9102   0.422   2.304  15.345  0.1722 -0.0885  0.3489
  614TMC3    H2 9103   0.373   1.893  15.253 -1.7302  1.7529 -2.5488
  614TMC3    C7 9104   0.450   2.124  15.151 -0.6274  0.6749 -0.2877
  614TMC3    C8 9105   0.306   1.834  15.504 -0.0915  0.0562 -0.3648
  614TMC3    O1 9106   0.443   2.236  15.097 -0.0108  0.1251 -0.1230
  614TMC3    O2 9107   0.323   1.839  15.626  0.5857 -0.7712  0.9972
  615MPD2     C 9108   0.230   2.848  16.071 -0.5685 -0.0283 -0.6336
  615MPD2    C1 9109   0.313   2.946  16.124  0.7319  0.0276 -0.3898
  615MPD2    C2 9110   0.295   3.082  16.094 -0.7444  0.2139  0.6964
  615MPD2    C3 9111   0.197   3.123  16.001 -0.5780 -0.3970  0.1199
  615MPD2    C4 9112   0.125   3.022  15.948 -0.2201  0.4264  0.1832
  615MPD2    C5 9113   0.128   2.893  15.998 -0.0638 -0.0517  0.8142
  615MPD2     H 9114   0.359   3.156  16.141 -0.6341 -0.1448  1.1193
  615MPD2    H1 9115   0.054   3.047  15.870 -0.4200  0.8042  0.4869
  615MPD2    H2 9116   0.233   2.743  16.097 -0.4433  0.1496  0.0647
  615MPD2    H3 9117   0.046   2.826  15.976  0.4447 -0.8579  1.3992
  615MPD2     N 9118   0.170   3.257  15.967 -0.3497 -0.0976 -0.1844
  615MPD2    H5 9119   0.101   3.278  15.896  0.5186  0.9649 -0.7111
  615MPD2    N1 9120   0.427   2.923  16.200 -0.2521  0.2479  0.5116
  615MPD2    H7 9121   0.479   3.007  16.224 -0.1133  0.8758 -1.9293
  616TMC3    C1 9122   0.600   2.822  16.295 -0.3483 -0.5920 -0.0368
  616TMC3    C2 9123   0.645   2.741  16.387 -0.4490  0.5545 -0.5316
  616TMC3    C3 9124   0.774   2.732  16.421  0.6315  0.0632  0.0587
  616TMC3    C4 9125   0.681   2.912  16.241 -0.3371  0.0822  0.0778
  616TMC3    C5 9126   0.816   2.899  16.268  0.5398  0.4262  0.1354
  616TMC3    C6 9127   0.868   2.808  16.355 -0.0737 -0.0803  0.1873
  616TMC3     C 9128   0.465   2.804  16.251 -0.8843 -0.6757  0.6143
  616TMC3     O 9129   0.415   2.696  16.267  0.1644 -0.8306  0.3247
  616TMC3     H 9130   0.577   2.678  16.444 -0.1913  0.6440 -0.1242
  616TMC3    H1 9131   0.643   2.982  16.168 -0.5340  0.9864  1.0570
  616TMC3    H2 9132   0.973   2.785  16.366 -0.1256  0.1325  1.1062
  616TMC3    C7 9133   0.900   3.013  16.252  0.1992 -0.6276  0.1087
  616TMC3    C8 9134   0.815   2.685  16.550  0.0564 -0.4843  0.3257
  616TMC3    O1 9135   1.020   2.993  16.236 -0.3079 -0.2455  0.1050
  616TMC3    O2 9136   0.769   2.582  16.595 -0.6550 -0.2009  0.2239
  617MPD2     C 9137   2.940   1.221  13.768 -0.4433  0.5943 -0.1821
  617MPD2    C1 9138   2.959   1.086  13.732 -0.5437 -0.2332  0.2578
  617MPD2    C2 9139   2.855   0.995  13.743  0.2905 -0.8895 -0.7930
  617MPD2    C3 9140   2.737   1.046  13.793 -0.1281 -1.2815  0.0273
  617MPD2    C4 9141   2.727   1.178  13.835 -0.5600 -0.8113  0.6605
  617MPD2    C5 9142   2.827   1.268  13.825  0.1084  0.7948 -0.1120
  617MPD2     H 9143   2.865   0.891  13.717 -1.8990 -1.4244  0.4561
  617MPD2    H1 9144   2.631   1.215  13.867 -0.8683 -2.1436  1.2778
  617MPD2    H2 9145   3.023   1.290  13.755 -0.1125 -0.2226 -2.3771
  617MPD2    H3 9146   2.817   1.370  13.859  1.5888  0.9460 -0.1155
  617MPD2     N 9147   2.631   0.964  13.824 -0.0570  0.0750  0.1083
  617MPD2    H5 9148   2.552   1.003  13.875 -0.1705  0.7270 -0.5634
  617MPD2    N1 9149   3.090   1.055  13.690  0.3368 -0.4427 -0.3100
  617MPD2    H7 9150   3.161   1.126  13.672  0.4104 -0.6452 -0.8150
  618TMC3    C1 9151   3.279   0.945  13.625 -0.3205  0.2101  0.3581
  618TMC3    C2 9152   3.328   0.848  13.540 -0.0262  0.3451 -0.1263
  618TMC3    C3 9153   3.461   0.846  13.523 -0.5614  1.3506  0.8432
  618TMC3    C4 9154   3.361   1.033  13.691 -0.2494  0.0867 -0.6019
  618TMC3    C5 9155   3.494   1.027  13.661  0.2304 -0.1191 -0.3546
  618TMC3    C6 9156   3.549   0.934  13.581 -0.0918  0.2873 -0.2978
  618TMC3     C 9157   3.138   0.933  13.660 -0.0471  0.3931 -0.3968
  618TMC3     O 9158   3.073   0.834  13.653 -0.1226  0.1806  0.1255
  618TMC3     H 9159   3.268   0.773  13.489 -0.9067  0.9106  0.0881
  618TMC3    H1 9160   3.325   1.089  13.777 -1.2053 -1.3816 -0.0535
  618TMC3    H2 9161   3.657   0.937  13.570 -0.1737  1.1816 -0.9168
  618TMC3    C7 9162   3.579   1.128  13.725  0.3411 -0.5493 -0.2218
  618TMC3    C8 9163   3.511   0.801  13.394  0.5024  0.0753  0.0965
  618TMC3    O1 9164   3.545   1.159  13.843  0.2912 -0.2185 -0.5078
  618TMC3    O2 9165   3.426   0.761  13.316 -0.1970 -0.3067  0.0768
  619MPD2     C 9166   4.708   2.121  13.615  0.3201 -0.1712  0.2725
  619MPD2    C1 9167   4.644   2.238  13.579  0.0423  0.3721  0.3676
  619MPD2    C2 9168   4.522   2.229  13.518  0.0508  0.1410  0.4241
  619MPD2    C3 9169   4.457   2.116  13.513  0.0356  0.1153 -0.0856
  619MPD2    C4 9170   4.514   1.999  13.556 -0.3446 -0.3321  0.1244
  619MPD2    C5 9171   4.642   2.001  13.601 -0.5054 -0.5499  0.0258
  619MPD2     H 9172   4.482   2.326  13.488 -2.3138 -0.1896  2.5662
  619MPD2    H1 9173   4.462   1.906  13.539 -1.4426  0.6506 -1.8524
  619MPD2    H2 9174   0.085   2.114  13.657 -0.3213  0.3568  1.9067
  619MPD2    H3 9175   4.683   1.910  13.642 -0.1989 -0.8766 -1.0160
  619MPD2     N 9176   4.321   2.107  13.470  0.2488 -0.1014 -0.6038
  619MPD2    H5 9177   4.263   2.025  13.482  0.2694  0.2804  1.9757
  619MPD2    N1 9178   4.688   2.371  13.612 -0.3340  0.2294  0.3323
  619MPD2    H7 9179   4.630   2.448  13.579 -0.3378 -0.4417 -1.2141
  620TMC3    C1 9180   0.090   2.554  13.651  0.2762  0.4882  0.5642
  620TMC3    C2 9181   0.032   2.611  13.538 -0.3361  0.5340 -0.1272
  620TMC3    C3 9182   0.000   2.745  13.548 -0.7951 -0.2715  0.3096
  620TMC3    C4 9183   0.112   2.611  13.770 -0.2379  0.3698 -0.1694
  620TMC3    C5 9184   0.087   2.745  13.766  0.5650  0.2000  0.2992
  620TMC3    C6 9185   0.039   2.814  13.656  0.5884 -0.8590  0.2392
  620TMC3     C 9186   0.085   2.411  13.657 -0.5438  0.4552 -0.7041
  620TMC3     O 9187   0.161   2.355  13.735  0.2750 -0.6825  0.7571
  620TMC3     H 9188   0.000   2.544  13.459 -0.3364 -1.2363  1.3821
  620TMC3    H1 9189   0.136   2.555  13.860 -1.1335 -2.3743 -1.6352
  620TMC3    H2 9190   0.018   2.920  13.657  3.7290 -0.2250  0.0677
  620TMC3    C7 9191   0.058   2.817  13.891 -0.9393  0.6443 -0.2442
  620TMC3    C8 9192   4.600   2.790  13.484  0.5038 -1.4891 -0.4309
  620TMC3    O1 9193   4.699   2.771  13.973  1.3614 -0.2668 -0.0983
  620TMC3    O2 9194   4.539   2.879  13.543  0.1548  0.1795 -0.0175
  621MPD2     C 9195   0.395   2.423   9.949 -0.6464  0.5222 -0.5708
  621MPD2    C1 9196   0.351   2.547   9.909  0.0421 -0.6497 -0.3835
  621MPD2    C2 9197   0.430   2.653   9.939  0.0931  1.0312  1.0791
  621MPD2    C3 9198   0.554   2.643   9.998  0.3958 -0.0036 -0.4383
  621MPD2    C4 9199   0.595   2.515  10.024  0.0528  0.7201 -0.6153
  621MPD2    C5 9200   0.522   2.403  10.006 -0.1227  0.4189  0.0813
  621MPD2     H 9201   0.399   2.751   9.903 -3.8471 -0.4305  0.5238
  621MPD2    H1 9202   0.679   2.499  10.090  0.6803 -1.9936 -2.0591
  621MPD2    H2 9203   0.339   2.332   9.933  2.4278 -1.3805 -0.5462
  621MPD2    H3 9204   0.551   2.311  10.055  2.3644  1.2387  0.1638
  621MPD2     N 9205   0.615   2.760  10.043  0.0237  0.5849  0.4829
  621MPD2    H5 9206   0.572   2.850  10.023 -1.4561  0.1790  1.8129
  621MPD2    N1 9207   0.219   2.565   9.850  0.2396 -0.1594 -0.5637
  621MPD2    H7 9208   0.192   2.656   9.813 -2.4867 -0.6415  0.2464
  622TMC3    C1 9209   4.712   2.492   9.812  0.3317  0.0916 -0.4980
  622TMC3    C2 9210   4.616   2.405   9.853  0.7182  0.5984 -0.1566
  622TMC3    C3 9211   4.493   2.420   9.795  0.2831 -0.4669  0.4946
  622TMC3    C4 9212   4.697   2.583   9.708 -0.2640  0.3110  0.1551
  622TMC3    C5 9213   4.565   2.597   9.656  0.3755  0.1549 -0.1562
  622TMC3    C6 9214   4.467   2.512   9.698 -0.6040  0.3413  0.3548
  622TMC3     C 9215   0.118   2.469   9.871  0.5920 -0.6454 -0.5820
  622TMC3     O 9216   0.123   2.370   9.940 -0.0367 -0.1527 -0.0464
  622TMC3     H 9217   4.629   2.325   9.925 -0.9795  0.2125 -0.2736
  622TMC3    H1 9218   0.057   2.642   9.672 -0.5798 -0.2032 -1.4048
  622TMC3    H2 9219   4.374   2.493   9.646  0.0841  0.8359 -1.0844
  622TMC3    C7 9220   4.541   2.672   9.529 -0.2103  0.0354  0.3137
  622TMC3    C8 9221   4.389   2.337   9.844  0.0967 -0.8069 -0.0030
  622TMC3    O1 9222   4.638   2.717   9.476  0.7665  0.5384  0.2198
  622TMC3    O2 9223   4.309   2.295   9.762  0.0108 -0.5586  0.2973
  623MPD2     C 9224   3.446   3.038  16.066 -0.7142  0.5438  0.1659
  623MPD2    C1 9225   3.417   3.054  16.200 -0.5046  0.2233  0.0948
  623MPD2    C2 9226   3.504   3.127  16.280  0.1536  0.1030  0.0702
  623MPD2    C3 9227   3.617   3.181  16.224 -0.5642 -0.7580 -0.7334
  623MPD2    C4 9228   3.647   3.168  16.090  0.1334 -0.6935  0.4630
  623MPD2    C5 9229   3.567   3.092  16.008 -0.0603 -0.1747  0.5818
  623MPD2     H 9230   3.480   3.137  16.385  2.4199  0.1198  0.5742
  623MPD2    H1 9231   3.741   3.203  16.050 -0.6023  1.2945  0.4649
  623MPD2    H2 9232   3.381   2.983  16.000  1.8743 -0.6166 -1.4442
  623MPD2    H3 9233   3.594   3.082  15.903 -1.3388 -2.4373  0.4902
  623MPD2     N 9234   3.693   3.260  16.316  0.4581 -0.2405  0.0756
  623MPD2    H5 9235   3.657   3.263  16.410 -0.7436  1.2386 -0.4212
  623MPD2    N1 9236   3.297   3.021  16.261  0.9581 -0.4150  0.4856
  623MPD2    H7 9237   3.288   3.058  16.356 -0.9314  0.0292  0.1301
  624TMC3    C1 9238   3.959   3.302  16.599  0.4393 -0.3626 -0.3806
  624TMC3    C2 9239   3.854   3.312  16.680 -0.0539  0.0819  0.3765
  624TMC3    C3 9240   3.738   3.369  16.632  0.2507 -0.3212  0.5372
  624TMC3    C4 9241   3.956   3.349  16.473 -0.1809 -1.0924  0.7087
  624TMC3    C5 9242   3.835   3.392  16.422 -0.1249  0.2556 -0.9166
  624TMC3    C6 9243   3.727   3.401  16.504 -1.1213  0.2550 -0.3832
  624TMC3     C 9244   4.081   3.258  16.659  0.5740  0.0282  0.4078
  624TMC3     O 9245   4.069   3.169  16.749  0.3752 -0.5633  0.2136
  624TMC3     H 9246   3.858   3.270  16.780  2.4066  0.6350  0.5202
  624TMC3    H1 9247   4.037   3.342  16.401  0.2965  2.8079  0.8816
  624TMC3    H2 9248   3.631   3.439  16.470 -1.2426  0.5973  0.3334
  624TMC3    C7 9249   3.797   3.341  16.290  1.1277 -0.2326  0.4607
  624TMC3    C8 9250   3.616   3.327  16.679 -0.7329 -0.4323 -0.4154
  624TMC3    O1 9251   3.858   3.378  16.186  0.5624  0.3934 -0.0193
  624TMC3    O2 9252   3.566   3.235  16.619  0.3587 -0.1401 -0.6678
  625MPD2     C 9253   3.299   4.132   0.433  0.3502 -0.0083  0.5690
  625MPD2    C1 9254   3.360   4.200   0.533  0.1693  0.8231  0.6872
  625MPD2    C2 9255   3.403   4.123   0.638  0.0569 -0.2491  0.2236
  625MPD2    C3 9256   3.384   3.982   0.639  0.3162  0.4672  0.1594
  625MPD2    C4 9257   3.321   3.920   0.534 -0.3323 -0.4772 -0.7070
  625MPD2    C5 9258   3.280   3.996   0.430  0.5382 -0.0125  0.2423
  625MPD2     H 9259   3.456   4.173   0.718 -0.0653 -0.8308  0.6701
  625MPD2    H1 9260   3.305   3.813   0.533  2.8855 -0.9640 -0.6458
  625MPD2    H2 9261   3.264   4.190   0.348  2.8726  3.2233  1.7163
  625MPD2    H3 9262   3.239   3.942   0.345  0.0148  0.3277  0.2835
  625MPD2     N 9263   3.435   3.918   0.753  0.3451  0.9219 -0.0903
  625MPD2    H5 9264   3.468   3.977   0.829 -0.7993  1.0044  0.3402
  625MPD2    N1 9265   3.393   4.338   0.534 -0.2891 -0.5271 -0.3686
  625MPD2    H7 9266   3.446   4.381   0.610  0.1900 -2.5118  0.4149
  626TMC3    C1 9267   3.422   4.564   0.456  0.5659 -0.1065  0.2819
  626TMC3    C2 9268   3.407   4.653   0.348 -0.0057  0.5691 -0.3700
  626TMC3    C3 9269   3.375   0.057   0.379  0.1005  0.1522  1.1266
  626TMC3    C4 9270   3.417   4.609   0.585 -0.2950  0.4774 -0.2550
  626TMC3    C5 9271   3.390   0.016   0.611  0.1788 -0.0423 -0.6865
  626TMC3    C6 9272   3.375   0.108   0.509 -0.0152 -0.3491  0.4389
  626TMC3     C 9273   3.378   4.423   0.427  0.5561 -0.5328  0.3417
  626TMC3     O 9274   3.330   4.400   0.316  0.7252 -0.0661  0.0817
  626TMC3     H 9275   3.398   4.614   0.247  0.9406 -1.3378  0.2871
  626TMC3    H1 9276   3.443   4.546   0.669  0.2653  1.4053  0.2697
  626TMC3    H2 9277   3.346   0.209   0.534 -2.4711 -0.9952  0.1347
  626TMC3    C7 9278   3.417   0.057   0.746 -0.2511  0.4350 -0.0215
  626TMC3    C8 9279   3.334   0.145   0.269  0.2770 -0.8541 -0.1458
  626TMC3    O1 9280   3.526   0.011   0.783  0.7005 -0.2456  0.0346
  626TMC3    O2 9281   3.331   0.091   0.157 -0.8077  0.4094  0.2203
  627MPD2     C 9282   2.356   0.091  14.595  0.3582  0.1668 -0.5389
  627MPD2    C1 9283   2.439   0.032  14.676  0.6139  0.1616 -0.2101
  627MPD2    C2 9284   2.408   4.634  14.738 -1.0296 -0.4517  0.6273
  627MPD2    C3 9285   2.284   4.573  14.704 -0.7684 -0.2842 -0.0688
  627MPD2    C4 9286   2.203   4.634  14.613  0.1209  0.1698  0.4354
  627MPD2    C5 9287   2.243   0.021  14.553 -0.1819  0.3074  0.6620
  627MPD2     H 9288   2.481   4.600  14.810 -0.2792 -1.9694 -0.8595
  627MPD2    H1 9289   2.113   4.591  14.570  1.2932  1.0953 -2.9815
  627MPD2    H2 9290   2.374   0.185  14.543 -1.4983  0.9572  0.2489
  627MPD2    H3 9291   2.181   0.075  14.482  0.7467  0.3187 -0.1350
  627MPD2     N 9292   2.246   4.451  14.773  0.0703  0.3375  0.2493
  627MPD2    H5 9293   2.311   4.408  14.837 -0.3245  2.2345  1.9140
  627MPD2    N1 9294   2.557   0.095  14.724  1.2136 -0.0392 -0.3346
  627MPD2    H7 9295   2.609   0.044  14.795  3.5161 -0.3074 -2.2138
  628TMC3    C1 9296   2.740   0.249  14.725 -0.5813 -0.9287 -0.5602
  628TMC3    C2 9297   2.855   0.174  14.729  0.5590  0.2865  0.1081
  628TMC3    C3 9298   2.978   0.237  14.740 -0.2185 -0.4666  0.9093
  628TMC3    C4 9299   2.754   0.385  14.724  0.3794 -0.0026 -0.1393
  628TMC3    C5 9300   2.876   0.441  14.750  0.0136  0.2736  0.0498
  628TMC3    C6 9301   2.997   0.370  14.767 -0.3521  0.4395 -0.0255
  628TMC3     C 9302   2.618   0.201  14.656  0.2781 -0.0802 -0.2152
  628TMC3     O 9303   2.579   0.284  14.571 -0.1452  0.2939 -0.0086
  628TMC3     H 9304   2.853   0.067  14.710  1.2599 -0.0005  1.5817
  628TMC3    H1 9305   2.664   0.446  14.722  1.3077  1.4001  0.8745
  628TMC3    H2 9306   3.088   0.424  14.744 -0.2321 -0.1418 -0.9167
  628TMC3    C7 9307   2.884   0.582  14.714 -0.1094 -0.0306  0.1749
  628TMC3    C8 9308   3.096   0.159  14.728 -0.0182 -0.0767 -1.1831
  628TMC3    O1 9309   2.932   0.649  14.805  0.6510  0.3920 -0.1247
  628TMC3    O2 9310   3.095   0.055  14.660 -0.0816  0.1466  0.7211
  629MPD2     C 9311   1.129   2.791  16.945  0.5200 -0.0424 -0.7042
  629MPD2    C1 9312   1.120   2.895  16.856 -0.2098 -0.2374 -0.4257
  629MPD2    C2 9313   1.052   2.871  16.744  0.9109 -0.2110  0.6384
  629MPD2    C3 9314   0.970   2.766  16.727  0.5719  0.5905 -0.7181
  629MPD2    C4 9315   0.976   2.661  16.811  0.5064  0.3363  0.3878
  629MPD2    C5 9316   1.056   2.667  16.924 -0.0413  0.1130  0.2870
  629MPD2     H 9317   1.051   2.939  16.659 -0.9397 -0.1940  0.6645
  629MPD2    H1 9318   0.922   2.570  16.789  0.0878  1.1198 -1.7778
  629MPD2    H2 9319   1.198   2.797  17.029 -0.0895  0.6683 -0.2624
  629MPD2    H3 9320   1.070   2.573  16.976  0.3111 -0.0703 -0.1446
  629MPD2     N 9321   0.897   2.776  16.612  0.3392 -0.2027 -0.0719
  629MPD2    H5 9322   0.908   2.864  16.563  2.6864 -1.4757 -1.8243
  629MPD2    N1 9323   1.207   3.008  16.872  0.9965  0.0495  0.2273
  629MPD2    H7 9324   1.267   2.999  16.953  0.9044 -0.8056  0.2046
  630TMC3    C1 9325   1.307   3.217  16.853  0.5567 -0.0676  0.5962
  630TMC3    C2 9326   1.342   3.314  16.764 -0.5464  0.2656 -0.2962
  630TMC3    C3 9327   1.452   3.391  16.796 -0.0412  0.3714 -0.8603
  630TMC3    C4 9328   1.375   3.179  16.958  0.3924 -0.2116  0.1131
  630TMC3    C5 9329   1.488   3.257  16.991  0.2918  0.2433  0.8985
  630TMC3    C6 9330   1.527   3.361  16.911  0.2047  0.3277 -0.2662
  630TMC3     C 9331   1.201   3.127  16.805 -0.1957 -0.6338 -0.0174
  630TMC3     O 9332   1.126   3.156  16.713 -0.1632  0.3165  0.2740
  630TMC3     H 9333   1.273   3.330  16.682  0.0198 -0.7351 -0.9689
  630TMC3    H1 9334   1.341   3.116  17.038 -0.0080  0.5761  0.5667
  630TMC3    H2 9335   1.610   3.427  16.933  0.2878  0.2113 -0.2273
  630TMC3    C7 9336   1.524   3.255  17.128  0.6860  0.4955  0.8295
  630TMC3    C8 9337   1.501   3.498  16.712 -0.9487  0.6613 -0.2010
  630TMC3    O1 9338   1.478   3.163  17.192 -0.4089  0.3891 -0.0950
  630TMC3    O2 9339   1.606   3.548  16.748 -0.0935 -0.8332 -0.1680
  631MPD2     C 9340   4.230   3.368  15.499  0.2020  0.2684 -0.0381
  631MPD2    C1 9341   4.254   3.504  15.522  0.4416 -0.2133 -0.2289
  631MPD2    C2 9342   4.375   3.539  15.586  0.0201 -0.0948 -0.7616
  631MPD2    C3 9343   4.479   3.447  15.607 -0.6881 -0.2371 -0.2706
  631MPD2    C4 9344   4.449   3.315  15.574 -0.1424 -0.2964 -0.2542
  631MPD2    C5 9345   4.326   3.275  15.533 -0.3738  0.1700 -0.4595
  631MPD2     H 9346   4.395   3.643  15.607 -0.8847  0.8824 -4.7015
  631MPD2    H1 9347   4.520   3.233  15.580  1.3563  0.7977 -2.7473
  631MPD2    H2 9348   4.138   3.325  15.461  0.1214  0.9202 -0.5841
  631MPD2    H3 9349   4.318   3.171  15.505 -2.5865  0.0691  0.5866
  631MPD2     N 9350   4.603   3.497  15.652 -0.2778 -0.1900 -0.3281
  631MPD2    H5 9351   4.603   3.599  15.655 -0.4090 -0.2337  1.1237
  631MPD2    N1 9352   4.159   3.599  15.469  0.1625  0.5386  0.5866
  631MPD2    H7 9353   4.072   3.561  15.436  1.6290  0.2102 -2.9318
  632TMC3    C1 9354   4.103   3.792  15.360 -0.5703  0.1458  0.6083
  632TMC3    C2 9355   3.973   3.747  15.355  0.5801  0.2213  0.6025
  632TMC3    C3 9356   3.919   3.736  15.233  0.2098 -0.6828 -0.0353
  632TMC3    C4 9357   4.175   3.815  15.254 -0.0336  0.2548 -0.1794
  632TMC3    C5 9358   4.126   3.804  15.129 -0.3266  0.3029  0.1853
  632TMC3    C6 9359   3.997   3.762  15.122  0.0656 -0.6371  0.1099
  632TMC3     C 9360   4.186   3.734  15.463 -0.1051 -0.5210  0.0733
  632TMC3     O 9361   4.282   3.805  15.499 -0.1567 -0.4916  0.4158
  632TMC3     H 9362   3.920   3.733  15.449 -1.8314 -1.0953 -0.9412
  632TMC3    H1 9363   4.280   3.830  15.273  0.2703  0.6842 -2.2460
  632TMC3    H2 9364   3.958   3.729  15.026  0.6819 -2.3308  0.4413
  632TMC3    C7 9365   4.200   3.730  15.035  0.8394  0.1570 -0.0418
  632TMC3    C8 9366   3.772   3.723  15.221 -0.4713  0.8436  0.6727
  632TMC3    O1 9367   4.152   3.710  14.925 -0.0825  0.1778 -0.1397
  632TMC3    O2 9368   3.726   3.742  15.111  0.0963  0.6119  0.5672
  633MPD2     C 9369   3.897   1.468   0.020 -0.5599 -0.2956  0.0087
  633MPD2    C1 9370   3.860   1.387  17.609 -0.5210 -0.3183 -0.1456
  633MPD2    C2 9371   3.817   1.261  17.635  0.2648  0.1730  0.1157
  633MPD2    C3 9372   3.808   1.202   0.061 -0.1143 -0.4779  0.0030
  633MPD2    C4 9373   3.838   1.285   0.163 -0.8688  0.4009 -0.3706
  633MPD2    C5 9374   3.875   1.414   0.144  0.7495 -0.4679 -0.2401
  633MPD2     H 9375   3.801   1.196  17.550 -2.0533  1.7423 -0.6547
  633MPD2    H1 9376   3.831   1.252   0.266 -0.5679  1.1766 -0.1069
  633MPD2    H2 9377   3.927   1.571   0.005 -4.4273  0.9972  1.1015
  633MPD2    H3 9378   3.890   1.476   0.232  1.4621  1.1574 -1.5008
  633MPD2     N 9379   3.762   1.065   0.082 -0.0799  0.3159 -0.3119
  633MPD2    H5 9380   3.767   1.033   0.178  2.8552  0.5299 -0.4146
  633MPD2    N1 9381   3.869   1.421  17.470  0.0554  0.4654  0.0003
  633MPD2    H7 9382   3.829   1.353  17.406  0.3343  0.5457 -0.2565
  634TMC3    C1 9383   3.926   1.518  17.273 -0.1213  1.1544  0.0656
  634TMC3    C2 9384   3.952   1.392  17.210 -0.1745  0.2220 -0.7175
  634TMC3    C3 9385   3.947   1.391  17.077  0.1709  0.1366 -0.2065
  634TMC3    C4 9386   3.905   1.630  17.199 -0.4830 -0.2617 -0.6693
  634TMC3    C5 9387   3.910   1.623  17.063  0.3486 -0.0484  0.0110
  634TMC3    C6 9388   3.942   1.505  16.999 -0.0621 -1.3993  0.2103
  634TMC3     C 9389   3.914   1.535  17.413  0.0332  0.6859 -0.5854
  634TMC3     O 9390   3.957   1.639  17.458  0.2223  0.1540 -0.5640
  634TMC3     H 9391   3.958   1.296  17.259  1.0449  1.2072  1.0556
  634TMC3    H1 9392   3.877   1.719  17.254 -3.0031 -0.9771 -0.7852
  634TMC3    H2 9393   3.925   1.497  16.892  1.4810  2.2038 -0.2981
  634TMC3    C7 9394   3.878   1.744  16.980  0.3672 -0.1251 -0.7413
  634TMC3    C8 9395   3.975   1.263  17.006 -0.0944  0.0446  0.7383
  634TMC3    O1 9396   3.899   1.728  16.861  0.3188 -0.0085  0.4683
  634TMC3    O2 9397   3.988   1.156  17.072  0.8482  0.3625  0.1267
  635TMC3    C1 9398   4.661   2.035  17.285  0.7006  0.7376  0.8024
  635TMC3    C2 9399   0.064   2.016  17.337 -0.1977 -0.1752 -0.6750
  635TMC3    C3 9400   0.107   1.889  17.348 -0.7484  0.6644  0.3403
  635TMC3    C4 9401   4.597   1.926  17.232  0.0914 -0.0462 -0.5578
  635TMC3    C5 9402   4.641   1.801  17.244  0.3322 -0.4100  0.0519
  635TMC3    C6 9403   0.036   1.774  17.304  0.2524  0.6176 -0.2538
  635TMC3     C 9404   4.603   2.171  17.280  0.1153 -0.5872  0.0493
  635TMC3     O 9405   4.624   2.248  17.372 -0.0187  0.1388  0.3617
  635TMC3     H 9406   0.115   2.098  17.386 -0.2346 -0.7461  0.3059
  635TMC3    H1 9407   4.502   1.924  17.180 -0.0447 -0.8107 -0.2903
  635TMC3    H2 9408   0.081   1.676  17.303  0.3951  0.6854 -0.8225
  635TMC3    C7 9409   4.578   1.698  17.164 -0.5158  0.3082  0.3466
  635TMC3    C8 9410   0.230   1.866  17.426  0.4059 -0.3949 -0.4243
  635TMC3    O1 9411   4.502   1.739  17.076 -0.1124  0.0939 -0.1864
  635TMC3    O2 9412   0.323   1.945  17.437 -0.0974 -0.6671  0.3245
  636MPD2     C 9413   0.050   1.693  16.399 -0.2568  1.1843 -0.2686
  636MPD2    C1 9414   0.163   1.763  16.421 -0.8144  0.0289  0.3470
  636MPD2    C2 9415   0.282   1.717  16.381  0.7956 -0.1337 -0.7351
  636MPD2    C3 9416   0.282   1.596  16.309 -0.5206 -0.5441  0.1090
  636MPD2    C4 9417   0.168   1.521  16.282 -0.2993 -0.4952 -0.1760
  636MPD2    C5 9418   0.049   1.573  16.334 -0.0521 -0.1813  0.1099
  636MPD2     H 9419   0.365   1.787  16.371  0.4569  0.5084  0.9859
  636MPD2    H1 9420   0.167   1.425  16.231 -1.0040 -1.3431  1.4398
  636MPD2    H2 9421   4.678   1.722  16.442  1.5521  2.7225  2.7499
  636MPD2    H3 9422   4.680   1.518  16.319  0.0178 -0.6422  1.4037
  636MPD2     N 9423   0.411   1.567  16.263 -0.2313 -0.2800  0.0895
  636MPD2    H5 9424   0.486   1.622  16.303 -1.2747  2.4182 -1.6721
  636MPD2    N1 9425   0.157   1.896  16.463  0.9269 -0.2495 -0.0775
  636MPD2    H7 9426   0.243   1.944  16.489  2.3549 -3.0150  0.3105
  637TMC3    C1 9427   0.585   1.491  16.134 -0.7323  0.4404  0.3183
  637TMC3    C2 9428   0.654   1.595  16.176 -0.2877  0.9945  0.1335
  637TMC3    C3 9429   0.745   1.652  16.091  0.2394 -0.6595 -0.9473
  637TMC3    C4 9430   0.588   1.447  16.004  0.0037 -0.2994 -0.5572
  637TMC3    C5 9431   0.685   1.504  15.922  0.4068 -0.6917  0.0946
  637TMC3    C6 9432   0.766   1.607  15.965  0.7590 -0.0159  0.1698
  637TMC3     C 9433   0.443   1.470  16.174  0.3382  0.0616 -0.1060
  637TMC3     O 9434   0.378   1.379  16.121 -0.0808  0.2436  0.6389
  637TMC3     H 9435   0.631   1.636  16.273 -0.1388 -0.4551  0.7883
  637TMC3    H1 9436   0.538   1.357  15.972 -0.4203 -0.1207 -0.3931
  637TMC3    H2 9437   0.837   1.658  15.901  1.9545 -2.1174 -0.1732
  637TMC3    C7 9438   0.616   1.541  15.797  0.5534  0.6584  0.3613
  637TMC3    C8 9439   0.744   1.796  16.094  0.5278  0.3023 -0.3769
  637TMC3    O1 9440   0.623   1.661  15.775 -0.7168  0.1115  0.2911
  637TMC3    O2 9441   0.759   1.849  16.206  0.7463 -0.1197  0.2404
  638MPD2     C 9442   0.235   0.565  14.769  0.6184  0.3639  0.3702
  638MPD2    C1 9443   0.250   0.431  14.731 -0.4069  0.4377 -0.7067
  638MPD2    C2 9444   0.202   0.336  14.821  0.1779  0.2917  0.0104
  638MPD2    C3 9445   0.142   0.362  14.940  0.3398 -0.1442 -0.5684
  638MPD2    C4 9446   0.113   0.494  14.966  0.1797 -0.0419  0.2495
  638MPD2    C5 9447   0.156   0.594  14.881  0.5074  0.4409 -0.0072
  638MPD2     H 9448   0.222   0.233  14.792 -2.0564 -0.2103  0.2039
  638MPD2    H1 9449   0.049   0.518  15.050 -0.4688 -0.4647 -0.1163
  638MPD2    H2 9450   0.270   0.649  14.711  1.2394  0.8253  1.4078
  638MPD2    H3 9451   0.130   0.697  14.904  0.9997  0.7553 -0.8439
  638MPD2     N 9452   0.104   0.252  15.018 -0.1333 -0.5586  0.0950
  638MPD2    H5 9453   0.113   0.160  14.975  4.4461 -0.5642  1.0890
  638MPD2    N1 9454   0.313   0.398  14.607  1.2766 -0.2406 -0.2591
  638MPD2    H7 9455   0.391   0.443  14.560  0.9447  0.4285 -0.1619
  639TMC3    C1 9456   0.010   0.128  15.191  0.6498 -0.7641  0.3542
  639TMC3    C2 9457   4.599   0.097  15.199 -1.3125  0.2773  0.2516
  639TMC3    C3 9458   4.557   4.689  15.208  0.2204  0.3437  0.3084
  639TMC3    C4 9459   0.101   0.035  15.158  0.1831  0.2553  0.8010
  639TMC3    C5 9460   0.052   4.630  15.166  0.1721  0.7626  0.0275
  639TMC3    C6 9461   4.644   4.590  15.195 -0.0574  0.2285 -0.5366
  639TMC3     C 9462   0.030   0.255  15.134 -0.0606  0.4878  0.5412
  639TMC3     O 9463   4.711   0.345  15.203 -0.0609  0.0762  0.4076
  639TMC3     H 9464   4.530   0.180  15.189  1.1925  2.6198  2.4009
  639TMC3    H1 9465   0.206   0.060  15.145 -0.1493  1.5110  0.4590
  639TMC3    H2 9466   4.618   4.486  15.214  2.1812 -0.2503 -0.0731
  639TMC3    C7 9467   0.163   4.538  15.168 -0.1302 -0.4032 -0.7069
  639TMC3    C8 9468   4.417   4.658  15.192  0.7343 -0.2247 -0.0108
  639TMC3    O1 9469   0.258   4.558  15.093  0.2719  0.5026  0.2404
  639TMC3    O2 9470   4.342   0.017  15.240  0.0766 -0.2221 -0.2312
  640MPD2     C 9471   1.056   4.263  10.445 -0.0101 -0.0573 -0.2970
  640MPD2    C1 9472   1.013   4.192  10.335  0.6278 -0.2436  0.2708
  640MPD2    C2 9473   0.878   4.178  10.333 -0.1991  0.0018  0.0566
  640MPD2    C3 9474   0.794   4.243  10.422 -0.8933 -0.1924 -0.8875
  640MPD2    C4 9475   0.845   4.302  10.532 -0.4479 -0.4114  0.6658
  640MPD2    C5 9476   0.981   4.305  10.550 -0.1175 -0.1351 -0.3998
  640MPD2     H 9477   0.825   4.143  10.245  1.6769 -0.2492 -0.9916
  640MPD2    H1 9478   0.786   4.336  10.617 -0.9244 -0.4350  0.3436
  640MPD2    H2 9479   1.160   4.283  10.465 -0.2500 -0.6408  1.5428
  640MPD2    H3 9480   1.018   4.364  10.634 -1.5646 -0.6713  0.6176
  640MPD2     N 9481   0.653   4.244  10.406  0.4352 -0.0321 -0.5755
  640MPD2    H5 9482   0.606   4.293  10.481  0.6745 -1.8256  0.7391
  640MPD2    N1 9483   1.096   4.153  10.225 -0.0953  0.5875  0.6416
  640MPD2    H7 9484   1.045   4.104  10.153 -4.2364  3.5068  1.5343
  641TMC3    C1 9485   1.285   4.163  10.082 -0.2071  0.5463  0.4649
  641TMC3    C2 9486   1.263   4.041  10.024  0.0047  0.6788 -0.2944
  641TMC3    C3 9487   1.336   4.011   9.907  0.0346  0.2718  0.3289
  641TMC3    C4 9488   1.370   4.255  10.016 -1.1055  0.0354  0.2332
  641TMC3    C5 9489   1.433   4.226   9.896 -0.3456 -0.2329  0.6083
  641TMC3    C6 9490   1.414   4.098   9.841  0.1341 -0.4477 -0.3734
  641TMC3     C 9491   1.226   4.199  10.210 -0.0579 -0.5782 -0.5500
  641TMC3     O 9492   1.291   4.284  10.268 -0.3429  0.2203 -0.3065
  641TMC3     H 9493   1.202   3.959  10.061  2.1222  0.0207  1.7688
  641TMC3    H1 9494   1.387   4.354  10.057  1.6645 -0.0005 -0.8108
  641TMC3    H2 9495   1.444   4.064   9.743 -2.6519  1.7172 -1.9612
  641TMC3    C7 9496   1.512   4.327   9.823  0.3874 -0.0239 -0.5033
  641TMC3    C8 9497   1.349   3.874   9.866 -0.0334  0.0307 -0.1385
  641TMC3    O1 9498   1.521   4.436   9.874 -0.3839  0.1277  0.0537
  641TMC3    O2 9499   1.292   3.838   9.767 -0.2228 -0.3633 -0.8949
  642TMC3    C1 9500   2.091   0.699  12.444  0.8552  0.3878 -0.6975
  642TMC3    C2 9501   2.139   0.748  12.562 -0.1197 -0.3877 -0.1691
  642TMC3    C3 9502   2.201   0.654  12.641 -0.0751 -1.1428 -0.1358
  642TMC3    C4 9503   2.094   0.568  12.410 -0.4779 -0.4115  0.5460
  642TMC3    C5 9504   2.160   0.479  12.494  0.8246  0.2695 -0.1907
  642TMC3    C6 9505   2.214   0.518  12.617 -0.3631 -0.1774 -0.2081
  642TMC3     C 9506   1.985   0.776  12.386 -0.5437 -1.5014  0.1862
  642TMC3     O 9507   1.981   0.895  12.424  0.4771  0.0961 -0.4731
  642TMC3     H 9508   2.116   0.850  12.591  2.1098  0.2834 -0.7319
  642TMC3    H1 9509   2.062   0.532  12.313  0.3440 -3.1913  1.3130
  642TMC3    H2 9510   2.277   0.446  12.669 -1.2011 -0.7729 -0.0147
  642TMC3    C7 9511   2.138   0.341  12.452 -0.3757  0.9314  0.3957
  642TMC3    C8 9512   2.228   0.697  12.773 -0.0770 -0.0415 -0.1406
  642TMC3    O1 9513   2.160   0.315  12.334 -0.4034  0.1865  0.5888
  642TMC3    O2 9514   2.170   0.797  12.809  0.1352 -0.1054 -0.3226
  643TMC3    C1 9515   1.020   3.906   0.339  0.2825  0.6702  0.1372
  643TMC3    C2 9516   0.912   3.963   0.284  0.1737 -0.1530 -0.6552
  643TMC3    C3 9517   0.838   3.879   0.212  0.1180  0.1884 -0.2958
  643TMC3    C4 9518   1.062   3.775   0.310 -0.3884 -0.4414  0.0064
  643TMC3    C5 9519   0.981   3.691   0.238  0.6149  1.1520 -0.5549
  643TMC3    C6 9520   0.865   3.747   0.189  0.0859  0.2614 -0.7477
  643TMC3     C 9521   1.097   3.991   0.434 -0.2045 -0.1751  0.6880
  643TMC3     O 9522   1.071   4.110   0.436  0.0688  0.0316  0.1920
  643TMC3     H 9523   0.894   4.067   0.306 -0.4220 -0.5619  0.8620
  643TMC3    H1 9524   1.155   3.741   0.353 -1.8192 -0.2408  3.2611
  643TMC3    H2 9525   0.791   3.685   0.140 -1.1513  1.7556 -0.7483
  643TMC3    C7 9526   0.997   3.545   0.241 -0.2826  1.0868  0.0526
  643TMC3    C8 9527   0.762   3.946   0.112 -0.1989 -0.0092  0.4204
  643TMC3    O1 9528   1.023   3.496   0.351  0.0452  0.0363 -0.1912
  643TMC3    O2 9529   0.685   3.872   0.051 -0.3874 -0.1119  0.7723
  644MPD2     C 9530   1.129   4.517  10.063 -0.2821  0.4276  0.7057
  644MPD2    C1 9531   1.146   4.602   9.952  0.3665  0.0656  0.7640
  644MPD2    C2 9532   1.037   4.600   9.863  0.3656  0.2055 -0.5737
  644MPD2    C3 9533   0.916   4.542   9.899  0.0554 -0.5039 -0.4685
  644MPD2    C4 9534   0.899   4.470  10.010 -0.7825  0.1901 -0.2946
  644MPD2    C5 9535   1.007   4.459  10.094  0.2632  0.4130 -0.7597
  644MPD2     H 9536   1.037   4.645   9.765  0.0588  0.5243 -0.4262
  644MPD2    H1 9537   0.805   4.420  10.033 -0.1494 -1.5710 -1.5291
  644MPD2    H2 9538   1.200   4.505  10.144 -1.4459 -0.4925  1.5775
  644MPD2    H3 9539   0.998   4.425  10.197 -1.2133  1.1030 -0.6513
  644MPD2     N 9540   0.806   4.581   9.826  0.3008 -0.1076  0.0441
  644MPD2    H5 9541   0.842   4.624   9.741  0.7095 -1.0610 -0.2564
  644MPD2    N1 9542   1.264   4.672   9.923  0.0590  0.5234 -0.4564
  644MPD2    H7 9543   1.346   4.664   9.982 -0.0495 -2.2133 -0.6437
  645TMC3    C1 9544   0.598   4.639   9.741 -0.0283 -0.0014  0.4815
  645TMC3    C2 9545   0.466   4.608   9.725 -0.0244  0.5700  0.2659
  645TMC3    C3 9546   0.387   4.680   9.648  0.1711  0.5365 -0.1564
  645TMC3    C4 9547   0.645   0.030   9.683  0.3664  0.2551  0.4911
  645TMC3    C5 9548   0.561   0.097   9.591  0.0806 -0.0104 -0.4084
  645TMC3    C6 9549   0.434   0.059   9.573 -0.4509  0.1124 -0.0385
  645TMC3     C 9550   0.675   4.568   9.844  0.1244  0.1228  0.1377
  645TMC3     O 9551   0.618   4.494   9.926  0.3958  0.5700  0.5516
  645TMC3     H 9552   0.414   4.534   9.785 -1.1002  1.1676  0.0666
  645TMC3    H1 9553   0.748   0.064   9.684  0.1973  0.8863 -2.9952
  645TMC3    H2 9554   0.368   0.105   9.499  0.7872  0.8137 -0.7032
  645TMC3    C7 9555   0.584   0.239   9.560  0.2232 -1.4768 -0.5378
  645TMC3    C8 9556   0.244   4.653   9.643 -0.1300 -0.1840 -0.5621
  645TMC3    O1 9557   0.480   0.303   9.535  0.2470  0.5445 -0.0598
  645TMC3    O2 9558   0.168   0.019   9.610 -0.0125  0.1011  0.1507
  646MPD2     C 9559   0.141   3.589  14.747 -0.1356 -0.2112 -0.4034
  646MPD2    C1 9560   0.081   3.619  14.865 -0.5394  0.3418 -0.1470
  646MPD2    C2 9561   4.684   3.686  14.853  0.0303  0.0962  1.1825
  646MPD2    C3 9562   4.616   3.702  14.735  0.2053 -0.1525 -0.4910
  646MPD2    C4 9563   4.677   3.674  14.620  0.3215 -0.5340 -0.4137
  646MPD2    C5 9564   0.078   3.619  14.629 -0.1981  0.0970  0.7121
  646MPD2     H 9565   4.640   3.721  14.945 -0.5701  1.1706  0.4862
  646MPD2    H1 9566   4.642   3.703  14.522  1.3499 -1.9353 -1.1968
  646MPD2    H2 9567   0.232   3.528  14.750 -0.0840 -0.1735 -1.1610
  646MPD2    H3 9568   0.125   3.601  14.533 -1.8677 -0.9117  0.0917
  646MPD2     N 9569   4.491   3.773  14.735  0.2122  0.7826  0.2418
  646MPD2    H5 9570   4.464   3.834  14.811 -0.1168  2.6146 -1.3634
  646MPD2    N1 9571   0.154   3.570  14.977  0.0628 -0.2018 -0.6997
  646MPD2    H7 9572   0.243   3.524  14.959  1.0747  1.5103 -0.0989
  647TMC3    C1 9573   0.208   3.520  15.205  0.8549 -0.2880  0.0944
  647TMC3    C2 9574   0.160   3.460  15.317 -0.5036 -0.8277 -0.2697
  647TMC3    C3 9575   0.247   3.389  15.394 -0.1262 -0.0685  0.4812
  647TMC3    C4 9576   0.345   3.518  15.169 -0.6099  0.4651  0.6068
  647TMC3    C5 9577   0.429   3.449  15.260 -0.0115 -0.4748  0.2733
  647TMC3    C6 9578   0.381   3.392  15.373  0.2366  0.6568  0.4709
  647TMC3     C 9579   0.117   3.582  15.107 -0.3114  0.0964 -0.4528
  647TMC3     O 9580   0.015   3.635  15.140 -0.5787 -0.5559 -0.2685
  647TMC3     H 9581   0.055   3.439  15.333 -0.9133  1.2808 -0.1589
  647TMC3    H1 9582   0.393   3.582  15.096 -2.3311  0.5388 -0.4554
  647TMC3    H2 9583   0.445   3.329  15.433  2.3511 -0.1591 -2.6093
  647TMC3    C7 9584   0.570   3.461  15.256  0.0469 -0.5874 -0.0175
  647TMC3    C8 9585   0.213   3.267  15.478  0.5470 -0.3991 -0.0046
  647TMC3    O1 9586   0.628   3.468  15.363 -0.0019 -0.7776  0.6247
  647TMC3    O2 9587   0.281   3.236  15.575  0.6720  0.1516 -0.0667
  648TMC3    C1 9588   4.455   1.526  15.922 -0.2647  0.0939 -0.7681
  648TMC3    C2 9589   4.508   1.452  15.822 -0.2929  0.5712 -0.1518
  648TMC3    C3 9590   4.459   1.459  15.694 -0.0725  1.0912 -0.3259
  648TMC3    C4 9591   4.355   1.610  15.896 -0.5723 -0.6156  0.2863
  648TMC3    C5 9592   4.311   1.626  15.769  1.0409  0.5454  0.1393
  648TMC3    C6 9593   4.366   1.555  15.668  0.1006 -0.4083  0.6449
  648TMC3     C 9594   4.476   1.469  16.054  0.1664  0.4071  0.0328
  648TMC3     O 9595   4.536   1.364  16.073 -0.3757  0.0976  0.4303
  648TMC3     H 9596   4.566   1.363  15.844  0.7417  0.8556 -1.6825
  648TMC3    H1 9597   4.323   1.678  15.974  0.9591 -1.5537  1.7204
  648TMC3    H2 9598   4.302   1.540  15.582 -0.2821  0.7061  0.7401
  648TMC3    C7 9599   4.224   1.741  15.731 -0.1953  0.0987 -0.0821
  648TMC3    C8 9600   4.426   1.338  15.642 -0.3495  0.2196  0.1862
  648TMC3    O1 9601   4.205   1.755  15.613  0.3284 -0.3192 -0.2471
  648TMC3    O2 9602   4.311   1.327  15.603  0.2086 -0.0198 -0.4338
  649TMC3    C1 9603   3.306   2.567  12.546 -0.0234 -0.4203  0.8379
  649TMC3    C2 9604   3.398   2.665  12.577 -0.0693 -0.3571  0.5163
  649TMC3    C3 9605   3.440   2.660  12.705 -0.6394  0.7075  0.2830
  649TMC3    C4 9606   3.255   2.484  12.641 -0.1553  0.5537  0.2186
  649TMC3    C5 9607   3.312   2.471  12.768 -0.0827  0.4691  0.1166
  649TMC3    C6 9608   3.405   2.562  12.797  0.4451  0.6234 -0.3706
  649TMC3     C 9609   3.212   2.603  12.441  0.1572  0.3455  0.0904
  649TMC3     O 9610   3.093   2.587  12.464  0.2266  0.1545 -0.4425
  649TMC3     H 9611   3.409   2.753  12.514 -0.4477 -1.0229 -0.4861
  649TMC3    H1 9612   3.166   2.429  12.614  1.1126 -2.9759  3.2617
  649TMC3    H2 9613   3.442   2.549  12.898 -2.5430 -2.7230  0.2923
  649TMC3    C7 9614   3.262   2.368  12.858 -0.2084 -0.6954  0.4976
  649TMC3    C8 9615   3.483   2.781  12.767  0.3583 -0.0839  0.1581
  649TMC3    O1 9616   3.289   2.385  12.979  0.1651 -0.7830 -0.4282
  649TMC3    O2 9617   3.512   2.768  12.883  0.1948  0.5634  0.3980
  650TMC3    C1 9618   1.298   4.236  12.867  0.4539  0.0282 -0.2143
  650TMC3    C2 9619   1.263   4.368  12.888  0.6574  0.1916  0.0280
  650TMC3    C3 9620   1.148   4.414  12.835 -0.1398  0.4914  0.3914
  650TMC3    C4 9621   1.227   4.159  12.785 -0.5460 -0.3619 -0.3677
  650TMC3    C5 9622   1.120   4.214  12.726 -0.8627  0.0707  0.6136
  650TMC3    C6 9623   1.079   4.341  12.743  0.6820 -0.5524  0.2088
  650TMC3     C 9624   1.417   4.178  12.934 -0.3406 -0.9735 -0.1258
  650TMC3     O 9625   1.491   4.264  12.983  0.0443 -0.0427  0.0965
  650TMC3     H 9626   1.331   4.434  12.941 -0.8240 -0.0735  2.2525
  650TMC3    H1 9627   1.261   4.063  12.751 -1.3163 -1.0709  0.8482
  650TMC3    H2 9628   0.991   4.381  12.694  0.0824 -1.8752  0.2029
  650TMC3    C7 9629   1.055   4.131  12.622  0.6156 -0.1567  0.3260
  650TMC3    C8 9630   1.137   4.560  12.813 -0.0916  0.2805  0.2596
  650TMC3    O1 9631   1.053   4.008  12.646  0.0097  0.1117  0.1346
  650TMC3    O2 9632   1.227   4.636  12.845 -0.4643  0.5483  0.0363
  651MPD2     C 9633   0.055   2.015   9.989 -0.1884 -0.4702 -0.2240
  651MPD2    C1 9634   0.068   2.055  10.122  0.7316  0.1279 -0.8065
  651MPD2    C2 9635   0.194   2.064  10.179  0.2881  0.5458 -0.2399
  651MPD2    C3 9636   0.311   2.049  10.096  0.3564 -0.1193 -0.1609
  651MPD2    C4 9637   0.293   2.025   9.959 -0.7499 -0.4418 -0.1556
  651MPD2    C5 9638   0.164   1.999   9.912 -0.3437  0.7870  0.2106
  651MPD2     H 9639   0.204   2.070  10.287 -0.2722  0.3654 -0.1799
  651MPD2    H1 9640   0.366   2.017   9.880  1.4912  0.8465  1.7758
  651MPD2    H2 9641   4.677   2.003   9.951  0.7438 -1.0249 -2.5500
  651MPD2    H3 9642   0.153   1.964   9.810  1.1815 -0.1292  0.3494
  651MPD2     N 9643   0.438   2.070  10.156 -0.2822 -0.5570 -0.7102
  651MPD2    H5 9644   0.433   2.073  10.257  0.7301  0.9717 -0.7171
  651MPD2    N1 9645   4.690   2.092  10.211 -0.3423  0.2437 -0.2441
  651MPD2    H7 9646   0.015   2.136  10.289 -0.1232  1.2802 -0.9502
  652TMC3    C1 9647   0.905   2.081  10.218  0.3805 -1.3562 -0.4062
  652TMC3    C2 9648   0.804   2.066  10.132  0.4159  0.3734  0.2045
  652TMC3    C3 9649   0.677   2.064  10.186  0.1768  0.4020  0.3977
  652TMC3    C4 9650   0.896   2.084  10.354  0.0554  0.3823 -0.2410
  652TMC3    C5 9651   0.770   2.070  10.402 -0.7674 -0.1985 -0.0399
  652TMC3    C6 9652   0.655   2.063  10.323 -0.5181  0.6889 -0.0730
  652TMC3     C 9653   1.036   2.097  10.152 -0.0199 -0.4759 -0.7024
  652TMC3     O 9654   1.040   2.122  10.034 -0.6505 -0.1466 -0.9079
  652TMC3     H 9655   0.811   2.053  10.025 -0.3267 -0.1566  0.2232
  652TMC3    H1 9656   0.979   2.083  10.424 -0.2689  2.5570  0.1541
  652TMC3    H2 9657   0.559   2.072  10.372 -0.3018  0.2357  0.4337
  652TMC3    C7 9658   0.743   2.081  10.544  0.4631 -0.9908 -0.4179
  652TMC3    C8 9659   0.564   2.058  10.097  0.1647 -0.3430 -0.7524
  652TMC3    O1 9660   0.644   2.021  10.589  0.3761  0.1432 -0.0809
  652TMC3    O2 9661   0.577   2.047   9.976  0.3203 -0.2543  0.1220
  653MPD2     C 9662   3.431   1.309  17.608 -0.6203 -0.1573 -0.1054
  653MPD2    C1 9663   3.415   1.450  17.572 -0.1591  0.0909 -0.5164
  653MPD2    C2 9664   3.304   1.487  17.496 -0.2383  0.7260 -0.3501
  653MPD2    C3 9665   3.205   1.395  17.470 -0.3376 -0.0900  0.8695
  653MPD2    C4 9666   3.220   1.270  17.513 -0.3256 -0.1140  0.9270
  653MPD2    C5 9667   3.330   1.226  17.577 -0.4710 -0.4441 -0.2892
  653MPD2     H 9668   3.292   1.591  17.465 -2.9419  0.7352  0.7764
  653MPD2    H1 9669   3.149   1.193  17.486 -0.1671  0.4607 -1.0904
  653MPD2    H2 9670   3.516   1.282  17.671 -1.4833 -0.4331  0.9435
  653MPD2    H3 9671   3.341   1.121  17.601  1.5819 -0.2849 -0.5438
  653MPD2     N 9672   3.098   1.444  17.399  0.2998 -0.2795 -0.3155
  653MPD2    H5 9673   3.118   1.528  17.346 -0.4936  2.2076  3.3551
  653MPD2    N1 9674   3.518   1.542  17.607  0.2043  0.7025  1.1418
  653MPD2    H7 9675   3.514   1.637  17.572  2.8190 -0.0119 -1.1444
  654TMC3    C1 9676   2.891   1.420  17.268  0.1718 -0.6344  0.1971
  654TMC3    C2 9677   2.756   1.416  17.302  0.3155 -0.9507 -0.3100
  654TMC3    C3 9678   2.679   1.351  17.223 -0.5223 -0.4510 -0.5064
  654TMC3    C4 9679   2.933   1.374  17.146 -0.0148 -0.1404 -0.4240
  654TMC3    C5 9680   2.849   1.306  17.069  0.3420  0.3668  0.1064
  654TMC3    C6 9681   2.720   1.292  17.107  0.5422  0.7942  0.4869
  654TMC3     C 9682   2.980   1.374  17.382 -0.0512  0.4194  0.3218
  654TMC3     O 9683   2.952   1.263  17.419 -0.9637 -0.1602 -0.4362
  654TMC3     H 9684   2.724   1.449  17.400 -0.7211 -0.0186 -0.9702
  654TMC3    H1 9685   3.037   1.387  17.121  0.3271  2.0590  2.2090
  654TMC3    H2 9686   2.653   1.238  17.041  3.0766 -2.8319  0.8783
  654TMC3    C7 9687   2.910   1.218  16.975 -0.2193 -0.1262  0.1704
  654TMC3    C8 9688   2.542   1.342  17.263  0.4909  1.0206 -0.4923
  654TMC3    O1 9689   2.993   1.259  16.897  0.8996 -0.0934 -0.1801
  654TMC3    O2 9690   2.502   1.432  17.340  0.5587 -0.4283 -0.1976
  655MPD2     C 9691   0.006   1.591  15.583 -0.5867  0.0336  0.0120
  655MPD2    C1 9692   4.649   1.688  15.527 -0.3543 -0.1949 -0.1088
  655MPD2    C2 9693   4.617   1.673  15.393  0.5447 -0.4772  0.6824
  655MPD2    C3 9694   4.667   1.569  15.312  0.8418 -0.1069  0.0052
  655MPD2    C4 9695   0.028   1.480  15.368 -0.2666 -0.3048  0.6794
  655MPD2    C5 9696   0.056   1.490  15.505  0.2392  0.2960 -0.5386
  655MPD2     H 9697   4.547   1.746  15.355 -1.6743 -1.2845  3.2789
  655MPD2    H1 9698   0.043   1.388  15.313  0.8732 -0.5494  1.3978
  655MPD2    H2 9699   0.029   1.593  15.689 -0.1169 -0.3190 -0.0839
  655MPD2    H3 9700   0.115   1.410  15.549 -0.6210  0.7346  1.3806
  655MPD2     N 9701   4.634   1.549  15.178 -0.0074 -0.3106  0.0575
  655MPD2    H5 9702   4.686   1.477  15.129 -0.2896 -1.0051  0.7949
  655MPD2    N1 9703   4.591   1.798  15.595  0.0214 -0.5621 -0.5436
  655MPD2    H7 9704   4.530   1.853  15.536 -1.0933 -1.6451 -0.3953
  656TMC3    C1 9705   4.532   1.939  15.779  0.3196  0.3230  1.2059
  656TMC3    C2 9706   4.527   1.960  15.914  0.1113  0.7947 -0.2437
  656TMC3    C3 9707   4.445   2.048  15.969  0.5443 -0.3632  0.1285
  656TMC3    C4 9708   4.450   2.013  15.700  0.0102 -0.4293  0.1796
  656TMC3    C5 9709   4.375   2.108  15.758 -0.5462  0.2659 -0.2925
  656TMC3    C6 9710   4.361   2.125  15.893  0.3465  0.4655  0.2879
  656TMC3     C 9711   4.612   1.831  15.730  0.2956  0.1603  0.4872
  656TMC3     O 9712   4.686   1.783  15.818  0.0627  0.1529 -0.0008
  656TMC3     H 9713   4.598   1.914  15.982  1.5782  3.1454 -0.1846
  656TMC3    H1 9714   4.469   2.015  15.593  2.4387 -1.2952  0.5927
  656TMC3    H2 9715   4.301   2.203  15.938 -1.9023  0.4232 -2.6382
  656TMC3    C7 9716   4.321   2.210  15.669 -0.2697  0.5760 -0.4650
  656TMC3    C8 9717   4.391   2.002  16.089  0.8709 -0.3194  0.7982
  656TMC3    O1 9718   4.364   2.213  15.553  0.3274  0.4512 -0.1469
  656TMC3    O2 9719   4.429   1.891  16.125  0.4052 -0.4101 -0.0766
  657TMC3    C1 9720   3.679   1.085  14.566  0.7521 -0.1753  0.6663
  657TMC3    C2 9721   3.660   1.102  14.702 -0.4551 -1.0258  0.0038
  657TMC3    C3 9722   3.544   1.171  14.734  0.2717  0.0794 -0.3448
  657TMC3    C4 9723   3.596   1.146  14.475 -0.8150  0.1826  0.0710
  657TMC3    C5 9724   3.490   1.221  14.513  0.0629  0.3206  0.0513
  657TMC3    C6 9725   3.463   1.236  14.646  0.7979  0.1090  0.1264
  657TMC3     C 9726   3.755   0.972  14.513 -0.1763 -0.4647  0.6939
  657TMC3     O 9727   3.721   0.929  14.408 -0.2219  0.3597 -0.2234
  657TMC3     H 9728   3.714   1.035  14.768  1.2871 -0.4143 -0.8049
  657TMC3    H1 9729   3.617   1.138  14.369  1.1483 -1.2292  0.5692
  657TMC3    H2 9730   3.374   1.280  14.690 -1.3221 -1.6900 -2.4110
  657TMC3    C7 9731   3.385   1.240  14.413  0.2334 -0.1400 -0.5021
  657TMC3    C8 9732   3.532   1.222  14.872 -0.2560  0.3056 -0.0773
  657TMC3    O1 9733   3.409   1.196  14.300  0.1609  0.0639  0.1481
  657TMC3    O2 9734   3.472   1.325  14.892  0.7559 -0.4748  0.0033
  658MPD2     C 9735   0.201   1.191  14.750 -0.6932  0.1357  0.3216
  658MPD2    C1 9736   0.126   1.278  14.672 -0.3997 -0.1923  0.0627
  658MPD2    C2 9737   0.121   1.259  14.537 -0.0552 -0.2299 -0.3335
  658MPD2    C3 9738   0.195   1.163  14.473 -0.6435  0.5855  0.4502
  658MPD2    C4 9739   0.281   1.084  14.553  0.4003 -0.5250 -0.0035
  658MPD2    C5 9740   0.278   1.094  14.688  0.1114  0.3492 -0.0244
  658MPD2     H 9741   0.061   1.321  14.471 -0.8543 -2.4061 -1.6386
  658MPD2    H1 9742   0.343   1.007  14.507  0.5231 -1.2594  1.3697
  658MPD2    H2 9743   0.207   1.199  14.858  0.7374  1.2542  0.1665
  658MPD2    H3 9744   0.325   1.016  14.747 -2.2895 -2.5947 -1.9788
  658MPD2     N 9745   0.192   1.154  14.334  0.0627 -0.4655  0.0172
  658MPD2    H5 9746   0.132   1.220  14.285  0.9192  1.4637  1.5591
  658MPD2    N1 9747   0.043   1.373  14.735  0.0454 -0.3165  0.2875
  658MPD2    H7 9748   0.033   1.374  14.836  1.6468 -2.5222  0.4647
  659TMC3    C1 9749   4.587   1.524  14.765  0.5687  0.4812 -1.0456
  659TMC3    C2 9750   4.618   1.530  14.896 -0.0145  0.4463 -0.4789
  659TMC3    C3 9751   4.514   1.581  14.972  0.0032 -0.1691  0.3096
  659TMC3    C4 9752   4.465   1.563  14.711  0.1806  0.9712  0.5100
  659TMC3    C5 9753   4.367   1.597  14.795  0.4525 -0.3601  0.5206
  659TMC3    C6 9754   4.388   1.614  14.925  0.0489 -0.2658  0.1658
  659TMC3     C 9755   4.673   1.451  14.675 -0.8436  0.0983 -0.4768
  659TMC3     O 9756   4.658   1.473  14.556 -0.3703 -0.0453  0.0675
  659TMC3     H 9757   4.714   1.497  14.932  0.8887  1.4841 -1.9206
  659TMC3    H1 9758   4.452   1.547  14.605  0.0082  1.4755  0.4533
  659TMC3    H2 9759   4.314   1.648  14.997  0.8602  0.1281  0.8212
  659TMC3    C7 9760   4.233   1.607  14.759  0.7632 -0.1266 -0.0575
  659TMC3    C8 9761   4.536   1.622  15.110 -0.9206 -0.0129 -0.1712
  659TMC3    O1 9762   4.153   1.644  14.844 -0.2110  0.2833  0.2833
  659TMC3    O2 9763   4.457   1.701  15.156  0.1568 -0.3465  0.4279
  660MPD2     C 9764   2.757   0.260  13.257 -0.7563 -0.5579 -0.0308
  660MPD2    C1 9765   2.806   0.195  13.146  0.2253 -0.3860 -0.5169
  660MPD2    C2 9766   2.824   0.058  13.146  0.5340 -0.2688 -0.2008
  660MPD2    C3 9767   2.788   4.712  13.257  0.5565  0.3549 -0.2293
  660MPD2    C4 9768   2.746   0.056  13.373  0.4793  0.6120  0.1288
  660MPD2    C5 9769   2.723   0.191  13.369 -0.4449  0.3084  0.1173
  660MPD2     H 9770   2.873   0.007  13.064 -0.2323 -1.4965  0.0978
  660MPD2    H1 9771   2.720   0.004  13.465  0.0879  0.4244 -0.0905
  660MPD2    H2 9772   2.731   0.365  13.255  2.8068  0.2219 -3.5682
  660MPD2    H3 9773   2.678   0.241  13.453 -1.4737  1.2132 -0.9745
  660MPD2     N 9774   2.792   4.575  13.260  0.1572 -0.2674 -0.1721
  660MPD2    H5 9775   2.779   4.531  13.351 -0.3154  3.0282  1.3853
  660MPD2    N1 9776   2.831   0.264  13.030  0.2315  0.7171  0.1788
  660MPD2    H7 9777   2.813   0.364  13.029 -0.6022  0.5744  0.8239
  661TMC3    C1 9778   2.873   0.298  12.793 -0.2863 -0.4546 -0.1456
  661TMC3    C2 9779   2.948   0.258  12.686  0.0984  0.3945 -0.9367
  661TMC3    C3 9780   2.919   0.314  12.563  0.2066 -0.3486  0.3370
  661TMC3    C4 9781   2.779   0.397  12.788 -0.1230  0.2550  0.5643
  661TMC3    C5 9782   2.747   0.445  12.664  0.5147  0.7282  0.1356
  661TMC3    C6 9783   2.822   0.408  12.550  0.3814  0.6159 -0.2459
  661TMC3     C 9784   2.868   0.207  12.906  0.5520  0.0143 -0.3574
  661TMC3     O 9785   2.920   0.098  12.879 -0.6666 -0.0067 -0.1624
  661TMC3     H 9786   3.031   0.189  12.697  0.0892  0.5266 -0.1031
  661TMC3    H1 9787   2.718   0.425  12.873  1.4526 -0.0390  1.8113
  661TMC3    H2 9788   2.815   0.456  12.453  1.6653 -0.5777 -0.9167
  661TMC3    C7 9789   2.648   0.551  12.653 -0.4091  0.4528  0.4554
  661TMC3    C8 9790   3.010   0.295  12.456  0.5370  0.7773 -0.1905
  661TMC3    O1 9791   2.615   0.603  12.758 -0.1213  0.7497  0.4272
  661TMC3    O2 9792   2.970   0.301  12.338 -0.0219  0.0657  0.7404
  662MPD2     C 9793   3.138   0.011  17.272 -0.5097  0.3980  0.2023
  662MPD2    C1 9794   3.137   4.689  17.401  0.0567 -0.3858  0.1342
  662MPD2    C2 9795   3.086   0.035  17.501  0.4627 -0.1692 -0.2746
  662MPD2    C3 9796   3.017   0.157  17.482 -0.7405 -0.4270 -0.9599
  662MPD2    C4 9797   3.017   0.196  17.355 -0.5594 -0.2000 -0.7122
  662MPD2    C5 9798   3.081   0.137  17.255  0.2508 -0.2876  0.0959
  662MPD2     H 9799   3.078   4.719  17.602 -3.9101  1.2980 -0.0432
  662MPD2    H1 9800   2.966   0.288  17.329 -1.8785 -1.0067 -0.9680
  662MPD2    H2 9801   3.190   4.684  17.191  0.0011 -0.4835  1.0711
  662MPD2    H3 9802   3.084   0.190  17.160 -0.6302 -0.2105  0.1104
  662MPD2     N 9803   2.944   0.232  17.582  0.5074 -0.2594 -0.0914
  662MPD2    H5 9804   2.874   0.298  17.549 -0.3235 -2.0325 -1.8999
  662MPD2    N1 9805   3.183   4.561  17.433 -0.3335 -0.4953  0.6586
  662MPD2    H7 9806   3.189   4.539  17.533  0.9077  1.3541  0.9784
  663TMC3    C1 9807   3.230   4.331  17.421 -0.2389 -0.6258  0.5279
  663TMC3    C2 9808   3.163   4.326  17.546 -0.8169 -0.2929 -0.5890
  663TMC3    C3 9809   3.169   4.207  17.617 -0.3073 -0.5785  0.1335
  663TMC3    C4 9810   3.299   4.224  17.369 -0.2659 -0.5992  0.0113
  663TMC3    C5 9811   3.313   4.111  17.452 -0.8670 -0.0533  0.2947
  663TMC3    C6 9812   3.255   4.102  17.576  0.1119  0.0004 -0.5111
  663TMC3     C 9813   3.226   4.459  17.350  0.1068  0.0262 -0.6986
  663TMC3     O 9814   3.251   4.456  17.230  0.4697  0.1613  0.0992
  663TMC3     H 9815   3.080   4.394  17.563  1.9676  2.7510  0.8127
  663TMC3    H1 9816   3.347   4.234  17.272 -0.2374 -0.4687  0.0390
  663TMC3    H2 9817   3.261   4.014  17.638  1.2087  0.5732  0.1956
  663TMC3    C7 9818   3.342   3.983  17.390  0.8742  0.2171  0.5486
  663TMC3    C8 9819   3.041   4.135  17.632  0.3434  0.5503  0.3544
  663TMC3    O1 9820   3.426   3.975  17.302  0.1058 -0.3988 -0.0747
  663TMC3    O2 9821   3.031   4.037  17.556  0.7686 -0.8006 -0.0367
  664MPD2     C 9822   1.107   2.690   0.312  0.4589 -0.5338  0.1012
  664MPD2    C1 9823   1.176   2.803   0.349 -0.2952  0.0420  0.1008
  664MPD2    C2 9824   1.160   2.846   0.481  0.3093  0.2238  0.2964
  664MPD2    C3 9825   1.073   2.779   0.568 -0.4259 -0.5415 -0.5803
  664MPD2    C4 9826   1.007   2.668   0.522  0.8099 -0.2567 -0.0806
  664MPD2    C5 9827   1.030   2.620   0.397 -0.2736  0.6229  0.3559
  664MPD2     H 9828   1.193   2.944   0.513  2.4461 -0.2018 -0.5554
  664MPD2    H1 9829   0.941   2.614   0.589 -0.5197  1.2780 -0.1316
  664MPD2    H2 9830   1.125   2.645   0.215 -0.0768  1.4013 -0.9085
  664MPD2    H3 9831   0.973   2.534   0.365 -1.3907  1.7262 -0.5937
  664MPD2     N 9832   1.045   2.846   0.692 -0.3693 -0.4217 -0.1790
  664MPD2    H5 9833   1.102   2.928   0.709 -0.0607 -0.2174 -2.1688
  664MPD2    N1 9834   1.230   2.891   0.257  0.4749  0.1058 -0.1815
  664MPD2    H7 9835   1.278   2.974   0.291 -1.2634  1.0734 -0.1152
  665TMC3    C1 9836   0.910   2.907   0.887  0.5587 -0.1094  0.3494
  665TMC3    C2 9837   0.803   2.876   0.961 -0.6952 -0.3585  0.3060
  665TMC3    C3 9838   0.763   2.966   1.058  0.3955 -0.7544  0.0172
  665TMC3    C4 9839   0.974   3.022   0.905  1.4161  0.1723 -0.2239
  665TMC3    C5 9840   0.928   3.112   0.998  0.8529 -0.3895  0.4063
  665TMC3    C6 9841   0.825   3.089   1.081 -0.1627 -0.2627  0.3686
  665TMC3     C 9842   0.927   2.823   0.766  0.4003  0.7983  0.6042
  665TMC3     O 9843   0.836   2.745   0.737 -0.4068 -0.5893 -0.5946
  665TMC3     H 9844   0.743   2.789   0.936 -1.1051  1.0071 -3.3884
  665TMC3    H1 9845   1.060   3.054   0.848  0.9857 -1.2267 -1.6647
  665TMC3    H2 9846   0.795   3.166   1.151  0.7881  0.5216 -0.0950
  665TMC3    C7 9847   1.002   3.236   1.014  0.4617  0.2178  0.4699
  665TMC3    C8 9848   0.658   2.928   1.147 -0.1047  0.3206  0.2878
  665TMC3    O1 9849   1.066   3.281   0.922  0.0771  0.0442  0.3196
  665TMC3    O2 9850   0.564   2.857   1.114  0.3728  0.3446 -0.4567
  666TMC3    C1 9851   0.807   2.866  10.145  0.2253 -0.2666  0.6284
  666TMC3    C2 9852   0.907   2.842  10.238 -0.5525 -0.2800 -1.1254
  666TMC3    C3 9853   1.023   2.915  10.223  0.5382 -0.2945 -0.8089
  666TMC3    C4 9854   0.824   2.947  10.028 -0.1976  0.1870  0.5493
  666TMC3    C5 9855   0.938   3.025  10.024 -0.5696 -0.5198 -0.3110
  666TMC3    C6 9856   1.039   3.008  10.122  0.0168 -0.2179 -0.0957
  666TMC3     C 9857   0.705   2.760  10.146 -0.7161 -0.0385 -0.0098
  666TMC3     O 9858   0.726   2.676  10.231 -0.0019  0.2124 -0.1437
  666TMC3     H 9859   0.906   2.775  10.323 -1.9548  0.2706 -0.7192
  666TMC3    H1 9860   0.759   2.938   9.942 -1.6755 -0.0467  1.6842
  666TMC3    H2 9861   1.129   3.068  10.122 -0.3197  0.2712 -1.6193
  666TMC3    C7 9862   0.901   3.162  10.004  0.2744 -0.4199 -0.1359
  666TMC3    C8 9863   1.131   2.873  10.320  0.2310  0.1374  0.5103
  666TMC3    O1 9864   0.793   3.186  10.056 -0.4225 -0.2939  0.4461
  666TMC3    O2 9865   1.128   2.758  10.361  0.6947 -0.0732 -0.4190
  667MPD2     C 9866   1.906   2.779  14.997  0.2068 -0.9855  0.2665
  667MPD2    C1 9867   1.814   2.808  15.090  0.3440 -0.4694  0.0712
  667MPD2    C2 9868   1.679   2.777  15.066 -0.3180  0.2127 -0.1857
  667MPD2    C3 9869   1.637   2.711  14.950  0.0711  0.4013  0.1448
  667MPD2    C4 9870   1.733   2.681  14.854  0.3244  0.4726  0.6558
  667MPD2    C5 9871   1.862   2.713  14.886 -0.0269 -0.7795 -0.1549
  667MPD2     H 9872   1.609   2.796  15.146  0.5793 -0.9278  0.8655
  667MPD2    H1 9873   1.706   2.636  14.759 -2.2047 -0.4445  1.8046
  667MPD2    H2 9874   2.008   2.806  15.023  0.0532 -0.4571  0.3259
  667MPD2    H3 9875   1.937   2.703  14.809 -1.1239  0.0547 -1.3469
  667MPD2     N 9876   1.509   2.671  14.919  0.2404  0.1038 -0.1749
  667MPD2    H5 9877   1.500   2.622  14.831 -1.9696 -0.3372  0.2988
  667MPD2    N1 9878   1.833   2.866  15.215  0.1138 -0.3373 -0.4483
  667MPD2    H7 9879   1.753   2.881  15.276  1.1514 -0.5096  0.9501
  668TMC3    C1 9880   1.934   3.001  15.387  0.7629  0.2736 -0.6478
  668TMC3    C2 9881   1.992   3.123  15.400 -0.3258 -0.0551  0.8823
  668TMC3    C3 9882   1.984   3.177  15.527  0.7651 -0.2663  0.0575
  668TMC3    C4 9883   1.872   2.931  15.481 -0.7434  0.6190 -0.1794
  668TMC3    C5 9884   1.866   2.995  15.601  0.5467 -0.5975  0.3889
  668TMC3    C6 9885   1.919   3.117  15.627 -0.7481 -0.5496 -0.0318
  668TMC3     C 9886   1.944   2.938  15.249 -0.3089  0.3701  0.3002
  668TMC3     O 9887   2.032   2.975  15.171 -0.2581  0.4566  0.7906
  668TMC3     H 9888   2.046   3.169  15.318 -0.1622 -0.6128  0.6803
  668TMC3    H1 9889   1.832   2.831  15.471 -0.7106  0.8711 -2.6238
  668TMC3    H2 9890   1.917   3.148  15.731  1.0216 -0.4779 -0.0226
  668TMC3    C7 9891   1.764   2.936  15.684  0.4228 -0.2269 -0.0023
  668TMC3    C8 9892   2.054   3.297  15.566 -0.1959 -0.0065 -0.0438
  668TMC3    O1 9893   1.764   2.814  15.700 -0.1380  0.1896  0.4358
  668TMC3    O2 9894   2.061   3.330  15.680 -0.3002  0.0215 -0.3532
  669TMC3    C1 9895   4.563   2.896  14.771 -0.1265  0.6398 -0.2215
  669TMC3    C2 9896   4.451   2.904  14.697  1.2156 -0.2114  0.9432
  669TMC3    C3 9897   4.459   2.958  14.574 -0.7998  0.5803 -0.8623
  669TMC3    C4 9898   4.680   2.958  14.734  0.4819  0.4510  0.3446
  669TMC3    C5 9899   4.686   2.980  14.600 -0.3190  0.4364 -0.7440
  669TMC3    C6 9900   4.580   2.986  14.518 -0.1477 -0.4145 -0.3034
  669TMC3     C 9901   4.549   2.820  14.894  0.1833  0.3807  0.1489
  669TMC3     O 9902   4.443   2.821  14.959 -0.5806  0.3232 -0.1888
  669TMC3     H 9903   4.366   2.855  14.745  0.1693  2.0307  1.3542
  669TMC3    H1 9904   0.048   2.970  14.791 -0.7275  0.2980  2.3216
  669TMC3    H2 9905   4.593   3.026  14.418 -0.3000  0.3030 -0.0381
  669TMC3    C7 9906   0.095   3.002  14.549  0.7496  0.3721  0.1338
  669TMC3    C8 9907   4.357   2.928  14.479  0.1322 -0.7101  0.6950
  669TMC3    O1 9908   0.186   3.044  14.625  0.3309  0.0368  0.2071
  669TMC3    O2 9909   4.409   2.893  14.373 -0.1217  0.6104 -0.2721
  670MPD2     C 9910   3.094   0.472  13.202 -0.6773 -0.4719 -0.9435
  670MPD2    C1 9911   3.096   0.603  13.251  0.5993  0.4689 -0.2541
  670MPD2    C2 9912   3.056   0.618  13.386 -0.1243 -0.3153 -0.5749
  670MPD2    C3 9913   3.016   0.516  13.464 -0.5594  0.1022  0.5723
  670MPD2    C4 9914   3.046   0.389  13.426 -0.5341  0.0302 -0.5270
  670MPD2    C5 9915   3.076   0.367  13.292  0.0969  0.5590 -0.4901
  670MPD2     H 9916   3.045   0.717  13.430  0.8599  0.6635 -2.5167
  670MPD2    H1 9917   3.016   0.299  13.480  0.8614  0.3858  0.8393
  670MPD2    H2 9918   3.121   0.448  13.100  2.3080  0.9523 -0.5162
  670MPD2    H3 9919   3.069   0.268  13.248 -0.4170  0.9937 -1.3967
  670MPD2     N 9920   2.973   0.553  13.601  0.0865 -0.1976 -0.1656
  670MPD2    H5 9921   2.983   0.651  13.626 -0.3441 -0.3627  0.6246
  670MPD2    N1 9922   3.136   0.721  13.184 -0.0037  0.2356  0.1843
  670MPD2    H7 9923   3.097   0.805  13.228 -0.7000 -0.4331  0.8438
  671TMC3    C1 9924   2.881   0.526  13.804 -0.4857 -0.4041 -0.0564
  671TMC3    C2 9925   2.947   0.634  13.859 -0.5165  0.6825  0.2116
  671TMC3    C3 9926   2.941   0.654  13.996 -0.0479  0.5139 -0.2086
  671TMC3    C4 9927   2.781   0.459  13.866 -0.3117 -0.4268 -0.2349
  671TMC3    C5 9928   2.763   0.496  13.995  0.1886  0.2527 -0.0054
  671TMC3    C6 9929   2.837   0.592  14.064 -0.3260 -0.1692 -0.2474
  671TMC3     C 9930   2.930   0.459  13.688  0.2554 -0.5966  0.1813
  671TMC3     O 9931   2.889   0.345  13.666  0.3651  0.0254 -0.0926
  671TMC3     H 9932   3.043   0.665  13.818 -0.9952  1.0873 -0.6146
  671TMC3    H1 9933   2.714   0.391  13.815  1.3724 -2.2642  0.0083
  671TMC3    H2 9934   2.822   0.610  14.170  0.8183  0.3985 -0.1941
  671TMC3    C7 9935   2.682   0.405  14.080  0.1235 -0.6031 -0.1810
  671TMC3    C8 9936   3.060   0.612  14.055 -0.3865  0.4134  0.7729
  671TMC3    O1 9937   2.657   0.456  14.189  0.5059 -0.1223  0.3877
  671TMC3    O2 9938   3.156   0.585  13.986  0.0082  0.2643  0.4323
  672MPD2     C 9939   3.055   0.644   1.570 -0.4557 -0.4284  0.1322
  672MPD2    C1 9940   3.093   0.754   1.504  0.4617 -0.1684 -0.3419
  672MPD2    C2 9941   3.178   0.843   1.567 -0.3680 -0.2501 -0.0678
  672MPD2    C3 9942   3.221   0.839   1.692 -0.0664  0.4235 -0.0238
  672MPD2    C4 9943   3.178   0.728   1.765 -0.5842 -0.7355 -0.0237
  672MPD2    C5 9944   3.098   0.633   1.698 -0.2980 -0.4042 -0.5662
  672MPD2     H 9945   3.214   0.921   1.500 -1.0606 -0.4592 -0.6936
  672MPD2    H1 9946   3.221   0.701   1.861 -2.1273  0.7835  1.1033
  672MPD2    H2 9947   2.996   0.569   1.520  0.0954 -1.9862  1.8282
  672MPD2    H3 9948   3.076   0.538   1.745 -2.3351 -0.9951 -2.7106
  672MPD2     N 9949   3.300   0.943   1.751  1.0563 -0.2985  0.0012
  672MPD2    H5 9950   3.325   0.942   1.850 -0.0888  0.6904  0.2959
  672MPD2    N1 9951   3.088   0.759   1.363  0.1549 -0.4490  0.1653
  672MPD2    H7 9952   3.127   0.841   1.319 -1.7166  0.8246  0.8340
  673TMC3    C1 9953   3.098   0.675   1.149 -0.2004 -0.6933  0.2447
  673TMC3    C2 9954   3.171   0.586   1.081 -0.1585 -1.1218 -0.4152
  673TMC3    C3 9955   3.214   0.624   0.953 -0.1916 -0.5210 -0.9620
  673TMC3    C4 9956   3.080   0.805   1.103  0.8909  0.3757 -0.0459
  673TMC3    C5 9957   3.119   0.837   0.978 -0.1030  0.7645 -0.2959
  673TMC3    C6 9958   3.185   0.747   0.894 -0.5170  0.0369 -0.2403
  673TMC3     C 9959   3.077   0.643   1.287  0.4340 -0.9924  0.5815
  673TMC3     O 9960   3.078   0.523   1.320 -0.3326  0.2245  0.3276
  673TMC3     H 9961   3.186   0.484   1.116  3.3948 -0.0547  1.1746
  673TMC3    H1 9962   3.040   0.878   1.173  0.7995  1.5573 -1.3200
  673TMC3    H2 9963   3.226   0.775   0.797 -0.3392 -0.1360 -0.2170
  673TMC3    C7 9964   3.182   0.972   0.969  0.1284  0.3340 -0.3169
  673TMC3    C8 9965   3.326   0.547   0.902 -0.4195 -0.5328  0.1071
  673TMC3    O1 9966   3.220   1.014   1.074 -0.8910 -0.2604 -0.2016
  673TMC3    O2 9967   3.378   0.575   0.793 -0.4305 -0.3062  0.8410
  674MPD2     C 9968   2.292   1.204   0.282  0.1524  0.1804  0.4174
  674MPD2    C1 9969   2.413   1.158   0.337  0.6231  0.1140 -0.3078
  674MPD2    C2 9970   2.400   1.045   0.420  0.2681 -0.1911 -0.9566
  674MPD2    C3 9971   2.283   0.987   0.463  0.1351 -0.4949  0.9786
  674MPD2    C4 9972   2.170   1.041   0.405 -0.7811  0.2909 -1.0818
  674MPD2    C5 9973   2.174   1.139   0.311  0.6565 -0.7035  0.0660
  674MPD2     H 9974   2.485   0.999   0.469  0.2827  0.4683 -0.3700
  674MPD2    H1 9975   2.072   1.003   0.433  0.2057  0.3758  2.4840
  674MPD2    H2 9976   2.300   1.293   0.221 -2.4689  1.7624  2.3631
  674MPD2    H3 9977   2.084   1.167   0.258  1.4023  3.0322  0.7451
  674MPD2     N 9978   2.291   0.902   0.571 -0.5298  0.5175  0.3727
  674MPD2    H5 9979   2.383   0.860   0.580 -1.1634 -0.5416  1.7551
  674MPD2    N1 9980   2.527   1.238   0.301  0.1946  0.0002 -0.1658
  674MPD2    H7 9981   2.508   1.295   0.219  0.5443 -0.7088 -0.7422
  675TMC3    C1 9982   2.694   1.160   0.457  0.5393  0.6507  0.4812
  675TMC3    C2 9983   2.624   1.183   0.573 -0.3414  0.3025  0.1257
  675TMC3    C3 9984   2.681   1.125   0.682  0.1765  0.0703  0.5284
  675TMC3    C4 9985   2.806   1.085   0.441  0.5826  0.6097  0.3588
  675TMC3    C5 9986   2.854   1.029   0.554 -0.9286  0.0685  0.5834
  675TMC3    C6 9987   2.803   1.059   0.682  0.2570  0.1911  0.0246
  675TMC3     C 9988   2.661   1.233   0.335 -0.3894 -0.2383  0.8164
  675TMC3     O 9989   2.758   1.289   0.290 -0.0578 -0.1030  0.2136
  675TMC3     H 9990   2.533   1.243   0.568 -0.5328  0.0931  1.2746
  675TMC3    H1 9991   2.845   1.074   0.340 -0.4627  0.8048 -0.0721
  675TMC3    H2 9992   2.847   1.004   0.766 -2.2028 -3.0648 -0.8174
  675TMC3    C7 9993   2.978   0.948   0.549 -0.2130  0.2485  1.1490
  675TMC3    C8 9994   2.580   1.084   0.777 -0.0764  0.3643 -0.0773
  675TMC3    O1 9995   3.007   0.903   0.663  0.1522 -0.6433  0.7786
  675TMC3    O2 9996   2.477   1.144   0.767  0.1286 -0.3934 -0.1049
  676MPD2     C 9997   1.279   4.363  11.202  0.5334 -0.0829  0.5321
  676MPD2    C1 9998   1.225   4.251  11.266 -0.2308 -0.2972  0.0231
  676MPD2    C2 9999   1.253   4.127  11.216  0.2150 -0.0258  0.1490
  676MPD2    C310000   1.318   4.115  11.090 -0.4328 -0.0115 -0.4589
  676MPD2    C410001   1.380   4.228  11.033  0.1559 -0.5069 -0.1549
  676MPD2    C510002   1.359   4.350  11.096 -0.7097  0.8056 -0.2497
  676MPD2     H10003   1.235   4.051  11.292  0.1578 -0.4912 -0.3276
  676MPD2    H110004   1.432   4.228  10.938  1.2525 -1.1695  0.4500
  676MPD2    H210005   1.270   4.465  11.237  0.3826  0.4555 -1.0348
  676MPD2    H310006   1.394   4.438  11.044 -0.5426 -0.2525 -1.9164
  676MPD2     N10007   1.327   3.982  11.032 -0.6338 -0.0621 -0.0314
  676MPD2    H510008   1.382   3.982  10.946 -0.4833 -0.4212  0.0661
  676MPD2    N110009   1.157   4.269  11.395  0.4856  0.2357 -0.1783
  676MPD2    H710010   1.104   4.194  11.436 -0.2148  0.2560 -1.0456
  677TMC3    C110011   1.088   4.362  11.596  0.2427  0.4093 -0.5370
  677TMC3    C210012   1.085   4.233  11.641  0.2860  0.2034 -0.4161
  677TMC3    C310013   1.040   4.208  11.764 -0.9897 -0.0642  0.1816
  677TMC3    C410014   1.065   4.469  11.678  0.5731  0.2201 -0.2146
  677TMC3    C510015   1.020   4.438  11.800 -0.3106 -0.1053 -0.0804
  677TMC3    C610016   1.002   4.310  11.845 -0.3083  0.5841 -0.5769
  677TMC3     C10017   1.147   4.386  11.466  0.2812  0.8077 -0.2586
  677TMC3     O10018   1.197   4.496  11.443 -0.5389 -0.9055  0.5262
  677TMC3     H10019   1.120   4.145  11.588  0.5332  0.9850 -1.5508
  677TMC3    H110020   1.079   4.573  11.651 -0.3153  0.6485  0.9916
  677TMC3    H210021   0.967   4.279  11.943  0.4639  2.2361  0.2129
  677TMC3    C710022   1.012   4.531  11.902  0.1241 -0.7146  0.0524
  677TMC3    C810023   1.004   4.075  11.797  0.3643  0.2177 -0.1972
  677TMC3    O110024   1.019   4.492  12.016 -0.5658  0.1913 -0.0507
  677TMC3    O210025   0.933   4.023  11.710 -0.2210 -0.2351 -0.4238
  678MPD2     C10026   2.439   3.804   1.989 -0.1969 -0.5606  0.1541
  678MPD2    C110027   2.420   3.749   1.867  0.4020 -0.0297 -0.6202
  678MPD2    C210028   2.292   3.734   1.819 -0.1529  0.1606  0.2356
  678MPD2    C310029   2.179   3.764   1.899  0.5769  0.2895  1.3215
  678MPD2    C410030   2.203   3.802   2.027 -0.1637  0.1778 -0.4196
  678MPD2    C510031   2.331   3.826   2.071 -0.1717 -0.1428  0.8146
  678MPD2     H10032   2.277   3.687   1.723 -2.3141 -1.0094  1.1429
  678MPD2    H110033   2.126   3.800   2.103 -2.2503 -0.3080 -2.5367
  678MPD2    H210034   2.539   3.821   2.028 -0.1879 -1.1520  0.3921
  678MPD2    H310035   2.355   3.853   2.173  2.1704  1.5101 -0.1769
  678MPD2     N10036   2.043   3.738   1.853  0.1026  0.0907  0.6599
  678MPD2    H510037   2.031   3.688   1.766 -3.5310  1.8508  0.1639
  678MPD2    N110038   2.525   3.708   1.778 -0.3767  0.6156 -0.2979
  678MPD2    H710039   2.504   3.665   1.689 -0.9486 -0.4042  0.3315
  679TMC3    C110040   2.941   3.554   1.637 -0.3180 -1.1654  0.0696
  679TMC3    C210041   2.846   3.576   1.737 -0.4605  0.3436 -0.2990
  679TMC3    C310042   2.735   3.651   1.713  0.2250 -0.7501  0.2366
  679TMC3    C410043   2.908   3.587   1.509 -0.1125  0.4595  0.7096
  679TMC3    C510044   2.789   3.651   1.487 -0.4214 -0.7458  0.6928
  679TMC3    C610045   2.703   3.694   1.586 -0.0465 -0.1094 -0.1657
  679TMC3     C10046   3.037   3.443   1.662  0.1315 -0.2594 -0.1315
  679TMC3     O10047   3.083   3.396   1.556  0.1872  0.2153  0.2314
  679TMC3     H10048   2.855   3.526   1.833 -0.6834  1.4970  0.3288
  679TMC3    H110049   2.968   3.551   1.426 -2.7787 -0.9561 -0.6126
  679TMC3    H210050   2.628   3.771   1.570  1.1009  0.7373 -1.4530
  679TMC3    C710051   2.764   3.707   1.355  0.2785 -0.0590  0.3702
  679TMC3    C810052   2.653   3.689   1.821 -0.5681  0.1771 -0.0959
  679TMC3    O110053   2.700   3.812   1.351 -0.4442  0.7820  0.1750
  679TMC3    O210054   2.703   3.708   1.934 -0.2420  0.0938  0.0825
  680MPD2     C10055   3.242   2.620  13.710 -0.2558 -0.2837  0.1161
  680MPD2    C110056   3.109   2.617  13.748  0.1864  0.0631 -0.3393
  680MPD2    C210057   3.068   2.716  13.838 -0.0665 -0.2315 -0.8952
  680MPD2    C310058   3.157   2.808  13.892  0.5242 -0.1476 -0.9947
  680MPD2    C410059   3.294   2.804  13.852  0.1207 -0.5075  0.3999
  680MPD2    C510060   3.335   2.713  13.757 -0.3285 -0.1554 -0.4570
  680MPD2     H10061   2.961   2.719  13.857  0.0095 -2.7240 -0.0819
  680MPD2    H110062   3.367   2.860  13.910 -0.4451 -0.4589  1.0648
  680MPD2    H210063   3.276   2.559  13.628 -2.8113 -1.5246 -0.0288
  680MPD2    H310064   3.439   2.712  13.725 -1.2316  2.1458 -3.4676
  680MPD2     N10065   3.123   2.914  13.974 -0.1788  0.3904 -0.9494
  680MPD2    H510066   3.203   2.960  14.014 -0.1160 -0.0028 -0.6319
  680MPD2    N110067   3.012   2.532  13.696 -0.3463  0.2208 -0.7849
  680MPD2    H710068   2.921   2.543  13.738  0.0820  2.2218 -0.3868
  681TMC3    C110069   2.927   2.346  13.571 -0.4615 -0.4291 -0.1155
  681TMC3    C210070   2.830   2.324  13.662  0.6238  0.3302  0.3004
  681TMC3    C310071   2.721   2.253  13.619  0.3271  0.4359 -0.4265
  681TMC3    C410072   2.921   2.297  13.443  0.1341  0.0802 -0.0264
  681TMC3    C510073   2.812   2.216  13.407 -0.5210  0.4249  0.2543
  681TMC3    C610074   2.717   2.180  13.505  0.2148 -0.2004  0.1288
  681TMC3     C10075   3.036   2.429  13.608  0.0783 -0.0175 -0.6409
  681TMC3     O10076   3.138   2.397  13.547 -0.4813 -0.3421  0.2777
  681TMC3     H10077   2.835   2.378  13.756  0.7601  1.0311 -0.1178
  681TMC3    H110078   3.002   2.331  13.379  1.1548 -2.3536 -0.0141
  681TMC3    H210079   2.630   2.121  13.478  0.8518 -0.7532 -0.7023
  681TMC3    C710080   2.817   2.140  13.286  0.0503 -0.2872  0.3077
  681TMC3    C810081   2.612   2.247  13.712 -0.5222 -0.3940 -0.3748
  681TMC3    O110082   2.735   2.049  13.270 -0.5536 -0.1582  0.2790
  681TMC3    O210083   2.533   2.152  13.705 -0.5562  0.3609 -0.0203
  682MPD2     C10084   0.646   4.155  10.862 -0.2128 -0.0129 -0.2166
  682MPD2    C110085   0.597   4.027  10.864  0.0625  0.3472 -0.5101
  682MPD2    C210086   0.503   3.991  10.962 -0.0555 -0.3108 -0.5736
  682MPD2    C310087   0.463   4.078  11.058  0.4712 -0.0410  0.0970
  682MPD2    C410088   0.518   4.202  11.057  0.0719 -0.1617 -0.0882
  682MPD2    C510089   0.606   4.244  10.954  0.0081  0.1826  0.3825
  682MPD2     H10090   0.451   3.898  10.943  1.7574 -1.1169 -1.6263
  682MPD2    H110091   0.489   4.276  11.131  1.7329  1.7575 -1.3288
  682MPD2    H210092   0.722   4.185  10.791  0.5197 -1.7908 -0.2024
  682MPD2    H310093   0.658   4.339  10.967 -1.5831  0.9748  0.9392
  682MPD2     N10094   0.363   4.049  11.149  0.2799  0.5326 -0.7849
  682MPD2    H510095   0.343   4.123  11.216  0.9960 -2.2221  2.4520
  682MPD2    N110096   0.629   3.932  10.761  0.0963  0.0680 -0.1294
  682MPD2    H710097   0.583   3.842  10.756 -0.1381  0.3071 -2.2090
  683TMC3    C110098   0.186   3.906  11.499 -0.2935 -0.7046  0.5916
  683TMC3    C210099   0.085   3.818  11.492  0.3559  0.0910 -0.1815
  683TMC3    C310100   0.029   3.801  11.369  0.5511 -0.6484 -0.1785
  683TMC3    C410101   0.242   3.964  11.387 -0.2787  0.1603 -0.3424
  683TMC3    C510102   0.186   3.941  11.260 -0.1121 -0.6628 -0.1401
  683TMC3    C610103   0.085   3.850  11.248  0.2016  0.1425 -0.0096
  683TMC3     C10104   0.208   3.952  11.636 -0.3218 -0.6261 -0.4529
  683TMC3     O10105   0.258   4.063  11.648  0.1040  0.6795  0.2893
  683TMC3     H10106   0.044   3.754  11.569 -1.2254  0.9778 -0.2906
  683TMC3    H110107   0.329   4.028  11.398 -0.0808  0.1671 -1.9166
  683TMC3    H210108   0.067   3.793  11.158 -0.8314 -1.0535  0.9487
  683TMC3    C710109   0.278   3.939  11.142 -0.2178  0.0332  0.3387
  683TMC3    C810110   4.688   3.673  11.363 -0.3056 -1.0173 -0.2260
  683TMC3    O110111   0.256   3.862  11.049  0.0375  0.0891  0.3740
  683TMC3    O210112   4.566   3.686  11.381 -0.3050 -0.7643 -0.5888
  684MPD2     C10113   2.919   3.416  16.676  0.6486 -0.1093 -0.0367
  684MPD2    C110114   2.949   3.432  16.538 -0.0002 -0.3288  0.4976
  684MPD2    C210115   2.994   3.551  16.482 -0.4464  0.7163  0.4077
  684MPD2    C310116   3.029   3.652  16.575 -0.0279  0.1232 -0.1058
  684MPD2    C410117   3.000   3.628  16.711  0.2962  0.2748  0.3706
  684MPD2    C510118   2.943   3.521  16.759  0.6953  0.2127  0.6852
  684MPD2     H10119   3.014   3.568  16.377 -0.5164 -0.4050  0.2188
  684MPD2    H110120   3.031   3.703  16.782 -3.3766  1.2924  0.9190
  684MPD2    H210121   2.883   3.323  16.717 -0.2724  0.1405 -0.2944
  684MPD2    H310122   2.936   3.498  16.864 -0.2189  2.1138  1.0326
  684MPD2     N10123   3.091   3.777  16.544  0.0991  0.3635 -0.3783
  684MPD2    H510124   3.103   3.845  16.618  1.5788 -0.7610  0.4344
  684MPD2    N110125   2.933   3.324  16.449  0.2377  0.6208  0.2283
  684MPD2    H710126   2.959   3.350  16.355  0.1865 -1.1848 -0.2897
  685TMC3    C110127   2.925   3.103  16.385  0.6487 -0.5303  0.1613
  685TMC3    C210128   2.837   2.999  16.390  0.5566  0.6949  0.8556
  685TMC3    C310129   2.869   2.873  16.342 -0.1162  0.5013 -0.2273
  685TMC3    C410130   3.052   3.084  16.336 -0.2158 -0.2551 -0.0451
  685TMC3    C510131   3.081   2.956  16.296  0.4877 -0.6299 -0.4049
  685TMC3    C610132   2.990   2.848  16.296  0.1258 -0.1829  0.6089
  685TMC3     C10133   2.904   3.195  16.489  0.1403 -1.3869  0.6313
  685TMC3     O10134   2.860   3.148  16.591 -0.3881  0.0254 -0.9059
  685TMC3     H10135   2.742   3.017  16.439  0.6142  1.9469  0.5071
  685TMC3    H110136   3.123   3.166  16.349  2.2310 -2.1177 -1.6559
  685TMC3    H210137   3.010   2.760  16.237  0.1683 -0.0097  0.3629
  685TMC3    C710138   3.195   2.944  16.208 -1.2324 -0.1486 -0.3723
  685TMC3    C810139   2.765   2.789  16.290 -0.6163  0.0930 -0.1192
  685TMC3    O110140   3.188   2.873  16.108  0.0833  0.2900  0.2738
  685TMC3    O210141   2.780   2.674  16.253 -0.2401 -0.1264 -0.0866
  686MPD2     C10142   4.252   3.813  15.852 -0.2629 -0.3357  0.1287
  686MPD2    C110143   4.299   3.698  15.925 -0.0919  0.0741 -0.0008
  686MPD2    C210144   4.422   3.714  15.982 -0.4616 -0.1107 -0.1373
  686MPD2    C310145   4.498   3.823  15.943 -0.1363 -0.2385  0.4907
  686MPD2    C410146   4.447   3.931  15.884  0.2176  0.3569  0.5357
  686MPD2    C510147   4.322   3.929  15.840  0.3849 -0.3385  0.3947
  686MPD2     H10148   4.462   3.638  16.047  1.1016  1.5936  0.9150
  686MPD2    H110149   4.503   4.021  15.864 -1.1829  1.3619  1.1376
  686MPD2    H210150   4.152   3.826  15.810  0.5297  0.2342 -1.5807
  686MPD2    H310151   4.276   4.005  15.779  0.2026 -0.3659  0.4983
  686MPD2     N10152   4.638   3.821  15.953  0.8930  0.2931  0.6018
  686MPD2    H510153   4.686   3.886  15.892  0.4571  0.3292  0.2985
  686MPD2    N110154   4.228   3.576  15.930 -0.1732  0.4326  0.4029
  686MPD2    H710155   4.137   3.588  15.887  0.6563 -2.0927 -2.0174
  687TMC3    C110156   0.098   3.681  15.913 -0.6521  0.3966 -1.0186
  687TMC3    C210157   0.060   3.647  15.786 -0.0753  0.2038 -0.5957
  687TMC3    C310158   0.102   3.524  15.733  0.0346 -0.5764 -0.4084
  687TMC3    C410159   0.178   3.601  15.990  0.3966  0.1599  0.1267
  687TMC3    C510160   0.223   3.484  15.930  0.8379 -0.3043  0.3160
  687TMC3    C610161   0.197   3.451  15.799 -0.3701  0.3107  0.1304
  687TMC3     C10162   4.719   3.723  16.007  0.3049  0.0527 -0.2427
  687TMC3     O10163   4.685   3.650  16.099  0.0073  0.0435  0.1384
  687TMC3     H10164   4.720   3.711  15.725  2.1563  1.9821 -1.0675
  687TMC3    H110165   0.190   3.618  16.096  1.7431 -0.7552  0.1159
  687TMC3    H210166   0.235   3.361  15.752  0.3635  0.3102  0.7302
  687TMC3    C710167   0.231   3.373  16.022  0.2689 -0.2745 -0.0720
  687TMC3    C810168   4.718   3.432  15.684 -0.1212  0.4617 -0.1148
  687TMC3    O110169   0.289   3.387  16.130  0.3469  0.3799 -0.1416
  687TMC3    O210170   0.016   3.312  15.707  0.1236  0.2458 -0.7694
  688MPD2     C10171   4.038   2.210  17.517 -0.5887  0.3597 -0.3155
  688MPD2    C110172   4.000   2.083  17.491 -0.0851  0.6945  0.6036
  688MPD2    C210173   4.052   2.022  17.371  0.9091  0.0648  0.1458
  688MPD2    C310174   4.140   2.084  17.289 -0.1191 -0.3984  0.4605
  688MPD2    C410175   4.180   2.213  17.326 -0.1981 -0.2652 -0.3311
  688MPD2    C510176   4.126   2.273  17.437  0.2693  0.6384 -0.5055
  688MPD2     H10177   4.029   1.923  17.334  1.0796 -0.3694  1.2035
  688MPD2    H110178   4.245   2.273  17.262  1.0580 -1.1479  0.1145
  688MPD2    H210179   4.005   2.266  17.603 -0.8043 -0.7787  0.3432
  688MPD2    H310180   4.163   2.370  17.469 -2.5954  1.9649 -1.1906
  688MPD2     N10181   4.192   2.038  17.164 -0.6228 -0.2430  0.0441
  688MPD2    H510182   4.244   2.109  17.115 -0.6753 -0.2564 -0.0311
  688MPD2    N110183   3.906   2.025  17.577 -0.0068  0.0901  0.9849
  688MPD2    H710184   3.890   2.069  17.668 -1.0387  0.9621  0.3778
  689TMC3    C110185   3.765   1.853  17.660  0.3612 -0.0866  0.0493
  689TMC3    C210186   3.758   1.932   0.077 -0.2193  0.2772 -0.2841
  689TMC3    C310187   3.691   1.870   0.180 -0.0777  0.5579 -0.3399
  689TMC3    C410188   3.702   1.734  17.633  0.1706  0.7640 -0.7619
  689TMC3    C510189   3.638   1.683   0.046 -0.2056 -0.3298  0.7060
  689TMC3    C610190   3.637   1.743   0.169 -0.2697 -0.6391 -0.4319
  689TMC3     C10191   3.826   1.918  17.544  0.2554  0.5440 -0.1830
  689TMC3     O10192   3.790   1.888  17.433 -0.6884 -0.1150  0.2150
  689TMC3     H10193   3.789   2.035   0.093  1.9414 -0.4907  0.4656
  689TMC3    H110194   3.706   1.677  17.541 -1.6723 -0.2710 -0.2065
  689TMC3    H210195   3.601   1.682   0.251  0.4413 -0.6549 -0.1357
  689TMC3    C710196   3.576   1.554   0.032 -0.1413  1.1596  0.6800
  689TMC3    C810197   3.668   1.930   0.309 -0.0288 -0.9332 -0.9003
  689TMC3    O110198   3.559   1.483   0.133  0.2097 -0.4606 -0.6215
  689TMC3    O210199   3.582   1.870   0.376 -0.3906  0.6858 -0.0466
  690MPD2     C10200   1.178   3.889  16.044 -0.5114 -0.2599 -0.2254
  690MPD2    C110201   1.167   3.890  15.902  0.2062  0.2287 -0.3673
  690MPD2    C210202   1.282   3.908  15.823 -0.1543 -0.2253  0.2159
  690MPD2    C310203   1.403   3.922  15.886 -0.6497 -0.8282  0.1147
  690MPD2    C410204   1.419   3.916  16.023 -0.3042 -0.0493 -0.3853
  690MPD2    C510205   1.301   3.911  16.097  0.7366 -0.0702 -0.4558
  690MPD2     H10206   1.279   3.910  15.715 -1.9161  0.3600  0.2822
  690MPD2    H110207   1.512   3.932  16.077 -2.3468  3.2724  2.1269
  690MPD2    H210208   1.098   3.876  16.115  0.1558  0.7750  0.7085
  690MPD2    H310209   1.307   3.910  16.205  1.3628 -1.3785 -0.4998
  690MPD2     N10210   1.516   3.926  15.796  0.9447  0.4652 -0.3290
  690MPD2    H510211   1.488   3.930  15.698  1.4716 -1.3940 -0.5609
  690MPD2    N110212   1.042   3.888  15.843 -0.1965 -0.3657 -0.0366
  690MPD2    H710213   1.047   3.860  15.745  3.6885  1.3397 -0.3177
  691TMC3    C110214   0.816   3.813  15.853  0.4938 -0.5511  0.0417
  691TMC3    C210215   0.698   3.826  15.931  0.0552  0.1054 -0.1076
  691TMC3    C310216   0.630   3.707  15.955  0.1127  0.2831  0.2899
  691TMC3    C410217   0.854   3.694  15.809 -0.3708 -0.0094  0.4182
  691TMC3    C510218   0.784   3.579  15.842  0.2044 -0.1768  0.0501
  691TMC3    C610219   0.671   3.585  15.918  0.0333 -0.2197 -0.0684
  691TMC3     C10220   0.924   3.901  15.910  0.9381 -0.2037 -0.1907
  691TMC3     O10221   0.902   3.955  16.018 -0.2036  0.1152  0.0201
  691TMC3     H10222   0.670   3.921  15.974 -0.6489  0.0167 -0.3651
  691TMC3    H110223   0.940   3.682  15.745 -0.9862 -0.0018 -0.4056
  691TMC3    H210224   0.616   3.499  15.954  1.3111 -0.5683  1.0271
  691TMC3    C710225   0.848   3.444  15.842 -0.1099  0.8607  0.1248
  691TMC3    C810226   0.526   3.713  16.057  0.2977 -0.2666 -0.0470
  691TMC3    O110227   0.962   3.431  15.796 -0.0030  0.0151 -0.0562
  691TMC3    O210228   0.529   3.621  16.139 -0.0294 -0.3313 -0.2755
  692TMC3    C110229   2.952   0.294  15.827  0.0818  0.0471 -0.2311
  692TMC3    C210230   3.071   0.329  15.893  0.1948  0.6481 -0.0044
  692TMC3    C310231   3.171   0.235  15.921  0.2432  0.5337 -0.3944
  692TMC3    C410232   2.937   0.167  15.779  0.0958  0.0046 -0.9569
  692TMC3    C510233   3.055   0.095  15.778  0.1297 -0.3278  0.7041
  692TMC3    C610234   3.170   0.125  15.844 -0.5135 -0.2228  0.2383
  692TMC3     C10235   2.829   0.362  15.865  0.4280  1.0927  0.2269
  692TMC3     O10236   2.721   0.306  15.848 -0.1313  0.0638  0.5680
  692TMC3     H10237   3.082   0.428  15.936  1.0629  1.3784 -1.8901
  692TMC3    H110238   2.843   0.141  15.732 -0.3103  3.2678 -1.9516
  692TMC3    H210239   3.257   0.060  15.839 -0.3299  0.1079 -0.8784
  692TMC3    C710240   3.031   4.679  15.743 -0.3065  0.2622 -0.1123
  692TMC3    C810241   3.130   0.185  16.056  0.3710  0.7928  0.4709
  692TMC3    O110242   2.937   4.656  15.671  0.2824  0.8687  0.3185
  692TMC3    O210243   3.146   0.066  16.064  0.3768  0.2481  0.4400
  693MPD2     C10244   2.540   3.473  10.873  0.3037 -0.1656  0.5132
  693MPD2    C110245   2.491   3.399  10.767  0.2139  0.1540 -0.5562
  693MPD2    C210246   2.586   3.326  10.693  0.0889 -0.3022 -0.1043
  693MPD2    C310247   2.719   3.332  10.724  0.3725 -0.0969 -0.1151
  693MPD2    C410248   2.766   3.411  10.826  0.3525  0.4577 -0.1494
  693MPD2    C510249   2.677   3.480  10.901  0.3673  0.8858  0.5735
  693MPD2     H10250   2.547   3.261  10.614  0.2385 -1.7395  1.0004
  693MPD2    H110251   2.868   3.410  10.860  0.3888 -0.9292 -0.3071
  693MPD2    H210252   2.478   3.544  10.926  0.7397  0.5664  0.0452
  693MPD2    H310253   2.724   3.534  10.982 -0.7473 -0.1744  1.9141
  693MPD2     N10254   2.806   3.236  10.667 -0.0557 -0.3228 -0.1869
  693MPD2    H510255   2.897   3.219  10.708  0.9257  0.6031 -2.0185
  693MPD2    N110256   2.355   3.378  10.751 -0.1771 -0.7253  0.0816
  693MPD2    H710257   2.291   3.423  10.816 -1.9644 -3.5161  0.2503
  694TMC3    C110258   2.153   3.279  10.678 -0.0195 -0.3152  0.2960
  694TMC3    C210259   2.104   3.193  10.590  0.2064  0.1060 -0.6002
  694TMC3    C310260   2.019   3.090  10.629 -0.6318 -0.2306  0.1892
  694TMC3    C410261   2.117   3.263  10.816  0.3288 -0.2069 -0.1286
  694TMC3    C510262   2.033   3.163  10.846 -0.4196 -0.7779  0.1518
  694TMC3    C610263   1.973   3.084  10.757  0.0540 -0.5911  0.1851
  694TMC3     C10264   2.292   3.306  10.652  1.0030  0.1806 -0.3885
  694TMC3     O10265   2.338   3.237  10.562 -0.7113 -0.0567 -0.0864
  694TMC3     H10266   2.119   3.209  10.484 -0.2633 -1.9393 -0.9641
  694TMC3    H110267   2.179   3.305  10.894  0.0325  1.0502 -0.5831
  694TMC3    H210268   1.896   3.013  10.785 -2.4571  1.8754 -0.4221
  694TMC3    C710269   2.026   3.127  10.986 -0.4972  0.2744  0.2206
  694TMC3    C810270   1.953   3.007  10.529 -0.2459  0.2818 -0.1403
  694TMC3    O110271   2.040   3.225  11.061 -0.3050 -0.0081 -0.1964
  694TMC3    O210272   1.893   2.911  10.576  0.2004 -0.1989 -0.6356
  695MPD2     C10273   3.254   4.654  13.640  0.1437  0.2796 -0.4480
  695MPD2    C110274   3.223   4.629  13.774  0.1124 -0.8660 -0.2467
  695MPD2    C210275   3.089   4.606  13.799  0.4977  0.0172  0.3809
  695MPD2    C310276   2.991   4.585  13.699  0.2679 -0.5117  0.3851
  695MPD2    C410277   3.036   4.603  13.569 -0.3049 -0.4545  0.0606
  695MPD2    C510278   3.159   4.645  13.541 -0.3522  0.2827  0.2732
  695MPD2     H10279   3.047   4.585  13.897 -0.7181 -1.7631 -0.5261
  695MPD2    H110280   2.966   4.602  13.486 -1.1675  3.4671  0.7041
  695MPD2    H210281   3.355   4.690  13.626  0.8775 -2.2732 -1.8936
  695MPD2    H310282   3.180   4.673  13.438  1.4518  0.0705  0.5851
  695MPD2     N10283   2.861   4.541  13.728 -0.4846  0.1341 -0.1568
  695MPD2    H510284   2.838   4.531  13.826  1.8290 -2.6634  0.1051
  695MPD2    N110285   3.312   4.640  13.881  0.3069 -0.7558  0.0977
  695MPD2    H710286   3.269   4.639  13.974  1.4208  0.5157  0.6335
  696TMC3    C110287   2.652   4.441  13.706 -0.1444 -0.2842 -0.6060
  696TMC3    C210288   2.679   4.380  13.824  0.0268 -0.2267  0.2702
  696TMC3    C310289   2.583   4.383  13.922  0.5185 -0.3424 -0.3471
  696TMC3    C410290   2.525   4.494  13.673  0.4063 -0.2450  0.1637
  696TMC3    C510291   2.423   4.470  13.766  0.3249 -0.3983 -0.2635
  696TMC3    C610292   2.452   4.404  13.884 -0.2737  0.4635 -0.5827
  696TMC3     C10293   2.762   4.499  13.639  0.0551  0.5005 -0.4670
  696TMC3     O10294   2.757   4.502  13.515 -0.3008 -0.2130  0.1609
  696TMC3     H10295   2.774   4.335  13.850  1.4488  2.5249 -0.1023
  696TMC3    H110296   2.502   4.553  13.585 -2.9447 -0.7745  0.6601
  696TMC3    H210297   2.376   4.404  13.962 -1.1033 -0.8518 -1.3831
  696TMC3    C710298   2.295   4.538  13.767  0.0262 -0.4746 -0.4346
  696TMC3    C810299   2.623   4.491  14.007  0.0094  0.6420 -0.1277
  696TMC3    O110300   2.197   4.471  13.797 -0.6474 -0.5890  0.0147
  696TMC3    O210301   2.740   4.527  14.003 -0.1436 -0.5649  0.5940
  697MPD2     C10302   2.252   1.936  15.825  0.4118  0.4828 -0.1963
  697MPD2    C110303   2.335   1.894  15.721 -0.6831 -0.2036  0.0145
  697MPD2    C210304   2.391   1.983  15.634  0.1504 -0.1573  0.9185
  697MPD2    C310305   2.367   2.114  15.653 -0.7026 -0.7804 -0.0889
  697MPD2    C410306   2.286   2.161  15.756 -0.6062 -0.0367  0.0436
  697MPD2    C510307   2.221   2.073  15.833  0.2454  0.2677 -0.1509
  697MPD2     H10308   2.454   1.954  15.551 -3.0872 -0.7642 -1.3509
  697MPD2    H110309   2.264   2.267  15.769 -3.5519 -0.5573 -0.6500
  697MPD2    H210310   2.195   1.868  15.887  1.8574 -1.9395 -1.5511
  697MPD2    H310311   2.156   2.114  15.909  0.2029 -1.4682  0.7518
  697MPD2     N10312   2.430   2.191  15.558  0.6112  0.7593  0.2013
  697MPD2    H510313   2.500   2.144  15.502  0.4006 -0.3705  0.8830
  697MPD2    N110314   2.363   1.756  15.705 -0.2912  0.3565  0.1397
  697MPD2    H710315   2.415   1.734  15.621 -0.9855  0.5825 -0.3500
  698TMC3    C110316   2.503   2.386  15.455 -0.3728  0.3471  0.3338
  698TMC3    C210317   2.533   2.523  15.492 -0.1910  0.2177 -0.0338
  698TMC3    C310318   2.637   2.584  15.434  0.2019  0.2402 -0.1836
  698TMC3    C410319   2.588   2.320  15.370  0.4915 -0.7415  0.4525
  698TMC3    C510320   2.699   2.383  15.320  0.2289 -0.1282 -0.3311
  698TMC3    C610321   2.725   2.515  15.351 -0.4188 -0.3114 -0.1292
  698TMC3     C10322   2.399   2.326  15.533  0.2427  1.0938 -0.6749
  698TMC3     O10323   2.311   2.401  15.587 -0.5191  0.4161 -0.3780
  698TMC3     H10324   2.475   2.569  15.572 -0.0011  0.3533  0.0258
  698TMC3    H110325   2.555   2.226  15.329 -1.2039  0.5831 -1.2494
  698TMC3    H210326   2.810   2.558  15.299  0.3755  0.1127  1.5071
  698TMC3    C710327   2.709   2.342  15.176 -0.2244 -0.5740 -1.3155
  698TMC3    C810328   2.610   2.725  15.407  0.2911 -0.2595  0.0180
  698TMC3    O110329   2.623   2.271  15.128  0.1317  0.0281 -0.1736
  698TMC3    O210330   2.493   2.758  15.419  0.1170  0.2203 -0.0382
  699TMC3    C110331   2.774   4.351  13.193  0.0884  0.3930 -0.2925
  699TMC3    C210332   2.838   4.299  13.303  0.2214 -0.2327  0.1282
  699TMC3    C310333   2.796   4.184  13.360 -0.1153  0.0699 -0.0819
  699TMC3    C410334   2.671   4.286  13.126 -0.2642  0.1119  0.3016
  699TMC3    C510335   2.635   4.163  13.181 -0.0806  0.7572  0.1701
  699TMC3    C610336   2.688   4.121  13.300 -0.1104 -0.8513  0.1206
  699TMC3     C10337   2.802   4.488  13.151  0.3491  0.4143 -0.2784
  699TMC3     O10338   2.771   4.504  13.034  0.3325  0.1453  0.6748
  699TMC3     H10339   2.908   4.360  13.361  0.2071  1.8121 -2.0120
  699TMC3    H110340   2.618   4.324  13.040  2.4148 -0.3492 -1.5606
  699TMC3    H210341   2.644   4.035  13.348 -2.0610 -0.0742 -0.2752
  699TMC3    C710342   2.493   4.134  13.170  0.0402  0.6900 -1.0681
  699TMC3    C810343   2.819   4.176  13.503 -0.6682 -0.0207 -0.2864
  699TMC3    O110344   2.413   4.230  13.174  0.1615  0.0622  0.0634
  699TMC3    O210345   2.723   4.127  13.560  0.3382  0.4807  0.1024
  700TMC3    C110346   1.338   2.436   0.099 -0.6197 -0.1235  0.0395
  700TMC3    C210347   1.306   2.305   0.097 -0.4034  0.1437 -0.1645
  700TMC3    C310348   1.383   2.232   0.183  0.2982 -0.7183  0.5393
  700TMC3    C410349   1.407   2.501   0.199  0.5638 -0.2523  0.3637
  700TMC3    C510350   1.469   2.424   0.287 -0.2318  0.3606 -0.0439
  700TMC3    C610351   1.467   2.290   0.274 -0.7638 -0.4270  0.3623
  700TMC3     C10352   1.300   2.517  17.685 -0.8122 -0.5055 -0.4235
  700TMC3     O10353   1.185   2.503  17.646 -0.7330 -0.0914 -1.0810
  700TMC3     H10354   1.254   2.261   0.012  0.6388  2.0591 -1.7878
  700TMC3    H110355   1.428   2.607   0.201  2.0970 -0.5160 -2.3561
  700TMC3    H210356   1.528   2.236   0.346  2.1430  3.1123  0.5449
  700TMC3    C710357   1.578   2.478   0.356  0.5586 -0.2099  0.0697
  700TMC3    C810358   1.405   2.099   0.135  0.6594 -0.0455 -0.3099
  700TMC3    O110359   1.639   2.569   0.296 -0.1800  0.5114  0.9593
  700TMC3    O210360   1.520   2.062   0.149 -0.3078  0.1587 -0.0715
  701TMC3    C110361   1.988   0.946  15.433 -0.0476  0.0778 -0.1239
  701TMC3    C210362   1.962   0.941  15.300 -0.2374  0.1835  0.2385
  701TMC3    C310363   1.922   1.057  15.240 -0.4677 -0.7667 -0.2021
  701TMC3    C410364   1.986   1.062  15.506  0.1878 -0.3901  0.7740
  701TMC3    C510365   1.932   1.176  15.450 -0.3824  0.4645 -0.1270
  701TMC3    C610366   1.917   1.175  15.314 -0.1464  0.1046  0.1807
  701TMC3     C10367   1.958   0.829  15.510 -0.3169  0.4762 -0.7439
  701TMC3     O10368   1.876   0.836  15.601  0.0406  0.4527 -0.0986
  701TMC3     H10369   1.978   0.849  15.244  0.1353 -0.5615  1.5569
  701TMC3    H110370   2.019   1.058  15.609  0.4561  0.1675  0.7109
  701TMC3    H210371   1.894   1.272  15.271 -2.4605 -0.3950  0.2567
  701TMC3    C710372   1.957   1.302  15.511  0.9779  0.4353  0.5647
  701TMC3    C810373   1.856   1.055  15.112  0.3329 -0.3446  0.2686
  701TMC3    O110374   1.990   1.396  15.443 -0.4410  0.1891  0.0132
  701TMC3    O210375   1.827   1.162  15.061  0.0417  0.5009 -0.4747
  702MPD2     C10376   1.629   3.669  10.452  0.5423  0.5155  0.3712
  702MPD2    C110377   1.640   3.749  10.567  0.3265 -0.2155  0.4405
  702MPD2    C210378   1.746   3.843  10.571 -0.7245  0.4364 -0.1046
  702MPD2    C310379   1.838   3.852  10.474 -0.2169 -0.0939  0.5931
  702MPD2    C410380   1.846   3.746  10.381  0.3327  0.8772  0.0892
  702MPD2    C510381   1.742   3.659  10.369 -0.0872  0.1271  0.2842
  702MPD2     H10382   1.752   3.908  10.657  0.4281 -2.2139  1.8269
  702MPD2    H110383   1.931   3.722  10.318  0.0832 -2.9315  1.2269
  702MPD2    H210384   1.537   3.616  10.432 -0.1606  2.2042 -0.8904
  702MPD2    H310385   1.743   3.579  10.295  1.4533 -0.2748  0.7624
  702MPD2     N10386   1.937   3.963  10.473  0.1557 -0.5343 -0.3331
  702MPD2    H510387   1.910   4.032  10.541 -2.5181 -1.5063 -0.3735
  702MPD2    N110388   1.542   3.747  10.669 -0.0966 -0.4334  0.3714
  702MPD2    H710389   1.539   3.824  10.735 -0.1148 -0.2457  0.1504
  703TMC3    C110390   1.941   4.093  10.295 -0.3287 -0.0930  0.3206
  703TMC3    C210391   1.825   4.039  10.242  0.9170  0.5629 -1.1731
  703TMC3    C310392   1.708   4.101  10.250  0.1679  0.4391 -0.2783
  703TMC3    C410393   1.941   4.222  10.351 -0.2591 -0.2531 -0.0379
  703TMC3    C510394   1.821   4.293  10.351  0.2635  0.9403  0.6361
  703TMC3    C610395   1.707   4.230  10.311 -0.5774 -0.3283 -0.1316
  703TMC3     C10396   2.015   3.996  10.366 -0.0459  0.0475  0.2626
  703TMC3     O10397   2.071   3.914  10.295  0.0892  0.0054  0.9243
  703TMC3     H10398   1.838   3.940  10.201  0.4154  0.8958 -2.1422
  703TMC3    H110399   2.025   4.263  10.405 -0.0340 -0.1291 -0.4793
  703TMC3    H210400   1.619   4.289  10.292 -0.7136 -0.0790  1.2647
  703TMC3    C710401   1.823   4.428  10.400  0.2277  0.0500  0.2341
  703TMC3    C810402   1.589   4.012  10.245 -0.4631 -0.3386 -0.8394
  703TMC3    O110403   1.934   4.469  10.436  0.0051 -0.3004 -0.0029
  703TMC3    O210404   1.559   3.964  10.137 -0.4626  0.4711  0.0430
  704TMC3    C110405   3.949   1.799  12.228  0.2128  0.7544  0.0651
  704TMC3    C210406   4.056   1.875  12.266 -0.4518 -0.6339  0.2990
  704TMC3    C310407   4.139   1.817  12.352 -0.1491 -0.9005 -0.5602
  704TMC3    C410408   3.934   1.667  12.255  0.3217 -0.1880 -0.8290
  704TMC3    C510409   4.034   1.604  12.334 -0.1314  0.2330  0.2822
  704TMC3    C610410   4.133   1.685  12.382 -0.0405  0.2095  0.2320
  704TMC3     C10411   3.884   1.842  12.114  0.6073  0.0345  0.0667
  704TMC3     O10412   3.767   1.818  12.094  0.6485  0.1772 -0.4352
  704TMC3     H10413   4.058   1.983  12.258 -0.8526 -0.5014  2.0004
  704TMC3    H110414   3.848   1.617  12.212 -0.8325 -1.7320  3.2254
  704TMC3    H210415   4.220   1.638  12.427 -0.3645 -1.1231 -0.5315
  704TMC3    C710416   4.095   1.486  12.267 -0.9039  0.8320 -0.1907
  704TMC3    C810417   4.264   1.881  12.357 -0.0225 -0.4703 -1.2445
  704TMC3    O110418   4.210   1.475  12.244 -0.4283  0.4510 -0.0125
  704TMC3    O210419   4.303   1.943  12.260  0.4980 -0.3544  0.9637
  705MPD2     C10420   3.178   0.070  16.805  0.1446  0.2340  0.6667
  705MPD2    C110421   3.120   0.173  16.732 -0.5679  0.4047  0.1123
  705MPD2    C210422   2.997   0.219  16.781  0.1573 -0.2755  0.0656
  705MPD2    C310423   2.929   0.155  16.876  0.0146 -0.4930 -0.2086
  705MPD2    C410424   2.977   0.044  16.935 -0.6828 -0.1554  0.4175
  705MPD2    C510425   3.099   4.722  16.889 -0.1470 -0.2469  0.4205
  705MPD2     H10426   2.949   0.306  16.737  0.9996 -0.1384 -0.5706
  705MPD2    H110427   2.939   0.000  17.026 -0.3252  1.1742  1.2160
  705MPD2    H210428   3.268   0.019  16.771 -1.3302 -2.3445  0.6870
  705MPD2    H310429   3.137   4.640  16.948  1.5815 -0.0921 -0.4738
  705MPD2     N10430   2.799   0.203  16.923  0.4664  0.4249 -0.4131
  705MPD2    H510431   2.767   0.156  17.007  0.2555  0.2095 -0.6138
  705MPD2    N110432   3.176   0.242  16.626 -0.1709 -0.4340 -0.0705
  705MPD2    H710433   3.132   0.320  16.578 -0.2671  0.1580  0.9697
  706TMC3    C110434   3.503   0.236  16.270 -0.2740  0.6478 -0.3644
  706TMC3    C210435   3.460   0.352  16.219 -0.1434  0.6269 -0.4701
  706TMC3    C310436   3.365   0.421  16.287  0.1733 -0.3156  0.3132
  706TMC3    C410437   3.442   0.171  16.376  0.1406  0.0208 -0.2404
  706TMC3    C510438   3.342   0.239  16.439  0.7764  0.2246 -0.0438
  706TMC3    C610439   3.298   0.365  16.396 -0.2911  0.3135 -0.0090
  706TMC3     C10440   3.620   0.180  16.220 -0.7962 -0.1847 -0.1099
  706TMC3     O10441   3.680   0.100  16.288 -0.6855 -0.2259  0.1170
  706TMC3     H10442   3.495   0.407  16.132  1.6921  0.1428 -0.0475
  706TMC3    H110443   3.488   0.081  16.416  0.6828 -0.6161 -2.2946
  706TMC3    H210444   3.247   0.426  16.470  0.0411 -0.1123  0.5765
  706TMC3    C710445   3.299   0.195  16.573  0.3533  0.3894 -0.2747
  706TMC3    C810446   3.293   0.522  16.217 -0.5446 -0.1955  0.3393
  706TMC3    O110447   3.390   0.140  16.632 -0.1204  0.9123  0.1051
  706TMC3    O210448   3.263   0.498  16.102  0.2339 -0.1723  0.1309
  707TMC3    C110449   4.509   3.811   1.821  0.2579  0.6681 -1.0919
  707TMC3    C210450   4.590   3.827   1.927 -0.0851 -0.1525  0.3893
  707TMC3    C310451   4.609   3.960   1.964  0.2468  0.3968 -0.3435
  707TMC3    C410452   4.432   3.901   1.762 -0.1829  0.1380  0.5384
  707TMC3    C510453   4.448   4.031   1.810  0.1784  0.4632 -0.2015
  707TMC3    C610454   4.545   4.061   1.903 -0.3646  0.1681  0.5422
  707TMC3     C10455   4.560   3.699   1.741 -0.3246 -0.1593  0.0360
  707TMC3     O10456   4.649   3.631   1.792 -0.5899 -0.7253 -0.0579
  707TMC3     H10457   4.639   3.744   1.977  1.1542  0.3664  0.0388
  707TMC3    H110458   4.356   3.872   1.689  1.7268 -1.7451 -0.6767
  707TMC3    H210459   4.566   4.160   1.942  0.8618 -0.1379  0.6719
  707TMC3    C710460   4.379   4.142   1.756  0.1789 -0.0294  0.3000
  707TMC3    C810461   0.013   3.991   2.025  0.1096 -0.5923  0.2827
  707TMC3    O110462   4.342   4.235   1.825 -0.1771 -0.2203 -0.7606
  707TMC3    O210463   0.036   4.109   2.045  0.4630  0.1125 -0.0750
  708MPD2     C10464   2.083   2.448  13.964 -0.3377 -0.2725 -0.7080
  708MPD2    C110465   2.114   2.578  13.934  0.4576  0.4266 -0.1344
  708MPD2    C210466   2.041   2.681  14.000  0.0449 -0.2508  0.6608
  708MPD2    C310467   1.943   2.651  14.096 -0.7065 -0.3863 -0.3704
  708MPD2    C410468   1.930   2.523  14.142  0.0471 -0.0527  0.4613
  708MPD2    C510469   2.009   2.424  14.079 -0.3863 -0.5088  0.5183
  708MPD2     H10470   2.055   2.784  13.969 -2.1670 -0.2776 -0.4332
  708MPD2    H110471   1.867   2.486  14.222 -0.7251  1.2551  0.4427
  708MPD2    H210472   2.137   2.366  13.919  1.0146  2.0200 -3.2975
  708MPD2    H310473   2.006   2.322  14.117 -1.2813 -0.1393  1.4710
  708MPD2     N10474   1.871   2.761  14.149  0.3140 -0.4891 -0.6555
  708MPD2    H510475   1.907   2.850  14.118  0.3859 -0.1139  0.4996
  708MPD2    N110476   2.201   2.611  13.829 -0.2231 -0.3127  0.7462
  708MPD2    H710477   2.228   2.533  13.770 -0.2167  0.3706 -0.1475
  709TMC3    C110478   2.254   2.763  13.670  0.4499 -0.2867  0.0464
  709TMC3    C210479   2.170   2.699  13.584 -0.6061 -0.1715 -0.0577
  709TMC3    C310480   2.103   2.777  13.494 -0.0164 -0.3182  0.6581
  709TMC3    C410481   2.290   2.895  13.655  0.2260 -0.2156  0.2364
  709TMC3    C510482   2.209   2.970  13.573  0.7468 -0.1243 -0.5592
  709TMC3    C610483   2.110   2.915  13.493  0.3384  0.2711  0.2768
  709TMC3     C10484   2.249   2.730  13.805 -0.3004  0.0448 -0.0403
  709TMC3     O10485   2.276   2.810  13.895  0.1061  0.0899 -0.1525
  709TMC3     H10486   2.142   2.594  13.585 -0.3595 -0.2298  0.8224
  709TMC3    H110487   2.352   2.938  13.733  0.8271  0.2336 -0.4800
  709TMC3    H210488   2.034   2.977  13.448  0.3901 -0.5755 -0.9929
  709TMC3    C710489   2.174   3.100  13.636  0.1086 -0.5349 -0.2627
  709TMC3    C810490   1.982   2.718  13.435  0.0966 -0.0411  0.9938
  709TMC3    O110491   2.228   3.122  13.744 -0.4166  0.1294 -0.5116
  709TMC3    O210492   1.940   2.608  13.467  0.0070  0.2648  0.6694
  710TMC3    C110493   2.514   4.307   0.783  0.2070  0.3857 -0.7232
  710TMC3    C210494   2.561   4.306   0.651 -0.3383  0.2869 -0.2766
  710TMC3    C310495   2.619   4.192   0.605 -0.4891  0.7163 -0.3872
  710TMC3    C410496   2.515   4.190   0.857  0.9133  0.5109  0.2751
  710TMC3    C510497   2.586   4.080   0.812  0.5819  0.2849 -0.2980
  710TMC3    C610498   2.639   4.083   0.688 -0.1019 -0.2982  0.4051
  710TMC3     C10499   2.450   4.428   0.829 -1.4630 -0.0427  0.2504
  710TMC3     O10500   2.432   4.518   0.742  0.4216 -0.0720  0.0113
  710TMC3     H10501   2.571   4.398   0.594 -0.8610  0.4347 -0.1298
  710TMC3    H110502   2.470   4.192   0.956  0.5471  0.6757  0.1027
  710TMC3    H210503   2.706   4.006   0.654  1.7075  1.5043 -0.1247
  710TMC3    C710504   2.626   3.986   0.913  0.3399 -0.5333  0.0793
  710TMC3    C810505   2.664   4.198   0.469  0.0041  0.1094 -0.3684
  710TMC3    O110506   2.618   4.017   1.027  0.4924 -0.1238  0.1400
  710TMC3    O210507   2.699   4.299   0.413 -0.2683  0.0301  0.4498
  711TMC3    C110508   2.255   0.860  14.630  1.1253 -0.4936  0.1810
  711TMC3    C210509   2.243   0.968  14.716  0.0460 -0.0633  0.7018
  711TMC3    C310510   2.363   1.012  14.777  0.3174  0.2539  0.0734
  711TMC3    C410511   2.371   0.799  14.605 -0.1230 -0.3460  0.2024
  711TMC3    C510512   2.480   0.831  14.684 -0.3141 -0.3379  0.0781
  711TMC3    C610513   2.481   0.948  14.757 -0.2976  0.1094 -0.0028
  711TMC3     C10514   2.157   0.756  14.653 -0.7451 -0.7820  1.0669
  711TMC3     O10515   2.159   0.654  14.594 -0.0170 -0.4736  0.7225
  711TMC3     H10516   2.150   1.022  14.727 -0.3625 -0.2525 -1.8691
  711TMC3    H110517   2.371   0.713  14.539 -1.2924 -0.7837  0.7675
  711TMC3    H210518   2.574   0.975  14.805 -0.1098  0.3329 -0.4849
  711TMC3    C710519   2.514   0.720  14.763  0.3279  0.6814 -0.1508
  711TMC3    C810520   2.344   1.083  14.895 -0.6677  0.0735 -0.0441
  711TMC3    O110521   2.587   0.745  14.856 -0.1980 -0.1406  0.1847
  711TMC3    O210522   2.223   1.099  14.917 -0.4405  0.1866 -0.6338
  712MPD2     C10523   3.761   1.474  13.202  0.3417 -0.3909 -0.1622
  712MPD2    C110524   3.681   1.572  13.249 -0.2965 -0.3688  0.3587
  712MPD2    C210525   3.741   1.674  13.312  0.8319 -0.2229 -0.1308
  712MPD2    C310526   3.874   1.699  13.312 -0.3287 -0.7466 -0.7427
  712MPD2    C410527   3.958   1.604  13.261  1.1384  0.1796 -0.2457
  712MPD2    C510528   3.897   1.486  13.217  0.2455 -0.5494 -0.2987
  712MPD2     H10529   3.669   1.733  13.367 -0.8111 -2.8547  0.5448
  712MPD2    H110530   4.064   1.621  13.249  1.3901 -0.4135  1.1471
  712MPD2    H210531   3.720   1.382  13.163 -0.4721 -0.6572  1.3162
  712MPD2    H310532   3.957   1.409  13.169  0.5801 -1.0163  0.8605
  712MPD2     N10533   3.927   1.833  13.345  0.5463 -0.4786  0.9046
  712MPD2    H510534   4.028   1.838  13.349  0.5829 -1.3667  1.1381
  712MPD2    N110535   3.543   1.577  13.251 -0.4400 -0.0818 -0.1142
  712MPD2    H710536   3.499   1.654  13.300  1.5651 -1.6339  4.1349
  713TMC3    C110537   3.921   2.072  13.368  0.7947  0.1352  0.0059
  713TMC3    C210538   4.052   2.078  13.396  0.6739 -0.0242 -0.2992
  713TMC3    C310539   4.119   2.193  13.367 -0.0683 -0.4968 -0.8490
  713TMC3    C410540   3.847   2.181  13.341  0.2946 -0.1313 -0.7284
  713TMC3    C510541   3.911   2.298  13.304  0.3227 -0.0624  0.2955
  713TMC3    C610542   4.049   2.301  13.314  0.0666  0.5798  0.0273
  713TMC3     C10543   3.850   1.945  13.365 -0.2694  0.3596  0.4975
  713TMC3     O10544   3.727   1.950  13.384  0.4068 -0.0115 -0.2244
  713TMC3     H10545   4.100   1.989  13.436 -3.1950 -1.6477  0.7642
  713TMC3    H110546   3.739   2.175  13.335  0.3782 -1.2315 -1.1467
  713TMC3    H210547   4.106   2.391  13.293 -0.7193  1.1674  0.4167
  713TMC3    C710548   3.845   2.425  13.331  0.4639 -0.0800 -0.2695
  713TMC3    C810549   4.260   2.209  13.402 -0.2752  0.2123 -0.4927
  713TMC3    O110550   3.918   2.511  13.375 -0.1571 -0.1083  0.2435
  713TMC3    O210551   4.316   2.295  13.333  0.2820  0.4096 -0.1728
  714MPD2     C10552   0.888   0.079   1.836 -0.1253 -0.3926 -0.5970
  714MPD2    C110553   0.962   0.009   1.740 -0.7072 -0.9624  1.2371
  714MPD2    C210554   0.944   0.050   1.607 -0.1494  0.4715  0.2813
  714MPD2    C310555   0.855   0.153   1.572  0.3525  0.0760 -0.2526
  714MPD2    C410556   0.777   0.215   1.669  0.1263  0.0058 -0.3996
  714MPD2    C510557   0.797   0.183   1.802 -0.1567 -0.4282  0.3033
  714MPD2     H10558   0.983   4.721   1.520  0.7245  0.9664  0.3734
  714MPD2    H110559   0.707   0.296   1.650 -0.1338  0.0454  0.6868
  714MPD2    H210560   0.904   0.051   1.940  1.3648  0.8097 -0.4953
  714MPD2    H310561   0.777   0.239   1.892  0.5299 -0.6056  0.5711
  714MPD2     N10562   0.845   0.192   1.438 -0.8094  0.6085  0.8376
  714MPD2    H510563   0.876   0.127   1.366  1.1332  0.9853  1.3333
  714MPD2    N110564   1.060   4.634   1.783 -0.4091 -0.3784  0.0618
  714MPD2    H710565   1.074   4.636   1.884  1.4875 -1.9109 -0.1745
  715TMC3    C110566   1.241   4.475   1.753 -0.3933  0.1911  0.2216
  715TMC3    C210567   1.307   4.387   1.672  0.0015  0.8558 -0.0308
  715TMC3    C310568   1.419   4.327   1.716  0.2455 -0.3403 -0.3235
  715TMC3    C410569   1.291   4.512   1.872  0.0249  0.3044 -0.5523
  715TMC3    C510570   1.413   4.453   1.908 -0.1493 -0.0086  0.7203
  715TMC3    C610571   1.479   4.357   1.838  0.6132 -0.0517  0.5985
  715TMC3     C10572   1.127   4.554   1.695 -0.5240  0.7461  0.1416
  715TMC3     O10573   1.091   4.537   1.581  0.0343  0.3008 -0.1918
  715TMC3     H10574   1.280   4.364   1.570  1.3664  0.3128 -0.2680
  715TMC3    H110575   1.250   4.602   1.917  0.1182 -0.2550  0.6320
  715TMC3    H210576   1.576   4.321   1.870 -0.3872 -3.8837 -0.6804
  715TMC3    C710577   1.462   4.481   2.049  1.2096  0.0213  0.2351
  715TMC3    C810578   1.497   4.236   1.631  0.7614 -0.4729  0.3075
  715TMC3    O110579   1.564   4.438   2.102 -0.0730 -0.1042  0.1438
  715TMC3    O210580   1.443   4.213   1.521 -0.9603 -0.3194 -0.0319
  716MPD2     C10581   1.603   3.649  10.011  0.2904  0.7008 -0.6664
  716MPD2    C110582   1.506   3.690   9.921 -0.1625  0.0155  0.2315
  716MPD2    C210583   1.477   3.606   9.813 -0.9092 -0.2059 -0.1193
  716MPD2    C310584   1.541   3.485   9.787 -0.0262  0.5785 -0.2139
  716MPD2    C410585   1.638   3.442   9.883 -0.0660  0.5641  0.1450
  716MPD2    C510586   1.664   3.525   9.987  0.6249  0.2909 -0.0677
  716MPD2     H10587   1.413   3.644   9.733  1.2290 -0.0027 -1.7347
  716MPD2    H110588   1.684   3.344   9.884  1.4414  1.2762  0.4002
  716MPD2    H210589   1.626   3.709  10.098 -0.5675 -1.2625  0.9139
  716MPD2    H310590   1.737   3.494  10.061  0.8870  2.5675  0.6283
  716MPD2     N10591   1.499   3.403   9.682  0.2758 -0.1860 -0.3039
  716MPD2    H510592   1.424   3.446   9.629  0.2255 -3.0172 -2.5221
  716MPD2    N110593   1.442   3.813   9.943  0.1052 -0.0045 -0.0111
  716MPD2    H710594   1.466   3.864  10.028  0.4189 -1.2197  0.6345
  717TMC3    C110595   1.484   3.218   9.530  0.3365  0.4951  0.5564
  717TMC3    C210596   1.379   3.279   9.460 -0.2515  0.1937  0.6338
  717TMC3    C310597   1.287   3.198   9.386  0.8374 -0.6974 -0.2251
  717TMC3    C410598   1.501   3.083   9.528  0.0780 -0.1990  0.1477
  717TMC3    C510599   1.388   3.016   9.489  0.3383  0.6518 -0.0260
  717TMC3    C610600   1.287   3.064   9.409  0.1291 -0.5177  0.4489
  717TMC3     C10601   1.543   3.275   9.652  0.1980 -0.0396 -0.6138
  717TMC3     O10602   1.611   3.200   9.726  0.1960  0.2243  0.5386
  717TMC3     H10603   1.358   3.385   9.465 -0.9312  0.1509 -1.4363
  717TMC3    H110604   1.590   3.038   9.570  1.7691  0.8266 -2.3391
  717TMC3    H210605   1.207   3.002   9.371 -0.1381  0.0972  0.0167
  717TMC3    C710606   1.391   2.872   9.511  0.8308 -0.7936 -0.4390
  717TMC3    C810607   1.207   3.264   9.292 -0.3514 -0.4340 -0.1386
  717TMC3    O110608   1.301   2.812   9.452  0.1286 -0.2732 -0.5022
  717TMC3    O210609   1.209   3.385   9.290 -0.0054 -0.1321  0.2053
  718MPD2     C10610   0.810   2.183  13.242  0.3488 -0.3685 -0.0230
  718MPD2    C110611   0.734   2.177  13.126  0.1383 -0.6219 -0.7275
  718MPD2    C210612   0.595   2.164  13.139 -0.6696 -0.2939  0.1009
  718MPD2    C310613   0.533   2.159  13.260  0.2165 -0.1374 -0.7329
  718MPD2    C410614   0.613   2.149  13.374 -0.0939  0.4388 -0.2655
  718MPD2    C510615   0.753   2.162  13.367  0.0672 -0.7235 -0.0551
  718MPD2     H10616   0.533   2.179  13.051 -2.3380  1.1653  1.5448
  718MPD2    H110617   0.584   2.133  13.478 -2.8030 -0.3032 -1.1312
  718MPD2    H210618   0.918   2.193  13.232  0.2677  0.5286  0.0233
  718MPD2    H310619   0.809   2.158  13.459 -1.2905 -0.0284  0.8075
  718MPD2     N10620   0.394   2.168  13.263 -0.1485 -0.0827  0.0311
  718MPD2    H510621   0.340   2.169  13.177 -0.5236 -0.9959  0.2567
  718MPD2    N110622   0.784   2.198  12.996  0.1824 -0.3119 -0.9755
  718MPD2    H710623   0.715   2.209  12.923  0.4673  0.0069 -1.1967
  719TMC3    C110624   0.904   2.273  12.828  0.0817  0.1875  0.7969
  719TMC3    C210625   0.783   2.262  12.769 -0.3587  0.3785  0.6279
  719TMC3    C310626   0.720   2.366  12.712  0.2303 -0.8116  0.1108
  719TMC3    C410627   0.984   2.381  12.796  0.3576 -0.3939 -0.3196
  719TMC3    C510628   0.923   2.486  12.739  0.0283 -0.5633 -0.4266
  719TMC3    C610629   0.790   2.485  12.704 -0.0624  0.2399  0.8790
  719TMC3     C10630   0.912   2.232  12.958 -0.1904 -0.1444  0.7606
  719TMC3     O10631   1.018   2.247  13.018 -0.1930 -0.3209  0.0636
  719TMC3     H10632   0.724   2.171  12.770 -0.7434  0.6224 -0.1930
  719TMC3    H110633   1.083   2.400  12.836  0.6706 -0.1997 -1.1698
  719TMC3    H210634   0.734   2.572  12.671  0.0321 -0.8855 -2.2731
  719TMC3    C710635   1.015   2.577  12.682 -0.5924  0.3309  0.3627
  719TMC3    C810636   0.580   2.371  12.754  0.1717 -0.4517  0.3987
  719TMC3    O110637   1.124   2.528  12.649 -0.3648  0.0614 -0.3239
  719TMC3    O210638   0.554   2.294  12.841 -0.0389  0.6881 -0.1674
  720MPD2     C10639   3.966   3.319  13.938  0.5979  1.0639 -0.1167
  720MPD2    C110640   4.052   3.425  13.907 -0.2303 -0.6124  0.3527
  720MPD2    C210641   4.178   3.420  13.974  0.2638 -0.0347  0.1628
  720MPD2    C310642   4.202   3.343  14.087 -0.0728 -0.5270 -0.2907
  720MPD2    C410643   4.114   3.241  14.114 -0.0654 -0.6877  0.1818
  720MPD2    C510644   3.995   3.233  14.039  0.1651 -0.1092  0.1508
  720MPD2     H10645   4.253   3.491  13.943 -0.6131  1.3179  1.1743
  720MPD2    H110646   4.109   3.185  14.207  2.5613 -1.0860  0.0611
  720MPD2    H210647   3.889   3.297  13.865  1.0912  2.4457 -1.0584
  720MPD2    H310648   3.924   3.152  14.052 -1.1836  0.9019 -0.9368
  720MPD2     N10649   4.325   3.365  14.156  0.1456  0.0875 -0.6085
  720MPD2    H510650   4.382   3.446  14.136 -1.6495  1.0052 -2.0380
  720MPD2    N110651   4.017   3.507  13.803 -0.0356 -0.1235 -0.1632
  720MPD2    H710652   4.086   3.571  13.764  0.5668  0.3932  1.7479
  721TMC3    C110653   4.460   3.360  14.338  0.5250 -0.5160 -0.7386
  721TMC3    C210654   4.454   3.333  14.469 -0.3701  0.7826 -0.3266
  721TMC3    C310655   4.573   3.327  14.537 -0.1680 -0.2506  0.0685
  721TMC3    C410656   4.574   3.394  14.272 -0.2778  0.1422  0.2214
  721TMC3    C510657   4.689   3.387  14.345  0.7720  0.4554  0.7876
  721TMC3    C610658   4.690   3.354  14.476  0.3769 -0.0862 -0.0417
  721TMC3     C10659   4.344   3.307  14.275 -0.2857  0.0432  0.2161
  721TMC3     O10660   4.292   3.206  14.328 -0.3907  0.4243  0.2100
  721TMC3     H10661   4.359   3.311  14.515 -0.8069 -0.3984 -1.7658
  721TMC3    H110662   4.574   3.411  14.165 -0.7355  1.1532  0.3840
  721TMC3    H210663   0.058   3.350  14.534  1.1352 -0.1822 -1.2288
  721TMC3    C710664   0.070   3.473  14.304  0.1338 -0.4578  0.0707
  721TMC3    C810665   4.579   3.312  14.677 -0.0813  0.1757  0.9301
  721TMC3    O110666   0.183   3.454  14.344  0.0771 -0.2292  0.4091
  721TMC3    O210667   4.672   3.258  14.731  0.0453  0.2016  0.2509
  722MPD2     C10668   2.685   2.356  12.978  0.9294 -0.3092 -0.2427
  722MPD2    C110669   2.723   2.483  12.932  0.2810  0.4866  0.3294
  722MPD2    C210670   2.649   2.541  12.832 -0.6477 -0.1827  0.3078
  722MPD2    C310671   2.533   2.483  12.787 -0.6051 -0.4127 -0.3275
  722MPD2    C410672   2.499   2.358  12.826 -0.1343 -0.3726 -0.3933
  722MPD2    C510673   2.581   2.295  12.915  0.0741  0.0716  0.5082
  722MPD2     H10674   2.680   2.641  12.802  0.9346 -1.0468 -0.8894
  722MPD2    H110675   2.411   2.318  12.777 -0.0381  0.9890 -1.6828
  722MPD2    H210676   2.731   2.300  13.059  0.7602 -1.6176 -1.0467
  722MPD2    H310677   2.549   2.198  12.952 -1.0932  0.6140  0.9147
  722MPD2     N10678   2.443   2.555  12.707 -0.0894  0.1070  0.2461
  722MPD2    H510679   2.355   2.515  12.676  0.0826 -0.0954  0.0146
  722MPD2    N110680   2.815   2.566  13.001  0.3378 -0.3164  0.1456
  722MPD2    H710681   2.832   2.657  12.961  0.2414 -1.6439 -2.9006
  723TMC3    C110682   2.352   2.737  12.580 -0.1160 -0.2154 -0.3545
  723TMC3    C210683   2.362   2.692  12.451 -1.1092  0.0699 -1.1349
  723TMC3    C310684   2.330   2.784  12.352 -0.6108  0.4821 -0.4703
  723TMC3    C410685   2.314   2.863  12.609 -0.4740  0.2438 -0.2112
  723TMC3    C510686   2.298   2.952  12.510  0.0541 -0.0625  0.5640
  723TMC3    C610687   2.290   2.912  12.381  0.2511 -0.3527 -0.1008
  723TMC3     C10688   2.460   2.690  12.675  0.3638  0.0409  0.0129
  723TMC3     O10689   2.541   2.779  12.714 -0.2072 -0.5492 -0.2888
  723TMC3     H10690   2.386   2.587  12.438  0.5180  0.4102 -0.8990
  723TMC3    H110691   2.332   2.885  12.714  2.2834 -0.3769 -0.5398
  723TMC3    H210692   2.274   2.989  12.306  2.1972  1.3666  1.2561
  723TMC3    C710693   2.259   3.088  12.537  0.7304 -0.3425  0.6821
  723TMC3    C810694   2.368   2.766  12.215 -0.4402  0.4449 -0.0914
  723TMC3    O110695   2.254   3.164  12.441  0.2294 -0.2245 -0.1403
  723TMC3    O210696   2.370   2.866  12.143  0.3628  0.1390 -0.0466
  724TMC3    C110697   3.582   1.148  10.505  0.2091  0.3771 -0.0573
  724TMC3    C210698   3.455   1.136  10.557 -0.4027  0.1727  0.1498
  724TMC3    C310699   3.355   1.208  10.501 -0.5199 -1.2669  0.0752
  724TMC3    C410700   3.622   1.250  10.425 -0.5206 -0.5479 -0.1925
  724TMC3    C510701   3.515   1.325  10.376 -0.8042 -0.0798 -0.4370
  724TMC3    C610702   3.380   1.299  10.405  0.3409 -0.1776 -0.7529
  724TMC3     C10703   3.685   1.078  10.564  0.4397  0.5268 -0.1460
  724TMC3     O10704   3.788   1.071  10.499  0.1537 -0.2714 -0.2350
  724TMC3     H10705   3.426   1.035  10.586 -0.7542 -0.0356 -0.9123
  724TMC3    H110706   3.710   1.240  10.363 -0.5295 -1.2275 -0.0870
  724TMC3    H210707   3.303   1.354  10.354 -1.5847 -0.6548  1.6483
  724TMC3    C710708   3.542   1.426  10.276  0.6986 -0.1698 -0.0509
  724TMC3    C810709   3.221   1.141  10.493 -0.2189 -0.6598  0.2670
  724TMC3    O110710   3.458   1.445  10.185  0.0102  0.3270 -0.4365
  724TMC3    O210711   3.199   1.058  10.579 -0.3127 -0.4096  0.6382
  725TMC3    C110712   4.691   3.907  13.453  0.1661  0.2067  0.0222
  725TMC3    C210713   4.569   3.950  13.492  0.0802  0.1424 -0.2136
  725TMC3    C310714   4.464   3.907  13.416 -0.1583  0.1523 -0.0856
  725TMC3    C410715   4.714   3.810  13.362 -0.1746  0.1129  0.7943
  725TMC3    C510716   4.602   3.750  13.306 -0.2111 -0.1790 -0.3458
  725TMC3    C610717   4.478   3.810  13.316 -0.3264 -0.1055 -0.5506
  725TMC3     C10718   0.070   4.015  13.457 -0.5720  0.4411  0.8531
  725TMC3     O10719   0.041   4.127  13.495  0.7029  0.1433 -0.0862
  725TMC3     H10720   4.551   4.023  13.570  1.5008  0.2344  0.0183
  725TMC3    H110721   0.078   3.747  13.366 -0.2759  0.0029  1.3383
  725TMC3    H210722   4.391   3.789  13.254 -0.0804  1.3754 -1.4137
  725TMC3    C710723   4.617   3.641  13.210 -0.7216 -0.8283  0.3136
  725TMC3    C810724   4.404   4.022  13.361  0.1789  0.0383  0.4724
  725TMC3    O110725   0.004   3.600  13.179  0.9871 -0.3284  1.0201
  725TMC3    O210726   4.375   4.116  13.439 -0.4097  0.0941  0.4690
  726MPD2     C10727   2.088   1.327  10.339 -0.8585  0.0472 -0.1513
  726MPD2    C110728   2.087   1.398  10.461  0.4089 -0.6662 -1.1109
  726MPD2    C210729   1.999   1.366  10.559 -0.2985  0.6624 -0.2067
  726MPD2    C310730   1.896   1.277  10.535  0.8320 -0.3576 -0.0133
  726MPD2    C410731   1.895   1.205  10.420 -0.5376  0.1636 -0.1227
  726MPD2    C510732   1.999   1.228  10.323 -0.3421  0.0268  0.7499
  726MPD2     H10733   2.008   1.423  10.651  1.1536 -0.3540  0.2894
  726MPD2    H110734   1.812   1.142  10.391 -2.1398  1.9481  0.5856
  726MPD2    H210735   2.158   1.342  10.257 -1.2324 -0.7755 -0.6171
  726MPD2    H310736   1.999   1.175  10.228 -0.3526  0.5387  0.4664
  726MPD2     N10737   1.793   1.244  10.624 -0.3257  0.2169  0.2920
  726MPD2    H510738   1.733   1.174  10.582 -0.1588  0.2621 -0.0245
  726MPD2    N110739   2.177   1.503  10.499  0.9389  0.0523  0.3656
  726MPD2    H710740   2.159   1.560  10.581  0.1138  1.1205 -0.5572
  727TMC3    C110741   2.340   1.669  10.455  0.4799 -0.0393 -0.3156
  727TMC3    C210742   2.422   1.657  10.557  0.3459  0.8353  0.9607
  727TMC3    C310743   2.524   1.749  10.565 -0.5106  0.0818  0.0380
  727TMC3    C410744   2.364   1.776  10.365 -0.1331  0.0651 -0.2002
  727TMC3    C510745   2.469   1.862  10.379  0.2600  0.4169 -0.8685
  727TMC3    C610746   2.545   1.857  10.489 -0.3423  0.2370  0.3589
  727TMC3     C10747   2.265   1.557  10.414 -0.0170  0.1122  0.6146
  727TMC3     O10748   2.278   1.540  10.297  0.1857  0.5772 -0.1533
  727TMC3     H10749   2.404   1.571  10.621 -1.5685 -0.6221 -1.4952
  727TMC3    H110750   2.290   1.788  10.286  0.4881  0.9271 -0.6515
  727TMC3    H210751   2.633   1.920  10.493  0.8442 -1.5399  1.9922
  727TMC3    C710752   2.482   1.968  10.275 -0.2489 -1.0741  0.0486
  727TMC3    C810753   2.649   1.724  10.641 -0.4642 -0.7377  0.0379
  727TMC3    O110754   2.383   2.006  10.221  0.0896 -0.0437  0.1528
  727TMC3    O210755   2.762   1.764  10.603  0.3806 -0.1567 -0.0032
  728TMC3    C110756   1.742   3.984  15.730 -0.1740  0.6513 -0.0856
  728TMC3    C210757   1.856   4.055  15.758  0.0080 -0.0209  0.3186
  728TMC3    C310758   1.932   4.092  15.649  0.4176 -0.0703  0.3788
  728TMC3    C410759   1.708   3.941  15.598  0.2102 -0.2330 -0.1537
  728TMC3    C510760   1.791   3.984  15.500 -0.3095  1.0078  0.4449
  728TMC3    C610761   1.908   4.057  15.520 -0.4077 -0.0734  0.6356
  728TMC3     C10762   1.644   3.953  15.840  0.2541  0.5699  0.5602
  728TMC3     O10763   1.695   3.943  15.950 -0.7063 -0.0628  0.7778
  728TMC3     H10764   1.864   4.100  15.856 -0.9541 -4.3913  2.4373
  728TMC3    H110765   1.621   3.882  15.573  1.1593 -1.7702  0.1593
  728TMC3    H210766   1.968   4.095  15.438 -0.5629 -1.1928  0.0001
  728TMC3    C710767   1.723   3.992  15.369  0.1588  0.4515  0.2532
  728TMC3    C810768   2.018   4.216  15.662 -0.2338 -0.4569 -0.6981
  728TMC3    O110769   1.649   3.902  15.338 -0.3853 -0.8677  0.5687
  728TMC3    O210770   2.085   4.238  15.561 -0.6623  0.1950  0.2050
  729MPD2     C10771   3.427   0.742  17.009  0.0338 -1.0024 -0.6471
  729MPD2    C110772   3.532   0.670  17.044 -0.0902  0.4361  0.3509
  729MPD2    C210773   3.543   0.646  17.177 -0.9632 -0.3092 -0.3054
  729MPD2    C310774   3.468   0.706  17.279  0.0880  0.1456  0.5983
  729MPD2    C410775   3.376   0.790  17.240 -0.1590 -0.1473  0.2368
  729MPD2    C510776   3.354   0.804  17.108 -0.6879  0.2815  0.1741
  729MPD2     H10777   3.627   0.582  17.201  0.4593  1.5730 -0.3142
  729MPD2    H110778   3.314   0.848  17.308  3.1365  0.0064  3.0788
  729MPD2    H210779   3.398   0.761  16.906 -0.4520 -0.0678 -0.3460
  729MPD2    H310780   3.271   0.868  17.080  0.2739  1.2704 -0.4412
  729MPD2     N10781   3.501   0.700  17.415 -0.6940  0.1634 -0.2212
  729MPD2    H510782   3.463   0.772  17.476  2.3678  1.9581 -0.4375
  729MPD2    N110783   3.620   0.631  16.942 -0.4028 -0.0437 -0.3865
  729MPD2    H710784   3.606   0.658  16.845 -0.0670  1.7624  0.0727
  730TMC3    C110785   3.643   0.668  17.594 -0.4106 -0.6812  0.4637
  730TMC3    C210786   3.748   0.604  17.654  0.3210  0.2669  0.0736
  730TMC3    C310787   3.816   0.674   0.057  0.8487 -0.0572  0.2190
  730TMC3    C410788   3.601   0.796  17.639 -0.1873  0.2203  0.7424
  730TMC3    C510789   3.670   0.861   0.037  0.1447 -0.0686  0.0867
  730TMC3    C610790   3.773   0.796   0.102 -0.1306 -0.1975  0.0282
  730TMC3     C10791   3.595   0.612  17.466 -0.5728  0.0482 -0.3145
  730TMC3     O10792   3.649   0.515  17.418  0.1545  0.2882  0.8703
  730TMC3     H10793   3.788   0.509  17.619 -2.9605 -1.8094  1.9357
  730TMC3    H110794   3.526   0.858  17.593  0.2573 -1.2139 -1.9266
  730TMC3    H210795   3.831   0.847   0.178 -2.1136  1.0762  0.6775
  730TMC3    C710796   3.701   0.992  17.681  1.1968  0.8595  0.1048
  730TMC3    C810797   3.932   0.617   0.124 -0.6692  0.4864  0.1397
  730TMC3    O110798   3.675   1.022  17.565 -0.2136 -0.5200 -0.1591
  730TMC3    O210799   3.971   0.674   0.222  0.0334 -0.5829 -0.1582
  731MPD2     C10800   4.058   3.588  12.541  0.1696 -0.0173 -0.1273
  731MPD2    C110801   4.059   3.471  12.462  0.0763 -0.0497  0.2664
  731MPD2    C210802   4.078   3.350  12.522  0.0897 -0.1319 -0.7181
  731MPD2    C310803   4.083   3.342  12.662 -0.5599  0.2384 -0.5080
  731MPD2    C410804   4.082   3.462  12.737  0.7027 -0.2248  0.0182
  731MPD2    C510805   4.061   3.582  12.675  0.2703  0.6282  0.8900
  731MPD2     H10806   4.076   3.262  12.458 -1.4284 -0.2973 -0.4340
  731MPD2    H110807   4.095   3.467  12.845  1.6167 -2.3837 -0.0005
  731MPD2    H210808   4.043   3.686  12.497  2.2636 -0.3410 -1.5470
  731MPD2    H310809   4.051   3.674  12.732 -1.0826  0.8114  0.3310
  731MPD2     N10810   4.087   3.210  12.723  0.0105 -0.7386  0.0976
  731MPD2    H510811   4.093   3.133  12.657 -0.1940 -1.5994  1.0937
  731MPD2    N110812   4.034   3.495  12.323  0.1021  0.6177 -0.0555
  731MPD2    H710813   4.053   3.585  12.279  0.8383 -0.4504 -1.9121
  732TMC3    C110814   3.991   3.458  12.104 -0.3072 -1.0886 -0.1880
  732TMC3    C210815   3.895   3.402  12.028 -1.0017 -1.0875  0.5022
  732TMC3    C310816   3.922   3.407  11.893 -0.1800 -0.0035 -0.4327
  732TMC3    C410817   4.116   3.498  12.054  0.4613  0.0452  0.2694
  732TMC3    C510818   4.139   3.479  11.923  0.4691 -0.2240 -0.1321
  732TMC3    C610819   4.045   3.427  11.845 -0.1837  0.1772 -0.2450
  732TMC3     C10820   4.003   3.403  12.236 -0.0637 -0.3241 -0.2154
  732TMC3     O10821   3.942   3.297  12.256 -0.0229  0.1275  0.4247
  732TMC3     H10822   3.803   3.370  12.074 -1.5878  0.4424  0.3745
  732TMC3    H110823   4.190   3.543  12.119  2.0719 -0.8857 -0.9068
  732TMC3    H210824   4.069   3.393  11.745 -2.3730  0.6052 -0.9090
  732TMC3    C710825   4.277   3.464  11.879 -0.1304 -0.4167  0.8451
  732TMC3    C810826   3.820   3.359  11.803 -0.1067  0.1787  0.1677
  732TMC3    O110827   4.305   3.481  11.761 -0.1072 -0.2836  0.4238
  732TMC3    O210828   3.858   3.334  11.692  0.4968 -0.2247 -0.5586
  733TMC3    C110829   4.698   2.138  13.234 -0.7756 -0.2468  0.7126
  733TMC3    C210830   0.094   2.097  13.282 -0.5831  0.5254  0.2277
  733TMC3    C310831   0.182   2.188  13.324  0.8077 -0.0063 -0.8441
  733TMC3    C410832   4.676   2.277  13.209 -0.6095 -0.1954  0.1405
  733TMC3    C510833   0.051   2.362  13.245  0.1373  0.3070  0.0944
  733TMC3    C610834   0.167   2.322  13.304  0.0775  0.1800  0.4111
  733TMC3     C10835   4.606   2.044  13.185  0.0388 -0.2341  0.5149
  733TMC3     O10836   4.623   1.930  13.222  0.2067 -0.0589 -0.1838
  733TMC3     H10837   0.116   1.991  13.283  0.2828  0.7124  0.8078
  733TMC3    H110838   4.583   2.310  13.163 -1.1184  0.0587  1.3402
  733TMC3    H210839   0.247   2.394  13.319  0.2492 -0.3036  1.8784
  733TMC3    C710840   0.073   2.467  13.153  0.1087 -0.2301  0.2597
  733TMC3    C810841   0.310   2.141  13.369  0.2823 -0.0964  0.1887
  733TMC3    O110842   0.031   2.580  13.179 -0.4767 -0.3805  0.2723
  733TMC3    O210843   0.331   2.150  13.489 -0.6258  0.1875  0.1311
  734MPD2     C10844   2.219   4.638  12.289 -0.1820 -0.1168  0.1447
  734MPD2    C110845   2.156   4.536  12.223  0.4746  0.0723  0.7859
  734MPD2    C210846   2.153   4.528  12.085 -0.3014 -1.0815 -0.2764
  734MPD2    C310847   2.224   4.623  12.003  0.2243  0.1334  0.0935
  734MPD2    C410848   2.286   0.004  12.071 -0.0254 -0.0856  0.0284
  734MPD2    C510849   2.281   0.014  12.210  0.1933  0.2647  0.4598
  734MPD2     H10850   2.097   4.448  12.039  0.1397 -1.9977  0.8027
  734MPD2    H110851   2.338   0.085  12.023 -0.8035  0.9219  0.8935
  734MPD2    H210852   2.218   4.653  12.397  2.3925  0.2385  0.1175
  734MPD2    H310853   2.322   0.104  12.255 -2.5097  0.5933  2.3267
  734MPD2     N10854   2.240   4.614  11.861  0.4188  0.0918  0.0337
  734MPD2    H510855   2.286   4.691  11.814  0.8012 -0.9474 -1.2986
  734MPD2    N110856   2.091   4.437  12.299  0.3574  0.7136 -0.0441
  734MPD2    H710857   2.122   4.429  12.395  0.6576  1.7128 -0.0556
  735TMC3    C110858   1.938   4.259  12.348 -0.0903 -0.1332  0.3987
  735TMC3    C210859   1.824   4.220  12.300  0.3255 -0.4219  0.2242
  735TMC3    C310860   1.802   4.085  12.275  0.5101  0.5066 -0.8182
  735TMC3    C410861   2.035   4.173  12.388 -0.4191  0.3350 -0.1518
  735TMC3    C510862   2.009   4.040  12.372  0.2967 -0.4727 -0.4628
  735TMC3    C610863   1.892   3.995  12.317  0.2679  0.0151  0.5091
  735TMC3     C10864   1.987   4.359  12.259  0.3422  0.3359 -0.1307
  735TMC3     O10865   1.936   4.355  12.146  0.0455 -0.0730 -0.2115
  735TMC3     H10866   1.759   4.295  12.255 -2.8178 -2.5478  1.2301
  735TMC3    H110867   2.127   4.221  12.419 -0.5024 -0.6063  1.5902
  735TMC3    H210868   1.884   3.891  12.288 -0.4675 -0.0322  0.8709
  735TMC3    C710869   2.122   3.949  12.382  0.5001  0.1583 -0.3605
  735TMC3    C810870   1.744   4.062  12.142 -0.8453  0.2674 -0.0294
  735TMC3    O110871   2.227   4.003  12.408 -1.2306 -0.0531 -0.2999
  735TMC3    O210872   1.664   3.970  12.136 -0.3376  0.0073  0.1775
  736MPD2     C10873   2.172   3.584  12.374 -0.1298  0.0319  0.1731
  736MPD2    C110874   2.204   3.718  12.357 -0.4793 -0.5911 -0.2003
  736MPD2    C210875   2.319   3.755  12.287 -0.0257 -0.6728  0.4214
  736MPD2    C310876   2.411   3.669  12.238  0.3647  0.1867  1.5431
  736MPD2    C410877   2.391   3.537  12.276  0.6382  0.1160 -0.5338
  736MPD2    C510878   2.271   3.492  12.330  0.1522 -0.5471 -0.2743
  736MPD2     H10879   2.333   3.857  12.255  0.0331 -0.4881  1.0438
  736MPD2    H110880   2.453   3.453  12.246  0.3272  0.8594 -3.2613
  736MPD2    H210881   2.087   3.549  12.432  0.0694 -0.9539 -0.1362
  736MPD2    H310882   2.249   3.387  12.351 -0.4366 -0.2516  0.5978
  736MPD2     N10883   2.529   3.700  12.163 -0.7333 -0.2737  0.0193
  736MPD2    H510884   2.600   3.627  12.153 -1.2164 -1.2275  3.4719
  736MPD2    N110885   2.103   3.812  12.385 -0.3608 -0.1113 -0.5659
  736MPD2    H710886   2.016   3.789  12.432 -0.1347 -1.7670 -0.9629
  737TMC3    C110887   2.683   3.851  12.060  0.1005  0.6208 -0.5234
  737TMC3    C210888   2.727   3.973  12.046  0.2666  0.0008 -0.2565
  737TMC3    C310889   2.811   3.996  11.938  0.5894 -0.4533  0.3493
  737TMC3    C410890   2.709   3.754  11.965 -0.4431  0.3670 -0.4793
  737TMC3    C510891   2.777   3.787  11.853  0.4322 -0.1741  0.5189
  737TMC3    C610892   2.834   3.907  11.836 -0.3368  0.4323 -0.3589
  737TMC3     C10893   2.575   3.826  12.157 -0.4409  0.4857 -0.1889
  737TMC3     O10894   2.526   3.924  12.207  1.3703 -0.1194  1.1574
  737TMC3     H10895   2.695   4.051  12.115 -2.7135 -2.0975  0.7256
  737TMC3    H110896   2.645   3.666  11.961 -1.7990  1.3110  0.4324
  737TMC3    H210897   2.906   3.925  11.756 -0.7323 -0.6455 -0.9657
  737TMC3    C710898   2.795   3.687  11.753 -0.5630 -0.4307  0.0229
  737TMC3    C810899   2.844   4.132  11.914  0.0427 -0.1451  0.0417
  737TMC3    O110900   2.745   3.577  11.781 -0.0568 -0.5858 -0.1933
  737TMC3    O210901   2.875   4.196  12.014 -0.3850  0.7714 -0.0251
  738MPD2     C10902   2.592   2.951  15.217 -0.4120  0.2925  0.7735
  738MPD2    C110903   2.701   2.917  15.294 -1.0710  0.2500  0.0642
  738MPD2    C210904   2.815   2.999  15.283 -0.6473 -0.4267  0.8838
  738MPD2    C310905   2.822   3.108  15.202 -0.2082  0.7416 -0.7111
  738MPD2    C410906   2.716   3.146  15.127  0.2670 -0.4338 -1.2070
  738MPD2    C510907   2.601   3.064  15.138 -0.1337 -0.1407  0.0313
  738MPD2     H10908   2.898   2.962  15.342  0.5085 -0.6865 -0.9147
  738MPD2    H110909   2.714   3.230  15.058 -0.5078 -1.5442 -2.5265
  738MPD2    H210910   2.501   2.895  15.197 -0.9167  0.5919  2.1911
  738MPD2    H310911   2.514   3.073  15.073 -0.4943 -0.4825  0.4727
  738MPD2     N10912   2.928   3.200  15.191 -0.1653  0.3805 -0.8136
  738MPD2    H510913   2.912   3.284  15.136 -0.1737  1.3989  0.7480
  738MPD2    N110914   2.721   2.797  15.364  0.5009 -0.6089 -0.0268
  738MPD2    H710915   2.807   2.767  15.409  1.4872 -0.4711 -1.8481
  739TMC3    C110916   3.161   3.264  15.203 -0.4544  1.1684  1.1085
  739TMC3    C210917   3.149   3.330  15.087  0.7505 -0.3618 -0.6381
  739TMC3    C310918   3.262   3.362  15.017 -0.1421  0.3079  0.2758
  739TMC3    C410919   3.284   3.232  15.259 -0.1338 -0.0276  0.2268
  739TMC3    C510920   3.396   3.270  15.185 -1.4384 -0.3596  1.1966
  739TMC3    C610921   3.387   3.339  15.067 -0.3190  0.2898 -0.5704
  739TMC3     C10922   3.052   3.181  15.249 -0.1932  0.3264  0.1153
  739TMC3     O10923   3.088   3.095  15.329 -0.2132  0.1594 -0.2391
  739TMC3     H10924   3.056   3.335  15.031  0.2004 -0.9342  0.2384
  739TMC3    H110925   3.296   3.181  15.353 -1.3921 -0.4969  0.1285
  739TMC3    H210926   3.468   3.349  14.997  0.6931  2.8948  0.9790
  739TMC3    C710927   3.525   3.242  15.244 -0.0843 -0.1703  0.4803
  739TMC3    C810928   3.251   3.367  14.871  0.2035 -1.2716 -0.3302
  739TMC3    O110929   3.534   3.162  15.332 -0.4334 -0.4249  0.3196
  739TMC3    O210930   3.155   3.308  14.825  0.0547 -0.0925 -0.4856
  740TMC3    C110931   3.822   4.042  14.277 -0.3557  0.0173  0.0710
  740TMC3    C210932   3.828   3.952  14.376 -0.2127  0.4019  0.1077
  740TMC3    C310933   3.915   3.844  14.358 -0.1081  0.0346  0.1380
  740TMC3    C410934   3.894   4.021  14.160  0.3833  0.1102  0.0035
  740TMC3    C510935   3.970   3.913  14.141  0.1463  0.8324 -0.3669
  740TMC3    C610936   3.985   3.823  14.242 -0.4633 -0.0056  0.4540
  740TMC3     C10937   3.741   4.157  14.281  0.5309 -0.3024  0.9772
  740TMC3     O10938   3.748   4.247  14.202 -0.4776 -0.1618  0.6360
  740TMC3     H10939   3.792   3.968  14.477  0.8000  0.1217  0.5086
  740TMC3    H110940   3.880   4.101  14.089  1.3418  1.5802  1.4715
  740TMC3    H210941   4.064   3.748  14.235 -1.6710 -1.0494 -2.1590
  740TMC3    C710942   4.033   3.886  14.019  0.7502  0.6790 -0.1818
  740TMC3    C810943   3.926   3.748  14.469  0.0087  0.0704 -0.0653
  740TMC3    O110944   4.124   3.806  14.019  0.0918 -0.3898  0.2258
  740TMC3    O210945   3.914   3.794  14.579  0.5337 -0.3702 -0.1783
  741TMC3    C110946   3.087   3.717  14.446  0.9789  0.2595  0.7749
  741TMC3    C210947   3.003   3.614  14.451  0.3302 -0.1168 -0.4558
  741TMC3    C310948   2.993   3.547  14.570 -0.0671 -0.2157  0.0537
  741TMC3    C410949   3.156   3.769  14.558 -0.5170 -0.0265 -0.1466
  741TMC3    C510950   3.132   3.704  14.678  0.1921 -0.3048  0.6852
  741TMC3    C610951   3.050   3.591  14.686  0.1437  0.5874  0.0958
  741TMC3     C10952   3.131   3.756  14.314 -0.0618  0.0075  0.1615
  741TMC3     O10953   3.102   3.681  14.219  0.9276  0.0455  0.0985
  741TMC3     H10954   2.963   3.577  14.357  0.3186 -0.3605 -0.3541
  741TMC3    H110955   3.220   3.856  14.549 -2.3521  1.2288 -1.1110
  741TMC3    H210956   3.031   3.553  14.786  0.1416 -1.7225 -0.7759
  741TMC3    C710957   3.160   3.763  14.810 -0.3137  0.0343 -0.3148
  741TMC3    C810958   2.892   3.443  14.572 -0.4497 -0.1392 -0.7035
  741TMC3    O110959   3.118   3.708  14.909 -0.3351 -0.3234 -0.0968
  741TMC3    O210960   2.817   3.452  14.476  0.0143  0.0279 -0.4762
  742TMC3    C110961   2.892   2.028  15.350  0.2636  0.2722 -0.5157
  742TMC3    C210962   2.822   2.029  15.233 -0.3432  0.7121  0.2977
  742TMC3    C310963   2.886   2.047  15.116 -0.1435  0.2069  0.6545
  742TMC3    C410964   3.024   2.041  15.349  0.1394  0.2561  0.1283
  742TMC3    C510965   3.087   2.065  15.231 -0.4675  0.4097 -0.3210
  742TMC3    C610966   3.020   2.059  15.111 -0.4570 -0.0475  0.3521
  742TMC3     C10967   2.807   2.076  15.460  0.4462 -0.2912  0.1871
  742TMC3     O10968   2.689   2.045  15.475  0.4483 -0.3151 -0.0219
  742TMC3     H10969   2.714   2.027  15.242 -0.4205  1.0131 -0.5331
  742TMC3    H110970   3.078   2.026  15.442 -0.4610  0.0512  0.4499
  742TMC3    H210971   3.080   2.064  15.021 -1.8602 -4.4283 -0.7883
  742TMC3    C710972   3.225   2.027  15.216  0.0108 -0.1659  0.4212
  742TMC3    C810973   2.827   2.008  14.990 -0.3615 -0.3727 -0.2637
  742TMC3    O110974   3.266   1.993  15.103  0.2357  0.2969 -0.6169
  742TMC3    O210975   2.904   1.961  14.907 -0.3240 -0.3690 -0.0184
  743MPD2     C10976   1.104   3.643   2.340  0.7385 -0.3554 -0.0005
  743MPD2    C110977   1.111   3.538   2.248  0.1949 -0.4677 -0.1883
  743MPD2    C210978   1.213   3.452   2.261 -0.5616  0.5491  0.5038
  743MPD2    C310979   1.316   3.476   2.354 -0.2967 -0.7692 -0.5365
  743MPD2    C410980   1.313   3.583   2.437 -0.0660 -0.2517  0.0713
  743MPD2    C510981   1.201   3.665   2.425  0.4192 -0.3803 -0.5393
  743MPD2     H10982   1.215   3.362   2.200 -0.3538  0.5770  0.4692
  743MPD2    H110983   1.381   3.604   2.518  1.6573 -0.9185 -1.1751
  743MPD2    H210984   1.031   3.722   2.334 -0.7870 -1.6361  1.5121
  743MPD2    H310985   1.200   3.750   2.492 -0.9244 -2.5775  2.2035
  743MPD2     N10986   1.425   3.387   2.345  0.1296  0.1223 -0.2405
  743MPD2    H510987   1.420   3.312   2.277 -1.5376 -1.5920  1.8122
  743MPD2    N110988   1.000   3.533   2.157 -0.3454 -0.8072  0.1744
  743MPD2    H710989   0.917   3.585   2.182 -0.8223 -1.3151 -0.3683
  744TMC3    C110990   0.859   3.452   1.980  0.2598  0.2485  0.0953
  744TMC3    C210991   0.777   3.559   1.991  1.0124  0.0064  0.4043
  744TMC3    C310992   0.667   3.554   1.911 -0.4520 -0.4921 -0.2392
  744TMC3    C410993   0.845   3.349   1.890  0.6662 -0.3568  0.2556
  744TMC3    C510994   0.731   3.348   1.820  0.3250 -0.5340 -0.6724
  744TMC3    C610995   0.640   3.449   1.822 -0.2327 -0.2294 -0.0138
  744TMC3     C10996   0.987   3.440   2.057  0.3227  0.6939 -0.3534
  744TMC3     O10997   1.073   3.356   2.030 -0.0592 -0.0437 -0.0626
  744TMC3     H10998   0.794   3.636   2.066  0.5065  1.3347 -0.8513
  744TMC3    H110999   0.898   3.255   1.896  0.3701 -0.4718  0.9549
  744TMC3    H211000   0.567   3.454   1.742 -2.4142  0.2723  1.9987
  744TMC3    C711001   0.734   3.260   1.706  0.6894 -0.0894 -0.1084
  744TMC3    C811002   0.555   3.638   1.937 -0.4174 -0.1146  0.5086
  744TMC3    O111003   0.835   3.202   1.671 -0.2694 -0.0219 -0.5178
  744TMC3    O211004   0.455   3.602   1.872 -0.0387 -0.1083 -0.1120
  745TMC3    C111005   3.317   1.528  13.187 -0.3572 -0.1063  0.1894
  745TMC3    C211006   3.281   1.623  13.282  0.8432  0.2724 -0.0759
  745TMC3    C311007   3.180   1.710  13.257  0.0044  0.6259  0.3269
  745TMC3    C411008   3.241   1.514  13.079 -0.5226 -0.8456 -0.4469
  745TMC3    C511009   3.139   1.605  13.054 -0.1524 -0.1047 -0.4904
  745TMC3    C611010   3.103   1.704  13.139  0.6692  0.5152  0.4595
  745TMC3     C11011   3.459   1.489  13.184  0.2383  0.5966  0.0763
  745TMC3     O11012   3.485   1.411  13.096 -0.3153 -0.2010  0.1157
  745TMC3     H11013   3.336   1.627  13.375 -0.9515 -0.0311  0.9998
  745TMC3    H111014   3.276   1.440  13.006 -1.3543 -0.0638 -1.6401
  745TMC3    H211015   3.031   1.781  13.113 -0.9334 -1.4493 -0.9404
  745TMC3    C711016   3.137   1.639  12.907 -0.1339  0.8216  0.0021
  745TMC3    C811017   3.122   1.782  13.371  0.7141 -0.0797  0.1065
  745TMC3    O111018   3.128   1.543  12.827  0.1101  0.4836 -0.2862
  745TMC3    O211019   3.006   1.763  13.394 -0.4796  0.4376 -0.1415
  746TMC3    C111020   1.311   3.746  11.005  0.3871  0.0881 -0.5504
  746TMC3    C211021   1.400   3.740  10.900 -0.1348  0.7999  0.1832
  746TMC3    C311022   1.377   3.645  10.806 -0.9106  0.8268 -0.2938
  746TMC3    C411023   1.213   3.650  11.027  0.6005 -0.0097  0.1485
  746TMC3    C511024   1.199   3.556  10.929  0.1839 -0.1186 -0.1545
  746TMC3    C611025   1.282   3.549  10.817  0.5771 -0.4842  0.4117
  746TMC3     C11026   1.300   3.866  11.091 -0.0591  0.2368 -0.5247
  746TMC3     O11027   1.269   3.848  11.209 -0.1048  0.3662 -0.2411
  746TMC3     H11028   1.487   3.805  10.902 -1.1146  2.0986  0.2935
  746TMC3    H111029   1.149   3.662  11.114  0.2098 -0.3615 -0.0906
  746TMC3    H211030   1.258   3.478  10.739  1.4674 -0.0033 -0.3038
  746TMC3    C711031   1.087   3.455  10.946 -0.2989  0.4120 -0.0180
  746TMC3    C811032   1.459   3.638  10.690  0.0725 -0.1153 -0.0482
  746TMC3    O111033   1.085   3.371  10.857 -0.3364  0.0778  0.0968
  746TMC3    O211034   1.437   3.538  10.620 -0.0992 -0.4810 -0.0699
  747TMC3    C111035   3.131   4.047  10.858 -1.1331 -0.2446  0.0037
  747TMC3    C211036   3.090   3.920  10.887 -0.2669  0.2516 -0.5093
  747TMC3    C311037   3.134   3.863  11.003 -0.0501  0.2703 -0.4949
  747TMC3    C411038   3.224   4.106  10.936 -1.2026  0.6531  1.4435
  747TMC3    C511039   3.275   4.041  11.046 -0.6323 -0.0772  0.1070
  747TMC3    C611040   3.223   3.921  11.082 -0.5919  0.4180 -0.5852
  747TMC3     C11041   3.082   4.128  10.747 -0.1348  0.4854  0.1203
  747TMC3     O11042   3.067   4.248  10.768 -0.3753  0.0271 -0.1506
  747TMC3     H11043   3.002   3.874  10.843 -0.3533 -1.2933  1.2913
  747TMC3    H111044   3.259   4.206  10.912 -1.7957  0.0621 -1.8504
  747TMC3    H211045   3.259   3.866  11.167  0.6857  1.8754 -0.1792
  747TMC3    C711046   3.405   4.067  11.102  0.0399 -0.3528  0.8519
  747TMC3    C811047   3.039   3.768  11.063 -0.0907  0.2759  0.5171
  747TMC3    O111048   3.432   4.001  11.200  0.3751 -0.0398 -0.3744
  747TMC3    O211049   2.966   3.698  10.994 -0.7814 -0.2416  0.0877
  748MPD2     C11050   4.373   4.368   2.384  0.1286 -0.4648 -0.1921
  748MPD2    C111051   4.410   4.254   2.310  0.0295 -0.0153  0.3833
  748MPD2    C211052   4.543   4.236   2.278 -0.0216  0.0079  0.3736
  748MPD2    C311053   4.639   4.331   2.311  0.1212  0.3260  0.3680
  748MPD2    C411054   4.600   4.449   2.380  0.0754 -0.5907 -0.3437
  748MPD2    C511055   4.470   4.456   2.425 -0.2073 -0.4509  0.1421
  748MPD2     H11056   4.566   4.142   2.230 -0.6837  1.0225 -1.9123
  748MPD2    H111057   4.664   4.534   2.403 -0.9083  0.0874 -0.1113
  748MPD2    H211058   4.270   4.386   2.414 -0.2807 -2.5238 -0.2964
  748MPD2    H311059   4.434   4.539   2.484 -0.8220 -0.4267 -0.2696
  748MPD2     N11060   0.037   4.317   2.249 -0.6439  0.2220  0.1270
  748MPD2    H511061   0.051   4.255   2.170 -0.5227  0.3737  0.0295
  748MPD2    N111062   4.309   4.169   2.258 -0.6835 -0.1252 -0.5458
  748MPD2    H711063   4.212   4.200   2.263 -0.2510  0.8109  2.3481
  749TMC3    C111064   0.269   4.355   2.197 -0.1859 -0.0281  0.3092
  749TMC3    C211065   0.387   4.352   2.265 -0.5035 -0.3300 -0.4574
  749TMC3    C311066   0.494   4.311   2.186 -0.1595 -0.4496 -0.7948
  749TMC3    C411067   0.244   4.317   2.069 -0.0293  0.0964 -0.7345
  749TMC3    C511068   0.356   4.282   1.992  0.4430  0.2604 -0.3158
  749TMC3    C611069   0.478   4.278   2.048  0.0084 -0.1914  0.0000
  749TMC3     C11070   0.151   4.389   2.281 -0.0237 -0.2454  0.3101
  749TMC3     O11071   0.170   4.459   2.382 -0.2523 -0.0179  0.0735
  749TMC3     H11072   0.395   4.367   2.372  0.0981  0.3044 -0.5948
  749TMC3    H111073   0.142   4.319   2.031  0.3479 -0.1967 -1.7762
  749TMC3    H211074   0.560   4.242   1.988  0.9969 -0.0811  1.3021
  749TMC3    C711075   0.342   4.276   1.848 -0.4089 -0.3087 -0.1244
  749TMC3    C811076   0.621   4.279   2.255  1.1920  0.2078 -0.0175
  749TMC3    O111077   0.433   4.329   1.787 -0.2782  0.6610 -0.3587
  749TMC3    O211078   0.637   4.319   2.372  0.0883 -0.7408  0.3013
  750MPD2     C11079   0.790   0.999  11.174  0.3057  0.8684  0.2206
  750MPD2    C111080   0.778   0.894  11.264  0.2044 -0.2813 -0.2324
  750MPD2    C211081   0.808   0.766  11.230  0.5306  0.3417  0.1637
  750MPD2    C311082   0.836   0.741  11.096 -0.5080  0.2843  0.7782
  750MPD2    C411083   0.846   0.844  11.008  0.0296 -0.0976  0.0975
  750MPD2    C511084   0.823   0.971  11.045 -0.2106 -0.3244  0.3402
  750MPD2     H11085   0.823   0.692  11.308 -3.2487  1.0261  1.5413
  750MPD2    H111086   0.861   0.816  10.905 -0.6345 -1.0473  0.2606
  750MPD2    H211087   0.781   1.102  11.208  0.7088  1.1338 -0.4777
  750MPD2    H311088   0.805   1.052  10.975 -2.2541 -1.4866 -0.4778
  750MPD2     N11089   0.863   0.608  11.052  0.0393 -0.4698  0.0784
  750MPD2    H511090   0.906   0.603  10.960  2.4850  2.3840  1.0363
  750MPD2    N111091   0.759   0.925  11.405 -0.1929 -0.8696 -0.7963
  750MPD2    H711092   0.774   1.021  11.434  0.8591 -1.2884  0.0403
  751TMC3    C111093   0.871   0.373  11.054  0.0548 -0.0396  0.5978
  751TMC3    C211094   0.776   0.275  11.073 -0.0950  0.0775  0.4741
  751TMC3    C311095   0.747   0.193  10.968 -0.0477  0.0717  0.1729
  751TMC3    C411096   0.945   0.385  10.937 -0.9648 -0.0342 -0.3424
  751TMC3    C511097   0.928   0.288  10.845  0.3197  0.5788  0.0477
  751TMC3    C611098   0.825   0.199  10.855 -1.0092 -0.4229  0.4686
  751TMC3     C11099   0.831   0.496  11.123  0.6472 -0.2542 -0.1010
  751TMC3     O11100   0.752   0.483  11.214  0.4577 -0.6475  0.7647
  751TMC3     H11101   0.722   0.262  11.166 -0.6157 -2.1602 -0.1370
  751TMC3    H111102   1.033   0.449  10.931 -1.5384  0.8116  0.4457
  751TMC3    H211103   0.808   0.124  10.779  0.2209 -0.2418  0.0125
  751TMC3    C711104   1.026   0.274  10.736 -0.3453  0.6250  0.4076
  751TMC3    C811105   0.691   0.058  11.007 -0.2399  0.0514 -0.3527
  751TMC3    O111106   1.080   0.377  10.698  0.5936 -0.2448 -0.3261
  751TMC3    O211107   0.690   4.701  10.917  0.0125 -0.1197  0.2039
  752TMC3    C111108   4.181   0.131  17.675 -0.1071 -0.8384  0.4108
  752TMC3    C211109   4.255   0.068   0.072  1.4121 -0.3714  0.1014
  752TMC3    C311110   4.207   0.061   0.199  0.5306  0.2902  0.1992
  752TMC3    C411111   4.053   0.170  17.690  0.1915 -1.3337 -0.1820
  752TMC3    C511112   3.998   0.148   0.120 -0.2154 -0.0783 -0.5423
  752TMC3    C611113   4.074   0.093   0.219 -0.0832 -0.1159 -0.3072
  752TMC3     C11114   4.232   0.100  17.543 -0.4017 -0.1788 -0.3584
  752TMC3     O11115   4.311   0.009  17.526  0.3360 -0.0903  0.0976
  752TMC3     H11116   4.350   0.021   0.051  0.7315 -0.4103 -2.8746
  752TMC3    H111117   3.987   0.205  17.611 -0.2596  1.4129  1.3870
  752TMC3    H211118   4.026   0.074   0.315 -1.0631  0.0970 -0.7582
  752TMC3    C711119   3.891   0.229   0.158 -0.1123 -0.4106  0.4343
  752TMC3    C811120   4.290   4.714   0.304  0.0595 -0.2560 -0.3739
  752TMC3    O111121   3.806   0.236   0.070  0.1956 -0.0614 -0.4063
  752TMC3    O211122   4.408   4.692   0.279  0.2991  0.0756  0.2934
  753TMC3    C111123   2.421   2.069  13.321 -0.3024  0.1064  0.4680
  753TMC3    C211124   2.392   2.004  13.439 -0.4891 -0.0247  0.1993
  753TMC3    C311125   2.377   1.867  13.442 -0.5421  0.0812 -0.5204
  753TMC3    C411126   2.417   1.993  13.206 -0.5577 -0.4586  0.9690
  753TMC3    C511127   2.386   1.859  13.214  0.0998  0.6568 -0.5676
  753TMC3    C611128   2.378   1.786  13.330  0.1642  0.1125 -0.2923
  753TMC3     C11129   2.390   2.210  13.320 -0.0535  0.1116  0.6576
  753TMC3     O11130   2.398   2.272  13.427  0.3012 -0.3128  0.1624
  753TMC3     H11131   2.368   2.063  13.527 -0.5673 -0.2709  0.3452
  753TMC3    H111132   2.421   2.037  13.106  1.5609 -2.5149  0.1529
  753TMC3    H211133   2.375   1.678  13.326 -0.8844  0.1103  0.4309
  753TMC3    C711134   2.361   1.798  13.085 -1.0369  0.1283  0.1440
  753TMC3    C811135   2.341   1.797  13.560 -0.3714  0.1658  0.2670
  753TMC3    O111136   2.408   1.845  12.982  0.3332  0.3270 -0.1453
  753TMC3    O211137   2.296   1.683  13.542  0.0787 -0.0217  0.3501
  754MPD2     C11138   1.153   0.257  13.130  0.0967  0.1517  0.4825
  754MPD2    C111139   1.139   0.113  13.132 -0.6479 -1.1726 -0.8347
  754MPD2    C211140   1.017   0.057  13.091 -0.0328 -0.2449 -0.9785
  754MPD2    C311141   0.905   0.142  13.085 -0.5381  0.0864 -0.1561
  754MPD2    C411142   0.926   0.273  13.078  0.2699  0.4127  0.5705
  754MPD2    C511143   1.049   0.333  13.086  0.3208 -0.2530 -0.5380
  754MPD2     H11144   1.007   4.674  13.077 -0.9216 -0.3584  0.4854
  754MPD2    H111145   0.843   0.341  13.059  1.9138  1.7082 -1.9741
  754MPD2    H211146   1.240   0.317  13.156 -0.4052  1.4553 -0.8369
  754MPD2    H311147   1.055   0.440  13.072 -0.0209  0.0633  1.6664
  754MPD2     N11148   0.774   0.097  13.080 -0.4443  0.1163 -0.7191
  754MPD2    H511149   0.703   0.169  13.093  0.9289  0.8309  2.7188
  754MPD2    N111150   1.251   0.038  13.171  0.2342  0.1827 -0.3089
  754MPD2    H711151   1.338   0.089  13.172 -0.9333  2.1879 -0.2863
  755MPD2     C11152   0.069   0.545  12.888 -0.3591 -0.2778  0.2672
  755MPD2    C111153   0.036   0.484  13.009 -0.7159 -0.1572 -0.3544
  755MPD2    C211154   0.109   0.383  13.057  0.5703  0.2221  0.1347
  755MPD2    C311155   0.222   0.338  12.980 -0.0711 -0.6489 -0.4750
  755MPD2    C411156   0.257   0.405  12.867 -0.3249 -0.1370  0.5536
  755MPD2    C511157   0.181   0.510  12.819 -0.6848 -0.2930 -0.5174
  755MPD2     H11158   0.074   0.329  13.144  0.0211  1.5239  0.7266
  755MPD2    H111159   0.338   0.367  12.807  0.0914 -1.9031  2.2043
  755MPD2    H211160   0.020   0.632  12.847  2.0817  0.0493 -1.9487
  755MPD2    H311161   0.196   0.552  12.720 -2.2656 -1.2010 -1.1332
  755MPD2     N11162   0.305   0.229  13.008  0.0573 -0.0952  0.2506
  755MPD2    H511163   0.365   0.185  12.939 -0.7983 -3.4491  1.6248
  755MPD2    N111164   4.658   0.526  13.095  0.7493  0.0331 -0.2036
  755MPD2    H711165   4.664   0.476  13.183  0.2670 -1.7108 -1.1772
  756MPD2     C11166   0.793   0.349   9.906 -0.5262  0.7780 -0.5417
  756MPD2    C111167   0.700   0.452   9.918 -0.0775  0.0439 -0.7008
  756MPD2    C211168   0.568   0.408   9.931  0.0516 -0.3473 -0.5790
  756MPD2    C311169   0.530   0.270   9.949 -0.3105 -0.3331  0.0560
  756MPD2    C411170   0.636   0.180   9.965  0.5338 -0.3695  0.2429
  756MPD2    C511171   0.762   0.221   9.942  0.5373 -0.1203  1.0520
  756MPD2     H11172   0.487   0.481   9.929 -0.6720 -1.1799 -1.3243
  756MPD2    H111173   0.614   0.075   9.980  0.6072 -0.5960 -1.2257
  756MPD2    H211174   0.897   0.369   9.886 -0.2134 -1.2059 -0.9513
  756MPD2    H311175   0.848   0.154   9.932 -0.0318 -0.6270 -0.4466
  756MPD2     N11176   0.392   0.236   9.966 -0.4405 -0.3286  0.2819
  756MPD2    H511177   0.328   0.315   9.956 -1.6084 -1.1926  0.8884
  756MPD2    N111178   0.735   0.590   9.905  0.3802 -0.3234  0.1880
  756MPD2    H711179   0.660   0.658   9.917 -1.4431 -2.1310 -0.8333
  757MPD2     C11180   4.681   4.053  10.111  0.3615 -1.2025  0.3845
  757MPD2    C111181   0.076   4.094  10.059 -0.5116  0.2759 -0.4903
  757MPD2    C211182   0.101   4.230  10.032 -0.2533  0.3042  0.2038
  757MPD2    C311183   4.717   4.322  10.047  0.4242  0.6161 -0.0840
  757MPD2    C411184   4.595   4.272  10.089 -0.0078  0.4435  0.2712
  757MPD2    C511185   4.579   4.143  10.127  0.5003  0.1776 -0.2175
  757MPD2     H11186   0.203   4.260  10.009  1.2629 -2.6454  3.1099
  757MPD2    H111187   4.512   4.341  10.097  1.3263  2.0050  0.7233
  757MPD2    H211188   4.673   3.948  10.135  1.4893 -0.9247  1.9474
  757MPD2    H311189   4.482   4.108  10.160 -0.2957 -0.2629 -3.0336
  757MPD2     N11190   0.031   4.457  10.043  0.1220  0.1377  0.0569
  757MPD2    H511191   0.128   4.473  10.016  0.7569  0.1426  2.4091
  757MPD2    N111192   0.176   3.989  10.059  1.2371  0.0583 -0.0805
  757MPD2    H711193   0.138   3.896  10.071 -1.1679  0.6061 -3.4640
  758MPD2     C11194   0.518   4.682  15.979 -0.3907 -0.0668 -0.0103
  758MPD2    C111195   0.603   4.633  16.077  0.0399 -0.9767  0.4815
  758MPD2    C211196   0.574   4.664  16.210  0.0910  1.0247 -0.2485
  758MPD2    C311197   0.459   0.008  16.248  0.2135 -0.0149  0.4001
  758MPD2    C411198   0.380   0.061  16.147 -0.4125  0.3583  0.2542
  758MPD2    C511199   0.405   0.031  16.018  0.5262  0.4560 -0.1166
  758MPD2     H11200   0.645   4.635  16.287 -0.4595  0.0714 -0.1018
  758MPD2    H111201   0.286   0.113  16.163  0.7140  1.8146  2.0387
  758MPD2    H211202   0.522   4.668  15.872  0.9488  2.0712 -0.2545
  758MPD2    H311203   0.338   0.054  15.936  0.3320 -0.6528 -0.2702
  758MPD2     N11204   0.426   0.033  16.382  0.4818  0.2301  0.2567
  758MPD2    H511205   0.328   0.058  16.392 -0.4867 -3.3657 -0.3325
  758MPD2    N111206   0.713   4.548  16.033 -0.4096 -0.4110 -0.0321
  758MPD2    H711207   0.746   4.547  15.937 -0.6013 -1.8180 -0.0760
  759MPD2     C11208   3.991   3.082  10.215 -0.0505  0.2207  0.1026
  759MPD2    C111209   4.105   3.018  10.261 -0.6036 -0.0881  0.4992
  759MPD2    C211210   4.223   3.051  10.211  0.5686 -0.1182  0.5581
  759MPD2    C311211   4.240   3.153  10.117 -0.0648  0.0339 -0.4240
  759MPD2    C411212   4.125   3.213  10.069 -0.1627  0.3302 -0.0187
  759MPD2    C511213   4.000   3.176  10.121  0.2629  0.1735 -0.3468
  759MPD2     H11214   4.310   3.012  10.263  0.5934 -1.0186 -0.1655
  759MPD2    H111215   4.124   3.273   9.979  0.8820 -0.6912 -0.7249
  759MPD2    H211216   3.892   3.064  10.255  0.4945 -1.3403  0.7222
  759MPD2    H311217   3.910   3.222  10.083 -1.7982 -0.2530  4.0376
  759MPD2     N11218   4.373   3.185  10.073 -0.2728 -0.5956  0.0074
  759MPD2    H511219   4.442   3.123  10.114 -0.8734 -1.6028 -0.5190
  759MPD2    N111220   4.106   2.929  10.371 -0.3172 -1.1009 -0.6424
  759MPD2    H711221   4.195   2.894  10.405 -0.9810 -1.1687  1.0185
  760MPD2     C11222   4.217   0.181  12.359 -0.0696  0.9053  0.0553
  760MPD2    C111223   4.304   0.130  12.262 -0.1822 -0.4927 -0.3872
  760MPD2    C211224   4.401   0.032  12.292 -0.3190  0.1643  0.4906
  760MPD2    C311225   4.409   4.704  12.419  0.4659 -0.1973  0.2800
  760MPD2    C411226   4.329   0.027  12.515 -0.1313 -0.1405  0.7281
  760MPD2    C511227   4.249   0.135  12.485  0.1965  0.3076 -0.6966
  760MPD2     H11228   4.462   4.714  12.213 -0.7299 -1.4864  1.0473
  760MPD2    H111229   4.328   4.711  12.615 -1.5282  1.0520  1.1921
  760MPD2    H211230   4.138   0.255  12.352 -0.2477  0.6711 -0.4379
  760MPD2    H311231   4.195   0.184  12.565  0.5942 -1.1404  0.4579
  760MPD2     N11232   4.514   4.608  12.454  0.0529 -0.7135  0.1109
  760MPD2    H511233   4.515   4.577  12.551  0.7774  0.4905  0.4874
  760MPD2    N111234   4.306   0.173  12.131  0.1395  0.7964 -0.0438
  760MPD2    H711235   4.373   0.136  12.065 -1.5824  1.2713 -2.0363
  761MPD2     C11236   0.702   4.406  11.350 -0.7303 -0.9186  0.1621
  761MPD2    C111237   0.760   4.425  11.227 -0.2657 -0.3977 -0.4239
  761MPD2    C211238   0.729   4.543  11.149 -0.7841  0.0207  0.1619
  761MPD2    C311239   0.657   4.643  11.202 -0.0261  0.1849 -0.7647
  761MPD2    C411240   0.595   4.623  11.320  0.4686 -0.2632 -0.2678
  761MPD2    C511241   0.615   4.505  11.392  0.5870  0.1495  0.5854
  761MPD2     H11242   0.768   4.549  11.048  0.1904 -2.0640  0.4027
  761MPD2    H111243   0.535   4.699  11.369 -1.1780 -0.9112 -1.2746
  761MPD2    H211244   0.717   4.316  11.409 -0.0530  0.2862  1.8195
  761MPD2    H311245   0.565   4.496  11.487  1.0028  1.9187  0.9781
  761MPD2     N11246   0.647   0.046  11.136  0.3856 -0.4252 -0.2325
  761MPD2    H511247   0.619   0.127  11.191 -0.2785 -0.1587 -0.9583
  761MPD2    N111248   0.848   4.316  11.185 -0.7495  0.9563  0.1178
  761MPD2    H711249   0.849   4.238  11.251  0.0219  0.5156 -0.4178
  762MPD2     C11250   1.180   3.813  10.486  0.1956 -0.4229 -1.0072
  762MPD2    C111251   1.225   3.920  10.557  0.5958  0.8531  0.2439
  762MPD2    C211252   1.329   4.003  10.511 -0.1816  0.2119  0.7241
  762MPD2    C311253   1.398   3.960  10.400  0.2205  0.5675 -0.2959
  762MPD2    C411254   1.358   3.846  10.326  0.4436  0.1926 -0.0943
  762MPD2    C511255   1.245   3.777  10.369 -0.7610 -0.5155 -0.2894
  762MPD2     H11256   1.362   4.089  10.568 -0.3034  0.0707  1.0086
  762MPD2    H111257   1.405   3.808  10.236  1.3887  0.0975  0.4433
  762MPD2    H211258   1.089   3.761  10.516  1.2859 -1.8882 -0.2490
  762MPD2    H311259   1.207   3.689  10.318 -4.0422 -0.2801  1.7580
  762MPD2     N11260   1.518   4.029  10.364 -0.7277 -0.4928  0.3377
  762MPD2    H511261   1.564   4.087  10.433  1.5840 -0.1938 -1.4495
  762MPD2    N111262   1.144   3.942  10.676 -0.9838  0.5573  0.1260
  762MPD2    H711263   1.070   3.876  10.697 -1.5150  1.7330  1.9897
  763MPD2     C11264   2.320   0.097  16.160  0.7459  0.0233 -0.0103
  763MPD2    C111265   2.436   0.158  16.116 -0.3567  0.4525  0.2852
  763MPD2    C211266   2.466   0.276  16.176  0.6045 -0.3431 -0.1027
  763MPD2    C311267   2.397   0.317  16.290 -0.4828  0.1375  0.3065
  763MPD2    C411268   2.286   0.256  16.330 -0.2567  0.2043 -0.2608
  763MPD2    C511269   2.246   0.157  16.253  0.3350  0.1992  0.2059
  763MPD2     H11270   2.552   0.332  16.141 -0.7132  1.5490 -0.2940
  763MPD2    H111271   2.229   0.287  16.418 -0.4440 -1.8754  0.3532
  763MPD2    H211272   2.279   0.004  16.122  1.2594  0.2559 -1.1183
  763MPD2    H311273   2.159   0.105  16.291 -0.2262  1.3670  0.5369
  763MPD2     N11274   2.454   0.424  16.355 -0.3028  0.1638  0.2196
  763MPD2    H511275   2.541   0.451  16.310 -0.4320  0.1773 -0.0205
  763MPD2    N111276   2.512   0.108  16.011 -0.0348 -0.6009  0.3128
  763MPD2    H711277   2.580   0.179  15.989 -2.7839  1.5130 -1.2911
  764MPD2     C11278   0.766   1.340  17.371  0.1147 -0.3174 -0.5272
  764MPD2    C111279   0.664   1.247  17.349  0.2350  0.0891  1.0045
  764MPD2    C211280   0.671   1.119  17.411 -0.0004 -0.8875 -0.2229
  764MPD2    C311281   0.770   1.106  17.502 -0.4388 -0.0470  1.1050
  764MPD2    C411282   0.880   1.196  17.517 -0.0429  0.1559 -0.2148
  764MPD2    C511283   0.873   1.308  17.444 -0.1855  0.1009  0.1000
  764MPD2     H11284   0.602   1.037  17.394 -1.2493 -0.3516  2.1241
  764MPD2    H111285   0.973   1.180  17.570 -0.7170 -1.6481  0.4233
  764MPD2    H211286   0.780   1.428  17.309  0.7768  1.2047  1.7636
  764MPD2    H311287   0.962   1.369  17.436 -0.9077  1.4249  2.3909
  764MPD2     N11288   0.765   0.984  17.573  0.7110 -0.5057 -0.2377
  764MPD2    H511289   0.679   0.932  17.560 -0.3166  1.0364  0.3655
  764MPD2    N111290   0.554   1.261  17.261  0.2793  0.8311 -0.3278
  764MPD2    H711291   0.480   1.192  17.257  2.1982 -1.1917 -0.5988
  765MPD2     C11292   0.146   3.981  16.296  0.3698 -0.0481  0.7151
  765MPD2    C111293   0.189   4.051  16.185 -0.1017  0.0175 -0.3500
  765MPD2    C211294   0.297   4.010  16.111 -0.5988 -0.0293 -0.2869
  765MPD2    C311295   0.348   3.881  16.130  0.3174  1.1075  0.4993
  765MPD2    C411296   0.313   3.818  16.248 -0.1491  0.1965  0.9155
  765MPD2    C511297   0.204   3.863  16.324 -0.3803 -0.0900  0.5987
  765MPD2     H11298   0.333   4.066  16.026 -0.7872  1.9254  0.9173
  765MPD2    H111299   0.348   3.718  16.268  1.3858  0.6308  0.3455
  765MPD2    H211300   0.067   4.017  16.361 -1.5079  0.1551 -1.6662
  765MPD2    H311301   0.172   3.806  16.411 -0.2613  0.8317  1.2499
  765MPD2     N11302   0.449   3.830  16.041 -0.4796  0.3142  0.0751
  765MPD2    H511303   0.467   3.876  15.952  0.6420 -0.0047  0.1364
  765MPD2    N111304   0.117   4.175  16.158 -0.5162  0.0673 -0.2098
  765MPD2    H711305   0.035   4.190  16.216 -1.3138 -1.1058 -1.0266
  766MPD2     C11306   4.319   4.300  15.756  0.1643  0.5711  0.2127
  766MPD2    C111307   4.456   4.290  15.764 -0.2294  0.4701  0.2195
  766MPD2    C211308   4.527   4.232  15.662 -0.0536 -0.0179 -0.2582
  766MPD2    C311309   4.455   4.183  15.550  0.4386 -0.3424  0.3689
  766MPD2    C411310   4.319   4.190  15.544 -0.8752  0.9218  0.3007
  766MPD2    C511311   4.253   4.262  15.642  0.2221  0.2382 -0.0854
  766MPD2     H11312   4.635   4.239  15.670 -0.1815 -0.7675  1.8250
  766MPD2    H111313   4.257   4.150  15.465 -0.4170  1.2981 -0.2418
  766MPD2    H211314   4.263   4.344  15.837  1.1347  0.3386  1.0149
  766MPD2    H311315   4.144   4.264  15.643  0.1421 -3.6171 -0.6755
  766MPD2     N11316   4.518   4.134  15.431  0.1614 -0.1640 -0.9555
  766MPD2    H511317   4.457   4.130  15.350  0.1869 -0.8736 -0.9469
  766MPD2    N111318   4.524   4.337  15.870  0.1308  0.4687 -0.8212
  766MPD2    H711319   4.625   4.323  15.870 -0.1214 -1.3878 -0.2105
  767MPD2     C11320   4.172   4.608  15.051 -0.5897 -0.0154  0.7184
  767MPD2    C111321   4.265   4.509  15.071  0.5393  0.9549  0.1757
  767MPD2    C211322   4.250   4.396  14.991 -0.0613 -0.4283  0.0652
  767MPD2    C311323   4.140   4.381  14.900  0.4982  0.7680  0.4488
  767MPD2    C411324   4.044   4.482  14.884  0.0446  0.3080  0.1103
  767MPD2    C511325   4.067   4.601  14.956 -0.0229 -0.0203 -0.0283
  767MPD2     H11326   4.329   4.323  14.981  1.0056  0.6468  0.7683
  767MPD2    H111327   3.971   4.483  14.805  0.6810  1.7285 -0.4501
  767MPD2    H211328   4.168   4.708  15.092  0.2355  0.1481  0.3956
  767MPD2    H311329   3.997   4.681  14.935 -1.7167 -1.7735 -1.0494
  767MPD2     N11330   4.134   4.264  14.818 -0.0945  0.3262  0.0548
  767MPD2    H511331   4.068   4.267  14.740 -1.5000 -0.3925  1.2113
  767MPD2    N111332   4.389   4.532  15.137  0.5146  0.0232 -0.3259
  767MPD2    H711333   4.464   4.469  15.111 -1.1933 -2.6412  1.2942
  768MPD2     C11334   1.120   3.076  10.651  0.0179 -0.2438  0.1800
  768MPD2    C111335   1.061   3.003  10.749 -0.5857  0.3991  0.3579
  768MPD2    C211336   1.124   2.997  10.873 -0.0797  0.3149 -0.6679
  768MPD2    C311337   1.253   3.059  10.891  0.6295 -0.0871 -0.3563
  768MPD2    C411338   1.311   3.135  10.787 -0.6235 -0.0572  0.0069
  768MPD2    C511339   1.240   3.140  10.666 -0.8856 -0.6893  0.0837
  768MPD2     H11340   1.085   2.927  10.946  0.8588  0.6629  0.1596
  768MPD2    H111341   1.406   3.185  10.801 -0.7422 -0.5504  2.4962
  768MPD2    H211342   1.069   3.087  10.556 -0.0212 -0.6152  0.1613
  768MPD2    H311343   1.276   3.198  10.582 -0.6127  0.2986  0.8781
  768MPD2     N11344   1.338   3.030  11.001 -0.0428  0.4372  0.1874
  768MPD2    H511345   1.433   3.066  11.005  0.2048 -0.0231 -1.8233
  768MPD2    N111346   0.938   2.939  10.739  0.2017  0.1180 -0.3106
  768MPD2    H711347   0.908   2.873  10.811  1.6295 -0.5065 -0.2830
  769MPD2     C11348   1.686   0.822  14.682 -0.7304 -1.1671  0.3646
  769MPD2    C111349   1.686   0.733  14.790  0.4613 -0.0301  0.6613
  769MPD2    C211350   1.743   0.776  14.912 -0.1291  0.2610 -0.5034
  769MPD2    C311351   1.770   0.905  14.941  0.1793  0.1742  0.5257
  769MPD2    C411352   1.774   0.994  14.830 -0.4955  0.0238 -0.6661
  769MPD2    C511353   1.728   0.951  14.706  0.0187  0.3025 -0.1798
  769MPD2     H11354   1.766   0.711  14.995 -2.0921  1.1380  0.7290
  769MPD2    H111355   1.803   1.098  14.839 -0.3821 -0.0312 -0.3894
  769MPD2    H211356   1.650   0.791  14.585 -1.6273  1.5388 -0.1797
  769MPD2    H311357   1.719   1.017  14.620 -0.7549 -1.5027 -1.4830
  769MPD2     N11358   1.825   0.929  15.071 -0.4910 -0.2472 -0.5375
  769MPD2    H511359   1.811   0.853  15.136 -2.0757  2.3103  2.1348
  769MPD2    N111360   1.664   0.596  14.759 -0.0988  0.3177 -0.4685
  769MPD2    H711361   1.657   0.571  14.661 -0.3055 -1.3085 -0.0392
  770MPD2     C11362   1.352   4.324  15.086 -0.1355 -0.2423  0.1996
  770MPD2    C111363   1.248   4.371  15.003  0.4892 -0.2648 -0.0660
  770MPD2    C211364   1.250   4.498  14.952 -0.5022 -0.0516 -0.4223
  770MPD2    C311365   1.361   4.576  14.980 -0.0311 -0.8013 -0.6804
  770MPD2    C411366   1.453   4.535  15.082  0.0203 -0.1280  0.6595
  770MPD2    C511367   1.446   4.410  15.132 -0.1974  0.8092 -0.4475
  770MPD2     H11368   1.176   4.542  14.887 -0.1272  0.1016 -0.7448
  770MPD2    H111369   1.538   4.594  15.115 -0.1543  1.1126 -1.1371
  770MPD2    H211370   1.353   4.224  15.129 -0.1625  0.0841  0.9701
  770MPD2    H311371   1.517   4.370  15.203 -2.1660 -4.1935 -1.3288
  770MPD2     N11372   1.373   4.702  14.913 -0.2283 -0.4489 -0.3448
  770MPD2    H511373   1.293   0.015  14.862 -0.6119 -0.4640  0.2538
  770MPD2    N111374   1.147   4.272  14.973 -0.0230  0.2383 -0.0661
  770MPD2    H711375   1.174   4.176  14.996 -0.5505  0.3119  0.8420
  771MPD2     C11376   2.661   3.571  13.807 -0.1567 -0.9819 -0.2179
  771MPD2    C111377   2.570   3.664  13.831 -0.1387 -0.2194  0.9648
  771MPD2    C211378   2.451   3.666  13.759 -0.3329 -0.0489  0.0839
  771MPD2    C311379   2.424   3.570  13.658  0.7405  0.3462 -0.0750
  771MPD2    C411380   2.521   3.469  13.641  0.4234  0.1429  0.2685
  771MPD2    C511381   2.637   3.476  13.715  0.3340  0.5510 -0.7215
  771MPD2     H11382   2.375   3.741  13.780 -1.1615 -0.8595 -0.0065
  771MPD2    H111383   2.505   3.392  13.567  0.3290  2.0810 -1.7282
  771MPD2    H211384   2.758   3.572  13.855 -0.0629 -0.0526 -0.4113
  771MPD2    H311385   2.721   3.409  13.703  1.4747  1.9524 -0.5860
  771MPD2     N11386   2.304   3.591  13.578 -0.4148 -0.6075  0.3865
  771MPD2    H511387   2.243   3.665  13.611  0.0407  0.5024 -1.2771
  771MPD2    N111388   2.586   3.756  13.935  0.1859 -0.4659 -0.0459
  771MPD2    H711389   2.526   3.837  13.940  2.8803  1.4465  1.4245
  772MPD2     C11390   2.265   4.310  14.298  0.1097 -0.4599  0.1650
  772MPD2    C111391   2.269   4.200  14.213  0.2511 -0.2899 -0.0699
  772MPD2    C211392   2.153   4.129  14.180  0.0470 -0.3635  0.2268
  772MPD2    C311393   2.032   4.188  14.220 -0.2778  0.6573 -0.1260
  772MPD2    C411394   2.029   4.293  14.304  0.0224  0.4573 -0.1097
  772MPD2    C511395   2.142   4.350  14.353 -0.7819 -0.7377  0.2670
  772MPD2     H11396   2.156   4.043  14.114  1.0777  0.4073 -0.7257
  772MPD2    H111397   1.938   4.342  14.337 -0.2181 -0.7134  0.9400
  772MPD2    H211398   2.353   4.367  14.323 -1.4596  1.2902  1.7483
  772MPD2    H311399   2.132   4.435  14.419 -0.0435  0.4800 -1.2107
  772MPD2     N11400   1.902   4.135  14.188  0.0768  0.1482  0.4933
  772MPD2    H511401   1.814   4.171  14.226  0.2097 -0.2713  1.1885
  772MPD2    N111402   2.383   4.123  14.191  0.2217  0.5026 -1.1906
  772MPD2    H711403   2.382   4.031  14.148 -0.2386  1.5703 -3.4715
  773MPD2     C11404   1.358   0.164   0.169  0.4148 -1.1221 -0.1627
  773MPD2    C111405   1.291   0.046   0.136 -0.2355  0.2895  0.1603
  773MPD2    C211406   1.320   4.656   0.208  0.2715  0.6053  0.1261
  773MPD2    C311407   1.415   4.659   0.308  0.0515  0.4806  0.4613
  773MPD2    C411408   1.489   0.055   0.336 -0.0501 -0.3095 -0.6094
  773MPD2    C511409   1.458   0.166   0.266  0.0602 -0.2443  0.1574
  773MPD2     H11410   1.274   4.561   0.184  1.0698  0.4700 -0.8630
  773MPD2    H111411   1.566   0.057   0.412 -0.2300  1.9436 -0.4859
  773MPD2    H211412   1.351   0.260   0.121 -0.7105 -1.9895 -1.7492
  773MPD2    H311413   1.512   0.255   0.294 -1.4734  0.6031  0.4105
  773MPD2     N11414   1.426   4.539   0.374  0.6363 -0.1334 -0.1006
  773MPD2    H511415   1.355   4.469   0.354  0.1114  0.4376 -0.2224
  773MPD2    N111416   1.198   0.040   0.029 -0.2184 -0.3091  0.6779
  773MPD2    H711417   1.163   4.670   0.012  0.3939 -0.4803  0.3408
  774MPD2     C11418   0.965   3.706  13.310  0.1367 -0.3187 -0.5725
  774MPD2    C111419   0.904   3.787  13.408 -0.1032 -0.3586  0.1554
  774MPD2    C211420   0.936   3.919  13.401  0.1116  0.0952  0.0062
  774MPD2    C311421   1.013   3.981  13.301 -0.4445  0.9967 -1.3710
  774MPD2    C411422   1.068   3.897  13.209 -0.7371 -0.5255 -0.3851
  774MPD2    C511423   1.050   3.765  13.216  0.6582  0.3759 -0.8895
  774MPD2     H11424   0.901   3.975  13.487  0.9491  0.9053 -0.1744
  774MPD2    H111425   1.141   3.937  13.140 -0.4179  0.5941  0.6141
  774MPD2    H211426   0.966   3.598  13.319 -0.8710 -0.3822 -1.1751
  774MPD2    H311427   1.105   3.703  13.146  0.8020 -3.9401  3.0499
  774MPD2     N11428   1.018   4.117  13.306  0.2066 -0.2515 -0.2277
  774MPD2    H511429   0.982   4.154  13.393  0.3954 -0.0516 -0.2328
  774MPD2    N111430   0.833   3.739  13.524 -0.3452 -0.2570  0.7516
  774MPD2    H711431   0.813   3.805  13.598  2.4968  0.0229  1.2896
  775MPD2     C11432   2.126   0.739  15.831 -0.6030  0.4663 -1.0797
  775MPD2    C111433   2.084   0.848  15.903 -0.4118 -0.0422  0.3879
  775MPD2    C211434   2.151   0.969  15.887 -0.1025 -0.0632 -1.0254
  775MPD2    C311435   2.273   0.977  15.814 -0.0522 -0.0572  0.1305
  775MPD2    C411436   2.315   0.865  15.747 -0.6074  0.7045  0.6436
  775MPD2    C511437   2.242   0.752  15.757  0.0089  0.0930 -0.7740
  775MPD2     H11438   2.114   1.062  15.929  0.0407 -1.9365  3.1542
  775MPD2    H111439   2.399   0.877  15.680 -0.8358 -0.1972  0.1874
  775MPD2    H211440   2.082   0.640  15.838  0.5296  0.1499  1.5353
  775MPD2    H311441   2.284   0.662  15.714  0.6539  1.5837 -3.2456
  775MPD2     N11442   2.364   1.087  15.822  0.3379  0.2940  0.3121
  775MPD2    H511443   2.440   1.095  15.755  0.4611 -0.8580  0.3056
  775MPD2    N111444   1.962   0.838  15.977  0.2058  0.5794  0.5668
  775MPD2    H711445   1.900   0.765  15.943  0.9541  0.4973 -0.6161
  776MPD2     C11446   1.273   1.156  12.028  0.0268  0.3329 -0.5051
  776MPD2    C111447   1.198   1.190  11.919 -0.8866 -0.3714  0.2849
  776MPD2    C211448   1.229   1.306  11.851 -0.9048  0.3475  0.7823
  776MPD2    C311449   1.337   1.392  11.881  0.4747 -0.8093 -0.2990
  776MPD2    C411450   1.410   1.356  11.989 -0.3546  0.0030  0.4999
  776MPD2    C511451   1.373   1.243  12.064 -0.7570 -0.0219 -0.2687
  776MPD2     H11452   1.184   1.320  11.754 -1.6399 -2.9250  0.6479
  776MPD2    H111453   1.496   1.414  12.019  0.3825 -0.7999 -0.0341
  776MPD2    H211454   1.239   1.077  12.094 -1.3310  1.0145 -0.3744
  776MPD2    H311455   1.432   1.220  12.152 -0.4196 -1.5430 -0.9080
  776MPD2     N11456   1.383   1.491  11.796 -0.1196 -0.3159 -0.0927
  776MPD2    H511457   1.477   1.526  11.811 -0.5261  0.5654  0.4327
  776MPD2    N111458   1.098   1.108  11.884 -0.0833 -0.3848  0.1804
  776MPD2    H711459   1.089   1.025  11.942 -2.4387  1.1642  2.0122
  777MPD2     C11460   1.084   3.676   1.279  0.6214 -0.1981  0.8728
  777MPD2    C111461   1.077   3.568   1.366  0.5081 -0.1116  0.3539
  777MPD2    C211462   1.063   3.434   1.321  0.4149 -0.1234  0.0926
  777MPD2    C311463   1.047   3.404   1.189 -0.0612  0.3076  0.3168
  777MPD2    C411464   1.064   3.511   1.102  0.1933 -0.1680 -0.4476
  777MPD2    C511465   1.088   3.638   1.145  0.1061  0.2367  0.1634
  777MPD2     H11466   1.054   3.350   1.389 -0.3704  0.0703  0.2227
  777MPD2    H111467   1.050   3.501   0.995 -2.4354 -0.7997 -0.0625
  777MPD2    H211468   1.099   3.778   1.313  0.2104  0.0218  0.3940
  777MPD2    H311469   1.098   3.715   1.069  2.9390 -2.1491 -1.8428
  777MPD2     N11470   1.007   3.274   1.145 -0.7448  0.4734 -0.3525
  777MPD2    H511471   0.977   3.209   1.217  0.5349 -1.4024 -1.4969
  777MPD2    N111472   1.085   3.604   1.504  0.7882  0.1078  0.6824
  777MPD2    H711473   1.120   3.698   1.513  0.1570  0.5948 -1.7787
  778MPD2     C11474   2.265   3.500  15.576 -0.6025  0.5500 -0.9152
  778MPD2    C111475   2.196   3.462  15.464 -0.2636  0.0857 -0.1971
  778MPD2    C211476   2.203   3.541  15.352 -0.0074  0.3088 -0.3678
  778MPD2    C311477   2.288   3.655  15.351  0.4471  0.5679  0.4992
  778MPD2    C411478   2.364   3.683  15.466 -0.0502 -0.5615 -0.2744
  778MPD2    C511479   2.349   3.609  15.579  0.1833 -0.2838  0.0102
  778MPD2     H11480   2.144   3.508  15.267  1.5121 -0.9530 -0.9259
  778MPD2    H111481   2.444   3.754  15.475 -1.1743  0.7819 -0.8585
  778MPD2    H211482   2.246   3.445  15.667 -0.0705  1.8456 -0.0276
  778MPD2    H311483   2.410   3.630  15.666 -0.2514  0.9932  0.0076
  778MPD2     N11484   2.296   3.732  15.231  0.4705 -0.5162 -0.4882
  778MPD2    H511485   2.234   3.706  15.155  0.6916  0.7707 -1.1193
  778MPD2    N111486   2.102   3.357  15.461  0.1539  0.8840 -0.2755
  778MPD2    H711487   2.064   3.339  15.369 -0.9945  0.5038  0.2783
  779MPD2     C11488   2.017   2.402  14.529  0.3883 -0.6833 -0.0170
  779MPD2    C111489   2.145   2.436  14.508 -0.2963 -0.0731 -0.6133
  779MPD2    C211490   2.172   2.569  14.476  0.3778  0.8367  0.2256
  779MPD2    C311491   2.072   2.665  14.491 -0.5336  0.5361  0.0368
  779MPD2    C411492   1.941   2.623  14.509  0.4383  0.0145  0.2454
  779MPD2    C511493   1.916   2.494  14.513  0.2562  0.2632  0.2530
  779MPD2     H11494   2.277   2.599  14.473 -0.0326  2.1825 -0.4819
  779MPD2    H111495   1.853   2.687  14.502 -1.2265 -2.4149 -0.8961
  779MPD2    H211496   1.987   2.301  14.553  2.0833 -0.8928  1.2484
  779MPD2    H311497   1.811   2.469  14.525  0.3865 -1.0381 -1.2384
  779MPD2     N11498   2.107   2.803  14.484  0.0965 -0.0114  0.5405
  779MPD2    H511499   2.206   2.820  14.468  0.7522 -1.7928  2.7444
  779MPD2    N111500   2.255   2.349  14.503 -0.1377  0.5496 -0.2738
  779MPD2    H711501   2.345   2.394  14.486 -0.1443  1.3420  1.8971
  780MPD2     C11502   1.111   1.930   1.315  0.3536 -0.5189 -1.1605
  780MPD2    C111503   1.114   1.867   1.197 -0.0265  0.2186  0.3823
  780MPD2    C211504   1.220   1.910   1.112  0.0106 -0.2751 -0.3341
  780MPD2    C311505   1.320   1.996   1.156 -0.1453 -0.3814 -0.2307
  780MPD2    C411506   1.309   2.050   1.277  0.5329  0.1021 -0.1914
  780MPD2    C511507   1.198   2.028   1.348 -0.8695 -0.7065  0.3520
  780MPD2     H11508   1.223   1.881   1.008 -0.6956  1.6837 -0.9044
  780MPD2    H111509   1.383   2.124   1.307  2.2646 -0.8442 -2.0878
  780MPD2    H211510   1.024   1.914   1.376  2.3099 -0.7918  1.5766
  780MPD2    H311511   1.201   2.068   1.449  2.0066 -0.2124  0.0765
  780MPD2     N11512   1.415   2.036   1.058 -0.3128 -0.2629  0.1763
  780MPD2    H511513   1.382   2.016   0.964 -2.1202  0.5816  0.6383
  780MPD2    N111514   1.009   1.781   1.164 -0.6738 -0.2518  0.2691
  780MPD2    H711515   0.932   1.760   1.226 -0.0794  0.7722  1.3354
  781MPD2     C11516   3.388   3.807  11.945  0.0287 -0.2221 -0.1464
  781MPD2    C111517   3.443   3.930  11.983 -0.6706 -0.5723  0.2036
  781MPD2    C211518   3.567   3.968  11.937 -0.1417  0.1780 -0.4781
  781MPD2    C311519   3.631   3.884  11.842  0.6619  0.1887  0.6442
  781MPD2    C411520   3.577   3.765  11.806  0.2276  0.1215 -0.5348
  781MPD2    C511521   3.451   3.731  11.857 -0.1896 -0.4962  0.5993
  781MPD2     H11522   3.605   4.064  11.971  0.9669 -0.4895  0.1666
  781MPD2    H111523   3.617   3.694  11.735  1.3889  2.5087 -2.2591
  781MPD2    H211524   3.297   3.762  11.984  1.3778 -1.8343  1.1598
  781MPD2    H311525   3.408   3.637  11.825  0.2882 -0.4843 -0.0650
  781MPD2     N11526   3.758   3.920  11.784 -0.6373 -0.5958  0.8567
  781MPD2    H511527   3.790   3.861  11.708  2.5462  1.1772  0.8347
  781MPD2    N111528   3.375   4.006  12.077  0.5675  0.3326 -0.3535
  781MPD2    H711529   3.421   4.086  12.120  0.1232  0.0605  0.6245
  782MPD2     C11530   1.178   0.866  10.235 -0.1695 -0.0910  0.1372
  782MPD2    C111531   1.304   0.834  10.277  0.1016 -0.5915  0.2378
  782MPD2    C211532   1.361   0.900  10.383  0.3329  0.1455  0.5765
  782MPD2    C311533   1.292   0.995  10.452  0.1689 -0.0752  0.2243
  782MPD2    C411534   1.158   1.029  10.418  0.0517 -0.4405 -0.7601
  782MPD2    C511535   1.103   0.968  10.307 -0.3759 -0.3225 -0.0310
  782MPD2     H11536   1.465   0.879  10.405  0.9705  0.7975 -1.7914
  782MPD2    H111537   1.103   1.102  10.476  1.5023 -1.6836  2.1464
  782MPD2    H211538   1.136   0.825  10.144 -1.4346  1.4963  0.0058
  782MPD2    H311539   1.011   1.008  10.268 -0.8050 -2.4650 -1.2281
  782MPD2     N11540   1.368   1.067  10.551  0.1063  0.2257 -0.1341
  782MPD2    H511541   1.469   1.056  10.558  0.0222 -0.5321 -0.1759
  782MPD2    N111542   1.376   0.738  10.203 -0.9364  0.7167 -0.4641
  782MPD2    H711543   1.464   0.706  10.243 -1.9863 -0.3487  0.9638
  783MPD2     C11544   1.095   4.693  10.540  0.0670 -0.5002 -0.3475
  783MPD2    C111545   1.095   0.105  10.568 -0.3552  0.0149  0.3971
  783MPD2    C211546   1.155   0.194  10.484 -1.5836 -0.3031  0.0726
  783MPD2    C311547   1.237   0.144  10.383 -0.7729  0.1791 -0.5084
  783MPD2    C411548   1.242   0.009  10.358 -0.4075 -0.3598 -0.4810
  783MPD2    C511549   1.166   4.648  10.433 -1.4767  0.1331 -0.7504
  783MPD2     H11550   1.165   0.300  10.506  0.5950 -1.0963  2.9977
  783MPD2    H111551   1.296   4.698  10.271 -1.8136  2.3647 -2.4070
  783MPD2    H211552   1.038   4.623  10.601 -1.3580  0.4959 -0.5341
  783MPD2    H311553   1.160   4.546  10.396 -3.0832  1.1403 -3.2885
  783MPD2     N11554   1.302   0.240  10.305  0.2438 -0.2827 -0.3033
  783MPD2    H511555   1.279   0.337  10.321 -1.1019 -0.7708  0.7109
  783MPD2    N111556   1.039   0.147  10.694  0.0767  0.1174  0.5573
  783MPD2    H711557   0.985   0.078  10.746  0.0316  0.6407  1.2135
  784MPD2     C11558   3.737   0.264   0.946  0.1010 -0.4090 -0.3962
  784MPD2    C111559   3.711   0.313   1.073  0.0481 -0.1915  0.0117
  784MPD2    C211560   3.589   0.385   1.094 -0.3223 -0.2745 -0.7798
  784MPD2    C311561   3.505   0.400   0.988 -0.1337 -0.9308 -0.3877
  784MPD2    C411562   3.535   0.346   0.865 -0.2639  0.2241  0.3471
  784MPD2    C511563   3.650   0.278   0.841 -0.7884  0.3240  0.5452
  784MPD2     H11564   3.568   0.436   1.187 -0.6066 -0.8663 -0.5183
  784MPD2    H111565   3.468   0.352   0.780 -0.7592  0.0990  0.7257
  784MPD2    H211566   3.828   0.209   0.923 -0.0765 -0.2939 -1.3414
  784MPD2    H311567   3.678   0.240   0.743  0.4261  1.4956  0.4425
  784MPD2     N11568   3.391   0.487   1.004  0.5056 -0.4254  0.1845
  784MPD2    H511569   3.360   0.517   1.096  0.7332  0.4146 -0.0129
  784MPD2    N111570   3.804   0.292   1.185  0.0716 -0.1328 -0.0885
  784MPD2    H711571   3.768   0.316   1.277  1.3010 -2.0836  0.8898
  785MPD2     C11572   3.743   3.918  10.951  0.5088 -0.1045 -0.0085
  785MPD2    C111573   3.627   3.893  10.881  0.6111  0.2640  0.2584
  785MPD2    C211574   3.547   3.788  10.925  0.1326 -0.4834  0.1424
  785MPD2    C311575   3.577   3.721  11.041 -0.1419 -0.5534 -0.4436
  785MPD2    C411576   3.686   3.747  11.112  1.2432  0.4955 -0.0990
  785MPD2    C511577   3.770   3.848  11.067  0.2313  0.0320 -0.0588
  785MPD2     H11578   3.462   3.752  10.867  0.7360 -0.6432 -0.6398
  785MPD2    H111579   3.718   3.690  11.199  3.0408  1.4528 -0.1170
  785MPD2    H211580   3.804   4.004  10.925 -0.6151  0.6642 -0.0770
  785MPD2    H311581   3.855   3.869  11.130 -0.3602 -0.5186  0.9233
  785MPD2     N11582   3.486   3.616  11.078 -0.4051  0.6275 -0.3474
  785MPD2    H511583   3.407   3.603  11.016 -1.3232  0.8478  0.7722
  785MPD2    N111584   3.612   3.961  10.761  0.0967  0.4617  0.0864
  785MPD2    H711585   3.674   4.038  10.741  2.2443 -1.4310 -0.4965
  786MPD2     C11586   2.430   1.882  14.686  0.2442 -0.7396  0.4812
  786MPD2    C111587   2.565   1.846  14.683  0.0975 -0.1852 -0.1302
  786MPD2    C211588   2.652   1.888  14.778  1.0387 -0.1903  0.5163
  786MPD2    C311589   2.610   1.975  14.877 -0.2539  0.0928 -0.1742
  786MPD2    C411590   2.475   2.017  14.875  0.0070 -0.8480 -0.2482
  786MPD2    C511591   2.386   1.963  14.789  0.3902  0.1564  0.4025
  786MPD2     H11592   2.757   1.863  14.778  0.9566 -0.5293  0.8556
  786MPD2    H111593   2.431   2.090  14.942  0.6820  0.3666 -1.1263
  786MPD2    H211594   2.358   1.833  14.623  0.9871 -1.5622  0.2780
  786MPD2    H311595   2.278   1.970  14.793  0.2971 -1.2253  0.3055
  786MPD2     N11596   2.686   2.029  14.978 -0.3726 -0.1998 -0.0628
  786MPD2    H511597   2.655   2.091  15.052 -0.3233 -1.0557  0.6729
  786MPD2    N111598   2.611   1.751  14.592 -0.5771 -0.5827  0.0239
  786MPD2    H711599   2.710   1.728  14.597 -0.9174 -1.6688  1.6523
  787MPD2     C11600   2.981   1.327  14.775 -0.3353 -0.6418  0.4190
  787MPD2    C111601   2.962   1.285  14.640 -0.2011  0.1460  0.4936
  787MPD2    C211602   3.029   1.175  14.597  0.7953 -0.6679 -0.0840
  787MPD2    C311603   3.107   1.102  14.686  0.5129 -0.4371 -0.2058
  787MPD2    C411604   3.133   1.147  14.815  0.1090 -0.8632  0.4624
  787MPD2    C511605   3.062   1.255  14.858 -0.1763 -0.3209  0.9175
  787MPD2     H11606   3.031   1.137  14.496 -0.3511  1.6062 -0.9564
  787MPD2    H111607   3.207   1.109  14.885 -0.5980 -1.3494  0.9494
  787MPD2    H211608   2.937   1.415  14.820  2.0129  2.0416 -2.4757
  787MPD2    H311609   3.095   1.303  14.950  1.5163 -0.4393  0.3862
  787MPD2     N11610   3.164   0.981  14.644  0.1265  0.0806  0.5927
  787MPD2    H511611   3.168   0.963  14.544  0.9902  1.4228  0.3928
  787MPD2    N111612   2.861   1.353  14.571  0.4741 -0.6891  0.9769
  787MPD2    H711613   2.823   1.436  14.615  1.7836  2.7028 -4.2754
  788MPD2     C11614   3.848   4.091   1.324 -0.7603 -0.2050 -0.5196
  788MPD2    C111615   3.784   4.105   1.205  0.3874 -0.3560  0.1777
  788MPD2    C211616   3.807   4.223   1.138 -0.0424 -1.0906  0.4571
  788MPD2    C311617   3.893   4.321   1.188  0.3080  0.0063 -0.4239
  788MPD2    C411618   3.968   4.298   1.299 -0.0293 -1.0586 -0.5341
  788MPD2    C511619   3.942   4.180   1.365  0.9520 -0.2703  0.5829
  788MPD2     H11620   3.767   4.244   1.039  0.8639  0.0270  0.3234
  788MPD2    H111621   4.047   4.365   1.331 -0.1434 -0.1516 -2.1873
  788MPD2    H211622   3.827   4.010   1.392  2.3495 -0.4862  0.0860
  788MPD2    H311623   3.999   4.170   1.456  0.9672 -0.3563  0.5639
  788MPD2     N11624   3.909   4.444   1.129  0.1328 -0.8496  0.3284
  788MPD2    H511625   3.978   4.498   1.178 -0.1663  0.5375 -0.7755
  788MPD2    N111626   3.700   4.009   1.149 -0.0319 -0.1298 -0.7672
  788MPD2    H711627   3.664   4.035   1.058 -0.5553  2.6969  0.2518
  789MPD2     C11628   0.030   4.532  16.539  0.2853 -0.6553  0.3364
  789MPD2    C111629   4.680   4.501  16.651 -0.1862  0.1414  0.2111
  789MPD2    C211630   4.543   4.538  16.656 -0.9355 -0.3005  0.8166
  789MPD2    C311631   4.493   4.627  16.562  1.1706  0.5236 -0.2319
  789MPD2    C411632   4.562   4.646  16.445  0.6246  0.4171  0.2481
  789MPD2    C511633   4.691   4.589  16.434  0.3069  0.5529 -0.3367
  789MPD2     H11634   4.482   4.498  16.736  0.8857 -2.4713  1.1352
  789MPD2    H111635   4.517   4.693  16.359 -1.8666 -0.8724  0.8642
  789MPD2    H211636   0.135   4.511  16.523  0.4696  1.8513 -1.8567
  789MPD2    H311637   0.028   4.611  16.348  1.3943 -0.9422  0.0483
  789MPD2     N11638   4.361   4.679  16.570  0.3505 -0.3020  0.1616
  789MPD2    H511639   4.327   4.721  16.484  2.0769  0.4555 -0.1622
  789MPD2    N111640   0.004   4.417  16.751  0.0740  0.1397  0.2982
  789MPD2    H711641   4.659   4.382  16.817 -0.9778  0.1613 -0.7801
  790MPD2     C11642   1.996   1.703  13.421 -0.2500  0.3800 -0.3061
  790MPD2    C111643   1.914   1.604  13.380 -0.7140 -0.5067 -0.3061
  790MPD2    C211644   1.860   1.607  13.254  0.2143  0.7671  0.0284
  790MPD2    C311645   1.878   1.707  13.165  0.3173  0.3026  0.2239
  790MPD2    C411646   1.956   1.809  13.209  0.1399  0.2957 -0.5897
  790MPD2    C511647   2.007   1.807  13.336  0.1001 -0.5143 -0.1529
  790MPD2     H11648   1.803   1.519  13.228 -1.0945  1.0882  1.8217
  790MPD2    H111649   1.976   1.901  13.156 -0.8169  0.9685  0.2180
  790MPD2    H211650   2.035   1.717  13.522 -2.9823 -2.0051  1.0660
  790MPD2    H311651   2.069   1.891  13.367  2.0294 -1.4398 -1.4935
  790MPD2     N11652   1.814   1.698  13.040 -0.1746 -0.3833  0.7417
  790MPD2    H511653   1.759   1.615  13.019  0.5581 -1.5632  3.4938
  790MPD2    N111654   1.879   1.488  13.451 -0.0480  0.0457  0.1529
  790MPD2    H711655   1.831   1.420  13.393 -0.6972 -2.8875  4.1862
  791MPD2     C11656   1.278   1.673  12.380 -0.1130  0.0360 -0.1625
  791MPD2    C111657   1.302   1.605  12.500  0.0761 -0.1863  0.2205
  791MPD2    C211658   1.203   1.527  12.554  0.8953 -0.4785 -0.2028
  791MPD2    C311659   1.090   1.504  12.482  0.5713  0.1150 -0.2955
  791MPD2    C411660   1.074   1.560  12.359 -0.4766  0.0822  0.6983
  791MPD2    C511661   1.171   1.644  12.306  0.0097  0.2186 -0.1881
  791MPD2     H11662   1.214   1.473  12.647  0.5198 -1.1912 -0.5738
  791MPD2    H111663   0.983   1.551  12.300  0.7900 -0.3808 -1.1749
  791MPD2    H211664   1.337   1.750  12.333  0.6072  0.1856  0.9879
  791MPD2    H311665   1.155   1.699  12.214 -2.2660  1.0862  0.7123
  791MPD2     N11666   0.994   1.409  12.534 -0.4238  0.6341  0.1515
  791MPD2    H511667   1.016   1.359  12.620 -2.8258 -0.3339  0.1982
  791MPD2    N111668   1.427   1.623  12.564  0.3339  0.6790  0.3258
  791MPD2    H711669   1.491   1.677  12.508  1.3020 -1.6273 -0.7826
  792MPD2     C11670   1.223   1.893  11.104  0.9601 -0.4397 -0.6141
  792MPD2    C111671   1.247   1.874  10.965 -0.1193  0.8489 -0.6369
  792MPD2    C211672   1.135   1.847  10.892  0.2925 -0.7284 -0.4228
  792MPD2    C311673   1.003   1.850  10.950 -0.4483  0.1858  0.0287
  792MPD2    C411674   0.990   1.873  11.087  0.3331 -0.1311 -0.4865
  792MPD2    C511675   1.099   1.892  11.155 -0.0253 -0.8278  0.3130
  792MPD2     H11676   1.139   1.815  10.789  0.4166 -0.2439 -0.5691
  792MPD2    H111677   0.901   1.876  11.148 -0.6232  0.0101 -1.9080
  792MPD2    H211678   1.301   1.914  11.177 -0.8515  0.3668  1.1125
  792MPD2    H311679   1.095   1.917  11.261  1.6898 -1.1427  0.4686
  792MPD2     N11680   0.886   1.808  10.887  0.1472 -0.4429  0.0496
  792MPD2    H511681   0.800   1.806  10.942  0.4177  0.5827  0.5182
  792MPD2    N111682   1.376   1.865  10.912 -0.3058 -0.0979 -0.1468
  792MPD2    H711683   1.443   1.868  10.988 -1.1741  2.1256  0.5116
  793MPD2     C11684   0.544   1.342   9.975 -0.2214  0.9190  0.4375
  793MPD2    C111685   0.602   1.270  10.071  0.5269 -0.1341  0.4093
  793MPD2    C211686   0.604   1.315  10.202  0.3293  0.3791 -0.5840
  793MPD2    C311687   0.572   1.449  10.226 -0.1847  0.5708  0.0771
  793MPD2    C411688   0.526   1.522  10.122  0.0373  0.4747 -0.0456
  793MPD2    C511689   0.510   1.469  10.001  0.5775 -0.1185 -0.1111
  793MPD2     H11690   0.647   1.243  10.270 -0.0137  0.1309 -0.6311
  793MPD2    H111691   0.491   1.625  10.133 -0.5164  0.2056  0.7374
  793MPD2    H211692   0.548   1.314   9.871  1.5536  0.1128  0.7172
  793MPD2    H311693   0.469   1.529   9.920 -0.3609 -2.3875 -1.3356
  793MPD2     N11694   0.586   1.493  10.363 -0.2485 -0.4229  0.4380
  793MPD2    H511695   0.604   1.420  10.432  2.2893  1.0095  1.3044
  793MPD2    N111696   0.673   1.151  10.047  0.0343  0.0108 -0.0846
  793MPD2    H711697   0.716   1.112  10.131 -0.4966  0.2610  0.3040
  794MPD2     C11698   0.703   0.541  17.239  0.0520  1.0383 -0.0111
  794MPD2    C111699   0.707   0.410  17.178  0.0261  0.5003 -0.4731
  794MPD2    C211700   0.621   0.391  17.070  0.5848  0.0819  0.0249
  794MPD2    C311701   0.531   0.492  17.036  0.1130 -0.5037  0.5924
  794MPD2    C411702   0.530   0.617  17.098  0.2597  0.0655 -0.0769
  794MPD2    C511703   0.619   0.635  17.199  1.2576  0.2020 -1.1485
  794MPD2     H11704   0.606   0.295  17.022 -1.4694  0.4887 -0.1419
  794MPD2    H111705   0.454   0.690  17.075 -0.0664 -0.6237 -1.2204
  794MPD2    H211706   0.750   0.563  17.334 -2.8136  0.9424  1.4191
  794MPD2    H311707   0.621   0.721  17.265  1.1747 -1.4244  1.0088
  794MPD2     N11708   0.447   0.477  16.926  0.3687  0.0432 -0.0406
  794MPD2    H511709   0.370   0.540  16.905 -0.2274 -1.2127 -1.6910
  794MPD2    N111710   0.789   0.308  17.219 -0.2604  0.2820 -0.2590
  794MPD2    H711711   0.782   0.221  17.167  2.2418  1.3167 -2.3583
  795MPD2     C11712   3.488   2.768  13.463 -0.0587  0.7651  0.2515
  795MPD2    C111713   3.430   2.673  13.381  0.8192 -0.0036 -0.0781
  795MPD2    C211714   3.509   2.561  13.347  0.2377  0.1446 -1.2274
  795MPD2    C311715   3.636   2.537  13.399 -0.6599 -0.0607 -0.0617
  795MPD2    C411716   3.689   2.640  13.479 -0.3197  0.2335 -0.2369
  795MPD2    C511717   3.619   2.746  13.511  0.5876  0.1804 -0.5585
  795MPD2     H11718   3.473   2.486  13.277  1.9862  0.5983 -2.5959
  795MPD2    H111719   3.790   2.633  13.518 -0.1336  0.9347 -0.5920
  795MPD2    H211720   3.429   2.845  13.512  0.5705  0.9111  0.7793
  795MPD2    H311721   3.655   2.815  13.586  0.0242  2.5441 -2.4639
  795MPD2     N11722   3.707   2.424  13.354 -0.3019 -0.0324  0.3653
  795MPD2    H511723   3.654   2.359  13.298  0.0225 -0.9336  1.1066
  795MPD2    N111724   3.296   2.686  13.339  0.0829  0.1569  0.1095
  795MPD2    H711725   3.258   2.617  13.276  2.9208  1.5634 -3.1641
  796MPD2     C11726   3.070   4.184  15.863 -0.1072 -0.2387 -0.7700
  796MPD2    C111727   3.133   4.256  15.965 -0.5767  0.2820  0.0942
  796MPD2    C211728   3.145   4.396  15.952  0.1300  0.9279 -0.0246
  796MPD2    C311729   3.097   4.454  15.832 -0.3236  0.2600  0.1977
  796MPD2    C411730   3.042   4.379  15.733  0.2855  0.1858 -0.1695
  796MPD2    C511731   3.038   4.240  15.740  0.3815 -0.4100  0.8694
  796MPD2     H11732   3.179   4.459  16.033  1.7195  0.4780 -0.3375
  796MPD2    H111733   3.009   4.422  15.639 -1.0182 -0.5905 -0.0619
  796MPD2    H211734   3.039   4.084  15.891 -0.0950 -0.4091 -1.3816
  796MPD2    H311735   2.981   4.188  15.664  0.0332  1.9055 -0.4722
  796MPD2     N11736   3.107   4.598  15.824  0.3375  0.3608  0.0591
  796MPD2    H511737   3.137   4.652  15.904 -0.0123 -0.0118  0.4406
  796MPD2    N111738   3.172   4.184  16.074  0.4654  0.0970 -0.3509
  796MPD2    H711739   3.156   4.084  16.063  1.5523 -0.1714  0.5451
  797MPD2     C11740   3.693   3.664   0.022 -0.3121 -0.0940  0.0761
  797MPD2    C111741   3.787   3.770   0.038 -0.2259 -0.6021  0.1264
  797MPD2    C211742   3.785   3.871  17.634  0.2464 -0.4170 -0.1621
  797MPD2    C311743   3.680   3.883  17.545  0.1965 -0.3725  0.0507
  797MPD2    C411744   3.604   3.776  17.523 -0.0240  0.1370 -0.4706
  797MPD2    C511745   3.614   3.670  17.609 -0.0378  0.4292  0.4216
  797MPD2     H11746   3.852   3.950  17.662  1.2165 -0.9879 -0.8718
  797MPD2    H111747   3.530   3.779  17.444  1.6041 -1.3367 -2.0238
  797MPD2    H211748   3.693   3.574   0.082 -0.0247 -0.4511 -0.4614
  797MPD2    H311749   3.546   3.586  17.603  2.0914 -1.2800  0.5620
  797MPD2     N11750   3.657   4.002  17.467  0.4406  0.8445  0.8635
  797MPD2    H511751   3.601   3.995  17.383  0.5378  1.7564  0.7219
  797MPD2    N111752   3.886   3.762   0.137  0.2250  0.0826 -0.8577
  797MPD2    H711753   3.962   3.830   0.135  0.6147 -0.2924  1.1856
  798MPD2     C11754   4.153   4.418   0.030 -0.3897  0.5775 -0.0393
  798MPD2    C111755   4.043   4.341   0.021  0.6917  0.3990 -0.5464
  798MPD2    C211756   4.042   4.225   0.086  0.4595 -0.7554  0.7696
  798MPD2    C311757   4.149   4.187   0.166 -0.5070 -0.0325 -0.0443
  798MPD2    C411758   4.256   4.266   0.183  0.0836  0.4041 -0.0881
  798MPD2    C511759   4.254   4.382   0.116  0.1527  0.8430 -0.4274
  798MPD2     H11760   3.960   4.155   0.078 -0.3209  0.2401  0.1937
  798MPD2    H111761   4.349   4.231   0.227  0.9885  0.4596 -1.9841
  798MPD2    H211762   4.156   4.514  17.676 -1.5281  0.2229 -0.7962
  798MPD2    H311763   4.345   4.441   0.113  0.1088  1.0334  1.5140
  798MPD2     N11764   4.144   4.064   0.228  0.2737  1.0092  0.2526
  798MPD2    H511765   4.057   4.013   0.220  0.9458 -0.3355  1.5672
  798MPD2    N111766   3.935   4.374  17.632  0.0126 -0.3927  0.2002
  798MPD2    H711767   3.857   4.309  17.642 -0.3581 -0.1016 -0.7734
  799MPD2     C11768   2.795   0.854  14.594  0.2785  0.3009  0.1725
  799MPD2    C111769   2.770   0.728  14.539 -0.0067 -0.9100 -0.1624
  799MPD2    C211770   2.678   0.722  14.432  0.2588 -0.2731  0.2461
  799MPD2    C311771   2.628   0.841  14.378 -0.0508 -0.4941 -0.0256
  799MPD2    C411772   2.672   0.960  14.423  0.9743  0.6348 -0.4418
  799MPD2    C511773   2.742   0.968  14.539 -0.3053  0.1500  0.1173
  799MPD2     H11774   2.647   0.630  14.384 -0.2592 -1.2821  2.5355
  799MPD2    H111775   2.634   1.048  14.372  1.1428  1.0054  0.0761
  799MPD2    H211776   2.856   0.866  14.683 -0.9150 -0.1697  1.0606
  799MPD2    H311777   2.763   1.070  14.566  0.5361 -0.1972  0.7765
  799MPD2     N11778   2.535   0.843  14.269 -0.4138  0.0995  0.5539
  799MPD2    H511779   2.519   0.930  14.219  0.7451 -0.6885 -1.1952
  799MPD2    N111780   2.815   0.607  14.602  0.1621 -0.7421  0.6786
  799MPD2    H711781   2.797   0.517  14.558  0.7706 -1.1329  1.2248
  800MPD2     C11782   3.135   2.129  13.734 -0.3948  0.6848  0.3874
  800MPD2    C111783   3.263   2.128  13.680  0.2408  0.0765  0.0753
  800MPD2    C211784   3.284   2.031  13.585  0.1229  0.2578  0.8399
  800MPD2    C311785   3.180   1.955  13.540 -0.0587  0.9595 -0.6112
  800MPD2    C411786   3.052   1.962  13.590 -0.9564 -0.0686 -0.3233
  800MPD2    C511787   3.038   2.042  13.698  0.0757 -0.5545 -0.3330
  800MPD2     H11788   3.378   2.030  13.531 -1.9923  0.4241 -2.8108
  800MPD2    H111789   2.977   1.888  13.566 -0.6284  0.1255 -2.0224
  800MPD2    H211790   3.122   2.192  13.821 -0.1367  0.4706  0.5819
  800MPD2    H311791   2.945   2.048  13.754  0.5303 -3.2250  0.7423
  800MPD2     N11792   3.206   1.873  13.426  0.2333  0.1323 -0.2363
  800MPD2    H511793   3.292   1.891  13.376  1.3452  0.3774  1.7743
  800MPD2    N111794   3.363   2.227  13.713  0.1204 -0.0687  0.2619
  800MPD2    H711795   3.349   2.289  13.792 -0.9137 -0.1904  0.1789
  801MPD2     C11796   3.550   2.753  14.172 -0.7441 -0.4626  0.1078
  801MPD2    C111797   3.465   2.657  14.115  0.2467 -0.3651  0.0973
  801MPD2    C211798   3.337   2.648  14.162 -0.8335 -0.1520  0.3469
  801MPD2    C311799   3.295   2.730  14.271  0.1712 -0.9073  0.2802
  801MPD2    C411800   3.386   2.824  14.327  0.6564 -0.5539  0.4770
  801MPD2    C511801   3.512   2.836  14.274  0.6763  0.0309  0.7142
  801MPD2     H11802   3.273   2.581  14.106  0.3132  0.5808 -1.8554
  801MPD2    H111803   3.363   2.889  14.411 -1.4818  0.3068 -0.7655
  801MPD2    H211804   3.649   2.771  14.133 -0.1526 -2.3673  0.7331
  801MPD2    H311805   3.573   2.915  14.318  0.4977  0.0927  0.8542
  801MPD2     N11806   3.165   2.730  14.322  0.5515  0.0038 -0.0770
  801MPD2    H511807   3.149   2.788  14.403  0.8839 -1.0645  0.7625
  801MPD2    N111808   3.498   2.571  14.006  0.3835 -0.2862  0.9102
  801MPD2    H711809   3.425   2.507  13.977  0.5773 -0.1032  0.0366
  802MPD2     C11810   2.115   2.543  17.323 -0.2741 -0.9480 -0.3907
  802MPD2    C111811   2.203   2.490  17.416 -0.5254  0.2388  0.3969
  802MPD2    C211812   2.274   2.381  17.378  0.0018 -0.1034 -0.6316
  802MPD2    C311813   2.258   2.323  17.249 -0.6397 -0.3415  0.2863
  802MPD2    C411814   2.166   2.378  17.162 -0.1578 -0.1192  0.5704
  802MPD2    C511815   2.095   2.489  17.198 -0.4561 -0.8584  0.1447
  802MPD2     H11816   2.346   2.351  17.453 -0.2235  2.1063  0.4636
  802MPD2    H111817   2.156   2.352  17.058 -0.9455 -1.1925  0.9145
  802MPD2    H211818   2.040   2.618  17.343 -2.0888 -2.6090 -0.9937
  802MPD2    H311819   2.027   2.534  17.128  2.3685  2.0888 -0.7013
  802MPD2     N11820   2.344   2.219  17.210  0.1210  0.0583  0.1712
  802MPD2    H511821   2.355   2.193  17.113 -1.2370 -1.3101  0.3783
  802MPD2    N111822   2.223   2.540  17.547 -0.1680 -0.8880 -0.3662
  802MPD2    H711823   2.297   2.502  17.604  1.7401  0.7171 -1.7803
  803MPD2     C11824   4.638   1.753  11.820 -0.2505 -0.2900  0.0904
  803MPD2    C111825   0.027   1.690  11.866 -0.0274  0.2946 -0.7520
  803MPD2    C211826   0.025   1.550  11.873  0.7320 -0.6498  0.0851
  803MPD2    C311827   4.640   1.478  11.828 -0.3898  0.3982 -0.1064
  803MPD2    C411828   4.530   1.547  11.776 -0.2072  0.2548  0.0974
  803MPD2    C511829   4.530   1.685  11.775  0.4249  0.0543  0.2598
  803MPD2     H11830   0.112   1.500  11.914 -0.0578 -1.2345  1.0423
  803MPD2    H111831   4.442   1.496  11.738  0.7967 -1.2449 -0.1766
  803MPD2    H211832   4.624   1.858  11.844 -0.2405 -0.2677 -0.0023
  803MPD2    H311833   4.441   1.735  11.738  1.2994  0.6551 -1.0398
  803MPD2     N11834   4.625   1.343  11.831 -0.0697 -0.7568  0.4054
  803MPD2    H511835   4.544   1.317  11.776  0.4677  0.7600 -1.1107
  803MPD2    N111836   0.124   1.769  11.924  0.4969  0.6402 -0.3395
  803MPD2    H711837   0.083   1.845  11.978 -0.5223 -1.3036  1.6156
  804MPD2     C11838   3.413   2.336  16.875 -0.3518 -1.1078 -0.0337
  804MPD2    C111839   3.433   2.320  17.002  0.2695  0.6131 -0.4781
  804MPD2    C211840   3.464   2.425  17.079  0.1084 -0.2989  0.4608
  804MPD2    C311841   3.495   2.550  17.033 -0.3112  0.4436 -0.4697
  804MPD2    C411842   3.490   2.561  16.898 -0.7790  0.1032  0.0532
  804MPD2    C511843   3.435   2.468  16.816 -0.1988  0.2487 -0.7927
  804MPD2     H11844   3.469   2.413  17.187  2.3052  1.1145  0.5039
  804MPD2    H111845   3.521   2.653  16.849  0.6382 -0.2706  0.2437
  804MPD2    H211846   3.376   2.265  16.802 -1.7686 -2.8716  2.4055
  804MPD2    H311847   3.416   2.496  16.713 -1.4312 -1.1592 -0.9569
  804MPD2     N11848   3.534   2.648  17.127  0.2728  0.0355 -0.3842
  804MPD2    H511849   3.539   2.616  17.223  1.0806  0.0289 -0.4308
  804MPD2    N111850   3.416   2.202  17.070 -0.4481  0.2805 -0.9346
  804MPD2    H711851   3.440   2.203  17.169  0.1540 -2.6457 -1.0421
  805MPD2     C11852   2.317   1.112  15.193  0.5316 -0.2857 -0.9441
  805MPD2    C111853   2.435   1.093  15.124  0.1823 -0.0925  0.9787
  805MPD2    C211854   2.549   1.063  15.197  0.0599  0.1813  0.1727
  805MPD2    C311855   2.550   1.059  15.338  0.0981  0.2177  0.0853
  805MPD2    C411856   2.430   1.071  15.405  0.0689 -0.3896  0.2560
  805MPD2    C511857   2.318   1.111  15.335  0.6415 -0.7639 -0.1395
  805MPD2     H11858   2.637   1.037  15.138  0.2457 -1.4682  1.1876
  805MPD2    H111859   2.418   1.082  15.513  0.8450 -1.2256  0.4239
  805MPD2    H211860   2.225   1.128  15.139  1.6260  0.2503 -2.6548
  805MPD2    H311861   2.225   1.138  15.383  1.2460 -2.1872  1.8156
  805MPD2     N11862   2.676   1.032  15.406  0.9033 -0.3136 -0.1027
  805MPD2    H511863   2.759   1.023  15.348  0.4838  1.8971 -1.0061
  805MPD2    N111864   2.455   1.082  14.985 -0.8602 -0.5421  0.6839
  805MPD2    H711865   2.550   1.070  14.953 -0.6917 -0.4137  1.1364
  806MPD2     C11866   2.419   0.837   1.206  0.3061  0.0419 -0.0503
  806MPD2    C111867   2.537   0.776   1.160 -0.7346  0.4945  0.1588
  806MPD2    C211868   2.587   0.826   1.037 -0.1195  0.1693 -0.8493
  806MPD2    C311869   2.546   0.940   0.975  0.1618 -0.3842  0.2466
  806MPD2    C411870   2.426   0.996   1.031 -0.3281  0.1980 -0.0259
  806MPD2    C511871   2.360   0.941   1.139  0.3383  0.0943 -0.0225
  806MPD2     H11872   2.676   0.782   0.993 -0.1738 -1.2231  0.4361
  806MPD2    H111873   2.388   1.090   0.992 -0.1658  0.7365  1.1292
  806MPD2    H211874   2.369   0.811   1.299  2.0387 -2.1649  0.2494
  806MPD2    H311875   2.278   0.992   1.187  0.5120  1.3216 -1.0385
  806MPD2     N11876   2.615   0.981   0.860 -0.5575  0.2263  0.2560
  806MPD2    H511877   2.692   0.920   0.836 -1.3734 -0.1038 -1.4891
  806MPD2    N111878   2.593   0.672   1.239 -0.2716  0.1554  0.1858
  806MPD2    H711879   2.545   0.634   1.320 -0.1579  1.9783  1.1006
  807MPD2     C11880   2.784   0.445   1.956 -0.1695  0.1882 -0.4484
  807MPD2    C111881   2.750   0.343   1.877  0.1406  0.3819  0.5120
  807MPD2    C211882   2.732   0.223   1.939 -0.5300  0.0350 -0.6445
  807MPD2    C311883   2.750   0.192   2.067  0.9379 -0.2086 -0.0418
  807MPD2    C411884   2.794   0.297   2.143 -0.1626  0.6576  0.3263
  807MPD2    C511885   2.806   0.422   2.088 -0.1145 -0.2140  0.0857
  807MPD2     H11886   2.702   0.140   1.877  0.9660 -0.5137 -0.6253
  807MPD2    H111887   2.824   0.282   2.246  0.4164  1.8817  0.3366
  807MPD2    H211888   2.805   0.548   1.928  1.2475 -0.1669 -0.6751
  807MPD2    H311889   2.841   0.506   2.147  1.8889 -0.4576 -0.7741
  807MPD2     N11890   2.725   0.060   2.120 -0.1864 -0.3162 -0.1756
  807MPD2    H511891   2.697   4.714   2.052  1.1413  0.6346 -1.6895
  807MPD2    N111892   2.738   0.346   1.735  0.1801  0.0105  0.0795
  807MPD2    H711893   2.706   0.260   1.691 -0.9746  0.8898 -0.7925
  808MPD2     C11894   2.787   1.912   9.580 -0.1967 -0.5833  0.4646
  808MPD2    C111895   2.825   1.867   9.704  0.5638  0.5342 -0.0879
  808MPD2    C211896   2.908   1.952   9.779  0.0185  0.6199  0.2954
  808MPD2    C311897   2.948   2.076   9.732  0.4125 -0.5002  0.6986
  808MPD2    C411898   2.894   2.121   9.612  0.0304 -0.7053  1.0511
  808MPD2    C511899   2.824   2.035   9.530 -0.3828  0.6633  0.3954
  808MPD2     H11900   2.957   1.919   9.870  1.1345  0.6240 -0.3076
  808MPD2    H111901   2.893   2.227   9.588 -1.4828 -1.1712 -0.9917
  808MPD2    H211902   2.716   1.860   9.516 -0.8810  0.3150  0.4844
  808MPD2    H311903   2.792   2.058   9.429  1.3619 -0.7847 -0.4876
  808MPD2     N11904   3.039   2.163   9.799  0.3240  0.4297 -0.4140
  808MPD2    H511905   3.022   2.261   9.778 -0.0871  0.2855 -0.7723
  808MPD2    N111906   2.780   1.744   9.760 -0.0283  0.1796  0.2413
  808MPD2    H711907   2.813   1.726   9.855 -0.4015  0.8164  0.4915
  809MPD2     C11908   3.234   2.866   9.394 -0.5229 -0.3701  0.7328
  809MPD2    C111909   3.335   2.859   9.489 -0.4669 -0.5359  0.1855
  809MPD2    C211910   3.323   2.766   9.587  0.6047 -0.4719 -0.5186
  809MPD2    C311911   3.206   2.694   9.611 -0.4930  0.0811 -0.2970
  809MPD2    C411912   3.108   2.700   9.510 -0.0148 -0.1454 -0.5875
  809MPD2    C511913   3.127   2.790   9.406  0.1871 -0.4081  0.4443
  809MPD2     H11914   3.405   2.749   9.655 -0.6115 -0.1222  1.0381
  809MPD2    H111915   3.031   2.624   9.507  1.4033 -1.6353  0.8674
  809MPD2    H211916   3.236   2.937   9.312 -2.0572 -0.3382  0.7270
  809MPD2    H311917   3.063   2.778   9.319  2.0049 -0.7357 -0.8474
  809MPD2     N11918   3.205   2.598   9.710 -0.2960 -0.2128 -0.1239
  809MPD2    H511919   3.144   2.518   9.696  0.4846 -0.8357  0.0130
  809MPD2    N111920   3.464   2.920   9.472 -0.3063 -0.2505 -0.4008
  809MPD2    H711921   3.536   2.911   9.543 -0.7437 -1.1843 -0.0764
  810MPD2     C11922   3.323   1.801  10.291 -0.0422  0.0955  0.1898
  810MPD2    C111923   3.262   1.703  10.365 -0.7083  0.0135  0.1326
  810MPD2    C211924   3.321   1.669  10.494  0.0889  1.1440  0.1064
  810MPD2    C311925   3.445   1.730  10.530 -0.2143  0.0885 -0.1907
  810MPD2    C411926   3.502   1.821  10.445 -0.3712 -0.0214  0.0346
  810MPD2    C511927   3.444   1.854  10.322  0.5244  0.6456 -0.2751
  810MPD2     H11928   3.262   1.608  10.561 -1.3815  0.0081 -2.1916
  810MPD2    H111929   3.596   1.871  10.462 -1.2286  2.3324 -2.1966
  810MPD2    H211930   3.281   1.845  10.201 -1.1091  0.2772  0.7728
  810MPD2    H311931   3.494   1.910  10.244  0.1809  1.0954 -0.1735
  810MPD2     N11932   3.501   1.715  10.659 -0.2562 -0.4329  0.8824
  810MPD2    H511933   3.572   1.781  10.688  0.3288 -0.8183  0.3203
  810MPD2    N111934   3.135   1.659  10.324  0.0260  0.5210 -0.1690
  810MPD2    H711935   3.093   1.718  10.252  1.9222 -1.1770 -2.6451
  811MPD2     C11936   2.372   1.725   9.971  0.3184 -0.5278  0.0526
  811MPD2    C111937   2.500   1.766   9.993 -0.1210  0.3913 -0.3275
  811MPD2    C211938   2.554   1.887   9.948  0.2049  0.0711  0.4276
  811MPD2    C311939   2.470   1.980   9.893 -0.7934 -0.1863  0.3006
  811MPD2    C411940   2.341   1.936   9.869 -0.3945 -0.2039 -0.7092
  811MPD2    C511941   2.298   1.808   9.894 -0.1193 -0.0017  0.0784
  811MPD2     H11942   2.656   1.914   9.972 -0.1884  0.7190  1.3622
  811MPD2    H111943   2.263   1.993   9.821 -0.8036 -0.4402 -0.3234
  811MPD2    H211944   2.328   1.631  10.003 -2.0746 -0.2219 -2.4290
  811MPD2    H311945   2.195   1.782   9.873  0.2654 -2.2039  0.9410
  811MPD2     N11946   2.512   2.112   9.863  0.2768 -0.2159  0.1217
  811MPD2    H511947   2.602   2.149   9.893  0.6065  0.5046 -1.7860
  811MPD2    N111948   2.570   1.675  10.072  0.1731  0.1895  0.0220
  811MPD2    H711949   2.523   1.587  10.089 -1.8910  0.9053 -2.1018
  812MPD2     C11950   1.595   1.363  12.316  0.0820 -0.2790 -0.1714
  812MPD2    C111951   1.711   1.304  12.287 -0.6840  0.1731 -0.3184
  812MPD2    C211952   1.742   1.183  12.341  0.5397 -0.2147 -0.1255
  812MPD2    C311953   1.669   1.139  12.449  0.4449 -0.3095  0.1406
  812MPD2    C411954   1.553   1.204  12.487 -0.3322 -0.2073 -0.0483
  812MPD2    C511955   1.512   1.321  12.414 -0.6266  0.0445 -0.2024
  812MPD2     H11956   1.836   1.132  12.322  0.2026 -1.1857  0.7885
  812MPD2    H111957   1.492   1.158  12.563 -1.2371 -0.9098 -1.2019
  812MPD2    H211958   1.563   1.454  12.266 -0.6673 -0.3294  0.2141
  812MPD2    H311959   1.421   1.375  12.439 -1.6000 -1.6816 -0.0438
  812MPD2     N11960   1.719   1.023  12.517 -0.5860 -0.0771 -0.0046
  812MPD2    H511961   1.788   0.966  12.468 -0.2665 -0.0796  0.4428
  812MPD2    N111962   1.790   1.378  12.197 -0.5057  0.0462  0.1331
  812MPD2    H711963   1.749   1.469  12.180 -0.5895  0.1165  0.6800
  813MPD2     C11964   0.988   3.158  12.841 -0.5302 -0.0442  0.0259
  813MPD2    C111965   1.106   3.096  12.869  0.4869 -0.0466  0.2244
  813MPD2    C211966   1.112   3.011  12.984 -0.4010 -0.0524 -0.7042
  813MPD2    C311967   1.002   2.994  13.063 -0.3120  0.3482  0.5410
  813MPD2    C411968   0.887   3.058  13.032 -0.2605 -0.0136 -0.1373
  813MPD2    C511969   0.878   3.139  12.919 -0.0156 -0.1040 -0.0645
  813MPD2     H11970   1.203   2.964  13.021  0.5565  2.4143  0.1075
  813MPD2    H111971   0.795   3.036  13.085  0.0975 -1.7634 -0.2642
  813MPD2    H211972   0.983   3.223  12.754  1.2384 -0.8578 -0.6650
  813MPD2    H311973   0.787   3.193  12.896  0.2684  0.1478 -0.5894
  813MPD2     N11974   1.021   2.927  13.190 -0.1860  0.1610 -0.2083
  813MPD2    H511975   1.114   2.893  13.212 -1.0838  0.3092  3.9382
  813MPD2    N111976   1.219   3.132  12.799 -0.3006  0.4541 -0.0133
  813MPD2    H711977   1.213   3.212  12.737  1.9547  2.5393  2.4425
  814MPD2     C11978   1.875   4.626  12.518  0.2805 -0.1499  0.6587
  814MPD2    C111979   1.905   4.703  12.403 -0.0059  0.3083  0.1834
  814MPD2    C211980   1.988   0.094  12.404  0.0973  0.3338  0.0521
  814MPD2    C311981   2.044   0.128  12.533  0.2321 -0.5254  0.1450
  814MPD2    C411982   2.020   0.049  12.643  0.1383  0.2659  0.3607
  814MPD2    C511983   1.943   4.659  12.634 -0.0920  0.2304  0.5226
  814MPD2     H11984   2.000   0.156  12.316 -0.8063  1.0983  0.4595
  814MPD2    H111985   2.061   0.066  12.742  0.3238  0.7316  0.2031
  814MPD2    H211986   1.801   4.549  12.527  1.4777 -0.9272  3.7382
  814MPD2    H311987   1.918   4.596  12.718 -0.7466 -0.1525  0.0404
  814MPD2     N11988   2.109   0.250  12.547  0.0818 -0.0558  0.7847
  814MPD2    H511989   2.117   0.279  12.644  2.1561  0.0310  0.6015
  814MPD2    N111990   1.838   4.665  12.283 -0.6854  0.1718  0.3177
  814MPD2    H711991   1.868   0.002  12.208  1.1717 -1.6299 -0.3965
  815MPD2     C11992   2.045   3.236  11.661  0.3799  0.7211  0.0368
  815MPD2    C111993   2.082   3.106  11.695 -0.0757  1.6102 -0.5387
  815MPD2    C211994   2.026   3.057  11.819  0.1423 -0.3063 -0.0775
  815MPD2    C311995   1.932   3.133  11.890  0.7816  0.1615  0.1391
  815MPD2    C411996   1.888   3.256  11.846  0.7218 -1.2689  0.3200
  815MPD2    C511997   1.957   3.313  11.733 -0.1008  0.1084  0.3941
  815MPD2     H11998   2.062   2.963  11.857  0.9819 -0.3737 -1.0418
  815MPD2    H111999   1.818   3.314  11.904  0.4185  0.5599 -1.8671
  815MPD2    H212000   2.082   3.293  11.576 -3.4577  2.4284 -0.5247
  815MPD2    H312001   1.929   3.416  11.713 -0.5886 -0.3489 -1.2110
  815MPD2     N12002   1.879   3.062  12.000  0.2166 -0.4555 -0.3962
  815MPD2    H512003   1.929   2.984  12.042 -1.2284 -1.1052  0.1188
  815MPD2    N112004   2.175   3.031  11.621 -0.6684 -0.2726 -0.2699
  815MPD2    H712005   2.207   3.068  11.532  1.5671  0.6891  0.9529
  816MPD2     C12006   1.153   1.876  17.680  0.4477 -0.4055  0.2493
  816MPD2    C112007   1.276   1.934  17.696  0.2668 -0.5621 -0.4344
  816MPD2    C212008   1.391   1.873  17.640  0.4731 -0.4062 -0.1050
  816MPD2    C312009   1.383   1.757  17.567  1.0842  0.2082 -0.2009
  816MPD2    C412010   1.262   1.699  17.548 -0.6045 -0.0610 -0.2501
  816MPD2    C512011   1.153   1.762  17.605  0.7577 -0.1213  0.4204
  816MPD2     H12012   1.489   1.913  17.660 -0.0863  1.1060 -0.4116
  816MPD2    H112013   1.242   1.612  17.486 -1.7964  1.1874 -1.5988
  816MPD2    H212014   1.064   1.924   0.023  0.5127 -1.5064  1.7695
  816MPD2    H312015   1.055   1.717  17.597 -0.4170  2.2178  1.5569
  816MPD2     N12016   1.508   1.704  17.511  0.2663  0.1649  0.5148
  816MPD2    H512017   1.594   1.757  17.522 -1.3221  2.4343  1.8453
  816MPD2    N112018   1.286   2.048   0.083 -0.2011  0.5172 -0.2065
  816MPD2    H712019   1.197   2.090   0.106  1.1559  1.7543  2.8220
  817MPD2     C12020   2.071   4.456  10.057 -0.0695  0.0447 -1.0668
  817MPD2    C112021   1.954   4.397  10.019 -0.2654 -0.7215  0.4208
  817MPD2    C212022   1.842   4.475  10.019 -0.3545 -0.0082  0.7728
  817MPD2    C312023   1.856   4.606  10.037  0.5463  1.0975 -0.5732
  817MPD2    C412024   1.970   4.669  10.089  0.1753  0.1762  0.1761
  817MPD2    C512025   2.077   4.580  10.102 -0.3739 -0.6430 -0.0738
  817MPD2     H12026   1.749   4.425   9.993 -0.1517 -0.5016  1.0120
  817MPD2    H112027   1.979   0.052  10.109  0.7000  0.2756 -0.5833
  817MPD2    H212028   2.161   4.398  10.073 -0.2180  0.1463  0.1962
  817MPD2    H312029   2.170   4.623  10.137 -0.2281  0.4222 -1.7902
  817MPD2     N12030   1.736   4.679  10.003 -0.1882 -0.0729 -0.5405
  817MPD2    H512031   1.656   4.622   9.977 -1.2808  0.8578  0.7571
  817MPD2    N112032   1.948   4.257   9.986  0.1037 -0.0880  0.5870
  817MPD2    H712033   1.856   4.230   9.951  1.1166 -0.9346 -1.4047
  818MPD2     C12034   1.043   3.655  10.043 -0.1574 -0.8969  0.5985
  818MPD2    C112035   0.931   3.585  10.087  1.3785  0.1176  0.4482
  818MPD2    C212036   0.923   3.447  10.066  0.0740 -0.2993 -0.1468
  818MPD2    C312037   1.021   3.379   9.999  0.3272 -0.8087 -0.6120
  818MPD2    C412038   1.133   3.448   9.963  0.1885 -0.5902 -0.6624
  818MPD2    C512039   1.135   3.581   9.980 -0.4766 -0.2174 -0.4586
  818MPD2     H12040   0.843   3.395  10.117  1.1842 -1.6180  0.2408
  818MPD2    H112041   1.217   3.406   9.909  0.4519  1.4549 -1.8579
  818MPD2    H212042   1.062   3.762  10.051  0.1594 -1.0241  1.5602
  818MPD2    H312043   1.221   3.637   9.944 -0.6641  1.0398  1.0194
  818MPD2     N12044   1.015   3.240   9.979  0.1054 -0.1919  0.0890
  818MPD2    H512045   1.097   3.197   9.937  0.7564  0.1808  0.9798
  818MPD2    N112046   0.836   3.635  10.183  0.0279 -0.0065 -0.5928
  818MPD2    H712047   0.760   3.577  10.217 -0.3782  0.1651 -1.2018
  819MPD2     C12048   3.220   0.769  15.322 -0.4643 -0.2880  0.3420
  819MPD2    C112049   3.197   0.679  15.418  0.3146 -0.2737 -0.4664
  819MPD2    C212050   3.310   0.640  15.497 -0.0423 -0.2925 -1.0225
  819MPD2    C312051   3.432   0.695  15.474 -0.1531  0.8456 -0.4522
  819MPD2    C412052   3.450   0.788  15.370 -0.5330  0.3370  0.4099
  819MPD2    C512053   3.339   0.823  15.293 -0.3690 -0.3286 -0.2646
  819MPD2     H12054   3.294   0.562  15.571 -1.7085  0.9488 -0.0531
  819MPD2    H112055   3.542   0.844  15.359 -0.9999  0.6371 -1.9665
  819MPD2    H212056   3.137   0.786  15.254 -2.5164 -0.0432  2.9265
  819MPD2    H312057   3.341   0.901  15.217  1.7405 -0.7065 -0.5867
  819MPD2     N12058   3.547   0.679  15.547  0.2997 -0.1443  0.2201
  819MPD2    H512059   3.635   0.712  15.510 -0.0852 -0.0082 -0.5615
  819MPD2    N112060   3.077   0.604  15.414  0.4321 -0.3028  0.5272
  819MPD2    H712061   3.020   0.626  15.333 -0.0599  0.6768  1.1348
  820MPD2     C12062   2.333   0.403  14.797 -0.3148 -0.3209  0.2707
  820MPD2    C112063   2.426   0.501  14.836  0.4273  0.5450  0.1799
  820MPD2    C212064   2.508   0.476  14.935 -0.2161  0.4143 -0.3858
  820MPD2    C312065   2.513   0.357  15.007 -0.4712  0.6391  0.1046
  820MPD2    C412066   2.431   0.261  14.967 -0.0444 -0.3696  0.1737
  820MPD2    C512067   2.342   0.283  14.867 -0.2981 -0.4550  0.0205
  820MPD2     H12068   2.579   0.553  14.962  0.9654 -0.4061 -1.1403
  820MPD2    H112069   2.429   0.162  15.011  1.1083 -0.1338  0.7589
  820MPD2    H212070   2.275   0.417  14.707  2.4022  1.5245 -1.1706
  820MPD2    H312071   2.270   0.205  14.845 -1.2083  0.5678 -0.6389
  820MPD2     N12072   2.609   0.320  15.104 -0.1441 -0.0480 -0.5759
  820MPD2    H512073   2.609   0.227  15.143 -1.7425 -0.2645 -1.0536
  820MPD2    N112074   2.431   0.616  14.753 -0.1985 -0.0682  0.2980
  820MPD2    H712075   2.367   0.616  14.674  1.0616 -1.2864 -0.7254
  821MPD2     C12076   3.228   1.767  12.643 -0.7835  0.2015 -0.2847
  821MPD2    C112077   3.252   1.814  12.772  0.0102 -0.1284 -0.0437
  821MPD2    C212078   3.332   1.919  12.793  0.3545  0.6072  0.0217
  821MPD2    C312079   3.405   1.977  12.686 -0.2215 -0.3311  0.7543
  821MPD2    C412080   3.375   1.932  12.558 -0.6037  0.3018 -0.1482
  821MPD2    C512081   3.285   1.832  12.535  0.2953  0.1564 -0.0509
  821MPD2     H12082   3.336   1.957  12.894  1.0658  0.4290  0.0584
  821MPD2    H112083   3.431   1.975  12.476 -0.3972  1.6577  0.7001
  821MPD2    H212084   3.143   1.701  12.627 -1.4661  0.6292  1.5690
  821MPD2    H312085   3.252   1.810  12.434 -2.0100  1.4231  0.4406
  821MPD2     N12086   3.510   2.070  12.703 -0.2678 -0.4465 -0.3314
  821MPD2    H512087   3.561   2.117  12.629 -4.1141  1.4451 -1.7674
  821MPD2    N112088   3.195   1.760  12.888 -0.0265 -0.2823  0.9450
  821MPD2    H712089   3.218   1.808  12.975  0.7191 -0.3851  0.8020
  822MPD2     C12090   4.018   1.956  15.712 -0.2336 -0.0295  0.6728
  822MPD2    C112091   4.054   1.900  15.831  0.2897 -0.0308  0.0477
  822MPD2    C212092   3.985   1.928  15.951  0.6926 -0.0739 -0.1136
  822MPD2    C312093   3.887   2.027  15.964 -0.6853 -0.3464  0.5988
  822MPD2    C412094   3.849   2.083  15.842 -0.2330  0.0882 -0.1080
  822MPD2    C512095   3.913   2.043  15.723 -0.1238 -0.0808 -0.0959
  822MPD2     H12096   4.015   1.866  16.035 -0.1968 -3.3875 -2.2463
  822MPD2    H112097   3.771   2.156  15.823 -0.7426 -0.9358 -1.9504
  822MPD2    H212098   4.074   1.950  15.619 -0.2530  1.6238  0.5625
  822MPD2    H312099   3.880   2.094  15.632  3.1045 -1.2587 -1.9261
  822MPD2     N12100   3.820   2.063  16.086  0.1744 -0.5777 -0.5892
  822MPD2    H512101   3.852   2.011  16.166 -0.3726  2.3981  1.5580
  822MPD2    N112102   4.155   1.793  15.838 -0.4787 -0.6296  0.5960
  822MPD2    H712103   4.161   1.746  15.928 -0.8074  0.0819  0.9833
  823MPD2     C12104   3.786   2.230  16.909  0.4586 -0.2805 -0.1924
  823MPD2    C112105   3.777   2.136  16.818  0.1935 -0.1095 -0.1772
  823MPD2    C212106   3.796   2.006  16.867 -0.3912 -0.1078 -0.5655
  823MPD2    C312107   3.831   1.986  16.997 -0.6783  0.4957 -0.5520
  823MPD2    C412108   3.822   2.085  17.095  0.7926  0.3026 -0.2003
  823MPD2    C512109   3.808   2.210  17.041  0.9194 -0.1681  0.0536
  823MPD2     H12110   3.803   1.924  16.797 -3.9732 -0.8042 -0.1174
  823MPD2    H112111   3.865   2.066  17.192 -0.9521  1.6877  0.8375
  823MPD2    H212112   3.768   2.334  16.883 -2.7554 -0.6481  0.6305
  823MPD2    H312113   3.825   2.295  17.107  1.7046 -2.7266  3.1168
  823MPD2     N12114   3.846   1.856  17.049 -0.1083  0.1045 -0.1385
  823MPD2    H512115   3.858   1.853  17.150  1.2452 -1.5049 -0.3497
  823MPD2    N112116   3.738   2.174  16.688  0.3063 -0.1801  0.1812
  823MPD2    H712117   3.752   2.273  16.667  0.5105 -0.4342 -0.8716
  824MPD2     C12118   4.372   1.051  15.563 -0.7979 -0.0381 -0.3549
  824MPD2    C112119   4.495   1.112  15.585 -0.3549  0.0065 -0.0513
  824MPD2    C212120   4.611   1.037  15.557  0.6624 -0.0030 -0.4434
  824MPD2    C312121   4.605   0.908  15.502 -0.3403  0.8094 -1.0000
  824MPD2    C412122   4.481   0.861  15.462 -0.3305  0.5438 -0.4237
  824MPD2    C512123   4.370   0.932  15.494 -0.0678 -0.5966 -0.2032
  824MPD2     H12124   4.710   1.080  15.571 -0.6727  2.5030  1.3200
  824MPD2    H112125   4.475   0.769  15.405 -0.4727  0.6302 -0.5486
  824MPD2    H212126   4.283   1.103  15.595  1.2312  2.8845  0.5244
  824MPD2    H312127   4.277   0.899  15.449 -0.7496 -0.0945  0.8427
  824MPD2     N12128   0.004   0.835  15.479 -0.5349  0.7085  0.0888
  824MPD2    H512129   0.089   0.891  15.482 -1.7046  2.4807  0.3291
  824MPD2    N112130   4.514   1.240  15.645  0.1380 -0.5386 -0.2474
  824MPD2    H712131   4.607   1.269  15.672 -0.8467  1.4301  1.0489
  825MPD2     C12132   0.569   0.599  14.853  0.1590 -0.5396 -0.5054
  825MPD2    C112133   0.527   0.701  14.937  0.6484 -0.2094  0.3664
  825MPD2    C212134   0.560   0.830  14.904  0.2058  0.3986 -0.3777
  825MPD2    C312135   0.633   0.856  14.790 -0.3199 -1.3518  0.0203
  825MPD2    C412136   0.683   0.753  14.714 -0.3465 -0.0267 -0.0018
  825MPD2    C512137   0.640   0.628  14.739 -0.0320 -0.3915 -0.1493
  825MPD2     H12138   0.533   0.906  14.976 -1.4975 -0.7430  0.2087
  825MPD2    H112139   0.734   0.775  14.621  0.4462  1.3257  0.7519
  825MPD2    H212140   0.540   0.496  14.870  0.3126 -0.5560 -0.3383
  825MPD2    H312141   0.671   0.548  14.674 -2.4803  0.1898 -2.0687
  825MPD2     N12142   0.655   0.985  14.736  0.1615 -0.1325 -0.2552
  825MPD2    H512143   0.691   0.990  14.641 -0.4222 -0.9031 -0.5200
  825MPD2    N112144   0.447   0.659  15.045  0.8009 -0.0939 -0.1474
  825MPD2    H712145   0.445   0.559  15.060 -1.2257  0.3044  2.1868
  826MPD2     C12146   0.103   0.778  13.517 -0.1086  0.8632  0.5891
  826MPD2    C112147   0.102   0.798  13.376  0.1075  0.0075 -0.7649
  826MPD2    C212148   0.002   0.873  13.319  0.4586 -0.1204  0.9278
  826MPD2    C312149   4.625   0.931  13.401 -0.0913 -0.7509  0.4888
  826MPD2    C412150   4.626   0.903  13.534  0.1458 -0.2551 -0.5374
  826MPD2    C512151   0.001   0.825  13.585 -0.1353 -0.5594  0.1026
  826MPD2     H12152   0.017   0.889  13.213 -0.4195  0.5681  0.9067
  826MPD2    H112153   4.552   0.944  13.601  0.5502  1.8482 -1.3675
  826MPD2    H212154   0.180   0.727  13.573  1.0626  2.2445  0.2521
  826MPD2    H312155   4.723   0.805  13.692 -1.6397 -2.8915 -0.3782
  826MPD2     N12156   4.511   0.997  13.359  0.6102 -0.0484  0.4779
  826MPD2    H512157   4.448   1.028  13.433 -1.6570 -2.8294 -0.2881
  826MPD2    N112158   0.216   0.749  13.316 -0.1907 -0.2254  0.4290
  826MPD2    H712159   0.272   0.692  13.379 -1.1210 -2.7773 -1.0377
  827MPD2     C12160   1.113   2.808   9.821  0.4730  0.1669  0.6283
  827MPD2    C112161   1.092   2.690   9.894 -0.9209 -0.0013 -0.5598
  827MPD2    C212162   0.980   2.614   9.866 -0.4699 -0.5216 -0.0994
  827MPD2    C312163   0.892   2.658   9.774  0.6677  0.3029 -0.2774
  827MPD2    C412164   0.914   2.773   9.701 -0.2081  0.6197  0.0945
  827MPD2    C512165   1.021   2.850   9.727 -0.0056 -0.1500 -0.4797
  827MPD2     H12166   0.955   2.525   9.922 -1.6264 -1.5097 -2.1704
  827MPD2    H112167   0.845   2.807   9.625 -0.1819  2.8870  1.0901
  827MPD2    H212168   1.198   2.874   9.835  0.9397  0.1570 -2.0841
  827MPD2    H312169   1.024   2.946   9.677 -0.8770  0.2859  0.2988
  827MPD2     N12170   0.781   2.568   9.752 -0.2951 -0.3072 -0.4869
  827MPD2    H512171   0.795   2.474   9.789  1.0357 -0.0021 -0.2072
  827MPD2    N112172   1.190   2.653   9.989 -0.0782 -0.1055 -0.6032
  827MPD2    H712173   1.247   2.730  10.024  1.5960 -1.4064 -0.4496
  828MPD2     C12174   3.863   2.025  12.532  0.4661 -0.1940 -0.1592
  828MPD2    C112175   3.906   2.125  12.442 -0.7803 -0.2351  0.0054
  828MPD2    C212176   4.037   2.170  12.441  0.1867 -0.2817 -0.4510
  828MPD2    C312177   4.119   2.136  12.549 -0.1282  0.1495  0.1989
  828MPD2    C412178   4.075   2.043  12.644 -0.1935  0.3524  0.6003
  828MPD2    C512179   3.950   1.985  12.625 -0.4273  0.2298 -0.7917
  828MPD2     H12180   4.062   2.247  12.369  2.8501 -0.1819  0.5753
  828MPD2    H112181   4.135   2.014  12.729  0.9664 -0.1448 -0.3909
  828MPD2    H212182   3.769   1.972  12.530 -0.2461  1.1780 -2.2283
  828MPD2    H312183   3.915   1.903  12.687  0.7738  2.0445  2.2763
  828MPD2     N12184   4.254   2.170  12.561 -0.1409  0.0385 -0.9657
  828MPD2    H512185   4.305   2.138  12.643 -0.5100  1.8326 -0.0369
  828MPD2    N112186   3.824   2.160  12.335  0.5651 -0.1588 -0.6582
  828MPD2    H712187   3.868   2.217  12.263 -1.3877  1.7466 -0.3703
  829MPD2     C12188   4.068   2.340  11.577 -0.3435 -0.1907  0.5637
  829MPD2    C112189   3.939   2.382  11.557  0.3784  0.3006 -0.9418
  829MPD2    C212190   3.846   2.383  11.658  0.1553  0.5874  0.3921
  829MPD2    C312191   3.888   2.334  11.784 -0.0850 -0.7922 -0.3983
  829MPD2    C412192   4.020   2.319  11.811 -0.1431 -0.2190 -0.1413
  829MPD2    C512193   4.110   2.331  11.710  0.5544  0.1743 -0.4763
  829MPD2     H12194   3.743   2.417  11.656 -0.7558 -2.1182  0.5143
  829MPD2    H112195   4.052   2.306  11.914  1.5027  0.2492 -0.5923
  829MPD2    H212196   4.143   2.353  11.500 -0.6779  0.4919  0.3468
  829MPD2    H312197   4.216   2.325  11.731  0.8939  0.7127 -2.0163
  829MPD2     N12198   3.800   2.322  11.892  0.2517  0.0147  0.2857
  829MPD2    H512199   3.841   2.301  11.983  1.6375  1.8442  0.0845
  829MPD2    N112200   3.910   2.421  11.424  0.3860 -0.3303 -0.2682
  829MPD2    H712201   3.976   2.395  11.351 -0.6725 -3.0493 -0.2651
  830MPD2     C12202   4.318   0.288  15.621 -0.0146  0.2535  0.1782
  830MPD2    C112203   4.232   0.370  15.549 -0.7707 -0.7237 -0.8990
  830MPD2    C212204   4.283   0.425  15.430  0.1617  0.7756  0.3510
  830MPD2    C312205   4.412   0.410  15.382 -0.7260  0.9487  0.9141
  830MPD2    C412206   4.497   0.334  15.463 -0.1703  0.2039 -0.3293
  830MPD2    C512207   4.447   0.279  15.583  0.4473 -1.1298  0.1639
  830MPD2     H12208   4.211   0.482  15.372  0.1097  0.1474 -0.1872
  830MPD2    H112209   4.602   0.318  15.442  0.4180 -0.8198  3.3974
  830MPD2    H212210   4.294   0.234  15.712 -0.3384 -0.7820 -0.5224
  830MPD2    H312211   4.507   0.220  15.652  2.8184  1.1086  0.0352
  830MPD2     N12212   4.468   0.463  15.265 -1.0754  0.0911 -0.3371
  830MPD2    H512213   4.567   0.451  15.245 -1.3222 -2.4389 -0.0233
  830MPD2    N112214   4.104   0.398  15.600  0.0347  0.0443 -0.1822
  830MPD2    H712215   4.087   0.372  15.697  0.3188  1.2882  0.2009
  831MPD2     C12216   4.103   2.125  16.289  0.1782 -1.0491  0.4178
  831MPD2    C112217   4.186   2.040  16.222  0.5842 -0.0319  0.0281
  831MPD2    C212218   4.156   1.903  16.229 -0.0726 -0.2690 -0.6228
  831MPD2    C312219   4.052   1.853  16.301 -1.1056  0.0476 -0.0165
  831MPD2    C412220   3.993   1.946  16.387  0.3841  0.0103  0.7250
  831MPD2    C512221   4.018   2.073  16.378 -0.7199 -0.6468 -0.2748
  831MPD2     H12222   4.207   1.838  16.159 -1.1308  0.0114 -1.6462
  831MPD2    H112223   3.918   1.907  16.455  0.8125 -2.6554 -0.3172
  831MPD2    H212224   4.120   2.232  16.298  1.0032 -1.0130 -1.5722
  831MPD2    H312225   3.951   2.133  16.439 -1.7484 -0.3578 -1.6768
  831MPD2     N12226   4.010   1.715  16.298  0.7529 -0.2651 -0.0483
  831MPD2    H512227   3.947   1.686  16.372  2.4125 -0.3704  1.3290
  831MPD2    N112228   4.287   2.087  16.139 -0.2206  0.3105 -0.5734
  831MPD2    H712229   4.272   2.180  16.101 -1.8476  0.7103  1.0182
  832MPD2     C12230   2.543   2.865  17.527  0.4822 -0.1067 -0.8178
  832MPD2    C112231   2.524   2.999  17.513  0.1399  0.4590 -0.2321
  832MPD2    C212232   2.412   3.043  17.438  0.1831  0.5624 -0.3996
  832MPD2    C312233   2.322   2.951  17.385 -0.7004 -0.2482  0.1190
  832MPD2    C412234   2.354   2.816  17.389 -0.0840  0.2651 -0.7120
  832MPD2    C512235   2.463   2.776  17.457  0.3029  0.1992  0.3215
  832MPD2     H12236   2.374   3.144  17.449  2.7312  1.6301 -1.3606
  832MPD2    H112237   2.308   2.738  17.330  1.0948  0.3865 -1.7760
  832MPD2    H212238   2.613   2.821  17.597 -0.1019  1.6621  0.8762
  832MPD2    H312239   2.495   2.675  17.479  0.7879  0.5342  1.1482
  832MPD2     N12240   2.201   2.980  17.322  0.2370  0.2669 -0.5653
  832MPD2    H512241   2.133   2.908  17.299 -0.0777 -0.1675  1.7672
  832MPD2    N112242   2.615   3.079  17.588  0.0014  0.1780  0.3200
  832MPD2    H712243   2.685   3.038  17.649  0.0472  0.3749  0.3978
  833MPD2     C12244   0.077   4.429  13.050 -0.3103 -0.0914  0.0212
  833MPD2    C112245   0.101   4.524  12.956 -0.2409  0.4499  1.2938
  833MPD2    C212246   0.185   4.508  12.851  0.5156 -0.3706 -1.1361
  833MPD2    C312247   0.248   4.387  12.831 -0.7494  0.1406 -0.1727
  833MPD2    C412248   0.221   4.288  12.922  0.3947  0.6127  0.0744
  833MPD2    C512249   0.136   4.306  13.030  0.1164  0.4682  0.0529
  833MPD2     H12250   0.190   4.591  12.782  0.9218 -1.1471 -2.0433
  833MPD2    H112251   0.267   4.191  12.905 -0.0546  0.4228 -0.0650
  833MPD2    H212252   0.013   4.434  13.137 -0.4738 -1.6855 -0.0099
  833MPD2    H312253   0.111   4.221  13.093  0.1771 -1.1606 -2.1237
  833MPD2     N12254   0.323   4.358  12.718 -0.1889 -0.0669 -0.5799
  833MPD2    H512255   0.352   4.261  12.719  0.1454  0.0201 -1.3811
  833MPD2    N112256   0.020   4.639  12.965  0.3738  0.3453  0.0063
  833MPD2    H712257   0.036   4.705  12.890 -0.0552 -0.9482 -1.2201
  834MPD2     C12258   0.219   3.736  11.932 -0.0613  0.1899 -0.1159
  834MPD2    C112259   0.219   3.857  11.866  0.3733 -0.4282 -0.3356
  834MPD2    C212260   0.228   3.974  11.938  0.1873  0.3804 -0.0404
  834MPD2    C312261   0.231   3.972  12.077 -0.3355 -0.6538  0.4595
  834MPD2    C412262   0.223   3.849  12.141  1.0451 -0.0159 -0.1283
  834MPD2    C512263   0.221   3.735  12.069 -0.2183 -0.0968  0.4601
  834MPD2     H12264   0.238   4.070  11.888  0.2997 -0.1767 -1.0862
  834MPD2    H112265   0.215   3.838  12.248 -0.9788 -0.0479 -0.2827
  834MPD2    H212266   0.206   3.643  11.877  0.6838 -0.3653  0.6504
  834MPD2    H312267   0.188   3.642  12.114 -2.2234  0.1004 -0.6097
  834MPD2     N12268   0.249   4.098  12.152  0.6500  0.1228 -0.4673
  834MPD2    H512269   0.233   4.186  12.104 -0.6427  0.1035 -0.0681
  834MPD2    N112270   0.218   3.848  11.722 -0.0726 -0.0489  0.4125
  834MPD2    H712271   0.233   3.753  11.688 -2.0647 -0.0451 -0.4834
  835MPD2     C12272   0.534   2.809  11.294  0.7618  0.2899  0.2905
  835MPD2    C112273   0.402   2.833  11.321  0.3456  0.2275 -0.3307
  835MPD2    C212274   0.340   2.753  11.418 -0.9338 -0.3718  0.3929
  835MPD2    C312275   0.413   2.653  11.484 -0.1580  0.1323  0.0990
  835MPD2    C412276   0.551   2.636  11.452  0.3834 -0.4273  0.8519
  835MPD2    C512277   0.609   2.719  11.357  0.0152  0.0861  0.4527
  835MPD2     H12278   0.238   2.776  11.448 -0.7347  0.1584  0.6507
  835MPD2    H112279   0.615   2.563  11.500  2.1423 -0.2399 -1.2060
  835MPD2    H212280   0.582   2.877  11.224 -2.6958  3.4426  0.9532
  835MPD2    H312281   0.716   2.712  11.342  0.2582  1.9843  1.1976
  835MPD2     N12282   0.356   2.567  11.581  0.0138  0.1721  0.1694
  835MPD2    H512283   0.421   2.513  11.638  0.3711  0.8314  0.3833
  835MPD2    N112284   0.335   2.937  11.245  0.2130 -0.5035 -0.5941
  835MPD2    H712285   0.376   2.963  11.155  0.2144 -0.9742 -0.7319
  836MPD2     C12286   4.444   2.597  11.452 -0.3699  0.1875  0.3248
  836MPD2    C112287   4.440   2.574  11.589 -0.3914  0.6056 -0.1849
  836MPD2    C212288   4.313   2.602  11.664 -0.4299  0.7806  0.7283
  836MPD2    C312289   4.208   2.659  11.592  0.6292  0.0967  0.1842
  836MPD2    C412290   4.214   2.673  11.454  0.1079 -0.0490 -0.5375
  836MPD2    C512291   4.332   2.640  11.386 -0.4015  0.2401 -0.2357
  836MPD2     H12292   4.305   2.582  11.770  1.5783  0.8850  0.8905
  836MPD2    H112293   4.131   2.719  11.401 -0.7476  0.2160  1.0190
  836MPD2    H212294   4.537   2.582  11.399  0.7526 -0.1876  2.3777
  836MPD2    H312295   4.336   2.670  11.282 -1.1258 -2.6528 -1.0870
  836MPD2     N12296   4.081   2.688  11.646  0.4178  0.2037  0.0702
  836MPD2    H512297   4.006   2.719  11.585 -1.0505 -0.3253  1.6204
  836MPD2    N112298   4.561   2.538  11.657  0.0197  0.5504 -0.3369
  836MPD2    H712299   4.650   2.532  11.608  0.1329 -1.1088  0.0893
  837MPD2     C12300   2.985   2.729   9.917  0.0609 -0.0430  0.9109
  837MPD2    C112301   2.851   2.744   9.876  0.4067 -0.0731 -0.1698
  837MPD2    C212302   2.796   2.870   9.885 -0.6571  0.1451  0.2207
  837MPD2    C312303   2.869   2.970   9.936  0.2743  0.4343 -0.4322
  837MPD2    C412304   2.991   2.952   9.993 -0.0003 -0.0194 -0.5352
  837MPD2    C512305   3.049   2.830   9.987  0.1892 -0.5676  0.6009
  837MPD2     H12306   2.694   2.890   9.852 -0.6288 -0.7911 -0.4399
  837MPD2    H112307   3.033   3.027  10.058 -0.1959 -1.3962  1.2069
  837MPD2    H212308   3.034   2.634   9.905  0.9805  0.2878  2.1262
  837MPD2    H312309   3.142   2.818  10.041 -0.0795  1.3942  1.4950
  837MPD2     N12310   2.790   3.089   9.939 -0.1964  0.3154  0.3018
  837MPD2    H512311   2.709   3.102   9.879 -0.8290 -2.5217  0.5137
  837MPD2    N112312   2.774   2.641   9.818 -0.2661  0.5373 -0.5837
  837MPD2    H712313   2.681   2.668   9.787 -0.2657 -1.4517 -2.3242
  838MPD2     C12314   0.949   0.138  11.423 -0.3102  0.0548 -0.8697
  838MPD2    C112315   0.877   0.218  11.519  0.2188  0.5357 -0.8941
  838MPD2    C212316   0.798   0.157  11.613  0.6590  0.1640 -0.1644
  838MPD2    C312317   0.780   0.020  11.609  0.0788  0.5691 -0.1686
  838MPD2    C412318   0.857   4.666  11.524  0.3194 -0.3923 -0.6292
  838MPD2    C512319   0.947   0.000  11.437 -0.4057  0.2103 -0.2931
  838MPD2     H12320   0.744   0.205  11.694  1.3357  1.0933 -0.2641
  838MPD2    H112321   0.843   4.559  11.522  1.5509 -0.5597 -0.0977
  838MPD2    H212322   1.007   0.179  11.341  2.2357  2.1364  1.9406
  838MPD2    H312323   0.993   4.661  11.362  2.2150  1.6794  0.1020
  838MPD2     N12324   0.685   4.685  11.699 -0.3168 -0.7744 -0.6411
  838MPD2    H512325   0.646   0.027  11.766 -1.4023 -1.3449 -0.7087
  838MPD2    N112326   0.890   0.356  11.531  0.5786  0.4211 -0.0615
  838MPD2    H712327   0.821   0.396  11.593  0.2753  0.4246 -0.3994
  839MPD2     C12328   1.034   0.070  12.054  0.1869 -0.0761  0.2897
  839MPD2    C112329   1.016   0.055  11.920 -0.2057 -0.6192 -0.5752
  839MPD2    C212330   1.023   0.173  11.847  0.0694  0.8931  0.1176
  839MPD2    C312331   1.062   0.291  11.903 -0.4065 -0.0054  0.1013
  839MPD2    C412332   1.078   0.307  12.037  0.2442 -0.2126 -0.3508
  839MPD2    C512333   1.059   0.194  12.104  0.4010 -0.2891  0.3742
  839MPD2     H12334   1.021   0.163  11.739 -1.3626 -0.6501  0.2916
  839MPD2    H112335   1.099   0.407  12.072 -2.6335  1.1160 -2.4589
  839MPD2    H212336   1.023   4.707  12.118  0.8665 -0.2068  0.2300
  839MPD2    H312337   1.075   0.197  12.211 -0.6406  1.5796  0.4748
  839MPD2     N12338   1.062   0.393  11.813 -0.1101  0.6960  0.1013
  839MPD2    H512339   1.017   0.374  11.723  0.1292 -0.7549  0.2941
  839MPD2    N112340   1.012   4.658  11.851  0.3880 -0.1083 -0.0780
  839MPD2    H712341   1.014   4.662  11.750  1.9716 -1.0982 -0.0880
  840MPD2     C12342   1.715   2.965  10.062 -0.7059  0.0768  0.4049
  840MPD2    C112343   1.710   2.881  10.173  0.6416  0.3324 -0.8819
  840MPD2    C212344   1.791   2.914  10.285 -0.5742  0.1285  0.3033
  840MPD2    C312345   1.870   3.026  10.291  0.4500  0.1786  0.3592
  840MPD2    C412346   1.867   3.112  10.178  0.6205 -0.1017  0.2231
  840MPD2    C512347   1.795   3.075  10.066 -0.5567 -0.1403 -0.2456
  840MPD2     H12348   1.792   2.844  10.367 -0.9880  0.6004  0.7151
  840MPD2    H112349   1.932   3.199  10.181  0.0175  0.3255  0.6493
  840MPD2    H212350   1.651   2.957   9.974  2.2914  0.6522 -1.8197
  840MPD2    H312351   1.805   3.146   9.984 -1.6746 -1.5292 -1.5731
  840MPD2     N12352   1.944   3.061  10.405 -0.6470 -0.1205  0.0655
  840MPD2    H512353   1.994   3.149  10.396 -0.1899 -0.6034 -2.0651
  840MPD2    N112354   1.611   2.773  10.177  0.1749 -0.0450  0.3591
  840MPD2    H712355   1.552   2.753  10.097 -0.8062 -0.3859  1.1708
  841MPD2     C12356   0.818   1.977  15.225  0.2980  0.1953 -0.5029
  841MPD2    C112357   0.887   1.967  15.109 -0.3365  0.6494 -0.2265
  841MPD2    C212358   0.947   2.080  15.051  0.0060 -0.3519  0.0082
  841MPD2    C312359   0.941   2.204  15.119 -0.0753 -0.2200  0.2741
  841MPD2    C412360   0.868   2.215  15.242  0.1393  0.0553 -0.4505
  841MPD2    C512361   0.811   2.096  15.289 -0.9679  0.9596  0.0586
  841MPD2     H12362   0.993   2.061  14.955 -0.2696 -1.9991  0.2043
  841MPD2    H112363   0.862   2.309  15.297  2.2373 -0.6457  0.9669
  841MPD2    H212364   0.756   1.898  15.264 -1.5763  1.9526  0.0205
  841MPD2    H312365   0.749   2.115  15.376 -1.7752 -1.2637 -0.0201
  841MPD2     N12366   1.011   2.310  15.050  0.1162  0.2371  0.4030
  841MPD2    H512367   1.056   2.286  14.962  0.9999 -1.3116  1.2794
  841MPD2    N112368   0.898   1.854  15.026  0.3598  0.3470 -0.1571
  841MPD2    H712369   0.939   1.860  14.934  1.1155  0.6669  0.2028
  842MPD2     C12370   1.800   3.347  17.359  0.6670  0.0357  0.2833
  842MPD2    C112371   1.668   3.331  17.312 -0.7049  0.1249  0.5708
  842MPD2    C212372   1.578   3.295  17.413 -0.3102  0.6340  0.4924
  842MPD2    C312373   1.620   3.290  17.543 -0.1846 -0.0870 -0.5448
  842MPD2    C412374   1.741   3.300  17.589 -0.0561  0.3585  0.0050
  842MPD2    C512375   1.842   3.329  17.491 -0.1133  0.1109  0.0925
  842MPD2     H12376   1.474   3.282  17.387 -0.3521 -0.1928  1.0830
  842MPD2    H112377   1.761   3.302  17.696  0.6500 -0.7097 -0.1152
  842MPD2    H212378   1.877   3.387  17.294  1.8976 -0.1112  1.6577
  842MPD2    H312379   1.945   3.340  17.522  0.3141  0.5414 -1.4884
  842MPD2     N12380   1.511   3.269  17.633 -0.3127 -0.2050 -0.1446
  842MPD2    H512381   1.417   3.261  17.596 -1.1213  3.2080  1.0977
  842MPD2    N112382   1.627   3.335  17.176 -0.2482  0.3513  0.1990
  842MPD2    H712383   1.687   3.392  17.117 -1.1438 -0.0303 -1.0835
  843MPD2     C12384   3.234   3.336   0.104  0.2895 -0.4414 -0.3333
  843MPD2    C112385   3.285   3.305   0.224  0.0483 -0.3200 -0.2347
  843MPD2    C212386   3.372   3.386   0.293  0.3788  0.1704 -0.3899
  843MPD2    C312387   3.402   3.508   0.236 -0.3238  0.0003 -0.1141
  843MPD2    C412388   3.358   3.544   0.105 -0.1655 -0.8381  0.3150
  843MPD2    C512389   3.275   3.457   0.044 -0.7503 -0.2159 -1.2815
  843MPD2     H12390   3.410   3.358   0.391  0.1868  0.0634 -0.3455
  843MPD2    H112391   3.387   3.634   0.052 -1.3520 -0.5538  0.1476
  843MPD2    H212392   3.146   3.283   0.071  1.8384 -2.6993 -0.7909
  843MPD2    H312393   3.231   3.469  17.641 -0.7971 -0.6458 -1.3133
  843MPD2     N12394   3.484   3.605   0.298  0.4237 -0.9557 -0.3184
  843MPD2    H512395   3.495   3.691   0.245 -1.0337 -0.3955  0.3003
  843MPD2    N112396   3.255   3.172   0.276  0.3612 -0.2224  0.4846
  843MPD2    H712397   3.202   3.109   0.215 -0.5098  1.9116 -0.9746
  844MPD2     C12398   2.054   2.699  16.903 -0.1070 -0.4424  0.0468
  844MPD2    C112399   2.171   2.629  16.875  0.2407  0.5887 -0.3893
  844MPD2    C212400   2.296   2.668  16.922 -0.1874 -0.7873 -0.1812
  844MPD2    C312401   2.305   2.795  16.987 -0.1776 -1.1669 -0.0364
  844MPD2    C412402   2.193   2.865  17.004  0.2734  0.1400  0.1624
  844MPD2    C512403   2.068   2.818  16.966 -0.5646  0.0527  0.4699
  844MPD2     H12404   2.383   2.618  16.880  0.7196 -1.2968  2.2909
  844MPD2    H112405   2.196   2.956  17.064 -0.0996 -0.8175  1.6371
  844MPD2    H212406   1.955   2.673  16.867 -0.1059 -0.5634  0.1321
  844MPD2    H312407   1.978   2.877  16.979 -1.5264 -0.9630 -1.4883
  844MPD2     N12408   2.438   2.843  17.023  0.8992 -0.0464  0.5080
  844MPD2    H512409   2.508   2.770  17.026 -0.1109 -0.8232  4.6443
  844MPD2    N112410   2.170   2.511  16.803  1.2631  0.4281 -0.1234
  844MPD2    H712411   2.263   2.485  16.772 -0.0207 -2.0793 -1.9722
  845MPD2     C12412   2.863   3.766  17.247 -0.2877  0.0689 -0.3135
  845MPD2    C112413   2.757   3.718  17.315 -0.0987 -0.6193  0.0320
  845MPD2    C212414   2.729   3.580  17.299  0.9733 -0.6698 -0.5856
  845MPD2    C312415   2.810   3.498  17.223  0.2122  0.2710 -0.1537
  845MPD2    C412416   2.916   3.553  17.154 -0.8664 -1.0345  0.0969
  845MPD2    C512417   2.943   3.686  17.163 -0.0254  0.2842 -0.3018
  845MPD2     H12418   2.645   3.537  17.351  0.7391  0.9376  0.3685
  845MPD2    H112419   2.979   3.490  17.092  0.4333  2.7242 -2.3981
  845MPD2    H212420   2.885   3.871  17.259 -0.1777 -0.1316  1.1338
  845MPD2    H312421   3.028   3.730  17.112 -1.5401  2.6340 -0.8104
  845MPD2     N12422   2.761   3.369  17.191  0.6331  0.0894  0.2588
  845MPD2    H512423   2.669   3.356  17.233  1.6903  1.6333  3.0574
  845MPD2    N112424   2.670   3.801  17.390  0.7109  0.0732  0.1377
  845MPD2    H712425   2.684   3.902  17.392  2.4228 -0.1426 -3.0313
  846MPD2     C12426   4.104   3.983  13.524  0.4865 -0.2014  0.2347
  846MPD2    C112427   4.011   4.073  13.574  0.4584 -0.4810  0.0162
  846MPD2    C212428   3.976   4.063  13.707 -0.1622  0.0423 -0.1748
  846MPD2    C312429   4.023   3.966  13.787  0.4648 -0.7221  0.6228
  846MPD2    C412430   4.111   3.879  13.735 -0.0891 -0.2720 -0.0904
  846MPD2    C512431   4.154   3.890  13.607  0.5589 -0.1087  0.3611
  846MPD2     H12432   3.902   4.137  13.736 -0.0711  0.0594  0.0146
  846MPD2    H112433   4.160   3.799  13.789  0.1123  0.8684  1.4061
  846MPD2    H212434   4.143   3.987  13.422  3.0953 -2.4856  1.1350
  846MPD2    H312435   4.228   3.824  13.562  0.6006  1.7383 -2.2917
  846MPD2     N12436   3.975   3.957  13.918 -0.3351 -0.0874 -0.2218
  846MPD2    H512437   3.891   4.011  13.936 -0.8875 -0.7243 -0.8760
  846MPD2    N112438   3.947   4.170  13.495 -0.0602  0.8450  0.1108
  846MPD2    H712439   3.915   4.259  13.533 -0.9636  1.8167 -2.9066
  847MPD2     C12440   4.512   0.528  13.869 -0.0401  0.9066  1.0789
  847MPD2    C112441   4.538   0.659  13.903  0.2309  1.0975  0.5900
  847MPD2    C212442   4.640   0.687  13.991  1.0945 -0.4645 -0.2013
  847MPD2    C312443   4.696   0.577  14.056 -0.4677 -0.1705 -0.5726
  847MPD2    C412444   4.665   0.448  14.031  0.2740  0.0555  0.1894
  847MPD2    C512445   4.577   0.419  13.927 -0.2512 -0.5011 -0.3458
  847MPD2     H12446   4.667   0.790  14.014 -1.1959 -0.1127  0.9166
  847MPD2    H112447   4.718   0.362  14.072 -0.3151  0.3338  1.5482
  847MPD2    H212448   4.430   0.509  13.800 -0.5060 -0.4458  1.9907
  847MPD2    H312449   4.546   0.317  13.904  1.1044 -1.1498  0.7089
  847MPD2     N12450   0.058   0.618  14.162  0.4504  0.0350  0.2203
  847MPD2    H512451   0.046   0.715  14.190 -0.0119 -0.3673  1.4165
  847MPD2    N112452   4.464   0.769  13.843 -0.2939  0.0253  0.1763
  847MPD2    H712453   4.504   0.862  13.848 -0.6205  0.2750 -1.8837
  848MPD2     C12454   1.761   3.253  16.683  0.3048  0.0569  0.2230
  848MPD2    C112455   1.862   3.300  16.764  0.0402  0.1851  0.6465
  848MPD2    C212456   1.934   3.410  16.722  0.3042  0.1068 -0.2060
  848MPD2    C312457   1.903   3.469  16.600  0.7497 -0.1480 -0.8018
  848MPD2    C412458   1.814   3.408  16.519  0.0676 -0.0796 -0.4613
  848MPD2    C512459   1.747   3.299  16.556  0.3124  0.1758  0.2606
  848MPD2     H12460   2.008   3.455  16.787  0.7654 -0.0876 -0.5892
  848MPD2    H112461   1.784   3.450  16.423  1.2082 -4.3523 -2.6944
  848MPD2    H212462   1.691   3.177  16.714 -0.5145  1.1497  1.0742
  848MPD2    H312463   1.672   3.249  16.497  0.3005  0.6200 -0.1011
  848MPD2     N12464   1.957   3.592  16.550  0.7054 -0.1739  0.7816
  848MPD2    H512465   1.941   3.605  16.451  3.1507  0.6524  0.4810
  848MPD2    N112466   1.880   3.257  16.898  0.2568  0.5250 -0.1701
  848MPD2    H712467   1.944   3.308  16.958  0.4530 -1.3686  1.2413
  849MPD2     C12468   1.861   3.301  13.595  0.2922 -0.3375  0.0869
  849MPD2    C112469   1.956   3.220  13.657 -0.3824 -0.0870  0.4706
  849MPD2    C212470   1.941   3.190  13.794  0.4539  0.2774  0.1971
  849MPD2    C312471   1.824   3.220  13.861  0.0904  0.5722  0.7072
  849MPD2    C412472   1.733   3.304  13.795 -0.0140  0.1907  0.1579
  849MPD2    C512473   1.761   3.349  13.667  0.7458  0.6740 -0.4353
  849MPD2     H12474   2.009   3.127  13.850  0.8359 -0.0087 -0.6055
  849MPD2    H112475   1.638   3.337  13.836 -0.1469 -0.5962  0.4982
  849MPD2    H212476   1.863   3.326  13.490 -1.7139  1.1124  0.4016
  849MPD2    H312477   1.684   3.405  13.616 -0.1075 -0.0186  0.0891
  849MPD2     N12478   1.802   3.170  13.989 -0.0609 -0.9957 -0.2079
  849MPD2    H512479   1.871   3.119  14.043  1.6743  1.3223 -0.2654
  849MPD2    N112480   2.068   3.173  13.584  0.3118  0.5585  0.3470
  849MPD2    H712481   2.079   3.179  13.483  0.8132 -0.0013  0.3707
  850MPD2     C12482   3.837   1.419  14.495 -0.0338  0.7555 -0.1194
  850MPD2    C112483   3.836   1.493  14.618  0.3108  0.1485  0.6877
  850MPD2    C212484   3.955   1.540  14.664  0.1602 -0.4154  0.0129
  850MPD2    C312485   4.071   1.520  14.591 -0.4844 -0.4276 -0.0134
  850MPD2    C412486   4.068   1.454  14.473 -0.5522  0.0596  0.4497
  850MPD2    C512487   3.952   1.404  14.423  0.2979 -0.0059  0.0339
  850MPD2     H12488   3.964   1.590  14.760  2.7868 -0.9404  0.0227
  850MPD2    H112489   4.156   1.457  14.410 -1.7694 -1.0953 -1.3163
  850MPD2    H212490   3.751   1.373  14.446  0.6456  0.1930 -0.7979
  850MPD2    H312491   3.946   1.343  14.334 -3.0796 -0.4157  0.5410
  850MPD2     N12492   4.203   1.547  14.636 -0.3999 -0.5352  0.3322
  850MPD2    H512493   4.280   1.527  14.574  0.0067 -3.3177  1.7120
  850MPD2    N112494   3.713   1.505  14.673  0.1393  0.0567  0.3212
  850MPD2    H712495   3.644   1.474  14.606 -0.6185  1.5280  0.4183
  851MPD2     C12496   4.312   1.383  15.254 -0.0021 -0.7276  0.0755
  851MPD2    C112497   4.234   1.317  15.158  0.8839  0.1966 -0.7117
  851MPD2    C212498   4.275   1.202  15.102  0.3034 -0.6336 -0.4799
  851MPD2    C312499   4.392   1.135  15.147 -0.1354  0.4577  0.4113
  851MPD2    C412500   4.457   1.189  15.252 -0.5136  0.4276  0.2045
  851MPD2    C512501   4.416   1.311  15.298 -0.3509  0.0689  0.2226
  851MPD2     H12502   4.223   1.162  15.016 -1.3457  0.9590 -0.2268
  851MPD2    H112503   4.541   1.144  15.303 -1.6730 -0.3480  1.4278
  851MPD2    H212504   4.291   1.472  15.313  4.3809  0.4058 -0.0948
  851MPD2    H312505   4.477   1.361  15.373 -0.8641  0.2260  0.5408
  851MPD2     N12506   4.430   1.009  15.093  0.1692 -0.1922 -0.2721
  851MPD2    H512507   4.368   0.969  15.023 -0.5016 -0.3510  0.4035
  851MPD2    N112508   4.116   1.378  15.124 -0.3107  0.9943 -0.4524
  851MPD2    H712509   4.099   1.465  15.174  0.1363  0.3049  0.9022
  852MPD2     C12510   3.841   3.009  11.109  0.3866  0.2985  0.4557
  852MPD2    C112511   3.774   3.090  11.016  0.2709 -0.1361  0.1040
  852MPD2    C212512   3.832   3.118  10.896 -0.3751  0.2718 -0.0369
  852MPD2    C312513   3.959   3.079  10.869 -0.0740  0.2448 -0.2899
  852MPD2    C412514   4.030   3.015  10.972  0.0563  0.1081 -0.4506
  852MPD2    C512515   3.970   2.971  11.083 -0.1086  0.2090  0.0171
  852MPD2     H12516   3.780   3.164  10.813 -3.4500 -0.6233  1.3751
  852MPD2    H112517   4.134   2.983  10.967 -0.2774 -1.0842  0.3398
  852MPD2    H212518   3.793   2.970  11.198  0.6247  1.4486  1.0876
  852MPD2    H312519   4.029   2.920  11.158  1.0572 -2.5602 -2.7981
  852MPD2     N12520   4.019   3.119  10.747 -0.1525 -0.1779 -0.0672
  852MPD2    H512521   3.973   3.195  10.698 -0.8007  0.1708  1.0691
  852MPD2    N112522   3.643   3.125  11.040 -0.0742  0.2686  0.9060
  852MPD2    H712523   3.600   3.090  11.125 -0.5030 -2.4067 -0.3874
  853MPD2     C12524   1.461   3.735  12.585  0.4953 -0.5548  0.1976
  853MPD2    C112525   1.350   3.692  12.524 -0.4553 -0.0544  0.0377
  853MPD2    C212526   1.344   3.683  12.388  0.3976  0.0409 -0.1846
  853MPD2    C312527   1.457   3.724  12.315 -0.1422  0.1023  0.4056
  853MPD2    C412528   1.573   3.768  12.382  0.2745  1.3643  0.1550
  853MPD2    C512529   1.575   3.777  12.519  0.0111 -0.5503  0.2871
  853MPD2     H12530   1.258   3.647  12.332  1.0840 -3.0439  0.7551
  853MPD2    H112531   1.661   3.810  12.334 -0.6225  0.9810 -1.8069
  853MPD2    H212532   1.467   3.741  12.693 -1.7880 -0.5692  0.3348
  853MPD2    H312533   1.655   3.810  12.584 -0.0476 -1.1783  0.6842
  853MPD2     N12534   1.459   3.723  12.173 -0.0527 -0.1202 -0.0273
  853MPD2    H512535   1.547   3.752  12.131  0.7134 -1.4102  0.6990
  853MPD2    N112536   1.247   3.660  12.617 -0.0556  0.0246  0.3738
  853MPD2    H712537   1.273   3.646  12.715  0.2593 -0.1949  0.2570
  854MPD2     C12538   2.321   3.721  12.717  0.3278  0.1481 -0.8479
  854MPD2    C112539   2.375   3.834  12.767 -0.2975 -0.1442 -0.0745
  854MPD2    C212540   2.494   3.820  12.844 -0.3061  0.0516 -0.0470
  854MPD2    C312541   2.552   3.700  12.874 -0.6167 -0.5230 -0.1172
  854MPD2    C412542   2.501   3.589  12.811 -0.2853  0.0421  0.1407
  854MPD2    C512543   2.396   3.602  12.727 -0.3033 -0.0455  0.4577
  854MPD2     H12544   2.536   3.915  12.877 -1.1425 -0.1490  1.5938
  854MPD2    H112545   2.552   3.493  12.813 -0.4132 -0.0137  0.7129
  854MPD2    H212546   2.232   3.711  12.656 -0.6821  0.3430  0.5921
  854MPD2    H312547   2.362   3.509  12.681 -0.6630 -0.1172  0.8646
  854MPD2     N12548   2.657   3.671  12.965  0.3522  0.3224  0.2818
  854MPD2    H512549   2.694   3.577  12.974 -1.0778 -0.2380  0.1839
  854MPD2    N112550   2.304   3.955  12.749 -0.5236 -0.1426  0.5733
  854MPD2    H712551   2.216   3.955  12.698  0.0492 -2.7376 -0.4568
  855MPD2     C12552   3.076   3.758  13.876 -0.0897  0.0338 -0.5316
  855MPD2    C112553   3.044   3.634  13.829  0.0155  0.2417  0.2094
  855MPD2    C212554   3.043   3.614  13.690 -0.0649 -0.3949  0.5827
  855MPD2    C312555   3.062   3.724  13.614 -0.2756 -0.0412  0.9780
  855MPD2    C412556   3.083   3.848  13.661  0.3042  0.1197 -0.0163
  855MPD2    C512557   3.112   3.859  13.791 -0.2698 -0.4568  0.5660
  855MPD2     H12558   3.030   3.520  13.638  0.4384 -0.1283 -0.0342
  855MPD2    H112559   3.084   3.943  13.609  1.5637 -0.3905 -0.9009
  855MPD2    H212560   3.077   3.778  13.983  0.9940 -1.5195 -0.2456
  855MPD2    H312561   3.139   3.956  13.833  0.6268 -0.7615  0.6969
  855MPD2     N12562   3.065   3.697  13.473 -0.0429 -0.0638 -0.1947
  855MPD2    H512563   3.062   3.601  13.440 -2.0821  0.5317 -1.7085
  855MPD2    N112564   3.036   3.530  13.927  0.3056  0.0079  0.8417
  855MPD2    H712565   3.053   3.559  14.023 -2.1825  0.7338  1.0562
  856MPD2     C12566   4.675   4.274  13.983 -0.1781  0.8334  0.6476
  856MPD2    C112567   0.022   4.380  14.043  0.5625  0.4712 -0.4709
  856MPD2    C212568   0.056   4.493  13.970 -0.0112  0.6072  0.4986
  856MPD2    C312569   0.004   4.515  13.844 -0.0325 -0.6131  0.0475
  856MPD2    C412570   4.644   4.417  13.784 -0.6773 -0.0126 -0.2900
  856MPD2    C512571   4.622   4.301  13.855 -0.0864 -0.8824  0.3449
  856MPD2     H12572   0.111   4.574  14.017  0.8383  0.4543 -0.2414
  856MPD2    H112573   4.611   4.428  13.682  0.4974  1.6824 -0.5058
  856MPD2    H212574   4.649   4.181  14.033  2.0596  0.5952  1.3516
  856MPD2    H312575   4.568   4.226  13.799 -1.0975  1.3073 -1.6017
  856MPD2     N12576   0.017   4.638  13.765  0.3468  0.5031 -0.0391
  856MPD2    H512577   4.685   4.655  13.683  0.6220  2.2898  0.1422
  856MPD2    N112578   0.077   4.371  14.177 -0.4945 -0.2906  0.0900
  856MPD2    H712579   0.136   4.446  14.212  0.7503 -1.6475  0.8743
  857MPD2     C12580   2.520   2.497  11.815  0.4584 -0.7123 -0.0410
  857MPD2    C112581   2.478   2.409  11.915  0.6871 -0.3463 -1.3035
  857MPD2    C212582   2.437   2.458  12.035 -0.4068  0.4924 -0.4152
  857MPD2    C312583   2.435   2.595  12.054  0.0964 -0.0005  0.3265
  857MPD2    C412584   2.466   2.681  11.958 -1.4489 -0.1848  0.5836
  857MPD2    C512585   2.517   2.631  11.839  0.7240 -0.0964 -0.5427
  857MPD2     H12586   2.401   2.390  12.112  0.9777 -0.3061 -0.4642
  857MPD2    H112587   2.470   2.788  11.973  0.1497 -0.1881  0.2157
  857MPD2    H212588   2.548   2.472  11.714  3.0628  0.1867  0.4663
  857MPD2    H312589   2.546   2.701  11.762  0.9081  3.1513  2.4891
  857MPD2     N12590   2.392   2.636  12.180 -0.0762  0.1417  0.3187
  857MPD2    H512591   2.358   2.561  12.239  2.4188 -1.1868  0.0686
  857MPD2    N112592   2.501   2.271  11.880 -0.4040  0.2798  1.1376
  857MPD2    H712593   2.555   2.258  11.796 -1.6558  1.2382  0.1961
  858MPD2     C12594   2.241   0.639  17.049 -0.2770  1.3014  0.1286
  858MPD2    C112595   2.377   0.645  17.047 -0.2260 -0.1081 -0.2016
  858MPD2    C212596   2.457   0.661  17.158  0.3061 -0.3268 -0.3480
  858MPD2    C312597   2.392   0.655  17.283  0.3673 -0.6782 -0.8290
  858MPD2    C412598   2.261   0.619  17.289 -0.5065 -0.5482  0.3832
  858MPD2    C512599   2.182   0.605  17.173 -0.6095 -0.1829 -0.6940
  858MPD2     H12600   2.563   0.684  17.152 -0.0402  1.8719  2.0407
  858MPD2    H112601   2.209   0.612  17.384 -1.4044  0.1147 -0.0579
  858MPD2    H212602   2.185   0.648  16.957  4.7435  2.5774 -2.8144
  858MPD2    H312603   2.079   0.571  17.169 -0.6901 -0.1049  0.6475
  858MPD2     N12604   2.452   0.681  17.411  0.7062  0.2006 -0.4203
  858MPD2    H512605   2.390   0.686  17.491 -0.1473  1.2822 -1.1533
  858MPD2    N112606   2.422   0.657  16.911  0.1918 -0.2047  0.0623
  858MPD2    H712607   2.355   0.676  16.838 -0.1882  1.4424  0.8338
  859MPD2     C12608   1.029   2.754  15.611 -0.1688  0.1875 -0.4605
  859MPD2    C112609   1.146   2.781  15.552  0.0864 -0.0070  0.1710
  859MPD2    C212610   1.224   2.673  15.517  0.3052  0.7496 -0.3692
  859MPD2    C312611   1.188   2.542  15.547  0.4919 -0.7341 -0.3045
  859MPD2    C412612   1.078   2.520  15.621  0.3699 -0.3265 -0.0337
  859MPD2    C512613   0.996   2.629  15.647 -0.4684 -0.0149 -0.0492
  859MPD2     H12614   1.304   2.673  15.443  0.4635  0.6728 -0.1975
  859MPD2    H112615   1.043   2.422  15.650 -2.5676 -0.6157 -4.4963
  859MPD2    H212616   0.962   2.838  15.622  0.4904  0.7029 -0.4366
  859MPD2    H312617   0.902   2.619  15.699 -0.6386  0.1191 -0.3314
  859MPD2     N12618   1.260   2.433  15.490 -0.1533  0.1296  0.8194
  859MPD2    H512619   1.326   2.463  15.419  1.2929  0.0460  2.1404
  859MPD2    N112620   1.177   2.912  15.525  0.4834 -0.6583 -0.0703
  859MPD2    H712621   1.113   2.986  15.552  0.2715 -0.5110 -0.9405
  860MPD2     C12622   3.565   3.243  11.677  0.1398 -0.3976 -0.0225
  860MPD2    C112623   3.579   3.308  11.799  0.2099 -0.6121  0.0916
  860MPD2    C212624   3.469   3.309  11.882  0.2941 -0.3455 -0.3499
  860MPD2    C312625   3.352   3.254  11.849  0.3761 -0.0899  0.0407
  860MPD2    C412626   3.337   3.201  11.721  0.1775 -0.1796  0.7063
  860MPD2    C512627   3.441   3.192  11.632 -0.0284 -0.0163 -0.2125
  860MPD2     H12628   3.482   3.354  11.979 -0.0539 -0.1608 -0.3877
  860MPD2    H112629   3.238   3.168  11.691  0.0709  0.7972 -0.0063
  860MPD2    H212630   3.643   3.242  11.602 -0.9827 -0.8676 -1.1801
  860MPD2    H312631   3.440   3.158  11.530  0.0812  1.1937 -0.6238
  860MPD2     N12632   3.251   3.249  11.947 -0.4817 -0.8971 -0.2539
  860MPD2    H512633   3.268   3.306  12.029 -0.6144 -0.7294 -0.3416
  860MPD2    N112634   3.692   3.368  11.858 -0.3667 -0.1545 -0.5460
  860MPD2    H712635   3.680   3.415  11.947  0.9090  0.4534 -0.7014
  861MPD2     C12636   2.836   2.110  10.734  0.1256 -0.1914 -0.2154
  861MPD2    C112637   2.711   2.075  10.795  0.0951 -0.5905  0.2692
  861MPD2    C212638   2.595   2.098  10.723 -0.1737 -0.1642  0.3033
  861MPD2    C312639   2.603   2.171  10.604  0.3867 -1.2079  0.1336
  861MPD2    C412640   2.723   2.195  10.548  0.0367 -0.4070 -0.2318
  861MPD2    C512641   2.837   2.163  10.610 -0.2888  0.0683  0.0490
  861MPD2     H12642   2.496   2.075  10.759 -0.3187  2.0652  1.3479
  861MPD2    H112643   2.732   2.251  10.456 -1.0968 -1.1170 -0.7683
  861MPD2    H212644   2.931   2.085  10.779 -1.4055 -1.5093  2.2909
  861MPD2    H312645   2.934   2.177  10.565 -0.9410  1.7711 -0.8449
  861MPD2     N12646   2.493   2.222  10.533  0.1049 -0.5273 -0.0939
  861MPD2    H512647   2.516   2.253  10.439 -1.7105 -0.7820 -0.6221
  861MPD2    N112648   2.700   2.003  10.916  0.3362 -0.2714  0.4885
  861MPD2    H712649   2.609   1.968  10.944  0.8028 -1.8798 -0.0043
  862MPD2     C12650   2.076   2.159   9.945  0.1073 -0.1751 -0.0498
  862MPD2    C112651   2.097   2.132  10.079  0.7189  0.0794  0.0849
  862MPD2    C212652   2.073   2.008  10.128  0.1000  0.5859  0.0828
  862MPD2    C312653   1.998   1.912  10.053  0.6150  0.1713 -0.5943
  862MPD2    C412654   1.965   1.948   9.922 -0.0376  0.3004  0.9557
  862MPD2    C512655   2.008   2.070   9.873  0.7532  0.1042 -0.4306
  862MPD2     H12656   2.113   1.980  10.224 -0.8751 -0.1988  0.2639
  862MPD2    H112657   1.898   1.884   9.866 -1.1889  2.0450  0.3282
  862MPD2    H212658   2.127   2.242   9.899 -0.1196  0.7767  1.3986
  862MPD2    H312659   1.995   2.094   9.768  1.4258 -3.1069 -1.2544
  862MPD2     N12660   1.956   1.787  10.107 -0.9211  0.0097 -0.4114
  862MPD2    H512661   1.905   1.720  10.051 -0.8162  1.1593 -1.8889
  862MPD2    N112662   2.164   2.220  10.170  0.0222 -0.1787  0.0120
  862MPD2    H712663   2.179   2.181  10.263 -0.4638  0.5658  0.4085
  863MPD2     C12664   0.477   4.173  16.862  0.5195 -0.3074 -0.2276
  863MPD2    C112665   0.553   4.280  16.902 -0.2443  0.1013 -0.2838
  863MPD2    C212666   0.647   4.252  16.998 -0.3551 -0.1986  0.1704
  863MPD2    C312667   0.682   4.124  17.037 -0.5312 -0.0890 -0.3719
  863MPD2    C412668   0.609   4.017  16.980 -0.6950 -0.4117 -0.0955
  863MPD2    C512669   0.505   4.044  16.902 -0.0453 -0.0756 -0.2828
  863MPD2     H12670   0.700   4.336  17.041 -0.7694  0.6778 -1.0287
  863MPD2    H112671   0.641   3.916  17.005 -1.1242 -1.0640 -2.1975
  863MPD2    H212672   0.408   4.172  16.778 -0.3044 -0.5194  0.4507
  863MPD2    H312673   0.451   3.961  16.858  1.4149 -1.2739  0.1521
  863MPD2     N12674   0.788   4.105  17.123  0.2417 -0.4053  0.3182
  863MPD2    H512675   0.811   4.011  17.156 -3.2175 -0.4382  2.6363
  863MPD2    N112676   0.517   4.408  16.853 -0.7110 -0.3745  0.0351
  863MPD2    H712677   0.455   4.418  16.773 -1.0852 -1.4211  0.1876
  864MPD2     C12678   0.921   0.896  17.184  0.1585 -0.1684 -0.0748
  864MPD2    C112679   1.001   0.822  17.099 -0.0854 -0.0953 -0.3704
  864MPD2    C212680   1.126   0.874  17.064  0.0108  0.4358  0.3095
  864MPD2    C312681   1.149   1.011  17.081  0.0619  0.4393 -0.8457
  864MPD2    C412682   1.060   1.083  17.155  0.2702  0.0570 -0.4777
  864MPD2    C512683   0.951   1.025  17.212 -0.0003  0.5686  0.1912
  864MPD2     H12684   1.195   0.819  17.001 -0.9941 -0.2547 -0.1853
  864MPD2    H112685   1.071   1.190  17.170 -3.7210  0.4769 -0.5677
  864MPD2    H212686   0.831   0.850  17.223 -0.3999  0.3025 -0.8213
  864MPD2    H312687   0.883   1.081  17.277 -1.3965  0.4111 -1.1269
  864MPD2     N12688   1.251   1.081  17.008  0.2664 -0.1586  0.5708
  864MPD2    H512689   1.243   1.181  17.018 -0.1796 -0.0267 -1.0949
  864MPD2    N112690   0.951   0.699  17.044  0.0374  0.3799  0.0784
  864MPD2    H712691   0.850   0.687  17.052  0.0850 -1.2443 -1.8721
  865MPD2     C12692   1.587   1.424  16.229  0.8875 -0.1907  0.7666
  865MPD2    C112693   1.529   1.325  16.301 -0.1339 -0.5511 -0.8256
  865MPD2    C212694   1.458   1.349  16.413  1.0269 -0.1155  0.5333
  865MPD2    C312695   1.438   1.481  16.452 -0.7154 -0.3890  0.4933
  865MPD2    C412696   1.481   1.584  16.376  0.1158  0.4121  0.2531
  865MPD2    C512697   1.556   1.554  16.263  0.1604  0.4611 -0.8438
  865MPD2     H12698   1.421   1.267  16.474  0.1047 -0.5287 -0.5832
  865MPD2    H112699   1.478   1.685  16.416  1.0968  0.1327  1.0184
  865MPD2    H212700   1.649   1.397  16.144  0.2434 -0.4174  0.3667
  865MPD2    H312701   1.611   1.625  16.202 -1.4044  0.2334 -2.5384
  865MPD2     N12702   1.373   1.521  16.572  1.2214 -0.0100 -0.6685
  865MPD2    H512703   1.331   1.613  16.567 -0.4014 -0.7222 -0.0566
  865MPD2    N112704   1.565   1.193  16.263 -0.3439 -0.5470  1.1130
  865MPD2    H712705   1.622   1.197  16.179 -3.3542  0.2272 -0.8851
  866MPD2     C12706   3.290   2.423  11.446  0.8665 -0.6857  0.0441
  866MPD2    C112707   3.317   2.376  11.321  1.0275  0.5038 -0.0729
  866MPD2    C212708   3.209   2.373  11.230  0.2392  0.1639  0.2321
  866MPD2    C312709   3.079   2.403  11.264  0.2551  0.2778  0.4561
  866MPD2    C412710   3.052   2.428  11.394 -0.2516 -0.1713 -0.6904
  866MPD2    C512711   3.160   2.438  11.484  0.1065 -0.1141  0.0307
  866MPD2     H12712   3.232   2.357  11.125  1.8589  0.0239  0.6068
  866MPD2    H112713   2.949   2.447  11.423  0.2219 -0.1222  0.9183
  866MPD2    H212714   3.363   2.421  11.526 -0.7158  3.5901  1.5710
  866MPD2    H312715   3.126   2.458  11.585  0.7609  0.7968  0.0648
  866MPD2     N12716   2.967   2.402  11.174 -0.4989 -0.4650  0.6925
  866MPD2    H512717   2.873   2.414  11.212 -0.7844  0.6548 -0.3877
  866MPD2    N112718   3.450   2.345  11.288 -0.0956  0.0850 -0.1672
  866MPD2    H712719   3.510   2.341  11.369 -0.6925  1.8122  0.3587
  867MPD2     C12720   4.613   0.875  16.600 -0.2296  0.1082  0.2519
  867MPD2    C112721   4.712   0.828  16.683 -1.0318 -0.1391  0.8346
  867MPD2    C212722   0.055   0.918  16.770  0.2880 -0.0477 -0.4980
  867MPD2    C312723   0.022   1.054  16.769  0.4046 -0.3948  0.2597
  867MPD2    C412724   4.639   1.091  16.690  0.0652 -0.0972  0.9504
  867MPD2    C512725   4.574   1.002  16.611 -0.6067  0.2971 -0.0028
  867MPD2     H12726   0.139   0.884  16.829  0.2309  0.1900 -0.2805
  867MPD2    H112727   4.608   1.195  16.681 -3.8154 -1.3180  0.0715
  867MPD2    H212728   4.562   0.815  16.526 -0.3942 -1.5627  1.7155
  867MPD2    H312729   4.496   1.042  16.547 -0.9531  1.2535  1.0315
  867MPD2     N12730   0.087   1.152  16.847  0.6452 -0.1695  0.6364
  867MPD2    H512731   0.067   1.246  16.815  1.5560 -0.3091 -0.3324
  867MPD2    N112732   0.029   0.687  16.673  0.4892  0.8803  0.1162
  867MPD2    H712733   4.702   0.634  16.602  0.1162 -1.5031  2.1740
  868MPD2     C12734   2.304   3.822  13.127 -0.6969  0.1204  0.2251
  868MPD2    C112735   2.322   3.952  13.168 -0.0271  0.2635  0.2323
  868MPD2    C212736   2.211   4.023  13.215  0.1791 -0.5113  0.6971
  868MPD2    C312737   2.088   3.957  13.225 -0.1350  0.2702 -0.5335
  868MPD2    C412738   2.072   3.829  13.171 -1.0598 -0.3100 -0.2253
  868MPD2    C512739   2.178   3.766  13.116  0.1670 -0.5474  0.0373
  868MPD2     H12740   2.213   4.115  13.274 -1.2700  0.5458 -0.8928
  868MPD2    H112741   1.981   3.770  13.181  0.9413 -3.2204  0.7554
  868MPD2    H212742   2.388   3.762  13.094 -0.5978  1.0252 -1.1888
  868MPD2    H312743   2.174   3.659  13.098 -0.3796 -0.3362 -1.1147
  868MPD2     N12744   1.977   4.033  13.274 -0.5224 -0.3362 -0.0205
  868MPD2    H512745   1.989   4.131  13.297  1.2946 -0.7585  0.7949
  868MPD2    N112746   2.453   3.999  13.176 -0.3003  0.8279  0.6774
  868MPD2    H712747   2.528   3.932  13.165 -1.9275 -1.0606  1.1877
  869MPD2     C12748   2.951   2.045   1.793 -0.7866 -0.0296 -0.0622
  869MPD2    C112749   3.048   2.117   1.859  0.4270  0.5971 -0.2479
  869MPD2    C212750   3.092   2.241   1.815  0.3532  0.2696 -0.6524
  869MPD2    C312751   3.039   2.291   1.697 -0.9254 -0.0833 -0.1801
  869MPD2    C412752   2.949   2.214   1.625 -0.4761 -0.1434  0.3886
  869MPD2    C512753   2.903   2.098   1.674 -0.1661 -0.8636 -0.2366
  869MPD2     H12754   3.184   2.281   1.854  0.6146 -1.4119  0.4778
  869MPD2    H112755   2.926   2.256   1.527  0.2446 -0.7073 -0.0260
  869MPD2    H212756   2.919   1.949   1.831  1.2353 -1.4209 -1.8628
  869MPD2    H312757   2.838   2.038   1.612  1.7361 -2.6018 -0.5688
  869MPD2     N12758   3.082   2.406   1.632  0.0066  0.3543  0.6103
  869MPD2    H512759   3.037   2.420   1.542  1.2417 -1.9341 -0.3648
  869MPD2    N112760   3.087   2.063   1.986 -0.6725  0.1099 -0.0922
  869MPD2    H712761   3.028   1.984   2.012  0.8389 -1.4153 -1.2670
  870MPD2     C12762   2.757   0.985   1.565  0.3606 -0.1781  0.1482
  870MPD2    C112763   2.871   1.061   1.583  0.1956  0.0170 -0.0332
  870MPD2    C212764   2.945   1.092   1.472 -0.9340 -0.9494 -0.2892
  870MPD2    C312765   2.900   1.070   1.346  0.6999 -0.0295 -0.3337
  870MPD2    C412766   2.785   0.993   1.329  0.3941  0.0326  0.4104
  870MPD2    C512767   2.713   0.955   1.436  0.4235  0.4501 -0.4487
  870MPD2     H12768   3.034   1.151   1.486  1.2950 -3.7869 -2.3255
  870MPD2    H112769   2.735   0.968   1.236  1.8904  1.6295 -0.8002
  870MPD2    H212770   2.699   0.938   1.643 -0.3517  0.1185 -0.2041
  870MPD2    H312771   2.626   0.891   1.423 -0.0719  1.3435 -1.5693
  870MPD2     N12772   2.964   1.141   1.236  0.3392  0.2526 -0.0836
  870MPD2    H512773   3.051   1.187   1.258 -0.7995  2.7305 -0.7590
  870MPD2    N112774   2.908   1.075   1.718  0.0302 -0.1271 -0.0585
  870MPD2    H712775   2.846   1.029   1.784  0.8109 -0.1880  0.6377
  871MPD2     C12776   4.107   1.225  16.662 -0.6282  0.5954 -0.7675
  871MPD2    C112777   4.055   1.189  16.783  0.3029 -0.3727 -0.0996
  871MPD2    C212778   4.017   1.055  16.798 -0.9435  0.1686 -0.6782
  871MPD2    C312779   4.044   0.961  16.703  0.0473 -0.1632 -0.7944
  871MPD2    C412780   4.095   0.995  16.582  0.6976 -0.1218 -0.3147
  871MPD2    C512781   4.117   1.132  16.553 -0.2651 -0.3064  0.5421
  871MPD2     H12782   3.965   1.022  16.887 -0.1684 -1.7446 -0.9288
  871MPD2    H112783   4.110   0.923  16.503 -0.1797 -0.0236 -0.5703
  871MPD2    H212784   4.137   1.326  16.636  0.2048  0.0913 -1.7287
  871MPD2    H312785   4.163   1.174  16.464  1.5060 -1.0001  1.1251
  871MPD2     N12786   4.009   0.827  16.736 -0.0633  0.0120  0.1131
  871MPD2    H512787   3.971   0.803  16.827  0.4172 -0.3097  0.2272
  871MPD2    N112788   4.020   1.286  16.880  0.2860 -0.0592 -0.0678
  871MPD2    H712789   4.037   1.383  16.856  1.0416 -0.1042  0.3034
  872MPD2     C12790   0.297   3.875  14.067 -0.6480 -0.1598 -0.0202
  872MPD2    C112791   0.324   3.738  14.075  0.2170 -0.3729  0.2733
  872MPD2    C212792   0.249   3.656  14.154 -0.4471 -0.6743 -0.2708
  872MPD2    C312793   0.120   3.696  14.195  0.3818 -0.0062  0.3501
  872MPD2    C412794   0.083   3.834  14.183 -0.4898 -0.6694  0.1805
  872MPD2    C512795   0.182   3.915  14.130  0.6856  0.1772  0.4068
  872MPD2     H12796   0.279   3.553  14.172 -0.9547 -0.2409  3.2110
  872MPD2    H112797   4.712   3.879  14.210 -0.0936  0.3852 -0.1754
  872MPD2    H212798   0.354   3.947  14.009 -2.6295 -0.7461 -2.7130
  872MPD2    H312799   0.168   4.022  14.126 -0.3030  0.0476  0.5601
  872MPD2     N12800   0.037   3.600  14.257 -0.1132  0.7027 -0.0926
  872MPD2    H512801   4.664   3.631  14.265 -1.0366 -2.4478  1.1809
  872MPD2    N112802   0.430   3.687  13.998 -0.6892 -0.4168 -0.3762
  872MPD2    H712803   0.449   3.587  14.000 -1.1891 -0.5461 -3.0540
  873MPD2     C12804   1.428   3.446   1.364  1.0936  0.0521  0.1490
  873MPD2    C112805   1.523   3.415   1.465  0.3045 -0.3646 -0.5854
  873MPD2    C212806   1.566   3.289   1.480  0.2449 -0.3783  0.2283
  873MPD2    C312807   1.534   3.198   1.387 -0.9404 -0.6201 -0.0452
  873MPD2    C412808   1.448   3.222   1.280 -0.0688  0.1089 -0.3838
  873MPD2    C512809   1.395   3.350   1.269  0.1013  0.6628  0.3712
  873MPD2     H12810   1.639   3.262   1.556 -0.7049 -0.4135  1.1308
  873MPD2    H112811   1.401   3.142   1.225  1.5631 -0.3092 -1.1695
  873MPD2    H212812   1.387   3.545   1.349  1.5341  0.0647 -0.9859
  873MPD2    H312813   1.322   3.378   1.194 -0.2935  2.4173  1.4101
  873MPD2     N12814   1.580   3.065   1.395 -0.0667 -0.8598  0.4863
  873MPD2    H512815   1.561   3.011   1.311 -0.2038  0.3075 -0.2251
  873MPD2    N112816   1.548   3.521   1.555  0.3633  0.3849  0.0028
  873MPD2    H712817   1.501   3.610   1.543 -1.0887 -0.4008 -0.0197
  874MPD2     C12818   1.431   3.603  16.363 -0.4303 -0.0740 -0.6173
  874MPD2    C112819   1.474   3.611  16.490  0.3199  0.1796 -1.4745
  874MPD2    C212820   1.576   3.698  16.513 -0.3728  0.9047  0.0588
  874MPD2    C312821   1.638   3.767  16.412 -0.8589 -0.0880 -0.4749
  874MPD2    C412822   1.597   3.738  16.279 -1.0051 -0.2192 -0.1913
  874MPD2    C512823   1.488   3.665  16.258  0.1412  0.3496 -0.5859
  874MPD2     H12824   1.621   3.710  16.610 -0.0673  2.5616 -0.2815
  874MPD2    H112825   1.651   3.774  16.192 -0.7152 -0.2502 -0.0237
  874MPD2    H212826   1.345   3.539  16.346 -0.1592 -0.5992 -0.0148
  874MPD2    H312827   1.448   3.646  16.159 -1.6163 -2.4048  0.6470
  874MPD2     N12828   1.746   3.852  16.443  0.0391 -0.1480 -0.4589
  874MPD2    H512829   1.779   3.858  16.539  2.2126 -2.4167 -1.0923
  874MPD2    N112830   1.432   3.520  16.592 -0.6232  0.3374 -0.1620
  874MPD2    H712831   1.357   3.457  16.563 -1.1057  0.1689  1.4545
  875MPD2     C12832   2.939   2.320  14.729 -0.0644 -0.1478  0.0878
  875MPD2    C112833   2.802   2.315  14.758 -0.1029 -0.8950  0.4922
  875MPD2    C212834   2.756   2.339  14.892  0.6065 -0.0457 -0.0535
  875MPD2    C312835   2.852   2.376  14.983  0.1418  0.6111  0.4403
  875MPD2    C412836   2.978   2.399  14.953  0.1613 -0.0373  0.6057
  875MPD2    C512837   3.021   2.376  14.825 -0.1949 -0.7970 -0.2810
  875MPD2     H12838   2.650   2.334  14.911  0.6310 -1.4160 -0.2183
  875MPD2    H112839   3.047   2.445  15.022 -0.3631  1.1873  0.3132
  875MPD2    H212840   2.976   2.289  14.632 -1.4019 -3.8515  0.7375
  875MPD2    H312841   3.124   2.400  14.800 -0.6212  1.1274 -0.2182
  875MPD2     N12842   2.819   2.396  15.112  0.3417  0.2700  0.1036
  875MPD2    H512843   2.891   2.419  15.180  0.1756  1.4187 -0.1034
  875MPD2    N112844   2.702   2.291  14.658 -0.5350 -0.1434  0.0627
  875MPD2    H712845   2.611   2.329  14.684 -0.6899 -0.0854 -0.5694
  876MPD2     C12846   1.331   3.215  16.362 -0.4441 -0.3388 -0.4955
  876MPD2    C112847   1.449   3.186  16.298 -0.2265  0.1958 -0.2982
  876MPD2    C212848   1.514   3.069  16.336  0.5085 -0.0263  0.2164
  876MPD2    C312849   1.471   2.977  16.434 -0.5298 -0.2743 -0.2847
  876MPD2    C412850   1.348   3.004  16.488 -0.5459 -0.2742  0.7416
  876MPD2    C512851   1.285   3.123  16.450  0.3044  0.0517  0.3134
  876MPD2     H12852   1.611   3.038  16.299 -0.4054 -1.5216 -0.9527
  876MPD2    H112853   1.302   2.947  16.567 -1.3891  0.8808  1.0821
  876MPD2    H212854   1.263   3.290  16.324  0.3764  2.2038  3.0933
  876MPD2    H312855   1.192   3.150  16.498  0.4836  0.2044  0.5735
  876MPD2     N12856   1.553   2.865  16.454  0.1019 -0.4692  0.8578
  876MPD2    H512857   1.624   2.856  16.381 -1.1179  3.1274 -0.7598
  876MPD2    N112858   1.504   3.279  16.208 -0.1262  0.5539 -0.0974
  876MPD2    H712859   1.449   3.362  16.189 -1.5589 -0.1663  0.8835
  877MPD2     C12860   1.221   3.661  15.618 -0.1230 -0.2305 -0.6306
  877MPD2    C112861   1.356   3.657  15.603 -0.5604  0.1322 -0.7957
  877MPD2    C212862   1.398   3.668  15.471 -0.7221 -0.5757 -0.0970
  877MPD2    C312863   1.309   3.690  15.366 -0.1834  0.3193 -0.2852
  877MPD2    C412864   1.174   3.693  15.393 -0.2028  0.7317  0.1629
  877MPD2    C512865   1.127   3.681  15.521 -0.7237 -0.1642  0.2054
  877MPD2     H12866   1.504   3.654  15.451 -0.5371 -0.4764  0.7938
  877MPD2    H112867   1.097   3.713  15.319 -1.2494  1.7096  1.5181
  877MPD2    H212868   1.186   3.641  15.719 -2.5889 -0.1417 -1.4653
  877MPD2    H312869   1.021   3.675  15.540 -0.7488 -3.4215 -1.0812
  877MPD2     N12870   1.346   3.701  15.227 -0.3125 -0.0245  0.5449
  877MPD2    H512871   1.273   3.726  15.161 -0.0522 -0.4414  0.0953
  877MPD2    N112872   1.454   3.637  15.704 -0.1467 -0.3619 -0.3603
  877MPD2    H712873   1.549   3.639  15.668 -0.1942 -0.2788 -0.4789
  878MPD2     C12874   1.606   2.783  13.076 -0.7186 -0.0951 -0.2147
  878MPD2    C112875   1.694   2.888  13.077 -0.3965  0.5288  0.0875
  878MPD2    C212876   1.789   2.897  13.178 -0.2673  0.4983 -0.5702
  878MPD2    C312877   1.816   2.793  13.265 -0.6332  0.0546 -0.3439
  878MPD2    C412878   1.717   2.698  13.270 -1.0109  0.4926 -0.0352
  878MPD2    C512879   1.620   2.689  13.172 -0.4169  1.3678 -0.7221
  878MPD2     H12880   1.865   2.971  13.159 -0.2372  0.5264 -0.3426
  878MPD2    H112881   1.722   2.611  13.335  0.4039 -0.3882 -1.3187
  878MPD2    H212882   1.528   2.774  13.001 -0.6261 -1.6224 -0.1364
  878MPD2    H312883   1.549   2.608  13.164 -1.8635  2.3890  1.5808
  878MPD2     N12884   1.935   2.801  13.339 -0.6595 -0.4074 -0.0954
  878MPD2    H512885   1.996   2.874  13.305 -1.4048  1.2357  2.1324
  878MPD2    N112886   1.685   2.976  12.967  0.0898 -0.8636  0.6692
  878MPD2    H712887   1.609   2.956  12.903 -0.4906  0.1476  1.0461
  879MPD2     C12888   1.763   3.764  17.511 -0.3579  0.6487 -0.6739
  879MPD2    C112889   1.779   3.862  17.417  0.1315  0.6869 -0.6224
  879MPD2    C212890   1.698   3.861  17.305 -0.1626 -0.0977  0.7278
  879MPD2    C312891   1.597   3.771  17.296 -0.0172 -1.0531 -0.2262
  879MPD2    C412892   1.576   3.675  17.396  0.6707  0.2295 -0.7277
  879MPD2    C512893   1.661   3.675  17.504 -0.3250  0.7050  0.0646
  879MPD2     H12894   1.701   3.947  17.239  2.0568  0.0292  0.9702
  879MPD2    H112895   1.497   3.602  17.394  1.5971 -0.8099  0.1863
  879MPD2    H212896   1.819   3.776  17.603 -0.6606 -1.2353 -0.2476
  879MPD2    H312897   1.661   3.592  17.573 -0.2338 -1.7245 -2.8541
  879MPD2     N12898   1.511   3.768  17.189  0.3372  0.3421  0.2914
  879MPD2    H512899   1.431   3.709  17.205  0.0379 -0.0265 -2.6177
  879MPD2    N112900   1.834   3.976  17.472  0.9211 -0.2351 -0.0199
  879MPD2    H712901   1.875   3.958  17.562  2.9308 -0.4777 -0.9894
  880MPD2     C12902   3.377   1.363   0.703  0.2585 -0.2695  0.4507
  880MPD2    C112903   3.248   1.330   0.648 -0.1601  0.1536  0.2242
  880MPD2    C212904   3.186   1.213   0.698  0.3329 -0.9995  0.4155
  880MPD2    C312905   3.248   1.142   0.804  0.1473 -0.6612  0.4723
  880MPD2    C412906   3.365   1.182   0.858  0.2823 -0.6012  0.6045
  880MPD2    C512907   3.426   1.290   0.809  0.6390  0.0626 -0.1655
  880MPD2     H12908   3.094   1.176   0.653 -1.1895  0.6109  2.2508
  880MPD2    H112909   3.397   1.122   0.942  2.0080  0.8069  0.9533
  880MPD2    H212910   3.427   1.453   0.668  1.1368 -1.5345 -1.5623
  880MPD2    H312911   3.523   1.321   0.849  0.3780 -0.2522  0.7223
  880MPD2     N12912   3.176   1.030   0.846 -0.4719 -0.2170  0.1258
  880MPD2    H512913   3.132   0.989   0.764 -1.3707 -0.5531  0.7725
  880MPD2    N112914   3.191   1.411   0.549 -0.4472 -0.3590  0.9526
  880MPD2    H712915   3.245   1.487   0.508 -1.4181 -0.5655 -0.6976
  881MPD2     C12916   3.448   2.175  17.678 -0.4654 -0.2684  0.3287
  881MPD2    C112917   3.443   2.037  17.647 -0.4266 -0.1416  0.4168
  881MPD2    C212918   3.368   1.956   0.030  0.0261 -0.8489 -0.2910
  881MPD2    C312919   3.305   1.999   0.147  0.8489  0.4306 -1.0290
  881MPD2    C412920   3.337   2.130   0.188  0.0436  0.4216  0.1128
  881MPD2    C512921   3.406   2.210   0.107  0.3546 -0.1860 -0.1417
  881MPD2     H12922   3.348   1.854  17.695 -2.4398  0.4838 -3.0105
  881MPD2    H112923   3.306   2.157   0.288  1.9261  0.4432  0.6908
  881MPD2    H212924   3.510   2.249  17.628  0.7087  1.1471  3.8620
  881MPD2    H312925   3.440   2.309   0.138  0.6020 -0.6363  1.0228
  881MPD2     N12926   3.234   1.920   0.242  1.1344  0.0952  0.0007
  881MPD2    H512927   3.195   1.971   0.321  0.6100 -0.8466  0.3480
  881MPD2    N112928   3.469   2.019  17.511 -0.0198  0.3418  0.1534
  881MPD2    H712929   3.492   2.104  17.460  1.9028 -0.3282 -0.0635
  882MPD2     C12930   1.396   3.523  14.463  0.5739 -0.0502 -1.3258
  882MPD2    C112931   1.318   3.609  14.535  0.4184 -0.0171 -0.5391
  882MPD2    C212932   1.191   3.640  14.498  0.3421  0.4994  0.0619
  882MPD2    C312933   1.140   3.574  14.390  0.2950 -0.5220 -0.1984
  882MPD2    C412934   1.223   3.502  14.306 -0.3390 -0.1448  0.8625
  882MPD2    C512935   1.341   3.469  14.350 -0.1928  0.2266  0.1343
  882MPD2     H12936   1.140   3.714  14.559 -2.4096 -2.1680  0.9403
  882MPD2    H112937   1.181   3.459  14.215 -1.7155 -0.3604  1.6067
  882MPD2    H212938   1.497   3.493  14.487  1.0203  0.9183 -2.0068
  882MPD2    H312939   1.403   3.398  14.297  0.3042 -0.0286  1.0609
  882MPD2     N12940   1.008   3.591  14.344  0.2852 -0.0476 -0.1307
  882MPD2    H512941   0.979   3.560  14.252 -2.1381  1.4427  0.1335
  882MPD2    N112942   1.392   3.673  14.639  0.0668 -0.3407 -0.3400
  882MPD2    H712943   1.486   3.635  14.644  0.3581  0.2996 -0.9633
  883MPD2     C12944   3.324   3.482  16.439 -0.3620  0.6121  0.1525
  883MPD2    C112945   3.402   3.519  16.332  0.0594 -0.0117 -0.8629
  883MPD2    C212946   3.499   3.620  16.340  0.4397 -0.1755  0.3573
  883MPD2    C312947   3.522   3.678  16.473  0.2968 -0.1606  0.0095
  883MPD2    C412948   3.451   3.626  16.577  0.4717 -0.0681 -0.1578
  883MPD2    C512949   3.353   3.537  16.561  0.5405  0.1736 -0.2606
  883MPD2     H12950   3.563   3.643  16.255  0.3459  0.4686  0.4573
  883MPD2    H112951   3.465   3.667  16.676 -1.0207  1.3824 -0.5403
  883MPD2    H212952   3.238   3.417  16.435  0.7958 -0.8130 -1.3389
  883MPD2    H312953   3.298   3.499  16.646  0.1822 -0.4061 -0.7512
  883MPD2     N12954   3.620   3.779  16.483 -0.1438  0.6848  0.2944
  883MPD2    H512955   3.674   3.797  16.400  1.3642 -1.6626  0.7678
  883MPD2    N112956   3.383   3.468  16.199 -0.0370  0.0168  0.0807
  883MPD2    H712957   3.449   3.499  16.128 -1.3661 -0.0979 -1.2092
  884MPD2     C12958   0.453   4.169  15.382  0.2294 -0.0490  0.1322
  884MPD2    C112959   0.465   4.219  15.254 -0.9936  0.8089 -0.4581
  884MPD2    C212960   0.366   4.315  15.213  0.2020  0.8596  0.0822
  884MPD2    C312961   0.252   4.345  15.298  0.4967  0.3039 -0.1544
  884MPD2    C412962   0.238   4.290  15.421 -0.5928 -0.4717  0.3827
  884MPD2    C512963   0.340   4.200  15.465  0.3579 -0.1832 -0.4106
  884MPD2     H12964   0.380   4.361  15.116  0.4207 -0.7197 -0.6440
  884MPD2    H112965   0.155   4.307  15.489 -0.3970 -2.1840  1.0708
  884MPD2    H212966   0.516   4.095  15.431 -0.2742  0.5542  1.6973
  884MPD2    H312967   0.333   4.160  15.565 -0.8789 -0.7577 -0.7319
  884MPD2     N12968   0.154   4.444  15.265  0.4445 -0.4794 -0.3638
  884MPD2    H512969   0.083   4.456  15.336  2.0157 -1.3440  1.3601
  884MPD2    N112970   0.577   4.192  15.177 -0.2550  0.2495 -0.0446
  884MPD2    H712971   0.574   4.228  15.082 -0.4483 -0.2651 -0.2350
  885MPD2     C12972   3.255   0.508   0.255 -0.0991  0.0440 -0.1879
  885MPD2    C112973   3.288   0.385   0.211 -1.1450 -0.7354  0.5882
  885MPD2    C212974   3.286   0.364   0.075  0.0961 -0.2665 -0.2437
  885MPD2    C312975   3.249   0.461  17.678 -0.7133 -0.0198  0.2888
  885MPD2    C412976   3.225   0.589   0.029  0.1436  0.0223 -0.1757
  885MPD2    C512977   3.217   0.605   0.163  0.1129  0.2161 -0.4680
  885MPD2     H12978   3.315   0.270   0.030  1.9735 -0.1138  0.6475
  885MPD2    H112979   3.204   0.677  17.666 -0.2451 -1.3747 -2.1271
  885MPD2    H212980   3.230   0.525   0.360  3.8192  0.6791  0.6310
  885MPD2    H312981   3.181   0.701   0.198  0.6146  0.1034  0.3620
  885MPD2     N12982   3.250   0.430  17.544 -0.2246 -0.4621  0.7894
  885MPD2    H512983   3.285   0.338  17.521 -2.0882 -0.4556 -2.0878
  885MPD2    N112984   3.319   0.281   0.303  0.3675 -0.5405 -0.1855
  885MPD2    H712985   3.326   0.311   0.399 -1.1873  0.4974 -0.3949
  886MPD2     C12986   4.697   2.803  15.478 -0.3456 -0.3032  0.1640
  886MPD2    C112987   0.066   2.864  15.565 -0.4845  0.5015  0.1037
  886MPD2    C212988   0.101   2.995  15.549 -0.1843 -0.0063  0.6141
  886MPD2    C312989   0.051   3.069  15.444  0.0216 -0.1783  0.4056
  886MPD2    C412990   4.680   3.013  15.356 -0.2581 -0.2258 -0.3365
  886MPD2    C512991   4.629   2.884  15.381 -0.1285 -0.2521  0.0643
  886MPD2     H12992   0.179   3.029  15.615  1.3675  0.8297 -1.6686
  886MPD2    H112993   4.634   3.069  15.275  1.4172 -0.7995 -1.6709
  886MPD2    H212994   4.663   2.702  15.500 -0.3110 -0.5718 -0.9861
  886MPD2    H312995   4.548   2.845  15.322 -1.5713 -2.7680  3.7100
  886MPD2     N12996   0.106   3.202  15.420 -0.2798 -0.3728  0.0663
  886MPD2    H512997   0.085   3.234  15.325 -0.2244 -1.7705 -0.4143
  886MPD2    N112998   0.135   2.799  15.668  0.3282  1.1788 -0.2116
  886MPD2    H712999   0.197   2.858  15.723  2.2094 -2.1282  1.2485
  887MPD2     C13000   0.833   2.932  15.902 -0.4660  0.5433 -0.4064
  887MPD2    C113001   0.702   2.970  15.883  0.0197  0.6033  0.0882
  887MPD2    C213002   0.687   3.109  15.862  0.5475 -0.1330  0.1897
  887MPD2    C313003   0.790   3.204  15.868 -0.4362  0.4573 -0.1791
  887MPD2    C413004   0.919   3.158  15.894 -0.7108  0.0598 -0.6479
  887MPD2    C513005   0.938   3.023  15.903  0.1844 -0.0039 -0.5085
  887MPD2     H13006   0.589   3.147  15.835 -0.0576 -2.2064 -0.5869
  887MPD2    H113007   1.003   3.225  15.910  1.1600 -2.1968 -1.1271
  887MPD2    H213008   0.863   2.828  15.909 -1.3925  0.3472  0.7384
  887MPD2    H313009   1.040   2.987  15.913 -0.7478 -2.3946  0.5133
  887MPD2     N13010   0.755   3.340  15.857 -0.1421 -0.1953 -0.2589
  887MPD2    H513011   0.656   3.364  15.852  0.0571  0.7772  0.4807
  887MPD2    N113012   0.584   2.891  15.876 -0.4630  0.1355  0.1928
  887MPD2    H713013   0.499   2.933  15.840  1.7072  3.0797 -1.4446
  888MPD2     C13014   2.558   3.529  14.867 -0.8860  0.2999  0.3927
  888MPD2    C113015   2.603   3.594  14.975  0.2186  0.5391 -1.2597
  888MPD2    C213016   2.669   3.708  14.964  0.4554 -0.2819 -0.4742
  888MPD2    C313017   2.710   3.746  14.837 -0.3669 -1.0192 -0.2188
  888MPD2    C413018   2.682   3.671  14.730  0.8968 -0.5226 -0.4119
  888MPD2    C513019   2.597   3.565  14.748 -0.4661 -0.4683 -0.3438
  888MPD2     H13020   2.694   3.764  15.053  3.7325 -2.7163  0.1434
  888MPD2    H113021   2.706   3.700  14.628 -0.2529 -2.2725 -1.1786
  888MPD2    H213022   2.505   3.435  14.873  0.2538 -0.4032 -0.5705
  888MPD2    H313023   2.575   3.506  14.660 -0.4559  0.3200 -0.8744
  888MPD2     N13024   2.763   3.872  14.822 -0.5622 -0.7494  0.8428
  888MPD2    H513025   2.772   3.931  14.905  0.0432  0.2774  0.0543
  888MPD2    N113026   2.575   3.538  15.103  0.7202  0.5173  0.2708
  888MPD2    H713027   2.631   3.577  15.179  0.7291 -0.2933  0.6875
  889MPD2     C13028   2.123   3.335  12.632 -0.0033 -0.3410 -0.0534
  889MPD2    C113029   2.192   3.249  12.718  0.7699 -0.3172  0.2599
  889MPD2    C213030   2.151   3.244  12.853 -0.2709 -0.0846  0.5590
  889MPD2    C313031   2.071   3.342  12.906 -0.4174  0.3224  0.0174
  889MPD2    C413032   2.024   3.438  12.818  0.0857 -0.7744 -0.3506
  889MPD2    C513033   2.040   3.439  12.679 -0.3317  0.0147 -0.1484
  889MPD2     H13034   2.197   3.166  12.913  0.9384  0.2230  0.0445
  889MPD2    H113035   1.979   3.525  12.862 -0.6069 -1.0322 -0.5502
  889MPD2    H213036   2.133   3.332  12.524 -2.4202  0.6158 -0.3061
  889MPD2    H313037   1.983   3.507  12.616 -0.1862  0.5510  0.2952
  889MPD2     N13038   2.051   3.355  13.048 -0.0593  0.1339 -0.1765
  889MPD2    H513039   2.099   3.289  13.109  1.1893 -1.0965 -2.4588
  889MPD2    N113040   2.247   3.122  12.668  0.4296  0.2111 -0.3387
  889MPD2    H713041   2.255   3.049  12.738 -1.1324 -0.9300 -1.3427
  890MPD2     C13042   1.636   4.181  14.909  0.2918  0.5554 -0.4154
  890MPD2    C113043   1.723   4.265  14.978 -0.5186  0.2135 -0.3680
  890MPD2    C213044   1.749   4.242  15.113 -0.6691  0.0004  0.4040
  890MPD2    C313045   1.701   4.129  15.172 -0.7057  0.4101 -0.5008
  890MPD2    C413046   1.620   4.036  15.098 -0.2339 -0.4512 -0.0459
  890MPD2    C513047   1.593   4.067  14.969  0.0513 -0.3965  0.0308
  890MPD2     H13048   1.804   4.308  15.178  1.3000 -3.1350  1.9385
  890MPD2    H113049   1.582   3.941  15.135 -1.2908 -0.0355 -0.0746
  890MPD2    H213050   1.606   4.198  14.806  2.4720  0.5970 -1.0553
  890MPD2    H313051   1.527   4.005  14.909 -0.5227 -0.1271  0.3904
  890MPD2     N13052   1.747   4.108  15.301  0.2336  0.8764  0.5632
  890MPD2    H513053   1.792   4.181  15.355 -1.2221  1.3949  1.0829
  890MPD2    N113054   1.764   4.382  14.910  0.1526  0.1193 -0.7136
  890MPD2    H713055   1.738   4.391  14.813  0.5676 -0.6147 -0.8912
  891MPD2     C13056   4.416   3.377  16.585  0.3090 -0.0522 -0.5178
  891MPD2    C113057   4.324   3.301  16.651  0.5107 -0.8474  0.5507
  891MPD2    C213058   4.354   3.227  16.766 -0.2414  0.0750  0.0997
  891MPD2    C313059   4.484   3.225  16.805 -0.5779  0.4082 -0.1838
  891MPD2    C413060   4.582   3.278  16.726 -0.4236 -0.8996  0.3732
  891MPD2    C513061   4.546   3.367  16.622  0.2214  0.6817  0.1705
  891MPD2     H13062   4.277   3.178  16.824  0.2383  1.2193  1.6984
  891MPD2    H113063   4.688   3.278  16.749 -1.1255 -1.0051  3.5871
  891MPD2    H213064   4.393   3.445  16.503  0.6284  1.1568  0.3914
  891MPD2    H313065   4.627   3.417  16.570  1.7394  0.1064  1.9727
  891MPD2     N13066   4.515   3.164  16.932  0.3644 -0.0990 -0.2142
  891MPD2    H513067   4.441   3.138  16.996  0.3919 -1.2128 -0.6270
  891MPD2    N113068   4.188   3.315  16.603  0.8627  0.1190  0.0156
  891MPD2    H713069   4.175   3.387  16.532  0.7203  1.5054  1.4565
  892MPD2     C13070   0.555   3.848  15.059 -0.0897 -0.1780 -1.2924
  892MPD2    C113071   0.445   3.885  14.974 -0.2589  0.8362 -0.5625
  892MPD2    C213072   0.454   3.853  14.841  0.1565  0.2111 -0.1631
  892MPD2    C313073   0.573   3.790  14.790 -0.6293  0.1353  0.0224
  892MPD2    C413074   0.680   3.764  14.873  0.6782 -0.4091  0.2728
  892MPD2    C513075   0.667   3.786  15.009 -0.0453 -0.5279 -0.1408
  892MPD2     H13076   0.374   3.892  14.780  0.9033  2.7666  0.4685
  892MPD2    H113077   0.775   3.726  14.837  0.3524  1.9324 -3.0551
  892MPD2    H213078   0.556   3.869  15.166 -2.8495  1.0001 -1.5059
  892MPD2    H313079   0.754   3.772  15.072  0.7420  0.3126 -1.0332
  892MPD2     N13080   0.591   3.750  14.660 -0.4567 -0.3269  0.7808
  892MPD2    H513081   0.682   3.713  14.634 -1.5260 -0.9855 -2.0091
  892MPD2    N113082   0.331   3.950  15.007  0.0791 -0.1144  0.2436
  892MPD2    H713083   0.270   3.983  14.932 -0.8077  0.9851  1.4461
  893MPD2     C13084   2.117   1.139   1.346  0.3866  0.5079 -0.3111
  893MPD2    C113085   2.206   1.108   1.453 -0.4050 -0.0283 -0.1781
  893MPD2    C213086   2.161   1.008   1.542  0.0432 -0.0004  0.0127
  893MPD2    C313087   2.036   0.946   1.531 -0.4663  0.2731  0.7882
  893MPD2    C413088   1.962   0.979   1.422 -0.6008 -0.8456  0.4490
  893MPD2    C513089   1.997   1.076   1.338 -0.5249  0.3331  0.6586
  893MPD2     H13090   2.214   0.997   1.636 -0.6317 -2.0463  0.1620
  893MPD2    H113091   1.868   0.926   1.411 -1.2078  0.2291  0.4549
  893MPD2    H213092   2.142   1.218   1.276  1.4034 -0.5864 -1.2015
  893MPD2    H313093   1.926   1.100   1.260 -2.9628 -1.6722  2.2496
  893MPD2     N13094   1.988   0.847   1.619  0.3187 -0.5586  0.2896
  893MPD2    H513095   1.890   0.821   1.612  0.3223  0.1273 -2.0860
  893MPD2    N113096   2.326   1.188   1.466  0.4188 -0.3162 -0.2013
  893MPD2    H713097   2.321   1.262   1.397  2.8961 -0.2522 -0.2983
  894MPD2     C13098   0.396   4.425   0.955  1.2012  0.0101  0.7776
  894MPD2    C113099   0.387   4.472   1.086 -0.4455  0.5921 -0.1935
  894MPD2    C213100   0.449   4.589   1.119  0.8028  0.7746 -0.7575
  894MPD2    C313101   0.525   4.657   1.026 -0.4564  0.5882  0.5361
  894MPD2    C413102   0.547   4.597   0.899  0.1868 -0.5037 -0.1551
  894MPD2    C513103   0.485   4.484   0.874  0.1673  0.1844  0.1372
  894MPD2     H13104   0.436   4.624   1.221 -0.3770 -0.1625 -0.5931
  894MPD2    H113105   0.618   4.639   0.828 -0.5544  1.8241  0.4767
  894MPD2    H213106   0.350   4.330   0.929 -0.6254  1.6238 -1.8570
  894MPD2    H313107   0.502   4.435   0.779 -1.6363 -0.3442  0.0740
  894MPD2     N13108   0.577   0.061   1.065 -0.7509  0.2379  0.8959
  894MPD2    H513109   0.559   0.093   1.159 -1.5671  1.8521  0.1946
  894MPD2    N113110   0.308   4.413   1.183 -0.3013  0.0273 -0.1597
  894MPD2    H713111   0.325   4.442   1.279 -1.2743  0.3635 -0.0926
  895MPD2     C13112   4.558   3.279  13.878  1.0841  0.7608 -0.0033
  895MPD2    C113113   4.525   3.153  13.826 -0.6486  0.1541  0.1682
  895MPD2    C213114   4.595   3.039  13.861  0.4656  0.7765 -0.6890
  895MPD2    C313115   0.003   3.053  13.901  0.1260 -0.1972 -0.3875
  895MPD2    C413116   0.042   3.177  13.938  0.4854 -0.3779  0.6902
  895MPD2    C513117   4.682   3.285  13.936 -0.6080  0.5818 -0.1030
  895MPD2     H13118   4.560   2.942  13.829  1.3504 -0.0526  0.8865
  895MPD2    H113119   0.140   3.195  13.982  0.9336  0.2482 -0.5823
  895MPD2    H213120   4.510   3.370  13.845 -0.3318  0.0973  0.2362
  895MPD2    H313121   4.720   3.383  13.959 -1.4316  0.4059  1.9326
  895MPD2     N13122   0.099   2.949  13.893 -0.1313 -0.6411 -0.1279
  895MPD2    H513123   0.178   2.985  13.840 -0.6727 -0.2165 -0.6416
  895MPD2    N113124   4.415   3.138  13.743 -0.6333 -0.2195 -0.4178
  895MPD2    H713125   4.394   3.047  13.704  1.2404 -1.1708  0.8192
  896MPD2     C13126   1.959   0.080   2.149 -0.1794 -1.0844  0.0863
  896MPD2    C113127   1.989   0.100   2.014  0.4956 -0.0216  0.6586
  896MPD2    C213128   1.895   0.075   1.915 -0.0555 -0.0591  0.0093
  896MPD2    C313129   1.770   0.050   1.946 -0.5422  0.5239 -0.3089
  896MPD2    C413130   1.737   0.061   2.081  0.4880 -0.0469 -0.2303
  896MPD2    C513131   1.827   0.060   2.176  0.0822  0.0140  0.0448
  896MPD2     H13132   1.912   0.086   1.808 -0.7318 -1.3890 -0.2275
  896MPD2    H113133   1.639   0.039   2.121  0.3605  0.0653 -0.4809
  896MPD2    H213134   2.033   0.088   2.228 -0.2446 -0.8117  0.1187
  896MPD2    H313135   1.789   0.056   2.278  0.6339 -0.5161  0.2259
  896MPD2     N13136   1.682   0.027   1.839 -0.3693 -0.3602  0.6422
  896MPD2    H513137   1.718   0.015   1.745 -2.1562 -3.6486  0.3736
  896MPD2    N113138   2.126   0.128   1.993 -0.1688 -0.1697 -0.0956
  896MPD2    H713139   2.174   0.137   2.082 -0.6694  1.7185 -0.0198
  897MPD2     C13140   3.386   3.463  10.065  0.2457  0.0379  0.1682
  897MPD2    C113141   3.250   3.461  10.031  0.1350 -0.2681  0.2803
  897MPD2    C213142   3.176   3.350  10.070  0.4435 -0.4226 -0.2324
  897MPD2    C313143   3.235   3.254  10.153  0.3007  0.1866  0.0463
  897MPD2    C413144   3.368   3.254  10.181  0.3945  0.4214  0.4606
  897MPD2    C513145   3.441   3.359  10.137  0.3425 -0.1426 -0.7810
  897MPD2     H13146   3.068   3.364  10.067  0.3688 -0.6011  1.6273
  897MPD2    H113147   3.415   3.188  10.253  0.5837  0.0234 -0.0259
  897MPD2    H213148   3.452   3.548  10.051 -2.0625  1.9671  1.0391
  897MPD2    H313149   3.544   3.355  10.170  0.1713 -0.7179 -0.3014
  897MPD2     N13150   3.144   3.164  10.217 -0.8241  0.2348 -0.2856
  897MPD2    H513151   3.045   3.179  10.207 -1.0010 -0.0369  1.0577
  897MPD2    N113152   3.183   3.581   9.980 -0.0690 -0.0504  0.0840
  897MPD2    H713153   3.239   3.666   9.976 -0.5838  0.3752  1.7565
  898MPD2     C13154   0.677   3.147  17.676  0.5507  0.2074  0.3941
  898MPD2    C113155   0.647   3.208   0.102 -0.1744  0.2649  0.2203
  898MPD2    C213156   0.528   3.271   0.110  0.4617  0.0417 -0.2103
  898MPD2    C313157   0.443   3.285   0.004 -0.3070  0.4594 -0.7144
  898MPD2    C413158   0.466   3.211  17.589 -0.0348 -0.3433 -0.0229
  898MPD2    C513159   0.591   3.154  17.575 -0.1708 -0.2562 -0.3886
  898MPD2     H13160   0.504   3.333   0.197  3.4107 -0.7111  1.1302
  898MPD2    H113161   0.403   3.203  17.501 -1.3863 -1.2867  1.0253
  898MPD2    H213162   0.774   3.108  17.648  0.7961  1.1737 -0.0798
  898MPD2    H313163   0.603   3.101  17.481  1.3836 -3.1239  1.4210
  898MPD2     N13164   0.337   3.384   0.006  0.2866  0.0145  0.1113
  898MPD2    H513165   0.333   3.439   0.091 -1.7096  0.9904 -0.6331
  898MPD2    N113166   0.738   3.207   0.207 -0.3016  0.6055  0.0374
  898MPD2    H713167   0.706   3.256   0.290  0.2204 -0.1638  0.6887
  899MPD2     C13168   0.903   3.582  17.422  0.3500  0.3106 -0.4647
  899MPD2    C113169   0.964   3.670  17.509 -0.2518 -0.3064  0.4800
  899MPD2    C213170   1.002   3.637  17.639  0.2496 -0.4863 -0.2500
  899MPD2    C313171   0.949   3.514  17.692 -0.8605 -0.3461 -0.4294
  899MPD2    C413172   0.896   3.423  17.604  0.0302  0.7420  0.7832
  899MPD2    C513173   0.876   3.455  17.476 -0.0344 -0.6885 -0.5873
  899MPD2     H13174   1.066   3.692   0.011  0.8068 -2.1456  0.5685
  899MPD2    H113175   0.878   3.322  17.638 -1.4056  0.6689 -0.2127
  899MPD2    H213176   0.874   3.627  17.328 -0.7461  0.5442 -0.0103
  899MPD2    H313177   0.837   3.387  17.401 -0.2039 -1.8563  0.5647
  899MPD2     N13178   0.966   3.469   0.130  0.4114  0.2038 -1.0224
  899MPD2    H513179   0.938   3.375   0.152  1.9576  0.0354  0.2201
  899MPD2    N113180   0.982   3.801  17.461 -0.5114  0.5215  0.2865
  899MPD2    H713181   0.941   3.818  17.370  2.3603 -0.8912 -1.2787
  900MPD2     C13182   0.963   1.172  12.200  0.0348 -0.1283  0.2968
  900MPD2    C113183   0.901   1.050  12.226 -0.2636 -0.0812  0.3199
  900MPD2    C213184   0.770   1.023  12.176  0.6568  0.0943  0.4975
  900MPD2    C313185   0.710   1.119  12.097 -0.1281  0.1839  0.4187
  900MPD2    C413186   0.769   1.239  12.079 -0.5900  0.5354 -0.5952
  900MPD2    C513187   0.893   1.264  12.129  0.4378  0.4812 -0.7655
  900MPD2     H13188   0.716   0.932  12.201  1.5428 -0.1965  1.3230
  900MPD2    H113189   0.726   1.315  12.016 -1.1930  0.6599 -0.0420
  900MPD2    H213190   1.067   1.196  12.219 -0.1786  0.2479  0.9793
  900MPD2    H313191   0.942   1.360  12.115 -1.1127  1.6634  1.8403
  900MPD2     N13192   0.585   1.084  12.042 -0.0691 -0.3197 -0.0609
  900MPD2    H513193   0.550   0.997  12.082  1.6524 -0.9531  0.0650
  900MPD2    N113194   0.979   0.958  12.292  0.0311 -0.0950  0.2211
  900MPD2    H713195   1.072   0.993  12.315  0.6678 -0.6852 -1.4642
  901MPD2     C13196   0.810   4.721  12.778 -0.4099  0.0391  0.6989
  901MPD2    C113197   0.948   4.711  12.771  0.3625 -0.5507  0.5330
  901MPD2    C213198   1.018   0.096  12.719 -0.2468  0.5562  0.1330
  901MPD2    C313199   0.956   0.214  12.685  0.6561  0.6287  0.4974
  901MPD2    C413200   0.821   0.220  12.704 -0.0624 -0.0488  0.4897
  901MPD2    C513201   0.753   0.112  12.750  0.7113  0.7680  0.1880
  901MPD2     H13202   1.124   0.097  12.696 -0.6981 -0.2587 -1.9664
  901MPD2    H113203   0.763   0.308  12.681  1.2530  0.0569 -2.3977
  901MPD2    H213204   0.748   4.636  12.805 -1.9437  1.0445  0.3219
  901MPD2    H313205   0.646   0.098  12.762  0.6909 -0.2850 -1.1978
  901MPD2     N13206   1.035   0.319  12.631 -0.0137  0.6382  0.1620
  901MPD2    H513207   1.129   0.292  12.603 -0.7649  0.1525 -1.9298
  901MPD2    N113208   1.004   4.584  12.798 -0.3236  0.5728 -0.6170
  901MPD2    H713209   0.934   4.517  12.826  0.1683  0.9534  1.4844
  902MPD2     C13210   4.346   3.406  13.124 -0.1401  0.2273 -0.2047
  902MPD2    C113211   4.473   3.455  13.125  0.0759  0.4098 -0.0178
  902MPD2    C213212   4.559   3.410  13.029  0.1431 -0.3971  0.1359
  902MPD2    C313213   4.518   3.322  12.930  0.0680  0.3733  0.2997
  902MPD2    C413214   4.389   3.286  12.920 -0.4350 -0.1917 -0.2995
  902MPD2    C513215   4.304   3.321  13.022 -0.0718  0.6729  0.4871
  902MPD2     H13216   4.655   3.460  13.032 -0.0316 -0.0693  0.3733
  902MPD2    H113217   4.368   3.204  12.851  0.2792 -0.3384 -0.3416
  902MPD2    H213218   4.276   3.430  13.203 -0.4557  0.5573 -0.5877
  902MPD2    H313219   4.216   3.260  13.038 -1.2467  1.7430 -1.8556
  902MPD2     N13220   4.601   3.285  12.819 -0.0672 -0.9216  0.6123
  902MPD2    H513221   4.552   3.248  12.738  3.2541  0.9099 -2.2286
  902MPD2    N113222   4.505   3.565  13.204  0.2488 -0.4615  0.6181
  902MPD2    H713223   4.440   3.595  13.275  1.5740 -2.7620  2.7855
  903MPD2     C13224   0.046   3.375  12.005  0.0929 -0.6897  0.1892
  903MPD2    C113225   4.692   3.357  12.115 -0.2323  0.3323 -0.0403
  903MPD2    C213226   4.557   3.367  12.097 -0.0633  0.1745 -0.1576
  903MPD2    C313227   4.495   3.404  11.975  0.2950 -0.8740 -0.3520
  903MPD2    C413228   4.577   3.434  11.868  0.0682 -0.3366 -0.1440
  903MPD2    C513229   4.710   3.400  11.885 -0.1872  0.2274 -0.1185
  903MPD2     H13230   4.493   3.357  12.184  0.7062 -0.4233  0.3450
  903MPD2    H113231   4.530   3.461  11.774  1.9228 -0.0709 -0.9967
  903MPD2    H213232   0.154   3.383  12.011  0.1660 -1.3886 -0.1972
  903MPD2    H313233   0.059   3.410  11.804 -0.7125  1.0318 -0.4986
  903MPD2     N13234   4.358   3.429  11.984 -0.1873 -0.2302 -0.1745
  903MPD2    H513235   4.318   3.410  12.076  0.9553 -1.5063  0.0625
  903MPD2    N113236   0.028   3.333  12.242 -0.0007 -0.5770 -0.1783
  903MPD2    H713237   0.128   3.317  12.235  0.4000  0.9858  1.9517
  904MPD2     C13238   4.398   2.307  13.882 -0.1753  0.3164  0.0730
  904MPD2    C113239   4.380   2.426  13.940  0.7683 -0.0829  0.2030
  904MPD2    C213240   4.474   2.475  14.036  0.2101 -0.3528  0.2802
  904MPD2    C313241   4.602   2.422  14.042 -0.3306  0.7152 -0.3525
  904MPD2    C413242   4.627   2.315  13.963  0.3616 -0.1944  0.1487
  904MPD2    C513243   4.525   2.259  13.888  0.0859 -0.4205  0.8788
  904MPD2     H13244   4.455   2.562  14.098  0.8632 -0.1846  0.2469
  904MPD2    H113245   0.004   2.274  13.957  0.6838  0.5743  0.3350
  904MPD2    H213246   4.319   2.269  13.819 -0.0328 -2.3715  1.5513
  904MPD2    H313247   4.549   2.163  13.844  0.8034 -0.1407  0.6570
  904MPD2     N13248   4.695   2.483  14.134 -0.2064 -0.0219 -0.4592
  904MPD2    H513249   4.661   2.556  14.196  0.0845 -0.8868  0.7231
  904MPD2    N113250   4.267   2.507  13.909  0.3477 -0.2097 -0.4844
  904MPD2    H713251   4.264   2.596  13.957  0.3051 -1.3633  1.6366
  905MPD2     C13252   4.210   2.625  13.214 -0.1953 -0.7924 -0.7104
  905MPD2    C113253   4.218   2.696  13.328 -0.7864  0.1492  0.6424
  905MPD2    C213254   4.343   2.737  13.380 -0.3177 -0.9467 -0.4351
  905MPD2    C313255   4.457   2.695  13.310  0.3978 -0.6293  0.3378
  905MPD2    C413256   4.449   2.615  13.203  0.8296  0.5997 -0.1161
  905MPD2    C513257   4.328   2.588  13.150  0.4035 -0.3088  0.6629
  905MPD2     H13258   4.347   2.779  13.480  1.6128  4.2393 -2.6800
  905MPD2    H113259   4.534   2.574  13.149  0.0669 -0.8300 -0.2265
  905MPD2    H213260   4.113   2.586  13.185 -0.8183  0.7033 -0.6175
  905MPD2    H313261   4.322   2.519  13.066 -2.4887  0.8116 -0.0383
  905MPD2     N13262   4.583   2.719  13.367 -0.0885 -0.1890  0.1339
  905MPD2    H513263   4.664   2.685  13.317 -0.0197  0.7855 -0.4109
  905MPD2    N113264   4.098   2.716  13.403 -0.3247 -0.0424 -0.5394
  905MPD2    H713265   4.018   2.657  13.382  1.2268 -2.3402 -0.0172
  906MPD2     C13266   1.949   3.019  11.260 -0.0893  0.9023 -0.5770
  906MPD2    C113267   1.983   2.942  11.150 -0.0299  0.6078 -0.1351
  906MPD2    C213268   2.007   2.808  11.167  0.6644  0.1728  0.2110
  906MPD2    C313269   2.010   2.747  11.298 -0.3363 -0.1156 -0.1846
  906MPD2    C413270   1.952   2.824  11.398  0.0504 -0.0167  0.3845
  906MPD2    C513271   1.926   2.954  11.380  0.4199  0.1413 -0.4475
  906MPD2     H13272   2.028   2.756  11.074 -1.9917 -0.4694 -0.0283
  906MPD2    H113273   1.940   2.785  11.499 -0.7767 -0.4176  0.1214
  906MPD2    H213274   1.944   3.128  11.258 -0.8726  0.8754 -0.0949
  906MPD2    H313275   1.889   3.020  11.459 -2.5775  0.2186 -1.8960
  906MPD2     N13276   2.028   2.609  11.312 -0.5293  0.0246  0.1421
  906MPD2    H513277   1.971   2.564  11.383 -0.4065  0.8637  0.7763
  906MPD2    N113278   2.013   2.994  11.015 -0.3954 -0.5235  0.3531
  906MPD2    H713279   2.018   2.927  10.940  1.1047 -0.1929  0.1669
  907MPD2     C13280   0.624   1.923  14.699  1.0686 -0.2208 -0.1871
  907MPD2    C113281   0.584   1.818  14.779 -0.0677 -0.5810  0.7522
  907MPD2    C213282   0.534   1.852  14.908 -0.7246 -0.1005 -1.0478
  907MPD2    C313283   0.539   1.980  14.962  0.2087 -0.0294  0.2229
  907MPD2    C413284   0.575   2.084  14.875  0.4943  0.0869  0.0904
  907MPD2    C513285   0.614   2.049  14.747 -0.2811  0.2863 -0.2686
  907MPD2     H13286   0.513   1.769  14.974  0.1167  0.7591  0.2874
  907MPD2    H113287   0.566   2.188  14.903  0.4853 -0.1039  0.8163
  907MPD2    H213288   0.666   1.903  14.602 -1.6697  0.8177 -1.5786
  907MPD2    H313289   0.654   2.134  14.692 -0.4369  1.1836  0.9944
  907MPD2     N13290   0.483   2.005  15.091  0.3765 -0.1859 -0.0754
  907MPD2    H513291   0.468   1.923  15.148 -0.2400  0.4153  0.6269
  907MPD2    N113292   0.590   1.691  14.727  0.1208 -0.1359  0.0920
  907MPD2    H713293   0.599   1.683  14.626 -1.3835 -1.2060  0.0465
  908MPD2     C13294   2.379   3.592   9.390  0.6399 -0.2880  0.0365
  908MPD2    C113295   2.469   3.492   9.423 -0.1716 -0.6227  0.0866
  908MPD2    C213296   2.582   3.524   9.499  0.3137 -0.3667  0.5137
  908MPD2    C313297   2.595   3.658   9.545  0.3888  0.5889 -0.2894
  908MPD2    C413298   2.503   3.753   9.509 -0.5075  0.0959  0.6131
  908MPD2    C513299   2.395   3.718   9.435 -0.7036 -0.2248  0.2491
  908MPD2     H13300   2.647   3.447   9.539  1.2073 -0.2132 -0.6195
  908MPD2    H113301   2.486   3.857   9.535 -0.4695  0.1523  0.4168
  908MPD2    H213302   2.305   3.576   9.312 -0.6326 -1.7799  1.5388
  908MPD2    H313303   2.331   3.797   9.399 -0.0040  0.2182 -0.0244
  908MPD2     N13304   2.704   3.692   9.623 -0.0296  0.4643 -0.3705
  908MPD2    H513305   2.759   3.614   9.656 -0.8289 -0.5398 -1.4139
  908MPD2    N113306   2.457   3.362   9.371 -0.2641 -0.2092 -0.2566
  908MPD2    H713307   2.540   3.304   9.381 -1.5935 -1.9457  0.6149
  909MPD2     C13308   4.175   0.878  11.294 -0.6113  0.3027  0.7636
  909MPD2    C113309   4.136   1.005  11.260 -0.4157  0.3331  0.1133
  909MPD2    C213310   4.013   1.049  11.302  0.1110  0.2756 -0.0558
  909MPD2    C313311   3.927   0.966  11.376  0.1436 -0.2045  0.2504
  909MPD2    C413312   3.967   0.841  11.413 -0.1694  0.3600 -0.6915
  909MPD2    C513313   4.092   0.802  11.371  0.6673 -1.1970 -0.0295
  909MPD2     H13314   3.974   1.150  11.293 -0.9203 -0.1451 -0.3712
  909MPD2    H113315   3.912   0.770  11.474 -2.2493  1.5818 -1.1447
  909MPD2    H213316   4.276   0.841  11.279 -0.8372  0.2927 -0.7259
  909MPD2    H313317   4.130   0.708  11.410 -0.1509 -2.1875 -1.6084
  909MPD2     N13318   3.806   1.026  11.423 -0.7361  0.6298  0.2696
  909MPD2    H513319   3.788   1.120  11.390 -0.5279  1.1531  1.6380
  909MPD2    N113320   4.217   1.089  11.180 -0.2279  0.1673  0.6921
  909MPD2    H713321   4.172   1.175  11.150 -1.2646 -0.8959 -0.7846
  910MPD2     C13322   4.690   2.686  16.315  0.2665 -0.1268  0.0233
  910MPD2    C113323   4.691   2.560  16.257 -0.5125  0.4597  0.0863
  910MPD2    C213324   4.622   2.527  16.141  0.7321 -0.1960 -0.1448
  910MPD2    C313325   4.556   2.627  16.074 -0.0406  0.7142  0.0112
  910MPD2    C413326   4.565   2.760  16.122 -0.2849 -0.1952  0.3643
  910MPD2    C513327   4.635   2.785  16.231  0.3328 -0.1300  0.2493
  910MPD2     H13328   4.615   2.424  16.110 -4.6764  0.0231  0.4386
  910MPD2    H113329   4.500   2.834  16.078  2.4982  1.5439 -0.7870
  910MPD2    H213330   0.032   2.722  16.394  0.4067 -2.0479  0.7656
  910MPD2    H313331   4.656   2.889  16.255 -2.2876  0.6025 -0.6188
  910MPD2     N13332   4.491   2.607  15.950  0.0608  0.0760 -0.8430
  910MPD2    H513333   4.447   2.689  15.910  0.4852 -0.3843 -2.2564
  910MPD2    N113334   0.025   2.448  16.328 -0.3338  0.3581  0.5888
  910MPD2    H713335   0.017   2.360  16.278 -0.6807  2.0090 -2.2870
  911MPD2     C13336   2.477   2.704  16.589 -0.0124  0.4873 -0.2135
  911MPD2    C113337   2.527   2.819  16.641  0.2800  0.1917 -1.0248
  911MPD2    C213338   2.455   2.939  16.638  0.0560  0.5014  0.3886
  911MPD2    C313339   2.323   2.937  16.592  0.0325  0.3803  0.5950
  911MPD2    C413340   2.266   2.819  16.553 -0.1193  0.7441 -0.9717
  911MPD2    C513341   2.350   2.707  16.545 -0.1837 -0.2710 -0.1271
  911MPD2     H13342   2.502   3.032  16.667 -1.4213  1.4942 -0.4130
  911MPD2    H113343   2.163   2.819  16.520  0.0128 -0.7733 -1.3727
  911MPD2    H213344   2.538   2.614  16.587  3.0867  2.5121  3.3048
  911MPD2    H313345   2.314   2.612  16.508  1.2594 -1.3648  1.3136
  911MPD2     N13346   2.235   3.043  16.573 -0.2709 -0.0236 -0.2575
  911MPD2    H513347   2.142   3.027  16.536 -0.6175 -0.9963  1.0447
  911MPD2    N113348   2.662   2.818  16.698 -0.0038 -0.2356 -0.6015
  911MPD2    H713349   2.706   2.727  16.686  0.3210 -0.0379 -0.9203
  912MPD2     C13350   1.856   2.810  16.074 -0.4352 -0.7417  0.0504
  912MPD2    C113351   1.888   2.851  16.201 -0.1710  0.0542  0.6548
  912MPD2    C213352   1.939   2.748  16.288  0.0971 -0.8803  0.3677
  912MPD2    C313353   1.961   2.615  16.248  0.2672  0.2056 -0.1166
  912MPD2    C413354   1.926   2.587  16.119  0.4493 -0.1058 -0.6083
  912MPD2    C513355   1.869   2.680  16.035  0.0717 -0.6034 -0.2750
  912MPD2     H13356   1.965   2.765  16.391  0.4935 -0.2115  0.1522
  912MPD2    H113357   1.949   2.488  16.080  2.6094  0.9847 -2.0917
  912MPD2    H213358   1.831   2.880  15.995 -0.6402 -1.2172 -0.3064
  912MPD2    H313359   1.850   2.654  15.932  0.6078  0.7367 -0.7121
  912MPD2     N13360   2.003   2.518  16.349  0.1123 -0.1773 -0.2827
  912MPD2    H513361   2.004   2.550  16.445  1.7148  1.3599 -0.8271
  912MPD2    N113362   1.877   2.984  16.241 -0.1838  0.0125  0.1471
  912MPD2    H713363   1.840   3.056  16.180  1.2315  1.6662  1.2319
  913MPD2     C13364   2.856   4.562  10.706 -0.7929 -0.6261 -0.3639
  913MPD2    C113365   2.884   4.698  10.710 -0.5412  0.1600 -0.2743
  913MPD2    C213366   2.835   0.064  10.617 -0.1238 -0.1509  0.5055
  913MPD2    C313367   2.759   0.011  10.522  0.1709  0.2677  0.0747
  913MPD2    C413368   2.725   4.602  10.516 -0.0005  0.0412  0.7456
  913MPD2    C513369   2.775   4.518  10.608 -0.8005 -0.1037 -0.2069
  913MPD2     H13370   2.848   0.171  10.633 -1.6624 -0.1049  1.4850
  913MPD2    H113371   2.659   4.563  10.440  0.9582 -0.9969  0.4493
  913MPD2    H213372   2.883   4.483  10.775 -0.3565  0.8241  1.1064
  913MPD2    H313373   2.742   4.415  10.613 -1.7139  0.3025  2.1823
  913MPD2     N13374   2.700   0.099  10.432 -0.6112  0.2200  0.4911
  913MPD2    H513375   2.647   0.057  10.356  0.0080  1.8760 -0.8803
  913MPD2    N113376   2.975   0.020  10.813  0.2867  0.3790  0.8087
  913MPD2    H713377   3.010   4.675  10.879 -1.6897 -0.2407  1.2263
  914MPD2     C13378   0.784   4.090  12.188  0.0329  0.6722 -0.5425
  914MPD2    C113379   0.811   4.217  12.214  0.2278 -0.0508  0.4009
  914MPD2    C213380   0.887   4.257  12.323 -0.1592 -0.0339 -0.6451
  914MPD2    C313381   0.937   4.160  12.407  0.1049  1.1011  0.1602
  914MPD2    C413382   0.899   4.026  12.391 -0.8501 -0.0693 -0.2675
  914MPD2    C513383   0.826   3.996  12.281 -0.0294  0.3232 -0.0043
  914MPD2     H13384   0.912   4.362  12.323 -3.5634  0.7900 -2.0184
  914MPD2    H113385   0.929   3.948  12.460 -3.8539 -0.9344  0.0226
  914MPD2    H213386   0.731   4.059  12.098  1.2414 -2.4255 -0.1985
  914MPD2    H313387   0.793   3.895  12.261 -2.9686  1.4867 -1.0967
  914MPD2     N13388   1.009   4.209  12.515 -0.0009 -0.0124  0.1889
  914MPD2    H513389   1.023   4.309  12.530  4.1121 -0.8066  1.8798
  914MPD2    N113390   0.747   4.312  12.130 -0.2918 -0.2548 -0.2961
  914MPD2    H713391   0.680   4.278  12.061 -0.6076 -1.3407  0.5473
  915MPD2     C13392   3.943   0.062  15.849 -0.2958 -0.1163 -0.3643
  915MPD2    C113393   3.850   0.147  15.792  0.8245  0.1727  0.0073
  915MPD2    C213394   3.752   0.198  15.872 -0.0680 -0.7794  0.1755
  915MPD2    C313395   3.740   0.166  16.005 -1.2454  0.3500  0.2904
  915MPD2    C413396   3.839   0.089  16.054 -0.1363 -0.3562 -0.2615
  915MPD2    C513397   3.935   0.031  15.985  0.4386 -0.6061  0.1510
  915MPD2     H13398   3.680   0.263  15.823  1.5397 -0.8075 -2.2365
  915MPD2    H113399   3.867   0.088  16.158  2.2282  3.5004 -0.8684
  915MPD2    H213400   4.021   0.013  15.792  1.1564  3.2385 -1.2092
  915MPD2    H313401   4.008   4.691  16.035  0.7745 -1.1750 -1.0759
  915MPD2     N13402   3.649   0.221  16.094  0.6619  0.4609 -0.4450
  915MPD2    H513403   3.585   0.281  16.042 -0.9037  1.1106  2.2423
  915MPD2    N113404   3.865   0.162  15.655 -0.7987 -0.0829 -0.6734
  915MPD2    H713405   3.951   0.126  15.613 -0.0273 -0.8476  1.5366
  916MPD2     C13406   1.405   2.523  16.024 -0.0389 -0.9626  0.7118
  916MPD2    C113407   1.506   2.450  16.090 -0.2181 -0.6148 -0.1264
  916MPD2    C213408   1.574   2.358  16.015 -0.0868 -0.5577 -0.0573
  916MPD2    C313409   1.549   2.344  15.880 -0.1729 -0.4386  0.2872
  916MPD2    C413410   1.449   2.410  15.820  0.6807  0.3614  0.5499
  916MPD2    C513411   1.368   2.493  15.895  0.2516  0.4795 -0.2089
  916MPD2     H13412   1.656   2.300  16.054  0.1687 -0.6773 -0.7639
  916MPD2    H113413   1.418   2.392  15.717  1.1625  2.3627  0.0538
  916MPD2    H213414   1.351   2.600  16.078 -1.5148 -1.9593  0.6661
  916MPD2    H313415   1.277   2.535  15.854  0.6690  1.7937  0.2092
  916MPD2     N13416   1.625   2.239  15.817 -0.1631  0.0746 -0.4435
  916MPD2    H513417   1.683   2.180  15.875 -0.3204 -0.7074 -1.0790
  916MPD2    N113418   1.538   2.472  16.226  0.2678  0.1497 -0.2028
  916MPD2    H713419   1.478   2.537  16.277 -1.4804  0.1831 -2.3332
  917MPD2     C13420   2.115   1.169  11.456 -1.1612 -0.1620  0.5581
  917MPD2    C113421   2.007   1.158  11.540 -0.5867 -0.9060 -0.7753
  917MPD2    C213422   1.883   1.219  11.507  0.2364  0.0182 -0.4658
  917MPD2    C313423   1.870   1.301  11.401 -0.2211  0.5845 -0.9586
  917MPD2    C413424   1.977   1.310  11.323  0.2598  0.6892  0.1510
  917MPD2    C513425   2.094   1.249  11.341 -0.3428  0.2856 -0.5243
  917MPD2     H13426   1.795   1.205  11.570  1.6853  1.8007  1.9685
  917MPD2    H113427   1.958   1.365  11.231  1.2136 -0.0196 -0.4704
  917MPD2    H213428   2.215   1.127  11.466 -1.4125 -0.5629  1.4051
  917MPD2    H313429   2.175   1.252  11.270  0.6801  1.4042  0.6928
  917MPD2     N13430   1.750   1.365  11.353  0.2470  0.2995 -0.5314
  917MPD2    H513431   1.753   1.411  11.262 -1.1621 -1.7868 -1.6485
  917MPD2    N113432   2.003   1.066  11.648  0.0400 -0.2751  0.3565
  917MPD2    H713433   1.920   1.042  11.700 -0.3277 -0.7138 -0.4322
  918MPD2     C13434   2.517   0.796  12.562 -0.2709  0.2037 -0.4149
  918MPD2    C113435   2.522   0.685  12.486  0.3958 -0.1247  0.3728
  918MPD2    C213436   2.462   0.682  12.361 -0.3493  0.1576 -0.1352
  918MPD2    C313437   2.399   0.797  12.319 -0.9984  0.3273 -0.2748
  918MPD2    C413438   2.394   0.915  12.399 -0.4176  0.0167 -0.3551
  918MPD2    C513439   2.463   0.915  12.518  0.6907  0.5751  0.1127
  918MPD2     H13440   2.461   0.583  12.317  1.0439  0.4499 -0.8446
  918MPD2    H113441   2.335   1.004  12.382 -1.4534 -0.5455  0.2560
  918MPD2    H213442   2.573   0.795  12.655 -1.1651  2.0226  0.1274
  918MPD2    H313443   2.455   0.997  12.588  1.9977  1.0098 -0.2582
  918MPD2     N13444   2.323   0.785  12.198 -0.0883 -0.1809  1.2576
  918MPD2    H513445   2.321   0.690  12.162 -0.1840  0.4872 -0.5402
  918MPD2    N113446   2.594   0.573  12.530 -0.2439 -0.7453  0.9894
  918MPD2    H713447   2.606   0.501  12.459  2.4195  1.8542 -1.2026
  919MPD2     C13448   2.866   4.397  11.793 -0.1602  0.0200  0.3850
  919MPD2    C113449   2.831   4.288  11.720 -0.7934 -0.3040  1.0368
  919MPD2    C213450   2.791   4.309  11.591 -0.5532  0.9746 -0.3804
  919MPD2    C313451   2.814   4.438  11.531 -0.7395 -0.5276  0.2286
  919MPD2    C413452   2.882   4.541  11.603  0.5824  0.4256  0.2629
  919MPD2    C513453   2.913   4.510  11.734 -0.3003 -0.1659  0.3183
  919MPD2     H13454   2.748   4.226  11.538 -0.0076 -0.6551  1.7535
  919MPD2    H113455   2.879   4.643  11.566 -0.1017 -0.2860 -1.6364
  919MPD2    H213456   2.868   4.398  11.901 -1.2164  0.3551  0.3988
  919MPD2    H313457   2.927   4.592  11.802 -0.5934  0.1626 -0.0191
  919MPD2     N13458   2.777   4.471  11.395  0.7340 -0.1065  0.4871
  919MPD2    H513459   2.787   4.569  11.369  0.3803  0.6283  3.0936
  919MPD2    N113460   2.814   4.164  11.782 -0.6314 -0.1210 -0.0616
  919MPD2    H713461   2.775   4.089  11.727  0.5890 -1.0492  0.3299
  920MPD2     C13462   2.536   0.432  10.693  0.0307 -0.3938  0.3961
  920MPD2    C113463   2.453   0.332  10.651  0.5928 -0.9685 -0.2073
  920MPD2    C213464   2.465   0.207  10.710  0.3378 -0.1838  0.6430
  920MPD2    C313465   2.558   0.185  10.816 -0.0749 -0.1180 -0.6356
  920MPD2    C413466   2.621   0.297  10.869  0.4195 -0.1603  0.3834
  920MPD2    C513467   2.622   0.414  10.797  0.1076  0.2394 -0.0315
  920MPD2     H13468   2.421   0.118  10.665 -0.9223  1.0793 -0.6156
  920MPD2    H113469   2.685   0.290  10.956  1.0801 -0.9407 -0.1648
  920MPD2    H213470   2.534   0.529  10.643  2.5803  2.0519  5.0086
  920MPD2    H313471   2.683   0.496  10.832  0.8378  0.0143 -0.7723
  920MPD2     N13472   2.567   0.055  10.878  0.8344 -0.5563 -0.2305
  920MPD2    H513473   2.503   4.705  10.850  0.2475 -0.1739  0.1126
  920MPD2    N113474   2.370   0.346  10.536 -0.5565 -0.2855 -0.1618
  920MPD2    H713475   2.313   0.264  10.516 -0.6471 -0.1633 -0.3967
  921MPD2     C13476   3.412   3.496  16.920  0.3330 -0.2453  0.8566
  921MPD2    C113477   3.450   3.381  16.851  0.4724 -0.0521 -0.3808
  921MPD2    C213478   3.372   3.262  16.855  0.3669 -0.1854  0.8722
  921MPD2    C313479   3.246   3.266  16.915  0.1665  0.2199  0.0787
  921MPD2    C413480   3.217   3.381  16.979  0.2228  0.4336  0.1990
  921MPD2    C513481   3.294   3.494  16.989  0.5701  0.3321 -0.7271
  921MPD2     H13482   3.403   3.173  16.801 -1.9826 -0.0583 -0.7292
  921MPD2    H113483   3.127   3.375  17.039 -1.3906 -0.8493 -2.3420
  921MPD2    H213484   3.478   3.583  16.917  1.6975 -1.2240  2.7428
  921MPD2    H313485   3.252   3.585  17.031  0.8422 -0.4355  1.2263
  921MPD2     N13486   3.156   3.153  16.928  0.1391 -0.5264  0.9067
  921MPD2    H513487   3.074   3.158  16.987  0.1441 -0.2611  0.8890
  921MPD2    N113488   3.578   3.396  16.792 -0.0785 -0.0277  0.0641
  921MPD2    H713489   3.634   3.478  16.813 -0.3735 -0.3903  2.2855
  922MPD2     C13490   4.401   0.398   0.103  0.0232  0.4133  0.5679
  922MPD2    C113491   4.355   0.422  17.667 -0.2984  0.7003  1.3067
  922MPD2    C213492   4.229   0.473  17.646 -0.1480 -0.7824 -0.0977
  922MPD2    C313493   4.136   0.500   0.057  0.3352  0.8596 -0.1572
  922MPD2    C413494   4.181   0.474   0.185 -0.2845  0.8560 -0.7167
  922MPD2    C513495   4.309   0.420   0.204 -0.1883  0.6231 -0.0045
  922MPD2     H13496   4.195   0.476  17.543 -0.6796  2.1622  0.1555
  922MPD2    H113497   4.123   0.487   0.276  0.4654 -1.1076  0.0345
  922MPD2    H213498   4.496   0.363   0.140 -0.7612  0.5157  2.6666
  922MPD2    H313499   4.350   0.401   0.302 -0.6873  0.8705  0.2511
  922MPD2     N13500   4.012   0.555   0.029 -0.1011  0.4109 -0.1243
  922MPD2    H513501   3.979   0.557  17.628  0.8011  0.4788 -0.4269
  922MPD2    N113502   4.436   0.396  17.554  0.5488 -0.6307 -0.0837
  922MPD2    H713503   4.404   0.436  17.467  2.9368  1.8212  0.2041
  923MPD2     C13504   0.775   3.243   9.034 -0.2208 -0.3559 -0.1810
  923MPD2    C113505   0.835   3.356   9.090  0.5560 -0.2531  0.2478
  923MPD2    C213506   0.962   3.336   9.141 -0.5410  0.4282 -0.1658
  923MPD2    C313507   1.019   3.213   9.137  0.1772  0.1506 -0.8458
  923MPD2    C413508   0.956   3.104   9.074 -0.4206 -0.6098 -0.1059
  923MPD2    C513509   0.828   3.117   9.032 -0.0062  0.1755  0.3169
  923MPD2     H13510   1.014   3.418   9.188  1.4303 -1.4886  0.9773
  923MPD2    H113511   0.993   3.003   9.088 -1.2859 -1.0477 -0.9906
  923MPD2    H213512   0.677   3.240   8.987 -0.8236  0.4074  1.0356
  923MPD2    H313513   0.774   3.039   8.980  0.9488 -1.2937  1.5132
  923MPD2     N13514   1.133   3.177   9.214 -0.7882 -0.2110 -0.3957
  923MPD2    H513515   1.172   3.084   9.207  1.1264  0.8057 -3.5663
  923MPD2    N113516   0.771   3.485   9.092  0.0406 -0.2530 -0.2480
  923MPD2    H713517   0.676   3.497   9.060  0.6885  1.7300 -1.4378
  924MPD2     C13518   0.461   1.346  15.526  0.2986 -0.1703 -0.9139
  924MPD2    C113519   0.473   1.447  15.620 -0.0269 -0.7549 -0.0062
  924MPD2    C213520   0.412   1.572  15.590  0.1932 -0.4512  0.3063
  924MPD2    C313521   0.345   1.595  15.473  0.3282 -0.8219  0.3843
  924MPD2    C413522   0.338   1.489  15.378  0.0640  0.6695  0.0163
  924MPD2    C513523   0.399   1.363  15.403 -0.4655 -0.9036  0.3469
  924MPD2     H13524   0.408   1.651  15.664 -0.6389 -0.1714 -0.0410
  924MPD2    H113525   0.293   1.502  15.281  0.0004 -1.6996 -0.2796
  924MPD2    H213526   0.512   1.251  15.536 -1.4283 -0.8910  0.9223
  924MPD2    H313527   0.395   1.281  15.333  0.0154 -0.2888 -0.3971
  924MPD2     N13528   0.298   1.725  15.425  0.0727 -0.6763  0.2227
  924MPD2    H513529   0.264   1.740  15.330 -0.6023 -0.5164  0.4894
  924MPD2    N113530   0.559   1.433  15.730  0.1557  0.0643  0.6357
  924MPD2    H713531   0.588   1.337  15.745 -1.9869 -0.8006 -0.6794
  925MPD2     C13532   4.545   3.351  14.970 -0.0403  0.2407 -0.1222
  925MPD2    C113533   4.475   3.419  14.877 -0.6249  0.1230 -0.1753
  925MPD2    C213534   4.384   3.518  14.916  0.3193 -0.6666  0.1888
  925MPD2    C313535   4.364   3.537  15.050 -0.2076 -0.7256  0.3522
  925MPD2    C413536   4.440   3.477  15.148 -0.1600 -0.1249 -0.5307
  925MPD2    C513537   4.525   3.381  15.103  0.0076  0.5435 -0.4535
  925MPD2     H13538   4.328   3.572  14.840 -2.2932 -0.5708  2.1936
  925MPD2    H113539   4.438   3.503  15.253 -1.4379  0.1752 -0.6350
  925MPD2    H213540   4.623   3.283  14.940  1.2495  1.6612  0.0073
  925MPD2    H313541   4.581   3.324  15.176  0.1786  0.3073 -0.7730
  925MPD2     N13542   4.281   3.642  15.104  0.5271  0.9240 -0.2984
  925MPD2    H513543   4.289   3.646  15.205  1.5023  2.3911 -0.4280
  925MPD2    N113544   4.487   3.389  14.739 -0.4590 -0.0599 -0.6265
  925MPD2    H713545   4.447   3.463  14.683 -1.4501 -0.0183  0.1295
  926MPD2     C13546   2.898   2.038  13.009  0.0904 -0.5629  0.6143
  926MPD2    C113547   2.961   2.137  13.086 -0.2130  0.5108  0.0415
  926MPD2    C213548   3.060   2.210  13.022  0.0097  0.4955 -0.4784
  926MPD2    C313549   3.091   2.184  12.885 -0.0488  0.7599 -0.3224
  926MPD2    C413550   3.021   2.096  12.814 -0.9020  0.9432 -1.1610
  926MPD2    C513551   2.931   2.020  12.879 -0.1257  0.0141 -0.0400
  926MPD2     H13552   3.123   2.283  13.072  0.4836  0.0482 -0.4164
  926MPD2    H113553   3.028   2.071  12.709  3.6447  1.6883 -1.0356
  926MPD2    H213554   2.819   1.973  13.047 -1.8388  1.3957 -0.0106
  926MPD2    H313555   2.883   1.937  12.828 -0.4183 -0.6563  1.3002
  926MPD2     N13556   3.175   2.273  12.811  0.1741  0.3575  0.5945
  926MPD2    H513557   3.164   2.255  12.712 -0.1086 -1.1712  0.9014
  926MPD2    N113558   2.927   2.181  13.211 -0.6562  0.3460  0.2058
  926MPD2    H713559   2.982   2.260  13.244  1.3164 -0.4784 -1.0951
  927MPD2     C13560   2.731   3.912   0.260  0.1859  0.0327  0.0346
  927MPD2    C113561   2.741   4.041   0.299  0.3840  0.3318  0.3686
  927MPD2    C213562   2.823   4.126   0.220  0.3464 -0.6272 -0.1838
  927MPD2    C313563   2.874   4.084   0.104  0.2878  0.2112  0.3474
  927MPD2    C413564   2.836   3.964   0.053 -0.0430  0.0171  0.1331
  927MPD2    C513565   2.776   3.873   0.137 -1.0838  0.3067  0.5177
  927MPD2     H13566   2.855   4.223   0.257 -0.4352  0.2047 -1.6934
  927MPD2    H113567   2.877   3.921  17.658  1.1135  0.0084  0.6516
  927MPD2    H213568   2.676   3.841   0.322  1.5654 -0.8254  0.2901
  927MPD2    H313569   2.750   3.773   0.105  0.4373  0.3847 -0.9610
  927MPD2     N13570   2.971   4.170   0.046  0.0125 -0.3321  0.1621
  927MPD2    H513571   3.008   4.247   0.101 -2.2566  0.7558  0.1585
  927MPD2    N113572   2.678   4.073   0.421  0.3529  0.2635 -0.4746
  927MPD2    H713573   2.644   3.991   0.470 -2.0701  1.7627  0.3327
  928MPD2     C13574   0.427   3.123   1.554  0.1302  0.1323  0.3944
  928MPD2    C113575   0.558   3.157   1.566 -0.8172  1.6253  0.3209
  928MPD2    C213576   0.639   3.107   1.464  0.2073 -1.0145  0.6006
  928MPD2    C313577   0.588   3.033   1.358  0.5419  0.1049 -0.0080
  928MPD2    C413578   0.454   3.013   1.340  0.1879 -0.3132  0.1532
  928MPD2    C513579   0.379   3.056   1.447 -0.8754 -0.0091  0.0094
  928MPD2     H13580   0.745   3.130   1.468 -0.3873  1.9525 -0.9481
  928MPD2    H113581   0.404   2.957   1.262 -0.5818 -0.4427  0.7344
  928MPD2    H213582   0.356   3.157   1.628 -2.5552 -2.4750 -0.9754
  928MPD2    H313583   0.274   3.031   1.456 -0.9119  0.0042 -0.3943
  928MPD2     N13584   0.684   2.991   1.265  0.5401  0.1201 -0.0617
  928MPD2    H513585   0.776   3.030   1.284  1.4429 -1.9317 -0.1751
  928MPD2    N113586   0.606   3.237   1.672  0.6372  0.3510 -0.1970
  928MPD2    H713587   0.530   3.269   1.731 -1.2309 -1.1356 -1.8210
  929MPD2     C13588   1.566   2.902  10.601 -0.5289  0.6698 -0.5113
  929MPD2    C113589   1.451   2.836  10.621 -0.6194  0.0001 -0.6916
  929MPD2    C213590   1.347   2.848  10.532  0.5654 -0.3450 -0.4955
  929MPD2    C313591   1.345   2.936  10.422  0.1368 -1.3592 -0.1868
  929MPD2    C413592   1.463   3.014  10.411 -0.3684  0.5589  0.5769
  929MPD2    C513593   1.574   2.994  10.497  0.1956  0.0112 -0.4619
  929MPD2     H13594   1.252   2.809  10.569  0.6913 -0.4917 -0.3304
  929MPD2    H113595   1.464   3.079  10.325 -0.8340 -2.1020 -1.4520
  929MPD2    H213596   1.659   2.888  10.655 -0.2209  1.9706 -0.7068
  929MPD2    H313597   1.664   3.052  10.480 -1.7455  3.3806  0.7092
  929MPD2     N13598   1.231   2.964  10.339 -0.3248 -0.0600  0.2612
  929MPD2    H513599   1.221   3.054  10.293  1.4475  0.5453  1.1068
  929MPD2    N113600   1.438   2.770  10.750  0.2041 -0.3733 -0.6110
  929MPD2    H713601   1.520   2.764  10.810 -1.9814 -1.7770  2.2496
  930MPD2     C13602   2.494   0.218  14.198 -1.3392  0.4057 -0.1916
  930MPD2    C113603   2.581   0.181  14.103  0.1407  0.5121  0.0521
  930MPD2    C213604   2.589   0.051  14.067  0.4685  0.2398 -0.1111
  930MPD2    C313605   2.519   4.671  14.131  0.7364 -0.1103 -0.5356
  930MPD2    C413606   2.423   4.708  14.219  0.6472 -0.0297 -0.1203
  930MPD2    C513607   2.417   0.115  14.255 -0.4583  0.1207  0.3333
  930MPD2     H13608   2.662   0.023  13.992  1.0781 -0.9628  0.9328
  930MPD2    H113609   2.364   4.628  14.263  0.6483 -0.9736 -1.8221
  930MPD2    H213610   2.480   0.322  14.226  2.2255  1.7589 -3.3959
  930MPD2    H313611   2.349   0.150  14.333 -0.4143  0.2042  0.3346
  930MPD2     N13612   2.522   4.536  14.094  0.1129 -0.1329  0.0139
  930MPD2    H513613   2.448   4.481  14.137 -2.1996  2.2527 -0.8780
  930MPD2    N113614   2.664   0.274  14.035 -0.6731 -0.2674 -0.2941
  930MPD2    H713615   2.715   0.238  13.955 -0.3334  1.3352 -0.7961
  931MPD2     C13616   2.772   3.658   0.846 -0.2917 -0.2252 -0.6362
  931MPD2    C113617   2.737   3.762   0.919 -0.4227  0.1704 -1.0592
  931MPD2    C213618   2.749   3.749   1.052  1.0841 -0.1288  0.0621
  931MPD2    C313619   2.790   3.638   1.114 -0.7244 -0.1583  0.3479
  931MPD2    C413620   2.824   3.530   1.032 -0.0126 -0.3533  0.0013
  931MPD2    C513621   2.814   3.538   0.896 -0.9583  0.0129 -0.1640
  931MPD2     H13622   2.728   3.834   1.116  1.0018 -0.8428  0.9755
  931MPD2    H113623   2.858   3.431   1.061  0.7096  0.1973  1.0245
  931MPD2    H213624   2.787   3.675   0.740  0.4599 -3.0613 -0.9760
  931MPD2    H313625   2.842   3.462   0.824 -1.0373 -0.4390  0.2766
  931MPD2     N13626   2.800   3.620   1.255  0.5309 -0.3964 -0.1657
  931MPD2    H513627   2.834   3.528   1.280  0.3895 -0.9214 -1.9039
  931MPD2    N113628   2.681   3.875   0.853  0.1584  0.8141  0.0318
  931MPD2    H713629   2.680   3.872   0.752 -2.0694 -1.1538  0.1326
  932MPD2     C13630   4.627   3.397  11.458  0.3083 -0.7906  0.1895
  932MPD2    C113631   0.032   3.448  11.435  0.4066  0.4899  0.0776
  932MPD2    C213632   0.139   3.360  11.472  0.8518 -0.4614 -0.2629
  932MPD2    C313633   0.123   3.243  11.541 -0.7975 -0.0943  0.5119
  932MPD2    C413634   4.722   3.198  11.557  0.4896  0.3441 -0.0792
  932MPD2    C513635   4.616   3.278  11.523  0.2500 -0.7274 -0.2586
  932MPD2     H13636   0.242   3.393  11.462 -0.0219  1.8126 -1.7902
  932MPD2    H113637   4.699   3.103  11.604  2.3647  0.1919  0.4947
  932MPD2    H213638   4.540   3.461  11.448 -0.3089 -1.8467 -1.2206
  932MPD2    H313639   4.517   3.241  11.548  0.0259  0.4444  0.5916
  932MPD2     N13640   0.234   3.164  11.580  0.1071 -1.1058  0.5555
  932MPD2    H513641   0.207   3.074  11.619 -1.1103 -2.0733 -2.5304
  932MPD2    N113642   0.061   3.576  11.386  0.5556 -0.1292 -1.0701
  932MPD2    H713643   0.158   3.606  11.378 -0.5467  3.3658 -1.4092
  933MPD2     C13644   0.480   3.893   2.197 -0.4791 -0.4113 -0.1934
  933MPD2    C113645   0.457   3.810   2.093  0.3933  0.4087  0.9626
  933MPD2    C213646   0.324   3.806   2.035  0.4790 -0.5640  0.1301
  933MPD2    C313647   0.229   3.896   2.077  0.3631  0.3065  0.2338
  933MPD2    C413648   0.262   3.983   2.183  0.3702 -0.1964 -0.4675
  933MPD2    C513649   0.384   3.981   2.238  0.4888 -0.0876 -0.2704
  933MPD2     H13650   0.290   3.734   1.961 -0.4427 -0.9002  0.8834
  933MPD2    H113651   0.193   4.059   2.219 -0.5634  0.2218 -3.1157
  933MPD2    H213652   0.579   3.913   2.235 -1.0206  2.8647 -0.4839
  933MPD2    H313653   0.410   4.059   2.310 -2.2543 -1.2158  1.9258
  933MPD2     N13654   0.102   3.892   2.020 -0.0364 -0.5384  0.3776
  933MPD2    H513655   0.079   3.811   1.963 -0.5760 -0.9004  1.1057
  933MPD2    N113656   0.563   3.729   2.039 -0.6136 -0.4695 -0.1548
  933MPD2    H713657   0.655   3.735   2.084 -0.1537 -0.6194 -1.0801
  934MPD2     C13658   1.395   4.714   2.503  0.8568 -0.2843  0.2693
  934MPD2    C113659   1.509   4.658   2.449 -0.1297 -0.0995 -0.7023
  934MPD2    C213660   1.505   4.604   2.317 -0.5642  0.0257  0.1639
  934MPD2    C313661   1.384   4.605   2.253  0.7060 -0.0219  0.0216
  934MPD2    C413662   1.276   4.671   2.310  0.6149  0.1120 -0.5224
  934MPD2    C513663   1.281   0.001   2.437  0.3569 -0.6256  0.1510
  934MPD2     H13664   1.595   4.559   2.277 -0.1819  1.6257 -0.7615
  934MPD2    H113665   1.188   4.691   2.250 -0.1548 -0.2070  0.4875
  934MPD2    H213666   1.397   0.034   2.603 -1.7118  0.6664 -0.0989
  934MPD2    H313667   1.202   0.060   2.482  2.5365  1.3837  1.3263
  934MPD2     N13668   1.365   4.552   2.121  0.2106  0.6092  0.0840
  934MPD2    H513669   1.268   4.567   2.094  0.2020  0.5929  0.1057
  934MPD2    N113670   1.633   4.659   2.520  0.5529  0.4382 -0.0216
  934MPD2    H713671   1.713   4.617   2.475  1.8074  1.4952  1.2147
  935MPD2     C13672   1.882   3.926   1.489 -0.8317 -0.0182 -0.1700
  935MPD2    C113673   1.748   3.932   1.438 -0.0062  1.0630  0.2787
  935MPD2    C213674   1.672   4.027   1.496  0.8737  0.1675 -0.0905
  935MPD2    C313675   1.714   4.113   1.602  0.8835  0.0384  0.0227
  935MPD2    C413676   1.843   4.102   1.644  0.1004 -1.0573 -0.3323
  935MPD2    C513677   1.922   4.003   1.594  0.5808 -0.3858  0.0875
  935MPD2     H13678   1.573   4.032   1.451  1.5697 -1.6626 -1.8197
  935MPD2    H113679   1.882   4.175   1.714  0.2671  0.3197 -1.8710
  935MPD2    H213680   1.944   3.843   1.456 -1.3081 -0.6767  0.5868
  935MPD2    H313681   2.019   3.981   1.638 -0.4664 -2.6341  1.2881
  935MPD2     N13682   1.626   4.203   1.669  0.3756 -0.0897  0.2882
  935MPD2    H513683   1.670   4.259   1.743 -0.7111 -0.1222  0.9582
  935MPD2    N113684   1.704   3.846   1.341  0.2474 -0.1377  0.8638
  935MPD2    H713685   1.608   3.858   1.310  0.4507 -0.7486 -0.0139
  936MPD2     C13686   0.175   2.632  12.925 -0.4685  0.3520  0.5516
  936MPD2    C113687   0.228   2.508  12.959  0.1519 -0.6293 -0.2932
  936MPD2    C213688   0.333   2.459  12.884  0.5066 -0.6842 -0.6457
  936MPD2    C313689   0.399   2.529  12.782 -0.5192  0.3192 -0.3723
  936MPD2    C413690   0.337   2.651  12.748 -0.2714  0.0626 -0.0020
  936MPD2    C513691   0.225   2.696  12.815  0.0328  0.4715 -0.5456
  936MPD2     H13692   0.360   2.358  12.911  0.1272 -0.7785 -0.6147
  936MPD2    H113693   0.386   2.711  12.673 -1.4988  1.3282  0.2035
  936MPD2    H213694   0.096   2.681  12.980 -1.0138  0.8463 -0.6629
  936MPD2    H313695   0.199   2.793  12.774  0.4296  0.4508 -0.8462
  936MPD2     N13696   0.515   2.482  12.715 -0.1231  0.7901  0.8522
  936MPD2    H513697   0.543   2.535  12.633  0.8760 -0.9180  0.0948
  936MPD2    N113698   0.164   2.428  13.057  0.4608 -0.5199  0.0619
  936MPD2    H713699   0.185   2.330  13.077  0.6373 -0.1371  1.7305
  937MPD2     C13700   2.802   3.564  11.472  0.9675  0.5807 -0.5651
  937MPD2    C113701   2.886   3.665  11.518  0.7997  0.7570 -0.2477
  937MPD2    C213702   2.957   3.737  11.421  0.0367  0.2501  0.6788
  937MPD2    C313703   2.962   3.692  11.285  0.2369  0.6608  0.4142
  937MPD2    C413704   2.887   3.584  11.247 -0.7782  0.6032 -0.0446
  937MPD2    C513705   2.805   3.524  11.341 -0.1077  0.9123  0.0346
  937MPD2     H13706   3.006   3.831  11.444  1.7652 -0.0129 -2.0086
  937MPD2    H113707   2.887   3.536  11.149  0.6226 -0.7442  0.6147
  937MPD2    H213708   2.735   3.516  11.543 -0.2711  0.5324 -1.7609
  937MPD2    H313709   2.747   3.438  11.311 -0.5428  0.6425  1.6367
  937MPD2     N13710   3.046   3.770  11.199 -0.0401  0.1662 -0.9899
  937MPD2    H513711   3.083   3.859  11.231  2.1431 -1.3139  0.5694
  937MPD2    N113712   2.868   3.725  11.642 -0.6465 -0.1507 -0.3157
  937MPD2    H713713   2.919   3.812  11.655 -1.3435  0.3848 -1.1557
  938MPD2     C13714   0.331   3.918   1.469  0.2957  0.7907 -0.2690
  938MPD2    C113715   0.369   4.053   1.470 -0.7219 -0.0208  0.0425
  938MPD2    C213716   0.342   4.139   1.575 -0.0291  0.3472  0.5375
  938MPD2    C313717   0.279   4.090   1.693 -0.4299  0.2347  0.9744
  938MPD2    C413718   0.243   3.957   1.696  0.7490  0.2340  0.6710
  938MPD2    C513719   0.278   3.875   1.590  0.3742  0.4930 -0.2373
  938MPD2     H13720   0.379   4.241   1.573 -0.1676  0.3916  0.3183
  938MPD2    H113721   0.188   3.914   1.779 -0.5540  1.6862  0.5686
  938MPD2    H213722   0.353   3.853   1.385  0.5279  0.6436 -0.0943
  938MPD2    H313723   0.256   3.770   1.602 -1.7365  0.7866 -1.3633
  938MPD2     N13724   0.265   4.164   1.814 -0.4114 -0.5103 -0.4505
  938MPD2    H513725   0.225   4.122   1.897 -2.1861  0.2469 -0.9332
  938MPD2    N113726   0.450   4.106   1.365 -0.0202  0.1224  0.8047
  938MPD2    H713727   0.486   4.199   1.382 -1.4077  0.2561  3.1815
  939MPD2     C13728   1.585   0.367   1.565 -0.4444  0.4259 -0.2722
  939MPD2    C113729   1.521   0.463   1.485  0.0675  0.5013  0.2858
  939MPD2    C213730   1.562   0.480   1.356  0.1429 -0.1478  0.1347
  939MPD2    C313731   1.656   0.398   1.295  0.1809  0.8363  0.5116
  939MPD2    C413732   1.721   0.308   1.374 -0.7453 -0.4846  0.1072
  939MPD2    C513733   1.685   0.288   1.500 -0.6325 -0.5108 -0.2905
  939MPD2     H13734   1.512   0.549   1.289 -0.5835  0.3579  1.2072
  939MPD2    H113735   1.807   0.253   1.338  0.2689  1.3416 -0.2673
  939MPD2    H213736   1.567   0.359   1.672  0.2612 -0.3114 -0.2031
  939MPD2    H313737   1.728   0.207   1.558 -1.9870 -1.5905 -0.7683
  939MPD2     N13738   1.693   0.421   1.163 -0.2734  0.0261 -0.6030
  939MPD2    H513739   1.663   0.511   1.125  1.3459  0.3696 -1.0663
  939MPD2    N113740   1.426   0.546   1.549 -0.3360  0.1094 -0.1009
  939MPD2    H713741   1.380   0.520   1.636 -0.6035  2.1206  0.3592
  940MPD2     C13742   0.347   1.800  13.349 -0.2741 -0.1405  0.2865
  940MPD2    C113743   0.462   1.797  13.426 -0.0215  0.1374 -0.4914
  940MPD2    C213744   0.586   1.802  13.361 -0.2472  0.2989  0.5684
  940MPD2    C313745   0.594   1.804  13.227 -0.0717 -0.0355  0.3770
  940MPD2    C413746   0.478   1.818  13.152  0.3520 -0.1586  0.4170
  940MPD2    C513747   0.357   1.816  13.213 -0.0004 -0.4220  0.5223
  940MPD2     H13748   0.673   1.811  13.424 -0.6977  0.9160  1.0986
  940MPD2    H113749   0.471   1.840  13.046 -1.4742 -2.5075  0.0680
  940MPD2    H213750   0.247   1.806  13.390  1.1176 -0.1780  3.7103
  940MPD2    H313751   0.271   1.823  13.147  1.5740 -2.1377 -1.7142
  940MPD2     N13752   0.712   1.801  13.156 -0.0973  0.0735  0.0334
  940MPD2    H513753   0.708   1.810  13.055  0.6313  0.0501  0.0063
  940MPD2    N113754   0.470   1.795  13.569  0.0770 -0.1334 -0.3970
  940MPD2    H713755   0.560   1.788  13.615 -0.7068 -1.1198  0.9783
  941MPD2     C13756   0.212   1.645  10.523 -0.2717  0.5595  0.2704
  941MPD2    C113757   0.203   1.526  10.459 -0.5827 -0.4337  0.8066
  941MPD2    C213758   0.192   1.411  10.531 -0.3281  0.4982  0.7920
  941MPD2    C313759   0.195   1.415  10.669  0.1755 -0.6991  1.1387
  941MPD2    C413760   0.184   1.538  10.733  0.1521  0.5097 -0.2357
  941MPD2    C513761   0.191   1.651  10.656  1.1317  0.0847  0.1655
  941MPD2     H13762   0.180   1.319  10.475 -1.1559  1.6702 -0.9399
  941MPD2    H113763   0.159   1.557  10.837  0.2699 -3.8161  0.5875
  941MPD2    H213764   0.210   1.741  10.473 -2.8206  0.5984  0.4017
  941MPD2    H313765   0.191   1.746  10.709 -0.6955  0.7647 -1.0874
  941MPD2     N13766   0.195   1.295  10.743  0.0518  0.0783  0.4840
  941MPD2    H513767   0.179   1.297  10.843  2.6931 -1.6459  0.9437
  941MPD2    N113768   0.208   1.510  10.316  0.3880 -0.3678  0.3578
  941MPD2    H713769   0.229   1.418  10.280 -0.9814 -0.1524 -0.9928
  942MPD2     C13770   4.123   2.708  10.134 -0.1786 -0.3523  0.6880
  942MPD2    C113771   4.046   2.783  10.044 -0.2218  0.2381 -0.4056
  942MPD2    C213772   4.104   2.850   9.936 -0.4959  0.4883 -0.0848
  942MPD2    C313773   4.245   2.853   9.921 -0.3679 -0.1329 -0.2636
  942MPD2    C413774   4.317   2.770  10.004  0.1423  0.5754 -0.3276
  942MPD2    C513775   4.261   2.705  10.111  0.3838  0.6834 -0.0861
  942MPD2     H13776   4.047   2.906   9.863  0.5678  0.3333 -1.0341
  942MPD2    H113777   4.425   2.760  10.009  0.0542 -0.3624 -0.3406
  942MPD2    H213778   4.093   2.648  10.220 -0.2795  0.4172  1.1886
  942MPD2    H313779   4.328   2.650  10.176 -2.0061 -1.7334  0.3345
  942MPD2     N13780   4.308   2.936   9.821  0.2573  0.3605 -0.0307
  942MPD2    H513781   4.251   3.007   9.776 -1.3485 -0.3245  0.9200
  942MPD2    N113782   3.907   2.799  10.064  0.0734 -0.3098 -0.1310
  942MPD2    H713783   3.866   2.857   9.992  2.3752  0.7815 -0.5429
  943MPD2     C13784   2.940   1.688   9.259  0.4008 -0.2785  0.6811
  943MPD2    C113785   2.967   1.641   9.385 -0.5855 -0.5529  0.4074
  943MPD2    C213786   3.053   1.707   9.470 -0.0951 -0.4335 -0.3098
  943MPD2    C313787   3.106   1.827   9.434  0.1759 -0.0155 -0.1727
  943MPD2    C413788   3.067   1.883   9.315 -0.3349  0.5971 -0.3419
  943MPD2    C513789   2.996   1.813   9.221  0.5414  0.2820  0.5785
  943MPD2     H13790   3.057   1.673   9.572 -4.2926  0.3876  0.1154
  943MPD2    H113791   3.102   1.983   9.291  2.4042 -0.3821 -0.4471
  943MPD2    H213792   2.877   1.645   9.182  0.6343 -0.5985  0.6707
  943MPD2    H313793   2.979   1.862   9.126 -0.1399 -1.7972 -0.3772
  943MPD2     N13794   3.191   1.907   9.512  0.0856  0.2695 -0.1852
  943MPD2    H513795   3.215   1.999   9.478  0.5055  0.5537  0.8882
  943MPD2    N113796   2.902   1.518   9.424  0.1376 -0.4827 -0.1028
  943MPD2    H713797   2.843   1.488   9.347  0.1674  0.7287 -0.6018
  944MPD2     C13798   3.848   4.568  11.420 -0.4422  0.8389  0.0497
  944MPD2    C113799   3.737   4.597  11.341 -0.2642 -0.1928 -1.1214
  944MPD2    C213800   3.616   4.580  11.407  0.1991  0.1192 -0.0707
  944MPD2    C313801   3.599   4.546  11.546  0.3515  0.5532  0.1418
  944MPD2    C413802   3.708   4.521  11.620 -0.8604 -0.3260  0.3742
  944MPD2    C513803   3.830   4.529  11.552  0.0635 -0.2166  0.0722
  944MPD2     H13804   3.527   4.613  11.354 -1.4446 -0.8417  2.0680
  944MPD2    H113805   3.705   4.501  11.727 -2.3070  1.5740  0.6852
  944MPD2    H213806   3.950   4.569  11.385 -0.7497 -0.5470 -0.8853
  944MPD2    H313807   3.923   4.520  11.606 -0.3998  2.7364  1.3489
  944MPD2     N13808   3.472   4.569  11.599 -0.3086  0.0147 -0.1781
  944MPD2    H513809   3.406   4.608  11.533 -0.6407  0.9482  0.7117
  944MPD2    N113810   3.757   4.631  11.206  0.0542  0.4903  0.4533
  944MPD2    H713811   3.852   4.645  11.173 -0.2784  3.2152  0.6181
    1TCq1    O113812   2.001   0.665  13.913  0.1553 -0.1773 -0.4531
    1TCq1    C113813   1.991   0.619  14.038 -0.1373  0.0326 -0.0178
    1TCq1    O213814   2.060   0.539  14.102 -0.5443 -0.2866  0.3889
    1TCq1    C213815   1.881   0.693  14.094 -0.8724  0.6456  0.0758
    1TCq1    C313816   1.782   0.740  14.016 -0.5914 -0.1208  0.0934
    1TCq1    C413817   1.698   0.843  14.060  0.4545  0.7994 -0.1341
    1TCq1    C513818   1.716   0.899  14.188 -0.6441 -0.0921  0.4238
    1TCq1    C613819   1.824   0.847  14.257  0.0621 -0.0302 -0.0145
    1TCq1    C713820   1.905   0.744  14.219  0.2030 -0.7545  0.4901
    1TCq1    C813821   1.880   0.922  14.371  0.3954  0.1080  0.0179
    1TCq1    O413822   1.932   0.855  14.463  0.5335 -0.3841  0.7462
    1TCq1    C913823   1.573   0.878  13.987  0.3736  0.0749  0.3582
    1TCq1    O513824   1.555   0.819  13.877  0.9815 -0.4380  0.6013
    1TCq1    O613825   1.525   0.990  14.007  0.3034 -0.1434  0.2552
    1TCq1    H113826   1.947   0.742  13.887 -1.6168 -1.4477 -0.5632
    1TCq1    H213827   1.769   0.715  13.911  0.0350 -2.6400  0.5953
    1TCq1    H313828   1.645   0.973  14.224 -0.8500  0.0723 -0.3184
    1TCq1    H413829   1.998   0.728  14.272  0.8464 -0.3783 -0.5328
    2MPD2     C13830   1.966   1.359  14.606 -0.5353  0.0056 -0.7908
    2MPD2    C113831   1.939   1.383  14.469 -0.3036 -0.7234  0.3731
    2MPD2    C213832   1.895   1.285  14.393  0.0394 -0.4592  0.4341
    2MPD2    C313833   1.899   1.155  14.439  0.7009 -0.5401 -0.4056
    2MPD2    C413834   1.938   1.128  14.568 -0.3204 -0.6610  0.1183
    2MPD2    C513835   1.965   1.231  14.652 -0.1066  0.0879 -0.9080
    2MPD2     H13836   1.856   1.301  14.293 -1.5974 -0.5910  1.0629
    2MPD2    H113837   1.940   1.027  14.606 -0.8762  0.1458  2.2515
    2MPD2    H213838   1.986   1.446  14.667  0.8135  0.1378 -1.4333
    2MPD2    H313839   1.986   1.210  14.756  0.8299  0.1675 -1.0859
    2MPD2     N13840   1.870   1.057  14.349  0.0494  0.4381  0.1501
    2MPD2    H513841   1.834   1.091  14.261  0.3165 -2.0886 -0.9512
    2MPD2    N113842   1.942   1.515  14.420 -0.9503  0.3156 -0.4077
    2MPD2    H713843   1.972   1.589  14.483 -0.6266  1.3100 -1.7395
    3TMC2    C113844   1.874   1.707  14.308 -0.5596  0.2472  0.4312
    3TMC2    C213845   1.854   1.760  14.434  0.7047 -0.1881 -0.0338
    3TMC2    C313846   1.887   1.896  14.440  0.0127  0.6700 -0.9598
    3TMC2    C413847   1.907   1.770  14.190  0.0781 -0.4990 -0.0273
    3TMC2    C513848   1.936   1.902  14.214 -0.2785 -0.2299 -0.3925
    3TMC2    C613849   1.925   1.968  14.333 -0.4693  0.4144 -0.1426
    3TMC2     C13850   1.882   1.564  14.305 -0.4751  0.0561  0.0482
    3TMC2     O13851   1.857   1.511  14.198 -0.6176  0.6426 -0.0475
    3TMC2     H13852   1.811   1.707  14.518  0.3687 -1.2673 -0.8780
    3TMC2    H113853   1.935   1.713  14.102  1.0336 -1.2434  0.7635
    3TMC2    H213854   1.947   2.073  14.348 -0.7850  0.7306 -1.8893
    3TMC2    C713855   2.003   1.978  14.116 -0.3664  0.4162 -0.2550
    3TMC2    C813856   1.894   1.965  14.569  0.2968 -0.2391  0.3258
    3TMC2    O113857   2.060   2.081  14.155  0.1344  0.5784 -0.4790
    3TMC2    O213858   1.848   2.078  14.586  0.4944  0.1850  0.3365
    3TMC2    O513859   1.933   1.876  14.657 -0.3790 -0.0557  0.0794
    3TMC2    H513860   1.958   1.786  14.627  1.9018  1.9402 -3.9176
    4MPD2     C13861   1.118   2.560  13.462  0.0128 -0.5643  0.4647
    4MPD2    C113862   1.106   2.518  13.329 -0.0313  0.1226 -0.2750
    4MPD2    C213863   1.215   2.465  13.268 -0.0743 -0.4727  0.0058
    4MPD2    C313864   1.332   2.450  13.338 -0.1660  0.2489  0.5225
    4MPD2    C413865   1.345   2.499  13.464  0.3599 -0.0902 -0.4905
    4MPD2    C513866   1.234   2.558  13.520 -0.1224 -0.3577  0.5310
    4MPD2     H13867   1.208   2.422  13.168  0.5739 -0.4194 -0.0600
    4MPD2    H113868   1.426   2.478  13.533  1.1264  1.8575 -0.7830
    4MPD2    H213869   1.034   2.607  13.511  0.7721 -1.7900  2.9190
    4MPD2    H313870   1.237   2.599  13.621 -0.1616  0.7083  0.0990
    4MPD2     N13871   1.435   2.370  13.280  0.5272  0.5542  0.5405
    4MPD2    H513872   1.414   2.314  13.198 -1.1251  0.0832  1.2854
    4MPD2    N113873   0.979   2.537  13.272  0.4477  0.0278  0.0112
    4MPD2    H713874   0.899   2.557  13.330 -1.7408 -0.2170 -2.9058
    5TCq2    C113875   1.555   2.342  13.342 -0.2725  0.3937 -0.1328
    5TCq2    O213876   1.617   2.422  13.406 -0.5277  0.4604  1.2489
    5TCq2    C213877   1.620   2.227  13.278  0.2396 -0.1164 -0.2466
    5TCq2    C313878   1.543   2.147  13.199  0.6410 -0.6132 -1.1653
    5TCq2    C413879   1.538   2.009  13.211  0.1805  0.0189  0.3877
    5TCq2    C513880   1.632   1.944  13.281  0.3012 -0.1933 -0.1806
    5TCq2    C613881   1.700   2.023  13.366 -0.0300 -0.0060 -0.4504
    5TCq2    C713882   1.698   2.161  13.371 -0.2144 -0.6875 -0.6460
    5TCq2    C813883   1.774   1.955  13.479 -0.1065 -0.0647  0.4901
    5TCq2    O413884   1.725   1.862  13.545 -0.2323  0.0055  0.0528
    5TCq2    C913885   1.448   1.937  13.118  0.2407  0.1613 -0.3587
    5TCq2    O513886   1.426   1.814  13.147  0.6681 -1.1180  0.0357
    5TCq2    O613887   1.362   2.012  13.060  0.0586 -0.2231  0.0067
    5TCq2    H213888   1.491   2.190  13.114  0.2932  2.6727  0.6928
    5TCq2    H313889   1.627   1.836  13.290 -1.6212 -0.0417  0.6429
    5TCq2    H413890   1.756   2.218  13.442 -1.5254  0.6031 -0.5977
    6MPD1     C13891   4.666   3.606  13.679 -0.1397 -0.3812  1.0487
    6MPD1    C113892   0.027   3.629  13.788 -0.7608  0.7113 -0.5325
    6MPD1    C213893   0.143   3.551  13.785  0.7758  0.2585 -0.2982
    6MPD1    C313894   0.177   3.464  13.683  0.3349  0.5828  0.0878
    6MPD1    C413895   0.091   3.453  13.577  0.0585 -0.2235 -0.5894
    6MPD1    C513896   4.694   3.518  13.575  0.1702  0.0012 -0.6070
    6MPD1     H13897   0.211   3.565  13.868  0.7844  1.7998 -0.5739
    6MPD1    H113898   0.124   3.388  13.496 -0.9374 -3.0239  1.2805
    6MPD1    H213899   4.568   3.652  13.673 -0.0612 -0.3268  0.1499
    6MPD1    H313900   4.630   3.500  13.490  1.5463 -0.6331 -1.5102
    6MPD1     N13901   0.300   3.397  13.671  0.9595  0.0682 -0.5499
    6MPD1    H513902   0.318   3.344  13.586 -2.3278  0.9533 -1.8314
    6MPD1    N113903   0.001   3.716  13.896  0.7086 -0.5034  0.4074
    6MPD1    H613904   4.668   3.798  13.873  1.7612  0.5021  1.4141
    6MPD1    H713905   0.089   3.757  13.926  0.5173 -0.4530  0.8885
    7MPD2     C13906   0.289   2.906  13.497 -0.4060  0.1096 -0.5048
    7MPD2    C113907   0.397   2.824  13.540 -0.1782  0.5701  0.1707
    7MPD2    C213908   0.436   2.723  13.463  0.5314 -0.3412  0.1069
    7MPD2    C313909   0.375   2.701  13.341  0.0219  0.3317 -0.4583
    7MPD2    C413910   0.277   2.784  13.301  0.5208  0.2570 -0.2589
    7MPD2    C513911   0.227   2.883  13.378 -0.9253 -0.4567  0.1893
    7MPD2     H13912   0.513   2.655  13.497  0.8680 -1.2404 -2.4323
    7MPD2    H113913   0.220   2.762  13.211  1.5811  2.3786 -1.4474
    7MPD2    H213914   0.239   2.978  13.561  0.5567  1.3077 -1.1072
    7MPD2    H313915   0.137   2.929  13.339  0.6270  3.5451  1.3577
    7MPD2     N13916   0.414   2.621  13.241  0.5131  0.2099  0.0311
    7MPD2    H513917   0.370   2.639  13.152 -0.3279 -0.6581  0.2672
    7MPD2    N113918   0.471   2.858  13.659  0.4857  0.0748  0.1177
    7MPD2    H713919   0.570   2.835  13.657  0.4387 -0.0518 -0.5320
    8TMC3    C113920   0.601   2.561  13.148 -0.1127  0.5262  0.0058
    8TMC3    C213921   0.732   2.517  13.161  0.5726 -0.5057 -0.1997
    8TMC3    C313922   0.833   2.577  13.087  0.1576  0.1760 -0.4726
    8TMC3    C413923   0.575   2.659  13.056 -0.1420 -0.5636  0.5856
    8TMC3    C513924   0.678   2.724  12.992  0.4537 -0.2414  0.3290
    8TMC3    C613925   0.808   2.684  13.006  0.3865 -0.4411 -0.2638
    8TMC3     C13926   0.514   2.537  13.259 -0.0725 -0.7903  0.4536
    8TMC3     O13927   0.551   2.478  13.357 -0.0340  0.4624  0.3229
    8TMC3     H13928   0.762   2.437  13.227 -0.3986 -2.8204 -2.5788
    8TMC3    H113929   0.479   2.695  13.021 -0.9103 -1.9868  1.2224
    8TMC3    H213930   0.886   2.742  12.957  1.4375 -1.4660  0.2225
    8TMC3    C713931   0.653   2.818  12.880  0.0868  0.2630 -0.1833
    8TMC3    C813932   0.966   2.549  13.134  0.0748  0.2171 -0.2609
    8TMC3    O113933   0.729   2.784  12.789 -0.3947 -0.4023 -0.4297
    8TMC3    O213934   1.053   2.560  13.049 -0.2114 -0.3618 -0.2659
    9TMC3    C113935   0.501   3.296  13.716  0.6217  0.6810  0.6139
    9TMC3    C213936   0.526   3.308  13.585 -0.2087  0.2896  0.2220
    9TMC3    C313937   0.577   3.206  13.518 -0.1688  0.4581  0.2616
    9TMC3    C413938   0.533   3.181  13.796 -0.4824  0.2025 -0.1469
    9TMC3    C513939   0.562   3.068  13.720  0.0590  0.1655 -0.3653
    9TMC3    C613940   0.598   3.086  13.589 -0.3516 -0.0194  0.0579
    9TMC3     C13941   0.393   3.383  13.768  0.1705  0.8240  0.1898
    9TMC3     O13942   0.396   3.432  13.881 -0.0572  0.0597  0.4337
    9TMC3     H13943   0.512   3.404  13.538 -0.2866  0.0343 -0.2757
    9TMC3    H113944   0.491   3.175  13.896 -0.4361 -0.7911 -0.1896
    9TMC3    H213945   0.634   2.995  13.541 -2.3233 -0.6768 -0.1568
    9TMC3    C713946   0.447   2.975  13.734  0.8420 -0.4116  0.3694
    9TMC3    C813947   0.489   3.181  13.408  1.1720  0.1835 -0.0339
    9TMC3    O113948   0.336   3.006  13.774 -0.1220 -0.6458  0.1363
    9TMC3    O213949   0.390   3.248  13.409  0.0198  0.1436 -0.2703
   10MPD2     C13950   0.358   3.013  12.939  0.2260 -0.2266 -0.2668
   10MPD2    C113951   0.484   2.968  12.967 -0.6981  0.2302  0.0114
   10MPD2    C213952   0.518   2.976  13.103 -0.4131  0.2373  1.2666
   10MPD2    C313953   0.462   3.064  13.188 -0.0163 -0.5666  0.0370
   10MPD2    C413954   0.338   3.113  13.153 -0.4758 -0.5342  0.5849
   10MPD2    C513955   0.281   3.079  13.031 -0.2448 -1.1614 -0.1451
   10MPD2     H13956   0.614   2.941  13.138  0.2467 -0.6338 -1.4280
   10MPD2    H113957   0.285   3.185  13.214 -2.5830 -1.3948 -0.2415
   10MPD2    H213958   0.312   3.000  12.841 -1.7624  1.6617  0.4233
   10MPD2    H313959   0.181   3.106  13.000  0.4303 -0.5978 -1.8410
   10MPD2     N13960   0.529   3.094  13.314 -0.4593 -0.3734 -0.0629
   10MPD2    H513961   0.619   3.048  13.323  1.0263  2.5359  0.0087
   10MPD2    N113962   0.539   2.891  12.867  0.4230 -0.1324  0.4542
   10MPD2    H713963   0.515   2.918  12.772 -1.4609  0.1382  1.0155
   11MPD2     C13964   2.113   2.080  13.860 -0.4555  0.2829 -0.1665
   11MPD2    C113965   2.004   1.995  13.862  0.1314 -0.2997 -0.1821
   11MPD2    C213966   1.934   1.966  13.743  0.0482 -0.0648  0.3057
   11MPD2    C313967   1.960   2.031  13.623  0.2303  0.4011  0.1379
   11MPD2    C413968   2.070   2.111  13.621 -0.4817 -0.1287  0.0655
   11MPD2    C513969   2.149   2.120  13.734  0.7716 -0.0912  0.3739
   11MPD2     H13970   1.854   1.893  13.750  0.3185 -0.4971 -1.0711
   11MPD2    H113971   2.104   2.168  13.535 -1.7652  0.9813  0.2910
   11MPD2    H213972   2.169   2.105  13.950  0.8724 -1.6899 -0.4486
   11MPD2    H313973   2.240   2.178  13.721  0.1593  0.3668 -1.8762
   11MPD2     N13974   1.885   2.030  13.503  0.2665  0.0062  0.0434
   11MPD2    H513975   1.910   2.088  13.424  1.3682 -2.1731 -1.2256
   11MPD2    N113976   1.959   1.940  13.986  0.3188 -0.6680  0.1674
   11MPD2    H713977   1.884   1.871  13.981  1.0113 -1.3658 -0.4912
    1MPD1     C13978   3.291   3.059  17.363 -0.0718 -0.1939  0.6531
    1MPD1    C113979   3.346   3.134  17.467  0.1706 -0.1985  0.0568
    1MPD1    C213980   3.447   3.226  17.443  0.7525 -0.0810 -0.1811
    1MPD1    C313981   3.503   3.228  17.313  0.2352 -0.2873 -0.4334
    1MPD1    C413982   3.449   3.152  17.214  0.9193  0.4665 -0.0215
    1MPD1    C513983   3.344   3.072  17.239  0.5478 -0.1824 -0.0245
    1MPD1     H13984   3.481   3.298  17.516  2.0188 -1.4236  0.5408
    1MPD1    H113985   3.478   3.157  17.110  0.4760 -0.0424 -0.1651
    1MPD1    H213986   3.212   2.985  17.372 -0.7434  0.3462 -0.8731
    1MPD1    H313987   3.303   3.020  17.153 -0.5544  0.3358  0.1801
    1MPD1     N13988   3.590   3.328  17.271  0.1433 -0.0510  0.1637
    1MPD1    H513989   3.618   3.322  17.174  2.2370  0.4900  0.7439
    1MPD1    N113990   3.302   3.128  17.597 -0.7583 -0.5584  0.2067
    1MPD1    H613991   3.361   3.170  17.668 -0.7178 -1.3652  0.6538
    1MPD1    H713992   3.260   3.040  17.625  2.0871 -1.9531  0.0958
    2MPD1     C13993   4.210   4.226  17.445 -0.7748  0.5909  0.8389
    2MPD1    C113994   4.136   4.231  17.330 -0.6261  0.0316  0.3155
    2MPD1    C213995   4.079   4.114  17.289 -0.0987 -0.3532 -0.0010
    2MPD1    C313996   4.077   4.007  17.378 -0.2295  0.4517  0.1446
    2MPD1    C413997   4.144   4.011  17.498  0.1737  0.2915  0.5473
    2MPD1    C513998   4.213   4.120  17.531 -0.3800 -0.8212 -0.7429
    2MPD1     H13999   4.018   4.103  17.200  2.2404  1.0108 -1.7814
    2MPD1    H114000   4.139   3.928  17.567  4.1192 -0.7546 -0.4564
    2MPD1    H214001   4.274   4.310  17.471  1.4714 -0.7010 -0.4796
    2MPD1    H314002   4.274   4.123  17.620  0.5085  1.1327 -1.4095
    2MPD1     N14003   4.006   3.886  17.334 -0.5740 -0.2206 -0.1531
    2MPD1    H514004   3.934   3.899  17.264  0.4470  0.9373 -0.9698
    2MPD1    N114005   4.161   4.326  17.231 -0.3899 -0.4082 -0.6019
    2MPD1    H614006   4.079   4.326  17.171 -0.7863 -1.4047 -0.0710
    2MPD1    H714007   4.180   4.419  17.267  0.1528 -1.6655  2.4114
    3TMC3    C114008   3.918   3.670  17.311 -0.2626 -0.5008  0.2557
    3TMC3    C214009   3.924   3.686  17.169 -0.4635  0.2177  0.4431
    3TMC3    C314010   3.844   3.603  17.095  0.3932 -0.6266  0.1992
    3TMC3    C414011   3.837   3.579  17.365 -0.2742  0.0674  0.3863
    3TMC3    C514012   3.755   3.498  17.283 -0.4535 -0.0680  0.0426
    3TMC3    C614013   3.750   3.518  17.148 -0.1224 -0.1915  0.0483
    3TMC3     C14014   4.004   3.761  17.391 -0.5904 -0.2546 -0.6090
    3TMC3     O14015   4.045   3.717  17.496  0.3710 -0.2538 -0.5417
    3TMC3     H14016   4.005   3.742  17.122 -1.7524  0.2877 -1.6740
    3TMC3    H114017   3.831   3.573  17.473  2.8819  1.7800  0.6574
    3TMC3    H214018   3.683   3.466  17.081 -1.2577  0.4377  0.6922
    3TMC3    C714019   3.665   3.405  17.348 -0.4016  0.4553 -0.1480
    3TMC3    C814020   3.854   3.611  16.951 -1.1233  0.0644 -0.4035
    3TMC3    O114021   3.676   3.393  17.471 -0.1331 -0.1007 -0.5757
    3TMC3    O214022   3.757   3.580  16.883 -0.4818  0.4404 -0.3817
    4MPD1     C14023   4.113   3.707  16.520  0.5904 -0.4278 -0.3786
    4MPD1    C114024   4.199   3.694  16.625  0.0143 -0.4201 -0.3553
    4MPD1    C214025   4.151   3.661  16.752  0.5277 -0.0695 -0.4907
    4MPD1    C314026   4.019   3.642  16.777  0.1240 -0.1689 -0.5688
    4MPD1    C414027   3.929   3.662  16.674  0.3276 -0.0099 -0.1218
    4MPD1    C514028   3.975   3.688  16.545 -1.3369  0.1225 -0.0108
    4MPD1     H14029   4.223   3.645  16.831  1.3083  0.1014 -1.1674
    4MPD1    H114030   3.822   3.660  16.685  0.3472  0.1045  0.1065
    4MPD1    H214031   4.151   3.739  16.424  0.7527  1.6300  0.3840
    4MPD1    H314032   3.910   3.720  16.464 -0.1798  0.2063 -0.9001
    4MPD1     N14033   3.984   3.627  16.913  0.0725  0.5408 -0.2532
    4MPD1    H514034   4.059   3.630  16.982 -0.8664 -1.8128  0.8742
    4MPD1    N114035   4.338   3.725  16.613 -0.2959  0.5433 -0.3845
    4MPD1    H614036   4.392   3.689  16.692 -1.7231  1.3597  0.9752
    4MPD1    H714037   4.373   3.678  16.530  1.7748  1.9031 -0.2942
    1TCq1    O114038   0.418   4.216  11.771  0.2343 -0.0912  0.4769
    1TCq1    C114039   0.502   4.187  11.876 -0.0401  0.2637  0.7100
    1TCq1    O214040   0.495   4.231  11.988  0.6319  0.9167  0.3807
    1TCq1    C214041   0.567   4.063  11.843 -0.6956  0.9864 -0.8187
    1TCq1    C314042   0.564   3.957  11.932  0.3588  0.0628 -0.5249
    1TCq1    C414043   0.577   3.834  11.881 -0.1532  0.3583  0.1666
    1TCq1    C514044   0.623   3.814  11.752 -0.3333  0.1183  0.4972
    1TCq1    C614045   0.657   3.924  11.671 -0.3635 -0.0849  0.8287
    1TCq1    C714046   0.603   4.042  11.712 -0.4209  0.0821 -0.2045
    1TCq1    C814047   0.635   3.903  11.529 -1.0503 -0.0123 -1.1764
    1TCq1    O414048   0.663   3.997  11.454  0.2390  0.2532 -0.0436
    1TCq1    C914049   0.595   3.730  11.969  0.0561 -0.1499  0.2181
    1TCq1    O514050   0.562   3.745  12.088 -0.1405 -0.1461 -0.4007
    1TCq1    O614051   0.665   3.632  11.935 -0.0574 -0.3274  0.3072
    1TCq1    H114052   0.403   4.149  11.701 -1.5244  2.0750 -1.2358
    1TCq1    H214053   0.539   3.964  12.037 -0.5464  0.5660 -0.7752
    1TCq1    H314054   0.666   3.717  11.732 -0.2780  0.5673 -1.5978
    1TCq1    H414055   0.620   4.134  11.657  4.2620 -0.0890  1.0150
    2MPD1     C14056   0.486   3.618  11.132  0.5139 -0.3694  0.4698
    2MPD1    C114057   0.438   3.561  11.242 -1.0663 -0.3517 -0.1589
    2MPD1    C214058   0.461   3.614  11.369 -0.5045 -0.0018 -0.2565
    2MPD1    C314059   0.533   3.733  11.379  0.1456 -0.0914  0.4162
    2MPD1    C414060   0.586   3.783  11.262  0.0259 -0.0999 -0.0800
    2MPD1    C514061   0.561   3.727  11.141 -0.3688  0.1321 -0.1557
    2MPD1     H14062   0.429   3.568  11.462 -0.0908  1.2945  0.5278
    2MPD1    H114063   0.649   3.871  11.268 -0.0818  0.0580 -1.3313
    2MPD1    H214064   0.466   3.576  11.033  1.9270 -1.4167  0.6270
    2MPD1    H314065   0.606   3.778  11.056  0.0425 -0.2410 -0.1618
    2MPD1     N14066   0.565   3.790  11.505 -0.2325 -0.1996  0.5129
    2MPD1    H514067   0.533   3.735  11.584  0.7570 -0.1633  0.9483
    2MPD1    N114068   0.359   3.440  11.238 -0.1417 -0.0775  0.1255
    2MPD1    H614069   0.388   3.408  11.146  1.8213  0.3771  0.5874
    2MPD1    H714070   0.400   3.383  11.312  0.8577 -0.1516 -0.4888
    1TCq1    O114071   3.085   3.834   0.739 -0.3069 -0.0427  0.1908
    1TCq1    C114072   2.978   3.902   0.693  0.0238  0.3047 -0.2794
    1TCq1    O214073   2.923   3.880   0.586 -0.4341 -0.1395 -0.1914
    1TCq1    C214074   3.006   4.036   0.744  0.4192 -0.2435  0.2102
    1TCq1    C314075   3.012   4.058   0.882  0.5871  0.1090 -0.0901
    1TCq1    C414076   3.059   4.183   0.929  0.2976  0.2138 -0.3340
    1TCq1    C514077   3.083   4.280   0.834 -0.3302 -0.5833 -0.6233
    1TCq1    C614078   3.057   4.258   0.700  0.5173 -0.9468  0.0464
    1TCq1    C714079   3.022   4.130   0.653 -0.3823  0.2963  0.8648
    1TCq1    C814080   3.068   4.367   0.611  0.7030 -0.0085  0.0211
    1TCq1    O414081   3.044   4.345   0.491 -0.2461 -0.3232 -0.2779
    1TCq1    C914082   3.128   4.182   1.050 -0.5159 -0.2094 -0.7217
    1TCq1    O514083   3.164   4.302   1.095 -0.4021  0.3869 -0.2151
    1TCq1    O614084   3.163   4.073   1.095 -0.1136  0.3649  0.4054
    1TCq1    H114085   3.122   3.873   0.821  1.1147  0.9340 -0.9253
    1TCq1    H214086   3.017   3.977   0.954  0.4624  0.2977  0.1334
    1TCq1    H314087   3.149   4.362   0.862  0.8466 -2.3125  1.7210
    1TCq1    H414088   3.005   4.118   0.546  0.6107 -2.3933  0.9953
    2MPD1     C14089   3.063   0.142   0.509  0.1717 -0.5012  0.0349
    2MPD1    C114090   3.045   0.130   0.647 -0.0821  0.2568 -0.2488
    2MPD1    C214091   3.059   4.723   0.698  1.3118 -0.0051  0.1762
    2MPD1    C314092   3.054   4.610   0.618  0.7933 -0.2033 -0.3385
    2MPD1    C414093   3.055   4.632   0.478 -0.1350  0.1606  0.9581
    2MPD1    C514094   3.052   0.035   0.430  0.1304  0.1810 -0.3097
    2MPD1     H14095   3.063   4.706   0.805 -2.4204  0.4073  0.3672
    2MPD1    H114096   3.054   4.561   0.397 -2.1505  0.2257  0.9320
    2MPD1    H214097   3.057   0.235   0.454  0.4503 -0.2755  0.3913
    2MPD1    H314098   3.057   0.052   0.323  1.2106 -1.4653 -0.5265
    2MPD1     N14099   3.058   4.486   0.680 -0.8031  0.2757  0.2776
    2MPD1    H514100   3.054   4.485   0.781 -1.5649 -1.5448  0.2272
    2MPD1    N114101   3.049   0.246   0.721  0.1725 -0.0371 -0.0051
    2MPD1    H614102   2.976   0.239   0.791  0.4155  0.9804  0.3445
    2MPD1    H714103   3.024   0.320   0.655 -0.8615  0.0957  0.5432
    1MPD1     C14104   1.781   3.253  12.457  0.3962 -0.1117  0.3245
    1MPD1    C114105   1.902   3.226  12.391  0.3817  0.5681 -0.2808
    1MPD1    C214106   1.937   3.315  12.290 -0.1935 -0.2497  0.7530
    1MPD1    C314107   1.875   3.434  12.278  0.5375 -0.3498 -0.1824
    1MPD1    C414108   1.773   3.467  12.364  0.1821  0.0061 -0.6829
    1MPD1    C514109   1.713   3.373  12.439  0.6853  0.2208 -0.1507
    1MPD1     H14110   2.022   3.291  12.227 -0.7030  0.2675 -0.1263
    1MPD1    H114111   1.717   3.558  12.346 -1.4699 -0.2625  2.9690
    1MPD1    H214112   1.739   3.187  12.532  0.4552  1.6435  1.9005
    1MPD1    H314113   1.627   3.393  12.501  0.7248 -1.8834  0.5737
    1MPD1     N14114   1.926   3.512  12.175  0.5687  0.2926  0.4426
    1MPD1    H514115   1.995   3.464  12.117 -0.6426  2.1873 -2.5727
    1MPD1    N114116   1.971   3.098  12.421  0.0438  0.6228 -0.1733
    1MPD1    H614117   2.070   3.122  12.415  0.6662 -1.7978  0.3792
    1MPD1    H714118   1.952   3.051  12.509 -0.8696 -1.5031 -1.5091
    2MPD1     C14119   1.248   3.439  11.350 -0.2452 -0.0451  0.2728
    2MPD1    C114120   1.248   3.352  11.245  0.0498 -0.2736  0.1142
    2MPD1    C214121   1.354   3.353  11.155 -0.5376  0.4842  0.5122
    2MPD1    C314122   1.456   3.448  11.164 -0.3944 -0.4401 -0.8183
    2MPD1    C414123   1.450   3.539  11.268  0.4921  0.3019  0.6697
    2MPD1    C514124   1.350   3.527  11.368 -1.0405  0.6372  0.6358
    2MPD1     H14125   1.357   3.271  11.085 -0.3597  1.1731 -0.2868
    2MPD1    H114126   1.524   3.619  11.268  1.6290 -0.7567  2.0478
    2MPD1    H214127   1.185   3.432  11.437  2.1079 -1.7286  1.8437
    2MPD1    H314128   1.344   3.592  11.455  1.3504  1.9912 -0.2420
    2MPD1     N14129   1.561   3.454  11.068  0.3261  0.3666  0.0615
    2MPD1    H514130   1.604   3.545  11.061  1.4607 -0.0509  1.6722
    2MPD1    N114131   1.153   3.250  11.240 -0.3781  0.0066  0.7336
    2MPD1    H614132   1.064   3.265  11.287 -1.6999  2.2532 -2.4799
    2MPD1    H714133   1.140   3.216  11.146  1.3345 -0.0279  0.4954
    3MPD1     C14134   1.376   3.285  10.143 -0.2058 -0.6670  0.3334
    3MPD1    C114135   1.311   3.326  10.254 -0.4888  0.0672  0.0840
    3MPD1    C214136   1.384   3.350  10.371 -0.1943 -0.4037  0.5236
    3MPD1    C314137   1.519   3.338  10.365 -0.6254  0.3550 -0.0267
    3MPD1    C414138   1.584   3.286  10.247  0.7552 -0.4599  0.5988
    3MPD1    C514139   1.515   3.271  10.132 -0.2273 -0.1907  0.2806
    3MPD1     H14140   1.331   3.382  10.460 -1.1419  0.0801 -0.2091
    3MPD1    H114141   1.692   3.282  10.251  0.8119 -0.4093 -0.7940
    3MPD1    H214142   1.330   3.275  10.045 -2.3168  2.2925  1.0248
    3MPD1    H314143   1.558   3.222  10.046  2.7703  2.5350  0.2107
    3MPD1     N14144   1.587   3.359  10.483  0.1010 -0.3194 -0.2623
    3MPD1    H514145   1.528   3.384  10.562 -0.2350  0.2609 -0.6983
    3MPD1    N114146   1.171   3.325  10.263  0.1616  0.3040  0.4652
    3MPD1    H614147   1.137   3.357  10.172 -1.3270 -1.6046  0.3505
    3MPD1    H714148   1.139   3.395  10.329 -0.4486 -0.2649  0.7642
    4MPD2     C14149   1.884   4.018  11.486 -0.4091 -0.4504 -0.4247
    4MPD2    C114150   1.999   4.044  11.565 -0.0927 -0.1942  0.3071
    4MPD2    C214151   2.115   4.106  11.521  0.0737  0.0007  0.2368
    4MPD2    C314152   2.123   4.138  11.387  0.7043  0.0897 -0.3525
    4MPD2    C414153   2.012   4.115  11.302  0.4498 -0.0779 -0.0155
    4MPD2    C514154   1.900   4.069  11.359  0.1909  0.9002  0.2631
    4MPD2     H14155   2.193   4.122  11.595 -1.0426 -1.3000  1.6948
    4MPD2    H114156   1.997   4.139  11.198 -1.3548  0.8318  0.4616
    4MPD2    H214157   1.794   3.967  11.521 -0.1861 -0.3128  0.3518
    4MPD2    H314158   1.818   4.053  11.290  2.4282 -2.2926 -1.7207
    4MPD2     N14159   2.237   4.194  11.325 -0.4984 -0.4022  0.4122
    4MPD2    H514160   2.244   4.167  11.228  2.1713 -2.6960  1.2446
    4MPD2    N114161   2.012   4.001  11.697  0.3563 -0.5083  0.8435
    4MPD2    H714162   2.073   4.048  11.764  1.3501 -0.3305 -0.1755
    5TMC3    C114163   1.974   3.869  11.878  1.0244  0.5225 -0.2958
    5TMC3    C214164   1.885   3.780  11.938 -0.0539 -0.6218  0.5762
    5TMC3    C314165   1.950   3.688  12.026 -0.2963 -0.1865 -0.4550
    5TMC3    C414166   2.111   3.853  11.886  0.3869  0.5019 -0.4889
    5TMC3    C514167   2.161   3.757  11.974 -0.2645 -0.2330 -0.4117
    5TMC3    C614168   2.084   3.686  12.052  0.0595 -0.2792  0.0494
    5TMC3     C14169   1.921   3.910  11.754 -0.8120 -0.2544 -0.1435
    5TMC3     O14170   1.820   3.854  11.712  0.7180 -0.4589 -0.2601
    5TMC3     H14171   1.779   3.783  11.915 -0.1789 -0.1203  1.2235
    5TMC3    H114172   2.186   3.904  11.826  2.8703 -0.3890  1.8630
    5TMC3    H214173   2.123   3.609  12.118 -0.4514 -1.6783 -1.2699
    5TMC3    C714174   2.292   3.709  11.936 -0.2990 -0.5244 -0.1412
    5TMC3    C814175   1.865   3.622  12.122 -0.3300 -0.2509  0.3497
    5TMC3    O114176   2.367   3.803  11.909  0.7701  0.0309 -0.0995
    5TMC3    O214177   1.751   3.659  12.136  0.4446 -0.0584 -0.2642
    6TMC3    C114178   1.667   3.413  10.863 -0.4618 -0.5631  0.0711
    6TMC3    C214179   1.658   3.349  10.744 -0.1574 -0.4213  0.0388
    6TMC3    C314180   1.744   3.392  10.644  0.0470  0.1454  0.1202
    6TMC3    C414181   1.770   3.496  10.899  0.3526  0.1112  0.1905
    6TMC3    C514182   1.855   3.531  10.797  0.3954 -0.1600 -0.4646
    6TMC3    C614183   1.834   3.490  10.671  0.4401 -0.2681  0.0744
    6TMC3     C14184   1.596   3.355  10.980 -0.1085 -0.3322 -0.2871
    6TMC3     O14185   1.576   3.237  10.986  0.0892  0.2308 -0.6942
    6TMC3     H14186   1.591   3.264  10.732 -0.0177 -0.5310  0.0432
    6TMC3    H114187   1.786   3.513  11.005  0.1364  0.3710  0.1808
    6TMC3    H214188   1.887   3.536  10.588 -1.9419 -0.4298 -1.5474
    6TMC3    C714189   1.967   3.626  10.826  0.2957  0.1961  0.2778
    6TMC3    C814190   1.718   3.360  10.504  0.3001  1.0074  0.8299
    6TMC3    O114191   1.978   3.657  10.944 -0.5364  0.0148  0.1191
    6TMC3    O214192   1.807   3.366  10.419 -0.1082  0.2016 -0.4215
    7MPD2     C14193   2.436   3.464  11.495 -0.0566 -0.2422  0.3435
    7MPD2    C114194   2.459   3.594  11.533 -0.3486  0.5678 -0.0942
    7MPD2    C214195   2.409   3.638  11.658 -0.3254  0.3611  0.0688
    7MPD2    C314196   2.351   3.547  11.754  0.8041  0.4045 -1.3013
    7MPD2    C414197   2.333   3.415  11.715  0.0386  0.0940 -0.0144
    7MPD2    C514198   2.363   3.383  11.581  0.2375 -0.7400 -0.1374
    7MPD2     H14199   2.410   3.745  11.674  0.4544  0.3516  0.0717
    7MPD2    H114200   2.273   3.344  11.770 -2.7208  2.5537  0.1423
    7MPD2    H214201   2.477   3.432  11.399  0.7612  1.0109  0.2703
    7MPD2    H314202   2.352   3.284  11.540 -2.0364  0.4153 -2.2783
    7MPD2     N14203   2.285   3.588  11.878 -0.0213  0.6505 -0.0797
    7MPD2    H514204   2.233   3.519  11.930  2.1442  0.4542  1.8499
    7MPD2    N114205   2.517   3.684  11.436  0.2536  0.0371  0.3437
    7MPD2    H714206   2.496   3.647  11.344  1.4328  3.1761 -1.2030
    8TMC3    C114207   2.547   3.916  11.357  0.0211  0.3350  0.0277
    8TMC3    C214208   2.517   3.884  11.228 -0.5800  0.2891 -0.2289
    8TMC3    C314209   2.456   3.982  11.150 -0.2530 -0.3040 -0.1197
    8TMC3    C414210   2.524   4.042  11.403  0.5507  0.7230 -0.1098
    8TMC3    C514211   2.455   4.132  11.320 -0.1723 -0.4422 -0.4324
    8TMC3    C614212   2.418   4.100  11.198  0.5213  0.4141 -0.2855
    8TMC3     C14213   2.553   3.816  11.461 -0.0467 -0.5842 -0.4436
    8TMC3     O14214   2.572   3.874  11.570  1.0047 -0.5955 -0.1034
    8TMC3     H14215   2.509   3.779  11.202 -2.9666  1.0013 -2.4180
    8TMC3    H114216   2.549   4.076  11.503  0.2346  1.0215 -0.1335
    8TMC3    H214217   2.370   4.170  11.130  0.0586  0.6198  0.2519
    8TMC3    C714218   2.351   4.198  11.399 -0.8451  0.8523  0.6322
    8TMC3    C814219   2.369   3.937  11.043 -0.0834  0.2342  0.3412
    8TMC3    O114220   2.367   4.231  11.514  0.5153  0.6176  0.0694
    8TMC3    O214221   2.253   3.976  11.044  0.6453  0.4102  0.1934
    9MPD2     C14222   2.446   3.777  10.737  0.4499  0.2177  0.1401
    9MPD2    C114223   2.365   3.804  10.843 -0.0175  0.4536  0.5739
    9MPD2    C214224   2.230   3.767  10.838  0.6402  0.5411  0.2692
    9MPD2    C314225   2.179   3.698  10.733 -0.3820  1.1150  0.0820
    9MPD2    C414226   2.261   3.677  10.627 -0.4717  0.3037 -0.3331
    9MPD2    C514227   2.390   3.716  10.627 -0.0606 -0.6947 -0.1202
    9MPD2     H14228   2.159   3.792  10.917 -0.2686  3.6564 -1.5011
    9MPD2    H114229   2.222   3.629  10.538  0.4806  1.6970 -1.4874
    9MPD2    H214230   2.545   3.820  10.738  1.0306 -1.1246  0.7518
    9MPD2    H314231   2.447   3.693  10.538 -0.0348  0.7926 -0.4857
    9MPD2     N14232   2.047   3.653  10.720  0.8575  0.2404 -0.2745
    9MPD2    H514233   2.018   3.609  10.633  1.2192 -1.1336  0.2909
    9MPD2    N114234   2.433   3.863  10.947 -0.1331  0.4601 -0.1563
    9MPD2    H714235   2.534   3.852  10.944  0.0908  2.3600  0.2732
    1MPD1     C14236   1.206   1.386  17.256 -0.1839  0.3687 -0.0806
    1MPD1    C114237   1.287   1.436  17.163  0.3750  0.0838 -0.1951
    1MPD1    C214238   1.409   1.375  17.133 -0.4922  0.0341 -0.7885
    1MPD1    C314239   1.454   1.263  17.208  0.4091  0.4034  0.4407
    1MPD1    C414240   1.371   1.217  17.306  0.1144 -0.2657 -0.0849
    1MPD1    C514241   1.247   1.277  17.330  0.0418 -1.5348 -0.7238
    1MPD1     H14242   1.474   1.428  17.065  1.7713  1.0977  2.1837
    1MPD1    H114243   1.394   1.128  17.364  3.5318  0.4368 -0.3791
    1MPD1    H214244   1.102   1.412  17.270 -0.6495 -1.2877 -0.4681
    1MPD1    H314245   1.180   1.228  17.400  1.4501  0.3965  1.9483
    1MPD1     N14246   1.580   1.204  17.193  0.1728  0.2468  0.1265
    1MPD1    H514247   1.595   1.135  17.266 -0.0558 -0.6965 -0.7260
    1MPD1    N114248   1.246   1.543  17.088  0.5433  0.7176  0.2530
    1MPD1    H614249   1.182   1.607  17.136  0.5400  2.3056 -1.8657
    1MPD1    H714250   1.319   1.595  17.040  1.5538 -0.9223  0.0454
    2MPD1     C14251   2.589   1.069  16.823 -0.5666  0.6301  1.1107
    2MPD1    C114252   2.494   1.148  16.772 -0.5694 -0.0867  0.5669
    2MPD1    C214253   2.374   1.136  16.826 -0.3069  1.3806 -0.1080
    2MPD1    C314254   2.353   1.051  16.928  0.2383  0.0431 -0.7910
    2MPD1    C414255   2.454   0.977  16.984 -0.7279  0.3589  0.6652
    2MPD1    C514256   2.574   0.977  16.924  0.5079 -0.4468  0.4172
    2MPD1     H14257   2.297   1.203  16.789  0.0552  1.7501 -0.1879
    2MPD1    H114258   2.434   0.902  17.060  0.7679  2.0488  2.7168
    2MPD1    H214259   2.684   1.071  16.771 -1.0751 -0.3268  0.1551
    2MPD1    H314260   2.656   0.916  16.960  1.1746 -1.2111 -2.4237
    2MPD1     N14261   2.224   1.031  16.985  0.1148 -0.2873  0.9581
    2MPD1    H514262   2.207   0.949  17.042 -0.5044  0.4081  1.7747
    2MPD1    N114263   2.520   1.224  16.663  0.2343  0.4052  0.3654
    2MPD1    H614264   2.614   1.260  16.667  1.3535 -2.4729  0.0836
    2MPD1    H714265   2.451   1.295  16.639 -1.6347 -0.2622  3.7675
    3TCq2    C114266   2.126   1.128  16.973  0.9787 -0.5211  0.3334
    3TCq2    O214267   2.140   1.252  16.956  0.2639 -0.0129  0.2911
    3TCq2    C214268   1.995   1.082  17.010  0.3100 -0.2613  0.2511
    3TCq2    C314269   1.970   0.945  17.036 -0.2319  0.1668 -0.3345
    3TCq2    C414270   1.843   0.911  17.067 -0.0541  0.0327  0.3854
    3TCq2    C514271   1.744   1.001  17.095  0.2877 -0.1736  0.9534
    3TCq2    C614272   1.775   1.134  17.079  1.0241  0.3518 -0.9912
    3TCq2    C714273   1.899   1.174  17.029 -0.4222 -0.4799  0.4324
    3TCq2    C814274   1.674   1.240  17.101 -0.0569 -0.9608  0.7553
    3TCq2    O414275   1.694   1.351  17.044 -0.0368  0.3690 -0.0838
    3TCq2    C914276   1.806   0.769  17.079  0.3359 -0.5467  0.2327
    3TCq2    O514277   1.687   0.744  17.119  0.5268 -0.0282  0.8133
    3TCq2    O614278   1.885   0.676  17.050 -0.0207  0.0248  0.0718
    3TCq2    H214279   2.045   0.868  17.024 -2.0735 -1.1182 -3.6617
    3TCq2    H314280   1.644   0.971  17.124  0.0382 -1.0796 -0.8124
    3TCq2    H414281   1.916   1.278  17.003  1.7878 -0.3141  2.5227
    1TCq1    O114282   3.830   0.876  12.723  0.5551  0.8123  0.2139
    1TCq1    C114283   3.953   0.900  12.672  0.1388 -0.2638  0.5311
    1TCq1    O214284   4.056   0.847  12.701 -0.5750  0.2044 -1.1773
    1TCq1    C214285   3.948   1.045  12.642 -0.1310  0.2072  0.4859
    1TCq1    C314286   3.848   1.104  12.571  0.6153  0.0201  0.0194
    1TCq1    C414287   3.863   1.239  12.537 -0.3688  0.5032  0.1278
    1TCq1    C514288   3.976   1.306  12.573 -0.2462 -0.3871  0.7439
    1TCq1    C614289   4.077   1.244  12.643  0.2766  0.1682  0.1924
    1TCq1    C714290   4.063   1.110  12.676  0.1147 -0.2950  0.2025
    1TCq1    C814291   4.197   1.326  12.678 -0.2768 -0.4647 -0.5533
    1TCq1    O414292   4.201   1.433  12.612  0.6603 -0.1544  0.2287
    1TCq1    C914293   3.759   1.309  12.471 -0.5671 -0.5077 -0.1878
    1TCq1    O514294   3.647   1.257  12.444  0.0225 -0.2603  0.9755
    1TCq1    O614295   3.784   1.420  12.419  0.1823  0.1957 -0.6994
    1TCq1    H114296   3.760   0.943  12.714  0.4038  0.7082  0.5834
    1TCq1    H214297   3.757   1.050  12.545  0.0165  0.5002  1.1414
    1TCq1    H314298   3.994   1.409  12.543  2.2503 -0.0581  3.3445
    1TCq1    H414299   4.132   1.074  12.752  1.4259 -0.6091 -1.1269
    2MPD2     C14300   4.475   1.429  12.717  0.2955  0.2267  0.6002
    2MPD2    C114301   4.435   1.309  12.769 -0.1827  0.6507 -0.1353
    2MPD2    C214302   4.521   1.236  12.854  0.3841  0.0578  0.4408
    2MPD2    C314303   4.654   1.270  12.872 -0.0614  0.1230  0.7626
    2MPD2    C414304   4.697   1.388  12.812  0.1324  0.2050  0.0391
    2MPD2    C514305   4.609   1.462  12.738  1.0672  0.2524  0.5586
    2MPD2     H14306   4.486   1.142  12.895 -0.5028 -1.1028 -2.9753
    2MPD2    H114307   0.071   1.434  12.829  0.4806 -1.1091  1.6589
    2MPD2    H214308   4.426   1.494  12.645 -0.4777 -0.9403  0.0783
    2MPD2    H314309   4.641   1.551  12.684  5.7617 -0.1917  2.6033
    2MPD2     N14310   0.006   1.198  12.964  0.4047  0.2652  0.5404
    2MPD2    H514311   4.686   1.139  13.035  1.9358  0.8426  1.9780
    2MPD2    N114312   4.303   1.268  12.756 -0.2790 -0.5918  0.6943
    2MPD2    H714313   4.282   1.175  12.791  2.2356 -0.1443  3.4589
    3TCq1    O114314   0.165   1.184  13.569 -0.2439 -0.3114  0.1855
    3TCq1    C114315   0.112   1.223  13.447  0.3295 -0.8734  0.4997
    3TCq1    O214316   0.011   1.292  13.427 -0.4885 -0.0971  0.0117
    3TCq1    C214317   0.170   1.147  13.344 -0.4368  0.3701  0.0527
    3TCq1    C314318   0.301   1.103  13.355  0.2427  0.6666  0.2855
    3TCq1    C414319   0.375   1.089  13.237  0.0739  0.0162  0.1350
    3TCq1    C514320   0.326   1.122  13.114 -0.3308  0.1384  0.0279
    3TCq1    C614321   0.193   1.160  13.107 -0.3868 -0.5637 -0.5567
    3TCq1    C714322   0.116   1.173  13.218 -0.5815  0.6199  0.2619
    3TCq1    C814323   0.146   1.202  12.980 -0.3872 -0.4525  0.1522
    3TCq1    O414324   0.234   1.247  12.903  0.1686 -0.4027 -0.0689
    3TCq1    C914325   0.509   1.041  13.240  0.3325 -0.5168  0.3595
    3TCq1    O514326   0.561   1.021  13.352 -0.2548 -0.1146 -0.7081
    3TCq1    O614327   0.556   0.993  13.133 -0.4058  0.2756  0.4619
    3TCq1    H114328   0.247   1.131  13.569 -0.3153 -0.4160 -0.4415
    3TCq1    H214329   0.349   1.066  13.444 -0.0122  1.4627  0.7569
    3TCq1    H314330   0.389   1.098  13.029 -1.5790  0.1258 -0.8857
    3TCq1    H414331   0.011   1.199  13.216 -1.3286 -2.6654 -1.5553
    1MPD2     C14332   3.866   1.878  14.615  0.0740 -0.1920  0.6972
    1MPD2    C114333   3.760   1.882  14.523  0.7302  0.0995  0.1246
    1MPD2    C214334   3.787   1.854  14.394  0.1897  0.2224  0.0487
    1MPD2    C314335   3.908   1.813  14.344 -0.2562  0.5317  0.3845
    1MPD2    C414336   4.012   1.796  14.432  0.0905  0.5788 -0.2577
    1MPD2    C514337   3.988   1.825  14.567 -0.0457 -0.3347 -0.5812
    1MPD2     H14338   3.704   1.848  14.325 -0.4093  3.1339  0.4961
    1MPD2    H114339   4.107   1.748  14.414 -0.3689 -0.3079 -0.3252
    1MPD2    H214340   3.852   1.900  14.720  0.5705  0.7193  0.5710
    1MPD2    H314341   4.069   1.828  14.640 -0.6209  0.7004  0.0300
    1MPD2     N14342   3.917   1.781  14.207  0.3662 -0.0611 -0.1775
    1MPD2    H514343   3.832   1.798  14.155  0.3094 -0.7790 -0.3189
    1MPD2    N114344   3.629   1.900  14.576 -0.3919  0.5106  0.0543
    1MPD2    H714345   3.623   1.923  14.675  3.2060 -0.9259  0.5939
    2TMC3    C114346   3.404   1.956  14.559  0.4406  0.3021 -0.2672
    2TMC3    C214347   3.291   1.891  14.509 -0.6549  0.6826  0.1571
    2TMC3    C314348   3.189   1.972  14.460  0.3750  0.0810  0.1590
    2TMC3    C414349   3.414   2.091  14.581 -0.9813  0.3023  0.0069
    2TMC3    C514350   3.307   2.163  14.540  0.2831 -0.1665 -0.3170
    2TMC3    C614351   3.200   2.111  14.468  0.1141  0.1162  1.0562
    2TMC3     C14352   3.518   1.892  14.505  0.7786 -0.3002 -0.3816
    2TMC3     O14353   3.489   1.823  14.411  0.2387  0.3863  0.1787
    2TMC3     H14354   3.284   1.783  14.513 -1.4178  0.7767  1.3298
    2TMC3    H114355   3.511   2.136  14.601 -0.6374 -0.3123 -0.2746
    2TMC3    H214356   3.124   2.175  14.423  0.7340  0.2213  0.1715
    2TMC3    C714357   3.317   2.310  14.559  0.0117 -0.5796 -0.1490
    2TMC3    C814358   3.142   1.938  14.327  0.0621 -0.3521 -0.1413
    2TMC3    O114359   3.269   2.387  14.477  0.1663  0.4021 -0.1738
    2TMC3    O214360   3.040   1.989  14.280  0.2771 -0.2650  0.3142
    3TCq1    O114361   3.246   2.584  15.578  0.5356 -0.2116 -0.2069
    3TCq1    C114362   3.301   2.558  15.453 -0.0458  0.2273  0.2659
    3TCq1    O214363   3.277   2.457  15.381 -0.0375 -0.1299  0.2009
    3TCq1    C214364   3.405   2.653  15.413 -0.3965  0.7558 -0.3394
    3TCq1    C314365   3.487   2.721  15.502 -0.5941  0.6564 -1.0170
    3TCq1    C414366   3.585   2.805  15.450  0.0888 -0.2504  0.4679
    3TCq1    C514367   3.596   2.823  15.313 -0.1053  0.2236 -0.1870
    3TCq1    C614368   3.512   2.751  15.229 -0.1385 -1.2534  0.2274
    3TCq1    C714369   3.408   2.667  15.278  0.5004 -0.2343  0.0305
    3TCq1    C814370   3.532   2.752  15.089 -1.0505  0.2091 -0.4753
    3TCq1    O414371   3.573   2.860  15.042  0.4584  0.3779 -0.2272
    3TCq1    C914372   3.696   2.857  15.539 -0.4383  0.2301  0.7771
    3TCq1    O514373   3.677   2.871  15.662  0.1122 -0.8124  0.5259
    3TCq1    O614374   3.799   2.906  15.486 -0.0014  0.6808  0.0888
    3TCq1    H114375   3.271   2.672  15.613 -0.3009 -0.1730  0.2695
    3TCq1    H214376   3.484   2.686  15.605 -0.2187  0.2464 -1.1485
    3TCq1    H314377   3.679   2.880  15.272  0.2382  0.7959  1.3215
    3TCq1    H414378   3.345   2.609  15.212  2.5922 -0.7631 -1.4989
    4MPD2     C14379   3.449   2.734  14.811  0.1384 -0.1650 -0.2158
    4MPD2    C114380   3.471   2.622  14.888  0.4011 -0.4815  0.5054
    4MPD2    C214381   3.448   2.495  14.839 -0.2106  0.0940  0.0317
    4MPD2    C314382   3.406   2.475  14.713 -0.4713  0.4866  0.3046
    4MPD2    C414383   3.372   2.584  14.632 -0.0095 -0.7764 -0.1301
    4MPD2    C514384   3.403   2.708  14.683 -0.3294 -0.2053  0.6126
    4MPD2     H14385   3.449   2.408  14.904 -1.4524 -0.4263 -0.6636
    4MPD2    H114386   3.328   2.591  14.533  0.4996  2.3651 -0.1373
    4MPD2    H214387   3.455   2.837  14.845  1.2179  0.1050 -1.2336
    4MPD2    H314388   3.389   2.795  14.619  0.1298 -0.2781  0.4149
    4MPD2     N14389   3.385   2.334  14.673 -0.1064  0.4664  0.4313
    4MPD2    H514390   3.429   2.260  14.728  0.5131  2.3294  2.4344
    4MPD2    N114391   3.506   2.624  15.025  0.2083 -0.4820 -0.4622
    4MPD2    H714392   3.499   2.539  15.079  3.2582  0.0930  0.8648
    5TMC2    C114393   3.768   1.700  13.908 -0.0712  0.7464 -0.1364
    5TMC2    C214394   3.769   1.568  13.880 -0.0761 -0.1455 -0.1533
    5TMC2    C314395   3.887   1.502  13.915  0.3563 -0.9204  0.4422
    5TMC2    C414396   3.880   1.771  13.956  0.0382 -0.0291  0.5999
    5TMC2    C514397   3.987   1.693  13.996  0.2697  0.1483 -0.1316
    5TMC2    C614398   3.996   1.559  13.967 -0.4736 -0.5473 -0.0009
    5TMC2     C14399   3.652   1.753  13.970 -0.5946  0.0365  0.1490
    5TMC2     O14400   3.667   1.807  14.079  0.8976  0.1017  0.0290
    5TMC2     H14401   3.681   1.521  13.838 -2.1816  0.2009  3.8701
    5TMC2    H114402   3.877   1.875  13.987 -1.6141  0.2535 -0.5092
    5TMC2    H214403   4.069   1.503  14.024 -0.4619  0.3838  0.8861
    5TMC2    C714404   4.026   1.725  14.134 -0.1427 -0.5654  0.1446
    5TMC2    C814405   3.888   1.361  13.891 -0.3191  0.3914 -0.4957
    5TMC2    O114406   4.117   1.664  14.185  0.4968  0.6024 -0.0919
    5TMC2    O214407   3.941   1.316  13.789 -1.5115  0.1091  0.4843
    5TMC2    O514408   3.776   1.304  13.942  0.1781  0.8684  0.0241
    5TMC2    H514409   3.755   1.347  14.028  1.6776 -1.3208  1.4605
    6MPD2     C14410   3.154   1.832  14.031 -0.6277 -0.8942  0.5209
    6MPD2    C114411   3.255   1.828  14.131 -0.0192 -0.0808  0.2570
    6MPD2    C214412   3.383   1.779  14.098 -0.9038  0.1507  0.2184
    6MPD2    C314413   3.407   1.744  13.967  0.5337 -0.6238  0.5029
    6MPD2    C414414   3.306   1.749  13.874  0.2599  0.7428  0.4771
    6MPD2    C514415   3.183   1.792  13.905 -0.0066  0.0707  0.1286
    6MPD2     H14416   3.461   1.788  14.172 -0.8955  0.1284  0.2122
    6MPD2    H114417   3.331   1.731  13.770 -1.2884  0.0342  0.2244
    6MPD2    H214418   3.060   1.877  14.058  0.5479  2.3818 -0.8447
    6MPD2    H314419   3.118   1.816  13.822  0.1313  0.8576  0.2455
    6MPD2     N14420   3.533   1.718  13.914  0.1263  0.1875  0.4402
    6MPD2    H514421   3.536   1.682  13.819  1.0616  0.0473  0.5215
    6MPD2    N114422   3.246   1.871  14.262  0.4463 -0.1441 -0.6499
    6MPD2    H714423   3.327   1.865  14.323  0.4889  0.6617 -0.6265
  945NH3     N114424   0.178   0.488  11.219 -0.2824  0.9041 -0.3751
  945NH3     H214425   0.265   0.540  11.218  1.8246 -2.6577 -1.3962
  945NH3     H314426   0.193   0.430  11.137 -0.1962  1.0413 -0.4577
  945NH3     H414427   0.190   0.426  11.298 -1.0854 -1.2859 -1.9888
  946SOD     NA14428   3.685   0.367  14.454 -0.1263  0.3151  0.3911
  947SOD     NA14429   2.265   4.248  15.435 -0.1943 -0.3782 -0.0153
  948SOD     NA14430   3.087   1.428  16.232 -0.3994  0.1753 -0.2020
  949SOD     NA14431   0.145   1.581  11.374 -0.1573 -0.2971 -0.6474
  950SOD     NA14432   1.734   4.381   1.407 -0.2136 -0.4903 -0.1427
  951SOD     NA14433   0.904   4.431  16.912 -0.3417  0.3934 -0.0716
  952SOD     NA14434   1.038   0.569   2.645 -0.4570 -0.0671 -0.1514
  953SOD     NA14435   3.173   0.540  11.438 -0.5867 -0.0878 -0.0258
  954SOD     NA14436   4.363   3.649  11.300 -0.6771  0.6444 -0.1440
  955SOD     NA14437   1.428   0.891  13.427  0.2259 -0.0159  0.2540
  956SOD     NA14438   1.291   0.012   4.740 -0.9655  0.0593 -0.2276
  957SOD     NA14439   0.199   2.177   2.072  0.0641 -0.2136 -0.6573
  958SOD     NA14440   4.264   0.025  10.843 -0.2958  0.0558  0.2667
  959SOD     NA14441   1.360   1.215  13.455  0.4117 -0.1435  0.4334
  960SOD     NA14442   1.462   0.994  13.765  0.3506 -0.1463 -0.3093
  961SOD     NA14443   0.002   1.086  11.366  0.3800 -0.1074 -0.1901
  962SOD     NA14444   2.574   3.994   1.397 -0.1187  0.5560 -0.3883
  963SOD     NA14445   1.850   2.769  17.637 -0.0538  0.2490  0.1965
  964SOD     NA14446   1.008   1.406  11.633 -1.0686  0.0749 -0.1760
  965SOD     NA14447   3.317   1.570   7.639 -0.2245 -0.2025  0.0676
  966SOD     NA14448   3.919   2.607  14.487  0.5243  0.6327 -0.3404
  967SOD     NA14449   2.079   1.545   5.990 -0.1643 -0.3505  0.3968
  968SOD     NA14450   0.950   0.696  12.840  0.1132  0.1235 -0.4550
  969SOD     NA14451   0.748   3.609  12.157  0.4450  0.1060 -0.2744
  970SOD     NA14452   3.594   1.454  12.337  0.1585  0.5531  0.2341
  971SOD     NA14453   0.836   4.605  14.971 -0.0716 -0.4058  0.1505
  972SOD     NA14454   3.834   3.108  15.532  0.4126  0.2674  0.1466
  973SOD     NA14455   2.266   1.213  12.863  0.2217  0.0026 -0.3804
  974SOD     NA14456   1.841   2.359  15.288  0.1191  0.0945 -0.2615
  975SOD     NA14457   0.095   0.828  11.378  0.1029 -0.0165 -0.0889
  976SOD     NA14458   1.051   2.955  11.610  0.4666 -0.2977 -0.4630
  977SOD     NA14459   0.301   2.301  13.898  0.3480  0.0352  0.2812
  978SOD     NA14460   4.139   0.088  10.552 -0.4411 -0.5141  0.6361
  979SOD     NA14461   2.023   2.263  12.318 -0.6546 -0.0544 -0.3471
  980SOD     NA14462   1.949   2.043  15.116 -0.2327 -0.5013 -0.1932
  981SOD     NA14463   3.473   3.311   0.584  0.3565 -0.3551  0.1568
  982SOD     NA14464   3.290   2.928   1.000 -0.5418  0.1190  0.1628
  983SOD     NA14465   4.322   4.204   6.875 -0.2068  0.5488  0.1873
  984SOD     NA14466   4.547   0.812  11.163 -0.0517 -0.1488  0.0379
  985SOD     NA14467   1.511   4.653  12.448 -0.0160 -0.5656  0.4517
  986SOD     NA14468   3.144   0.110   1.605  0.2434 -0.2453 -0.3612
  987SOD     NA14469   0.169   4.244   9.099 -0.1567 -0.1721 -0.2569
  988SOD     NA14470   0.427   1.581  12.700  0.3357  0.2338 -0.1604
  989SOD     NA14471   2.846   2.117   7.758 -0.1195  0.2342 -0.2759
  990SOD     NA14472   0.698   0.278  13.794 -0.6301  0.2061  0.0588
  991SOD     NA14473   1.471   0.739  17.056  0.1081  0.4863  0.2056
  992SOD     NA14474   2.057   2.563  12.084  0.4302 -0.4719 -0.4833
  993SOD     NA14475   4.382   2.955   7.040 -0.2098 -0.5436 -0.2180
  994SOD     NA14476   1.251   2.240  11.554 -0.7180  0.1909 -0.0765
  995SOD     NA14477   3.879   2.843  15.746  0.2819 -0.4179 -0.0092
  996SOD     NA14478   3.030   0.678  10.701  0.0081  0.6610 -0.8151
  997SOD     NA14479   3.383   2.218  10.871 -0.1862 -0.3651  0.0487
  998SOD     NA14480   1.282   2.017  16.561 -0.0794  0.3076 -0.4258
  999SOD     NA14481   2.439   1.571   8.996  0.1054 -0.5317  0.2025
 1000SOD     NA14482   4.037   2.351   2.199  0.0084 -0.1620 -0.1980
 1001SOD     NA14483   2.333   0.722   8.803 -0.4159 -0.0837 -0.6570
 1002SOD     NA14484   3.504   1.205  14.051 -0.3789  0.0925 -0.2362
 1003SOD     NA14485   0.995   2.021  11.557  0.4593  0.4155 -0.5338
 1004SOD     NA14486   4.464   1.665  10.544 -0.4118  0.1526  0.0756
 1005SOD     NA14487   1.926   1.365   0.581  0.1960  0.1729 -0.3075
 1006SOD     NA14488   0.588   0.146   0.644  0.3245 -0.0483  0.4941
 1007SOD     NA14489   1.594   3.973   2.412 -0.4221  0.2145  0.3160
 1008SOD     NA14490   0.448   3.876   0.734  0.0342  0.1033  0.1614
 1009SOD     NA14491   1.821   0.492  17.138 -0.0245  0.1597  0.2672
 1010SOD     NA14492   2.285   3.554   8.463  0.3986 -0.3361  0.0862
 1011SOD     NA14493   2.386   0.910   9.479  0.0563 -0.2338  0.1779
 1012SOL     OW14494   4.254   3.489   6.123 -0.5085 -0.0009  0.5373
 1012SOL    HW114495   4.268   3.400   6.092 -0.5733  0.5499 -1.0883
 1012SOL    HW214496   4.278   3.542   6.047 -3.0509  0.1994 -0.1159
 1013SOL     OW14497   4.567   1.205   4.538 -0.2231  0.2290 -0.0828
 1013SOL    HW114498   4.482   1.177   4.503 -0.6188 -0.5412  1.5086
 1013SOL    HW214499   4.627   1.171   4.473 -0.3476  0.0514 -0.1044
 1014SOL     OW14500   4.497   3.132   7.555 -0.1285  0.3676  0.0395
 1014SOL    HW114501   4.505   3.044   7.518  0.2011  0.4870 -0.1727
 1014SOL    HW214502   4.553   3.124   7.633  0.6192  0.9359 -0.4357
 1015SOL     OW14503   2.141   3.180   8.622 -0.1748  0.4127 -0.1960
 1015SOL    HW114504   2.059   3.191   8.670 -0.6343  0.0211 -0.8803
 1015SOL    HW214505   2.199   3.149   8.690 -0.5236  0.9053  0.3259
 1016SOL     OW14506   1.198   2.822   5.631 -0.0191 -0.0866  0.3703
 1016SOL    HW114507   1.228   2.822   5.721  0.5048 -3.2636  0.1901
 1016SOL    HW214508   1.127   2.758   5.628 -0.8134  0.8555 -1.1527
 1017SOL     OW14509   4.342   0.807   7.833  0.2449 -0.2617  0.0962
 1017SOL    HW114510   4.302   0.823   7.919  0.4389  2.0080 -0.2380
 1017SOL    HW214511   4.434   0.824   7.853  0.2530  0.2995 -0.4294
 1018SOL     OW14512   3.978   3.162   5.744  0.0033  0.9061 -0.0857
 1018SOL    HW114513   4.037   3.179   5.670  2.7657 -1.1776  1.6845
 1018SOL    HW214514   3.951   3.072   5.726  0.4026  0.6259  0.7450
 1019SOL     OW14515   2.020   3.365   6.147 -0.4225 -0.0144 -0.1095
 1019SOL    HW114516   2.058   3.320   6.223  1.8381 -2.3336 -2.6142
 1019SOL    HW214517   2.025   3.288   6.090 -0.0609  1.1981 -1.6956
 1020SOL     OW14518   2.817   4.283  12.254  0.1094  0.1175  0.0476
 1020SOL    HW114519   2.858   4.274  12.168 -1.1649  0.0684 -0.5570
 1020SOL    HW214520   2.726   4.283  12.224  0.0641 -1.9879  0.1656
 1021SOL     OW14521   0.456   2.245   7.763  0.5415  0.2205  0.3281
 1021SOL    HW114522   0.421   2.317   7.816  0.9544  0.7399 -0.0989
 1021SOL    HW214523   0.506   2.206   7.834  0.9763  0.8400  0.3613
 1022SOL     OW14524   3.531   1.992   5.188 -0.3206  0.2953  0.4808
 1022SOL    HW114525   3.584   2.058   5.233 -0.2581 -0.2350  1.1759
 1022SOL    HW214526   3.584   1.915   5.206 -1.4843 -0.7150 -0.4527
 1023SOL     OW14527   4.203   0.298   5.181  0.1460  0.4582  0.5818
 1023SOL    HW114528   4.291   0.262   5.164 -0.1807 -1.5327  3.1392
 1023SOL    HW214529   4.180   0.340   5.098 -2.4036 -1.9419  0.0794
 1024SOL     OW14530   2.727   0.475   7.640 -0.0911 -0.5925  0.1978
 1024SOL    HW114531   2.642   0.489   7.682 -0.3141  1.8254 -1.0433
 1024SOL    HW214532   2.793   0.499   7.705  0.2324  0.9680 -0.6836
 1025SOL     OW14533   4.108   0.741   0.695  0.2603  0.3851 -0.2694
 1025SOL    HW114534   4.152   0.699   0.621 -1.1271 -0.6975 -0.4687
 1025SOL    HW214535   4.019   0.750   0.661  0.1027  0.0022  0.0357
 1026SOL     OW14536   0.548   2.094  14.415  0.1978  0.3441  0.6735
 1026SOL    HW114537   0.534   2.009  14.373 -3.2868  1.0742  0.3526
 1026SOL    HW214538   0.504   2.084  14.499 -2.6616  0.1873 -0.8210
 1027SOL     OW14539   4.660   0.151   7.146 -0.6375  0.4054 -0.9814
 1027SOL    HW114540   4.687   0.065   7.113 -1.3533 -0.7730  1.5036
 1027SOL    HW214541   4.639   0.131   7.237  2.0350 -0.3950 -0.5420
 1028SOL     OW14542   0.762   3.077   8.121 -0.0363  0.5994 -0.2956
 1028SOL    HW114543   0.734   3.068   8.030  2.9311  0.4008 -1.2113
 1028SOL    HW214544   0.745   3.169   8.142  0.9873  1.0491 -1.4277
 1029SOL     OW14545   3.798   0.250   8.588  0.0235 -0.0884  0.4027
 1029SOL    HW114546   3.806   0.181   8.522 -0.0066 -0.6570  0.9929
 1029SOL    HW214547   3.765   0.194   8.658 -1.5177  0.1369 -0.1495
 1030SOL     OW14548   2.644   1.546   3.679 -0.1124 -0.6309 -0.0776
 1030SOL    HW114549   2.697   1.484   3.629  0.5519 -0.0907 -0.0395
 1030SOL    HW214550   2.620   1.492   3.755  2.1740  0.5670  1.4793
 1031SOL     OW14551   3.535   1.288  10.824 -0.3350  0.3918 -0.1477
 1031SOL    HW114552   3.475   1.358  10.799 -0.9831 -0.2864 -0.5223
 1031SOL    HW214553   3.495   1.255  10.905  1.1935 -0.2435  0.3595
 1032SOL     OW14554   2.575   2.743   8.723 -0.3078  0.4552  0.0526
 1032SOL    HW114555   2.493   2.714   8.761 -1.7519  2.7041 -1.3584
 1032SOL    HW214556   2.633   2.668   8.737 -0.5855  0.0713 -0.7940
 1033SOL     OW14557   1.817   2.916   5.149 -0.5800 -0.0180  0.1021
 1033SOL    HW114558   1.741   2.867   5.118 -1.6828  2.0077 -0.3970
 1033SOL    HW214559   1.784   3.005   5.164 -2.5703 -0.5340 -1.1923
 1034SOL     OW14560   0.129   1.163   9.574  0.7472  0.3227 -0.0736
 1034SOL    HW114561   0.098   1.214   9.649 -0.0107 -1.0694  0.5581
 1034SOL    HW214562   0.223   1.166   9.595  0.2113 -2.0517  2.7447
 1035SOL     OW14563   1.987   1.948   5.041 -0.5729 -0.0150 -0.4059
 1035SOL    HW114564   2.012   1.856   5.056  3.9038  0.9580 -1.7652
 1035SOL    HW214565   1.957   1.983   5.125 -0.0850  0.9835 -0.6515
 1036SOL     OW14566   3.458   4.544   7.956  0.2726 -0.0321  0.8299
 1036SOL    HW114567   3.422   4.628   7.986 -0.0533  0.3284 -0.5656
 1036SOL    HW214568   3.550   4.541   7.983  0.2022 -0.4216  1.0271
 1037SOL     OW14569   1.083   3.408  10.583  0.0920 -0.1358 -0.0952
 1037SOL    HW114570   1.080   3.375  10.673  0.8480  2.9546  1.0662
 1037SOL    HW214571   0.998   3.380  10.550 -0.5238 -1.1423  2.3524
 1038SOL     OW14572   4.648   2.818   9.093 -0.5697 -0.3304  0.1693
 1038SOL    HW114573   4.598   2.888   9.050 -1.7672 -1.7713 -0.7866
 1038SOL    HW214574   4.712   2.874   9.136  0.9341 -1.5956 -0.4005
 1039SOL     OW14575   0.422   1.926   4.596  0.1905  0.5275 -0.3037
 1039SOL    HW114576   0.488   1.909   4.663  0.4276 -3.1345 -1.4643
 1039SOL    HW214577   0.439   1.867   4.522 -1.2234  1.0753 -1.0761
 1040SOL     OW14578   4.666   4.247   5.283 -0.6848  0.3277  0.7177
 1040SOL    HW114579   4.576   4.224   5.309 -0.9398 -0.9736 -1.2701
 1040SOL    HW214580   4.655   4.221   5.191  1.9896 -0.6626  0.7089
 1041SOL     OW14581   4.107   1.722   2.602  0.3012 -0.0301 -0.3276
 1041SOL    HW114582   4.033   1.661   2.600  0.0072  0.3130  0.1064
 1041SOL    HW214583   4.079   1.764   2.683 -1.5834 -0.9533 -0.5053
 1042SOL     OW14584   3.117   2.281   7.443  0.5807  0.9135  0.2125
 1042SOL    HW114585   3.042   2.337   7.425 -0.6654 -0.9079 -0.2437
 1042SOL    HW214586   3.156   2.277   7.355 -0.1790  1.6190 -0.1533
 1043SOL     OW14587   3.825   0.837   5.975  0.3684  0.3192 -0.2939
 1043SOL    HW114588   3.900   0.809   5.921  1.2773  1.6947  0.2581
 1043SOL    HW214589   3.870   0.873   6.051  0.1787 -0.4347  0.1770
 1044SOL     OW14590   2.292   2.833   8.273  0.1480 -0.6955  0.3234
 1044SOL    HW114591   2.237   2.904   8.307  0.0611  0.3961 -2.1148
 1044SOL    HW214592   2.294   2.772   8.346 -1.2998 -3.7574 -2.1850
 1045SOL     OW14593   1.041   0.762   5.372  0.1482  0.0883 -0.1321
 1045SOL    HW114594   1.088   0.758   5.289  1.3525  1.2582  0.5015
 1045SOL    HW214595   0.954   0.737   5.340  0.9642  0.8592 -2.8901
 1046SOL     OW14596   4.460   4.371   3.856  0.2842 -0.7883 -0.0616
 1046SOL    HW114597   4.509   4.293   3.880 -3.5624 -3.7379 -1.7032
 1046SOL    HW214598   4.534   4.423   3.825 -0.5339 -0.8269 -2.1115
 1047SOL     OW14599   1.115   1.043  15.474 -0.2961  0.1855 -0.0513
 1047SOL    HW114600   1.066   1.026  15.394 -0.7413 -0.6526  0.4086
 1047SOL    HW214601   1.154   1.131  15.466 -0.0566  0.0036 -0.8641
 1048SOL     OW14602   4.196   1.986   0.435 -0.1750  0.5833  0.4977
 1048SOL    HW114603   4.267   1.989   0.370 -2.6732  2.1975 -2.1896
 1048SOL    HW214604   4.156   1.901   0.420 -0.7026  1.3316 -2.5060
 1049SOL     OW14605   2.072   1.592   8.164  0.0556 -0.1286  0.4566
 1049SOL    HW114606   2.090   1.546   8.246  0.6029  0.6655  0.7915
 1049SOL    HW214607   2.146   1.653   8.165  0.1892 -0.2310 -2.8725
 1050SOL     OW14608   2.257   3.636   7.878  0.3820 -0.4242 -0.3081
 1050SOL    HW114609   2.341   3.595   7.858  1.4097  2.0805 -1.0696
 1050SOL    HW214610   2.212   3.552   7.888  0.6979 -0.8053 -2.1343
 1051SOL     OW14611   3.750   2.592   5.932 -0.0083 -0.2609 -0.3506
 1051SOL    HW114612   3.752   2.644   5.852  0.2409  0.5770  0.1988
 1051SOL    HW214613   3.701   2.521   5.891 -2.4289  1.3089 -0.1801
 1052SOL     OW14614   0.482   1.764  11.446  0.3650 -0.4819 -0.2996
 1052SOL    HW114615   0.475   1.859  11.446 -1.9169 -0.6693  1.0324
 1052SOL    HW214616   0.403   1.754  11.392 -1.5647  3.1592  1.9111
 1053SOL     OW14617   0.430   3.940  15.784  0.8883 -0.1346 -0.2023
 1053SOL    HW114618   0.438   3.899  15.698  1.2999 -2.6379  1.0179
 1053SOL    HW214619   0.490   4.015  15.787  1.8953 -1.1135  4.8906
 1054SOL     OW14620   1.457   1.485   5.452 -0.3758 -0.2062  0.0807
 1054SOL    HW114621   1.542   1.528   5.459  0.0901 -1.1493  0.2401
 1054SOL    HW214622   1.482   1.416   5.391  1.0601  0.5786 -0.2336
 1055SOL     OW14623   0.583   1.770  16.489  0.0179 -0.1797 -0.1415
 1055SOL    HW114624   0.661   1.824  16.476  1.3736 -1.5621  2.3435
 1055SOL    HW214625   0.614   1.684  16.518 -0.9578 -0.3504  0.3815
 1056SOL     OW14626   4.133   3.798   2.438 -0.1052  0.6975 -0.1537
 1056SOL    HW114627   4.203   3.859   2.464  1.2307  0.5541 -3.3603
 1056SOL    HW214628   4.132   3.737   2.511 -2.1408  1.6005  0.5820
 1057SOL     OW14629   3.712   0.664   4.435 -0.2328  0.6228  0.3324
 1057SOL    HW114630   3.670   0.635   4.354  0.3983  0.6075  0.0135
 1057SOL    HW214631   3.639   0.706   4.480  0.0689  0.7256  0.7231
 1058SOL     OW14632   2.084   1.702   1.168 -0.1230  0.1389  0.3218
 1058SOL    HW114633   2.109   1.782   1.122  1.2225 -0.3555  0.1747
 1058SOL    HW214634   2.153   1.696   1.234 -0.3221 -0.9884  0.4365
 1059SOL     OW14635   0.058   0.498   5.011  0.4845 -0.1123 -0.6381
 1059SOL    HW114636   4.710   0.446   4.976  0.9144 -0.5424 -0.8839
 1059SOL    HW214637   0.071   0.570   4.949 -1.4144  1.1009  0.3921
 1060SOL     OW14638   3.602   1.044   9.534  0.0740 -0.0217 -0.2719
 1060SOL    HW114639   3.601   1.138   9.550  2.5561 -0.0973  0.4907
 1060SOL    HW214640   3.512   1.016   9.522 -0.0244 -0.2721  0.9495
 1061SOL     OW14641   2.165   3.125   6.341  0.4652  0.1610 -0.4388
 1061SOL    HW114642   2.254   3.128   6.305  1.2337  1.2444  1.5161
 1061SOL    HW214643   2.179   3.158   6.430  0.9475 -0.8080 -0.1617
 1062SOL     OW14644   2.038   2.740   4.897 -0.0570  0.0586  0.1395
 1062SOL    HW114645   1.958   2.788   4.872  0.1502  0.1467 -0.3633
 1062SOL    HW214646   2.079   2.715   4.814 -0.1594  0.4058 -0.0200
 1063SOL     OW14647   3.569   2.290  11.530 -0.2843  0.3221  0.4198
 1063SOL    HW114648   3.613   2.371  11.504  1.1369 -0.7165 -0.3954
 1063SOL    HW214649   3.562   2.308  11.624 -0.1477 -0.9141  0.6716
 1064SOL     OW14650   3.800   4.622   2.614 -0.0298 -0.0255  0.1029
 1064SOL    HW114651   3.824   4.613   2.522  1.6654  0.8294  0.4644
 1064SOL    HW214652   3.721   4.676   2.608  1.4220  2.2256  1.1131
 1065SOL     OW14653   2.967   1.020   5.613  0.1920 -0.7479  0.5879
 1065SOL    HW114654   2.962   1.088   5.546 -0.4247  0.9236  2.3494
 1065SOL    HW214655   3.052   0.978   5.598 -0.4775 -1.4268 -1.3741
 1066SOL     OW14656   3.866   4.664   3.666  0.2669  0.1409  0.5653
 1066SOL    HW114657   3.827   0.027   3.658 -1.8589 -0.7624  1.1495
 1066SOL    HW214658   3.956   4.685   3.690  0.6916 -0.3838 -0.5505
 1067SOL     OW14659   3.131   2.213  12.532  0.1940  0.5929  0.3415
 1067SOL    HW114660   3.147   2.240  12.442 -0.3743  1.7377  0.5824
 1067SOL    HW214661   3.102   2.122  12.527  0.6504  0.4731 -0.0537
 1068SOL     OW14662   0.926   0.210  15.201 -0.2053  0.2076 -0.8592
 1068SOL    HW114663   0.891   0.153  15.269  1.5431  1.6345  1.2207
 1068SOL    HW214664   0.906   0.297  15.235 -2.4179 -0.2343 -1.0080
 1069SOL     OW14665   0.156   0.964   9.088  0.2855  0.1376 -0.0000
 1069SOL    HW114666   0.098   0.898   9.050  0.2315  0.6472 -0.7887
 1069SOL    HW214667   0.106   0.982   9.168  2.7344 -1.0397  1.7849
 1070SOL     OW14668   2.162   3.897  15.742 -0.1520  0.5268 -0.2171
 1070SOL    HW114669   2.212   3.957  15.797  0.5220  1.5499 -1.9717
 1070SOL    HW214670   2.192   3.914  15.653  1.4448 -1.1370  0.0147
 1071SOL     OW14671   4.163   2.037  14.136 -0.1943 -0.2867 -0.3213
 1071SOL    HW114672   4.237   2.095  14.155 -1.1253 -0.2932  3.3332
 1071SOL    HW214673   4.153   1.985  14.216  0.4922  0.3651  0.1977
 1072SOL     OW14674   1.679   0.334   4.671  0.2866 -0.3418 -0.0875
 1072SOL    HW114675   1.690   0.254   4.619  0.4884  0.8131 -1.8239
 1072SOL    HW214676   1.768   0.360   4.695 -0.2591 -0.0665  1.6050
 1073SOL     OW14677   1.716   1.300   4.456  0.2600 -0.0023  0.2744
 1073SOL    HW114678   1.642   1.293   4.396  0.1630 -0.6071  0.4621
 1073SOL    HW214679   1.735   1.393   4.446  0.0547 -0.0122 -0.2123
 1074SOL     OW14680   0.965   1.490   6.354  0.2355 -0.3333 -0.0363
 1074SOL    HW114681   0.930   1.579   6.343 -0.0388 -0.2587  1.4102
 1074SOL    HW214682   0.949   1.466   6.445  0.7394 -0.0357  0.1301
 1075SOL     OW14683   3.782   3.899   9.649  0.2200 -0.3375 -0.1325
 1075SOL    HW114684   3.781   3.834   9.579  1.7288 -0.8650  0.3319
 1075SOL    HW214685   3.861   3.952   9.636 -0.4580  1.2498  2.1464
 1076SOL     OW14686   2.256   2.900   4.328 -0.0716 -0.2427 -0.2700
 1076SOL    HW114687   2.215   2.930   4.246  1.3329 -1.3925 -1.3883
 1076SOL    HW214688   2.257   2.985   4.373  1.4509  0.4340 -1.5527
 1077SOL     OW14689   0.195   0.124   7.989  0.5136 -0.4815  0.1451
 1077SOL    HW114690   0.256   0.086   8.052  2.3524  0.8098 -0.8943
 1077SOL    HW214691   0.245   0.199   7.959  1.5464 -0.6255  1.5010
 1078SOL     OW14692   3.761   1.328   1.535  0.1785 -0.4530  0.4020
 1078SOL    HW114693   3.790   1.361   1.451  2.2988  0.8672  1.6634
 1078SOL    HW214694   3.833   1.268   1.555  0.2129 -0.4753  0.2107
 1079SOL     OW14695   1.892   3.583   0.825  0.0986  0.3437  0.2226
 1079SOL    HW114696   1.888   3.506   0.882 -0.2637  0.0952 -0.1320
 1079SOL    HW214697   1.939   3.552   0.747  0.8309 -1.0261  1.2195
 1080SOL     OW14698   4.265   0.324   4.055  0.0021 -0.2079 -0.1706
 1080SOL    HW114699   4.350   0.336   4.098  0.7662 -3.4078 -0.7407
 1080SOL    HW214700   4.229   0.409   4.033 -0.8194 -1.2143 -2.7108
 1081SOL     OW14701   2.550   4.261   3.430 -0.3058  0.4064  0.0790
 1081SOL    HW114702   2.615   4.326   3.407  0.9627 -1.1770 -0.7917
 1081SOL    HW214703   2.527   4.269   3.523 -0.3321  1.5895 -0.0353
 1082SOL     OW14704   3.715   0.123   8.849 -0.0109  0.2581 -0.0657
 1082SOL    HW114705   3.787   0.074   8.888 -2.1280 -2.1390  0.8018
 1082SOL    HW214706   3.648   0.055   8.842  1.2648 -0.8397 -1.6242
 1083SOL     OW14707   4.112   0.106   8.892 -0.0656  0.1055 -0.0697
 1083SOL    HW114708   4.095   0.121   8.985  2.7146 -0.6831  0.5575
 1083SOL    HW214709   4.029   0.062   8.874  0.2383  0.1790 -1.6551
 1084SOL     OW14710   3.056   4.615   8.947 -0.9464 -0.1438 -0.5124
 1084SOL    HW114711   2.972   4.652   8.973 -0.5232  0.3391  0.1809
 1084SOL    HW214712   3.050   4.521   8.959  0.1558 -0.2734 -0.9195
 1085SOL     OW14713   0.895   0.133   6.029 -0.3927  0.1421 -0.2467
 1085SOL    HW114714   0.968   0.084   6.067  0.1021  0.5813 -0.6392
 1085SOL    HW214715   0.852   0.175   6.104  1.9421  0.9817  0.6098
 1086SOL     OW14716   3.204   4.155   2.555 -0.3001 -0.0927  0.3522
 1086SOL    HW114717   3.264   4.227   2.575  0.3085 -0.5509  0.1673
 1086SOL    HW214718   3.136   4.208   2.513 -1.6434 -0.7912  1.6274
 1087SOL     OW14719   1.822   0.818   4.725  0.4531  0.3272 -0.2591
 1087SOL    HW114720   1.859   0.734   4.697  1.1920 -0.0796  1.9671
 1087SOL    HW214721   1.884   0.854   4.788  0.9659 -1.2774  0.1554
 1088SOL     OW14722   2.704   2.484  17.421 -0.2607  0.5713 -0.2538
 1088SOL    HW114723   2.738   2.550  17.483  0.7065 -0.2010  0.0527
 1088SOL    HW214724   2.760   2.411  17.447 -0.5066  0.0258 -1.2977
 1089SOL     OW14725   4.383   2.883  10.468  0.0484  0.0296  0.0248
 1089SOL    HW114726   4.453   2.823  10.440 -0.8844 -0.7256 -0.6749
 1089SOL    HW214727   4.437   2.945  10.517 -0.4980  0.0897  0.5499
 1090SOL     OW14728   1.379   0.678   7.962 -0.2310  0.3047  0.0185
 1090SOL    HW114729   1.352   0.770   7.957  1.6630  0.7720 -1.4431
 1090SOL    HW214730   1.442   0.668   7.891 -0.7378 -0.7700 -0.2724
 1091SOL     OW14731   3.005   4.403   7.690 -0.2951 -0.0916  0.3766
 1091SOL    HW114732   3.018   4.420   7.596 -0.4109  2.2770  0.8042
 1091SOL    HW214733   3.086   4.355   7.705 -1.1396 -1.2917  1.1151
 1092SOL     OW14734   2.604   3.219   6.386  0.2326 -0.7158  0.6460
 1092SOL    HW114735   2.652   3.194   6.308  1.1475  0.3474  0.8722
 1092SOL    HW214736   2.613   3.134   6.431 -0.5914 -0.1177  1.9534
 1093SOL     OW14737   4.364   0.446   7.973 -0.1435  0.3950 -0.4573
 1093SOL    HW114738   4.325   0.471   8.057 -1.5059 -0.1600 -0.9300
 1093SOL    HW214739   4.445   0.495   7.987 -1.6500  2.1152  2.4036
 1094SOL     OW14740   3.406   1.976   6.962  0.2137  0.4162 -0.0018
 1094SOL    HW114741   3.401   1.951   7.054  1.9940  0.0782  0.0096
 1094SOL    HW214742   3.448   2.062   6.966  1.2325 -0.0577 -0.5081
 1095SOL     OW14743   3.139   2.000   3.372 -0.2659  0.2497  0.5717
 1095SOL    HW114744   3.081   1.953   3.433 -2.8108  0.8286 -1.3971
 1095SOL    HW214745   3.087   2.080   3.362 -0.0324  0.1172 -1.6945
 1096SOL     OW14746   0.737   0.319   3.523 -0.0673  1.2562 -0.1425
 1096SOL    HW114747   0.741   0.284   3.434  1.0594  0.1328  0.3434
 1096SOL    HW214748   0.828   0.311   3.553 -0.0936  0.4243 -0.2852
 1097SOL     OW14749   0.884   4.531   3.820 -0.2764  0.0785 -0.2466
 1097SOL    HW114750   0.908   4.439   3.826 -0.3829  0.3014  3.2976
 1097SOL    HW214751   0.795   4.518   3.790 -1.1108 -0.5589  2.5440
 1098SOL     OW14752   4.574   2.994  10.216  0.1445  0.0921  0.3806
 1098SOL    HW114753   4.662   2.977  10.183 -0.7483 -0.5307 -1.6909
 1098SOL    HW214754   4.587   3.018  10.308 -0.1215 -0.3707  0.5424
 1099SOL     OW14755   1.857   2.678   7.298 -0.3294  0.3876  0.5725
 1099SOL    HW114756   1.940   2.719   7.323 -0.2448  1.2596 -1.1502
 1099SOL    HW214757   1.864   2.680   7.203  0.1207  3.8000  0.6653
 1100SOL     OW14758   3.107   0.346   2.252 -0.2239 -0.0415 -0.4291
 1100SOL    HW114759   3.086   0.254   2.233  0.7065 -0.0955 -1.2071
 1100SOL    HW214760   3.046   0.363   2.323  2.2668  3.3215  0.9207
 1101SOL     OW14761   4.564   2.028  14.571 -0.1766 -0.1716  0.0576
 1101SOL    HW114762   4.654   2.023  14.600 -0.0582 -1.0836 -0.4561
 1101SOL    HW214763   4.576   2.070  14.486 -0.2416 -0.3711 -0.0502
 1102SOL     OW14764   2.394   1.018   3.036 -0.5217 -0.0235  0.1027
 1102SOL    HW114765   2.427   0.936   3.071 -0.4867  0.8860  2.2559
 1102SOL    HW214766   2.300   1.001   3.040 -0.1617 -2.5383 -2.5726
 1103SOL     OW14767   2.747   0.255   6.949 -0.0215 -0.0455 -0.5448
 1103SOL    HW114768   2.722   0.309   7.023 -0.1787 -2.1167  0.9179
 1103SOL    HW214769   2.733   0.320   6.880  2.7824  0.4675 -0.6052
 1104SOL     OW14770   3.902   3.474   4.312  0.1927  0.1014  0.3675
 1104SOL    HW114771   3.824   3.420   4.323 -0.6045  1.0956 -0.4835
 1104SOL    HW214772   3.940   3.450   4.228 -1.6850  0.6052 -0.6299
 1105SOL     OW14773   1.063   0.826  10.718 -0.2147  0.2606 -0.7853
 1105SOL    HW114774   1.150   0.787  10.725  0.1599  1.0328 -1.1532
 1105SOL    HW214775   1.070   0.917  10.748  0.1836  0.4092 -1.3317
 1106SOL     OW14776   1.674   2.177   5.534 -0.2954 -1.1206  0.7124
 1106SOL    HW114777   1.655   2.271   5.524  0.3658 -0.9875  0.6789
 1106SOL    HW214778   1.589   2.144   5.562 -0.8215 -0.4852 -0.1184
 1107SOL     OW14779   4.609   2.644   7.520  0.2179  0.5896 -0.8558
 1107SOL    HW114780   4.613   2.550   7.537 -1.0278  0.6219 -0.4179
 1107SOL    HW214781   4.651   2.667   7.602 -2.0551  1.1519  0.1473
 1108SOL     OW14782   2.978   3.830   6.862  0.1398 -0.2541 -0.4791
 1108SOL    HW114783   3.059   3.793   6.899  1.3898  2.0233 -0.8993
 1108SOL    HW214784   2.998   3.922   6.882 -0.7095 -0.3007  0.6142
 1109SOL     OW14785   0.201   2.820   1.670 -0.0238 -0.0379 -0.0692
 1109SOL    HW114786   0.279   2.864   1.703  0.8880 -2.9849  1.6164
 1109SOL    HW214787   0.136   2.891   1.666  0.2126  0.2065  0.4311
 1110SOL     OW14788   3.468   0.079   8.339  0.1893  0.0042 -0.1027
 1110SOL    HW114789   3.477   0.009   8.404 -0.4209  0.4906  0.5033
 1110SOL    HW214790   3.387   0.123   8.365 -0.5545 -0.7190 -1.1824
 1111SOL     OW14791   3.396   4.364   3.774 -0.5133 -0.1409  0.1941
 1111SOL    HW114792   3.448   4.432   3.731 -1.6724  1.9717  2.0965
 1111SOL    HW214793   3.311   4.408   3.764 -0.5907 -0.6300 -1.3494
 1112SOL     OW14794   4.360   2.104   5.742  0.4811 -0.3979 -0.4678
 1112SOL    HW114795   4.411   2.025   5.757 -1.8859 -2.1843 -1.7294
 1112SOL    HW214796   4.412   2.150   5.677  0.8877 -1.3180 -0.8036
 1113SOL     OW14797   2.619   0.855  13.433 -0.0644 -0.6913 -0.1568
 1113SOL    HW114798   2.663   0.827  13.513 -0.5769  1.9448  1.0579
 1113SOL    HW214799   2.532   0.876  13.466  1.4751  0.5532  3.0642
 1114SOL     OW14800   3.157   1.068  14.292 -0.0939 -0.2213  0.0182
 1114SOL    HW114801   3.157   1.068  14.196  1.7267  1.7034  0.0176
 1114SOL    HW214802   3.253   1.066  14.298 -0.2304 -0.8787  1.8209
 1115SOL     OW14803   1.221   3.939  17.169 -0.2593  0.2625 -0.4142
 1115SOL    HW114804   1.244   4.029  17.147 -2.1987  0.7009 -0.6124
 1115SOL    HW214805   1.142   3.925  17.118 -0.0883  1.5658 -1.0144
 1116SOL     OW14806   2.741   0.074  17.188  0.2933  0.3969 -0.0794
 1116SOL    HW114807   2.678   0.110  17.250  1.2194  0.1004  1.0337
 1116SOL    HW214808   2.678   0.015  17.145 -0.1959 -0.5337  1.8920
 1117SOL     OW14809   3.637   1.010   2.184 -0.6010  0.3733  0.4620
 1117SOL    HW114810   3.617   1.025   2.277 -2.2828  0.5013  0.0900
 1117SOL    HW214811   3.664   1.100   2.165  2.1638 -1.0462 -2.3709
 1118SOL     OW14812   3.411   3.247  10.506 -0.1338  0.4809  0.1639
 1118SOL    HW114813   3.505   3.263  10.491 -0.2108  1.5608  0.8161
 1118SOL    HW214814   3.376   3.313  10.446 -2.3873  0.5649  1.5733
 1119SOL     OW14815   3.314   0.071   7.802 -0.2355  0.9308  0.7168
 1119SOL    HW114816   3.290   0.157   7.836  0.0326  2.2732 -2.5326
 1119SOL    HW214817   3.312   0.030   7.889  1.3708  1.5985  1.0801
 1120SOL     OW14818   3.646   4.177   4.163  0.1668  0.3064  0.1401
 1120SOL    HW114819   3.719   4.120   4.138 -0.7164  0.7526 -3.3775
 1120SOL    HW214820   3.607   4.135   4.240  2.5406 -0.8165  0.7387
 1121SOL     OW14821   1.454   0.892  14.379  0.1729  0.1411  0.3533
 1121SOL    HW114822   1.490   0.979  14.398 -2.7982  1.8174 -1.6161
 1121SOL    HW214823   1.406   0.904  14.297 -1.5379  0.6141  1.4023
 1122SOL     OW14824   1.406   3.353  14.902 -0.3757  0.4694  0.3412
 1122SOL    HW114825   1.461   3.277  14.922  0.0897  0.1252 -2.2994
 1122SOL    HW214826   1.374   3.369  14.991  1.1998  1.0469  0.8185
 1123SOL     OW14827   3.347   1.027  14.048 -0.1886 -0.5179  0.5676
 1123SOL    HW114828   3.255   1.024  14.023  0.1324  2.7732 -1.0187
 1123SOL    HW214829   3.360   0.941  14.088 -1.4010 -0.4203  1.1716
 1124SOL     OW14830   1.665   1.818  14.783  0.6412  0.5538 -1.0666
 1124SOL    HW114831   1.733   1.755  14.805 -0.6270 -0.3590  0.2379
 1124SOL    HW214832   1.635   1.774  14.703  0.0812  2.2449 -1.7806
 1125SOL     OW14833   0.213   2.192  17.621  0.3481 -0.1358  0.3207
 1125SOL    HW114834   0.264   2.178  17.541  1.6036  0.4440  1.0132
 1125SOL    HW214835   0.190   2.100  17.634 -0.1063 -0.3195 -1.9183
 1126SOL     OW14836   0.422   2.111   2.087  0.2058  0.1391 -0.5979
 1126SOL    HW114837   0.496   2.151   2.134  0.8628 -2.4715  0.5988
 1126SOL    HW214838   0.464   2.111   2.001  0.3917  2.0722 -0.5232
 1127SOL     OW14839   3.941   3.381   8.904 -0.6070 -0.1790 -0.8449
 1127SOL    HW114840   3.966   3.290   8.889 -0.2393 -0.1752 -0.2602
 1127SOL    HW214841   3.991   3.426   8.835 -0.1535 -0.0736 -0.4460
 1128SOL     OW14842   1.264   0.452  14.870 -0.8585 -0.4609  0.1257
 1128SOL    HW114843   1.203   0.469  14.798 -3.2162  0.1760  2.2678
 1128SOL    HW214844   1.216   0.383  14.915 -2.0181  0.1245 -0.2068
 1129SOL     OW14845   0.959   0.179   9.659  0.1344  0.5493  0.1690
 1129SOL    HW114846   1.028   0.214   9.601 -0.5855  4.1544  1.4616
 1129SOL    HW214847   1.015   0.124   9.713  0.8369  1.1118  0.0235
 1130SOL     OW14848   2.961   0.929  13.269 -0.3096 -0.3502  0.8123
 1130SOL    HW114849   2.909   0.980  13.331  1.6960  1.4545  1.0031
 1130SOL    HW214850   2.890   0.879  13.229  0.6788  0.3346 -1.7519
 1131SOL     OW14851   0.394   0.575   0.288 -0.1258 -0.0905  0.5505
 1131SOL    HW114852   0.362   0.516   0.356  0.5679 -1.4840 -0.3386
 1131SOL    HW214853   0.415   0.524   0.210 -0.1722 -1.2065  1.2632
 1132SOL     OW14854   2.706   3.147   9.622  0.3870 -0.9234  0.0879
 1132SOL    HW114855   2.730   3.234   9.591 -0.8829 -0.2195  1.0640
 1132SOL    HW214856   2.789   3.102   9.605  1.3667  0.2284  1.8339
 1133SOL     OW14857   2.049   1.045   9.682 -0.8005 -0.2497 -0.0576
 1133SOL    HW114858   1.999   1.037   9.601  0.8318 -0.1520 -1.0537
 1133SOL    HW214859   2.134   1.070   9.646 -1.1332 -1.3672 -1.6068
 1134SOL     OW14860   2.585   3.178   5.645 -0.2490  0.2664  0.6134
 1134SOL    HW114861   2.513   3.117   5.666  1.1630 -1.7517 -0.3821
 1134SOL    HW214862   2.642   3.176   5.722 -1.1765 -1.9234  1.2778
 1135SOL     OW14863   1.755   0.518   9.420  0.1394  0.0452 -0.7036
 1135SOL    HW114864   1.683   0.456   9.422  2.5029 -2.6775  0.6031
 1135SOL    HW214865   1.826   0.470   9.463  0.9480  2.3116  0.4830
 1136SOL     OW14866   3.088   2.893   6.037 -0.2574  0.4286  0.3270
 1136SOL    HW114867   3.018   2.865   5.978 -0.7609  2.5683 -0.0796
 1136SOL    HW214868   3.045   2.911   6.120 -3.0203 -2.1858 -0.5142
 1137SOL     OW14869   4.342   2.848  16.649  0.0895  0.1697  0.0179
 1137SOL    HW114870   4.296   2.900  16.583 -0.8133 -1.0608 -0.3343
 1137SOL    HW214871   4.265   2.810  16.692  1.3694 -1.6625  0.7042
 1138SOL     OW14872   2.546   1.701   8.220 -0.3205 -0.1002  0.4150
 1138SOL    HW114873   2.491   1.688   8.297 -0.8748 -2.3730 -0.3463
 1138SOL    HW214874   2.582   1.613   8.205 -1.0192  0.0889 -2.4780
 1139SOL     OW14875   3.897   1.868   8.450  0.7381  0.1251  0.0047
 1139SOL    HW114876   3.843   1.789   8.442 -0.0631  0.4833  1.9681
 1139SOL    HW214877   3.950   1.852   8.529  0.4801 -0.5545  0.0455
 1140SOL     OW14878   4.443   4.644  15.527  0.0393 -0.3007  0.3708
 1140SOL    HW114879   4.380   4.632  15.598 -0.3663 -0.0426  0.0595
 1140SOL    HW214880   4.423   0.004  15.484  1.6012 -0.1076 -0.0021
 1141SOL     OW14881   3.539   3.018  10.424  0.0421 -0.1858  0.2168
 1141SOL    HW114882   3.540   2.951  10.493 -0.4853  2.2494  2.6278
 1141SOL    HW214883   3.445   3.026  10.408  0.4784  1.7120 -1.2573
 1142SOL     OW14884   0.223   4.600   7.092  0.0673 -0.2943  0.1812
 1142SOL    HW114885   0.300   4.604   7.034  0.2620  1.9355  0.6242
 1142SOL    HW214886   0.252   4.672   7.146  1.1826 -0.8830  0.3690
 1143SOL     OW14887   1.609   4.025   0.066 -0.6260  1.1346 -0.2099
 1143SOL    HW114888   1.541   3.998   0.128  0.1576 -0.5189 -0.0884
 1143SOL    HW214889   1.571   4.000  17.677 -0.2718 -1.8290  0.5201
 1144SOL     OW14890   0.530   1.526   0.495 -0.3677  0.0352 -0.0373
 1144SOL    HW114891   0.619   1.509   0.525  0.0221 -0.6613 -1.6080
 1144SOL    HW214892   0.486   1.487   0.571 -0.2308 -0.4100 -0.1852
 1145SOL     OW14893   0.455   0.206   9.181 -0.0354  0.2384 -0.0005
 1145SOL    HW114894   0.539   0.202   9.135 -0.0592 -1.2094  0.0768
 1145SOL    HW214895   0.433   0.113   9.186 -0.1757  0.1438 -2.2647
 1146SOL     OW14896   1.379   3.930   5.494  0.5492  0.1256 -0.0067
 1146SOL    HW114897   1.434   3.970   5.562  1.0746 -1.1681  0.3462
 1146SOL    HW214898   1.316   3.901   5.559 -0.1663  1.6217 -0.0423
 1147SOL     OW14899   1.876   0.153   7.538  0.3140  0.0644 -0.0342
 1147SOL    HW114900   1.936   0.221   7.507  0.1658 -0.2616 -1.0094
 1147SOL    HW214901   1.907   0.079   7.487 -0.8212 -0.5351  0.1378
 1148SOL     OW14902   1.304   2.897  14.561 -0.2757 -0.3453 -0.4046
 1148SOL    HW114903   1.357   2.972  14.534 -0.3427 -0.4144 -0.7276
 1148SOL    HW214904   1.264   2.928  14.642 -0.0246  1.1723 -0.8658
 1149SOL     OW14905   3.950   0.957   6.422 -0.0449  0.8575 -0.1273
 1149SOL    HW114906   3.960   0.914   6.337  2.2440  1.7683 -0.3157
 1149SOL    HW214907   3.902   1.032   6.387 -0.5757  0.6212  0.0978
 1150SOL     OW14908   1.397   1.674  15.033 -0.0079  0.0158 -0.5144
 1150SOL    HW114909   1.383   1.628  15.116  0.5482  4.3568  1.9576
 1150SOL    HW214910   1.492   1.676  15.033 -0.0049  0.2613  0.9226
 1151SOL     OW14911   1.040   1.433  16.933 -0.7033 -0.4810 -0.0965
 1151SOL    HW114912   1.098   1.421  16.858  0.1900 -1.4899  0.7454
 1151SOL    HW214913   1.103   1.467  16.997  0.8825  0.1078 -1.9730
 1152SOL     OW14914   4.309   2.604   7.412  0.2655  0.2096  0.3544
 1152SOL    HW114915   4.324   2.520   7.454 -1.2466 -0.1933  0.0947
 1152SOL    HW214916   4.320   2.671   7.480 -1.1302  1.2226 -0.4077
 1153SOL     OW14917   1.486   1.111   7.939 -0.2032  0.2117 -0.9092
 1153SOL    HW114918   1.493   1.105   8.035 -1.5742 -0.7378 -0.8814
 1153SOL    HW214919   1.399   1.072   7.935 -0.5247  0.9760 -1.2620
 1154SOL     OW14920   3.986   4.574   5.635 -0.4139  0.4146  0.5980
 1154SOL    HW114921   4.037   4.542   5.562 -1.1464  0.5710  0.0131
 1154SOL    HW214922   4.032   4.543   5.713  1.3048  0.0870 -0.5628
 1155SOL     OW14923   3.531   2.266   8.308 -0.2281  0.2677 -0.7712
 1155SOL    HW114924   3.465   2.285   8.241 -2.2156 -0.2499  1.0312
 1155SOL    HW214925   3.612   2.257   8.257  0.0953 -0.3125 -0.1627
 1156SOL     OW14926   1.392   1.027   4.548  0.1411 -0.4207 -0.1570
 1156SOL    HW114927   1.357   0.962   4.609 -0.2020 -0.2127 -0.1337
 1156SOL    HW214928   1.488   1.022   4.554  0.1283 -2.7776 -1.7439
 1157SOL     OW14929   4.158   0.159  15.322  0.0328 -0.8752  0.3756
 1157SOL    HW114930   4.123   0.124  15.404 -0.8358  4.6344  2.3808
 1157SOL    HW214931   4.225   0.095  15.300  1.3273  0.4240  0.5523
 1158SOL     OW14932   2.195   2.450  15.218  0.3906 -0.3362 -0.3428
 1158SOL    HW114933   2.191   2.545  15.217  2.3032 -0.2336  0.8228
 1158SOL    HW214934   2.261   2.434  15.150  0.0308  2.3633 -1.3028
 1159SOL     OW14935   0.313   3.120  16.434  0.7879  0.1826 -0.0284
 1159SOL    HW114936   0.267   3.061  16.494  0.0141  0.1337 -0.6683
 1159SOL    HW214937   0.242   3.179  16.409  1.6307  0.3950 -1.9074
 1160SOL     OW14938   1.598   3.405   6.240  0.2067  0.1474  0.0732
 1160SOL    HW114939   1.598   3.322   6.192 -0.9269  0.3028 -0.1941
 1160SOL    HW214940   1.652   3.449   6.174  1.5110 -0.7194  0.5685
 1161SOL     OW14941   0.359   3.695  16.789  0.2543  0.1936 -0.3729
 1161SOL    HW114942   0.396   3.618  16.745 -1.3050 -0.9788  0.3845
 1161SOL    HW214943   0.310   3.659  16.862  0.5865 -1.7495 -1.0919
 1162SOL     OW14944   2.593   0.782  11.453  0.6738 -0.3462 -0.4743
 1162SOL    HW114945   2.641   0.792  11.371 -0.7755 -4.0044 -1.7648
 1162SOL    HW214946   2.613   0.689  11.465 -0.7021 -0.4778  0.7487
 1163SOL     OW14947   4.521   2.049   3.802 -0.3613  0.2205  0.0196
 1163SOL    HW114948   4.452   2.046   3.737  1.8772 -1.0752 -2.2905
 1163SOL    HW214949   4.574   1.974   3.774 -0.5686  0.3371 -0.6613
 1164SOL     OW14950   1.842   1.705   2.283 -0.5455  0.4912 -0.2884
 1164SOL    HW114951   1.771   1.671   2.338 -1.4028 -1.5708 -2.6447
 1164SOL    HW214952   1.881   1.779   2.329  2.3776  0.5207 -2.7867
 1165SOL     OW14953   1.169   0.812   8.439 -0.1316 -0.1071  0.5360
 1165SOL    HW114954   1.077   0.801   8.464 -0.9929  0.0572 -2.6558
 1165SOL    HW214955   1.167   0.882   8.374  0.3190  1.0267  1.7478
 1166SOL     OW14956   1.485   1.202   6.926 -0.2077 -0.4221 -0.0025
 1166SOL    HW114957   1.419   1.185   6.859  0.1460  0.3773 -0.5504
 1166SOL    HW214958   1.439   1.203   7.010 -1.4822  2.9703 -0.7629
 1167SOL     OW14959   0.373   0.013   6.871 -0.0714  0.3722 -0.7740
 1167SOL    HW114960   0.310   4.720   6.801 -2.8555  1.6195  1.4527
 1167SOL    HW214961   0.446   4.676   6.852 -0.3076 -0.2379  0.2656
 1168SOL     OW14962   1.107   2.514   7.045  0.1900  0.1653  0.5969
 1168SOL    HW114963   1.202   2.520   7.047  0.1905  0.6297 -0.6598
 1168SOL    HW214964   1.084   2.559   7.126  0.9436  3.1731 -0.8973
 1169SOL     OW14965   1.236   0.744  15.601 -0.2588 -0.4753 -0.0849
 1169SOL    HW114966   1.255   0.838  15.596 -0.4432 -0.4456 -0.2175
 1169SOL    HW214967   1.206   0.732  15.511  0.2738 -0.6965 -0.2298
 1170SOL     OW14968   0.778   0.126  14.996 -0.3288  0.4435  0.0803
 1170SOL    HW114969   0.692   0.151  15.030 -0.3509  1.8167 -0.9823
 1170SOL    HW214970   0.825   0.181  15.059 -0.0997  0.2850  0.0456
 1171SOL     OW14971   2.137   3.562   9.705  0.3151 -0.0791  0.0313
 1171SOL    HW114972   2.226   3.528   9.695 -0.2368 -0.4393 -3.4844
 1171SOL    HW214973   2.129   3.567   9.801 -1.4775  0.3405 -0.1338
 1172SOL     OW14974   0.712   0.052   7.489 -0.4693  0.2836  0.5834
 1172SOL    HW114975   0.674   0.079   7.406  3.3399 -1.4828 -1.7289
 1172SOL    HW214976   0.733   4.685   7.467 -2.3582  0.2622 -1.1415
 1173SOL     OW14977   2.388   3.603  16.522 -0.0269  0.5968 -0.3487
 1173SOL    HW114978   2.380   3.684  16.572  0.6756  1.0166 -0.9066
 1173SOL    HW214979   2.365   3.528  16.577  1.3150  0.9133  0.6352
 1174SOL     OW14980   0.500   4.065  16.418  0.2423 -0.1545  0.2194
 1174SOL    HW114981   0.464   3.978  16.436  2.0003 -0.7957  0.6442
 1174SOL    HW214982   0.429   4.129  16.426 -1.5635 -2.2555  1.0265
 1175SOL     OW14983   4.277   2.440   4.072 -0.2857 -0.0124 -0.1691
 1175SOL    HW114984   4.262   2.534   4.058  2.0221  0.4956  0.7513
 1175SOL    HW214985   4.313   2.414   3.987  0.6531 -2.8529  1.0859
 1176SOL     OW14986   2.323   0.509   7.069  0.0344 -0.1372  0.0843
 1176SOL    HW114987   2.354   0.423   7.040  0.7739 -0.4346  1.7470
 1176SOL    HW214988   2.404   0.560   7.070  0.8565 -1.4161 -0.3179
 1177SOL     OW14989   4.125   1.505  12.982 -0.4704 -0.3244  0.4336
 1177SOL    HW114990   4.218   1.525  12.995  0.1998 -2.8940 -0.5044
 1177SOL    HW214991   4.118   1.410  12.985  0.0040 -0.4198 -1.4066
 1178SOL     OW14992   0.983   1.906  11.765  0.3318  0.4651 -0.3493
 1178SOL    HW114993   1.029   1.839  11.815  0.4639 -1.6342 -3.3408
 1178SOL    HW214994   0.896   1.896  11.804  0.4697 -0.6934 -0.3496
 1179SOL     OW14995   2.817   0.479   6.136 -0.1448 -0.4049 -0.2751
 1179SOL    HW114996   2.830   0.569   6.108  2.1012 -0.3555  0.9213
 1179SOL    HW214997   2.837   0.431   6.056  0.3704 -1.5316  0.5292
 1180SOL     OW14998   4.546   1.257  10.134  0.9213 -0.0114 -0.3609
 1180SOL    HW114999   4.625   1.237  10.084  0.7345 -0.4959 -0.4597
 1180SOL    HW215000   4.493   1.233  10.058  1.6891  1.3718 -1.3353
 1181SOL     OW15001   0.380   1.157  16.284 -1.0005  0.2363  0.0173
 1181SOL    HW115002   0.387   1.224  16.216  0.1565 -0.1240 -0.2142
 1181SOL    HW215003   0.364   1.079  16.232  1.6107  0.2600 -0.8175
 1182SOL     OW15004   3.516   4.656   9.754  0.1992  0.5053  0.5892
 1182SOL    HW115005   3.552   0.008   9.706 -1.4402 -0.0790 -1.5584
 1182SOL    HW215006   3.422   4.660   9.733  0.1444 -1.4288  0.5352
 1183SOL     OW15007   0.470   2.063   5.615  0.4554 -0.1769 -0.4724
 1183SOL    HW115008   0.524   1.987   5.637  0.6163  0.2433  0.5755
 1183SOL    HW215009   0.410   2.032   5.547  2.0821  2.1510 -2.9574
 1184SOL     OW15010   0.885   2.217   7.829  0.2073 -0.5144  0.2160
 1184SOL    HW115011   0.974   2.199   7.858  0.4595 -0.2272 -0.3806
 1184SOL    HW215012   0.888   2.182   7.740  1.4000 -3.2173  1.3359
 1185SOL     OW15013   0.305   1.335   4.845  0.2590  0.3740 -0.1776
 1185SOL    HW115014   0.232   1.310   4.789 -0.8140  0.9272  0.9598
 1185SOL    HW215015   0.371   1.270   4.819  0.5088  0.6616 -0.2595
 1186SOL     OW15016   4.439   0.962   8.929 -0.2493  0.2552 -0.4573
 1186SOL    HW115017   4.397   0.886   8.889 -0.4953 -0.5184  1.2702
 1186SOL    HW215018   4.448   0.928   9.018 -0.6372  0.7318 -0.2330
 1187SOL     OW15019   2.094   3.487   3.141 -0.2531  0.0506 -0.2618
 1187SOL    HW115020   2.136   3.403   3.159 -2.3747 -0.8051  0.7143
 1187SOL    HW215021   2.123   3.535   3.218  0.0735  0.2098 -0.4839
 1188SOL     OW15022   1.901   0.283   8.086 -0.3307 -0.2808 -0.1487
 1188SOL    HW115023   1.875   0.271   7.995 -0.8093 -0.4531  0.0141
 1188SOL    HW215024   1.833   0.349   8.099  1.6734  1.4189  1.8026
 1189SOL     OW15025   1.843   3.833   0.877 -0.8165  0.7444  0.4139
 1189SOL    HW115026   1.901   3.840   0.952  1.3591 -1.1427 -1.1085
 1189SOL    HW215027   1.850   3.739   0.860  2.7556  1.1233 -0.1218
 1190SOL     OW15028   4.423   0.170  14.229  0.3677 -0.7536 -0.7202
 1190SOL    HW115029   4.341   0.150  14.183  1.6957 -1.3482 -2.8166
 1190SOL    HW215030   4.425   0.260  14.196 -0.1912 -2.1224 -4.5848
 1191SOL     OW15031   0.789   2.529  11.890 -0.1700  0.0747 -0.6161
 1191SOL    HW115032   0.765   2.458  11.950  0.3310  2.0820  2.0082
 1191SOL    HW215033   0.845   2.581  11.949 -0.4590  1.4132 -1.5317
 1192SOL     OW15034   2.388   1.642   1.131  0.4003  0.7567 -0.1151
 1192SOL    HW115035   2.470   1.593   1.138 -0.7004 -0.9970  0.3907
 1192SOL    HW215036   2.352   1.614   1.216  0.6200  0.5238 -0.0991
 1193SOL     OW15037   0.089   2.631   2.125 -0.0582  0.0079 -0.7942
 1193SOL    HW115038   0.171   2.677   2.137 -0.5468  0.5383  0.4904
 1193SOL    HW215039   0.031   2.662   2.195 -1.1311  1.3989 -2.2929
 1194SOL     OW15040   4.512   0.662   0.947 -0.0056  0.0060  0.3433
 1194SOL    HW115041   4.465   0.674   1.030 -0.4034  2.6025 -0.2582
 1194SOL    HW215042   4.439   0.623   0.900  0.1405  2.1298 -1.6317
 1195SOL     OW15043   3.382   2.465  17.479 -0.1332  0.1706  0.0372
 1195SOL    HW115044   3.300   2.475  17.528 -0.3134 -0.3200 -0.1670
 1195SOL    HW215045   3.435   2.533  17.521 -2.3535  0.8064  1.8032
 1196SOL     OW15046   1.268   4.660  17.221  0.1863  0.2679 -0.3764
 1196SOL    HW115047   1.269   4.579  17.273 -1.7664 -0.9726 -2.2527
 1196SOL    HW215048   1.323   4.718  17.274 -1.1949  0.9379  0.3140
 1197SOL     OW15049   0.042   2.193   8.789 -0.2013  0.1494  0.1244
 1197SOL    HW115050   0.040   2.158   8.699  0.2664 -1.5236  0.7633
 1197SOL    HW215051   0.064   2.113   8.837 -2.3535 -0.6880 -0.2628
 1198SOL     OW15052   3.913   2.361   2.794  0.0086 -0.2621  0.3461
 1198SOL    HW115053   3.915   2.440   2.849 -2.2122  0.2189 -0.2678
 1198SOL    HW215054   3.832   2.370   2.743  0.9969 -1.5357 -1.4482
 1199SOL     OW15055   1.013   2.212   0.140 -0.1325 -0.5941 -0.2863
 1199SOL    HW115056   0.976   2.280   0.084  1.5293 -0.0618 -0.7424
 1199SOL    HW215057   0.931   2.186   0.182  0.1141  1.8959  1.7662
 1200SOL     OW15058   3.909   0.234   7.498  0.1070  0.3179 -0.0165
 1200SOL    HW115059   4.004   0.222   7.490  0.1461  1.1855 -0.7638
 1200SOL    HW215060   3.903   0.222   7.593  1.4525  2.8627  0.3843
 1201SOL     OW15061   3.517   0.770   9.261  0.2845 -0.3355 -0.2367
 1201SOL    HW115062   3.524   0.863   9.239  0.6381  0.0978  1.7116
 1201SOL    HW215063   3.608   0.739   9.259  0.4686  0.0698  2.1132
 1202SOL     OW15064   4.634   1.642   9.020  0.0315  0.0736 -0.2370
 1202SOL    HW115065   4.685   1.561   9.022 -0.3410 -0.1369  0.5436
 1202SOL    HW215066   4.583   1.620   9.097 -0.7588 -3.6628 -1.8347
 1203SOL     OW15067   3.224   3.378   4.326 -0.3256 -0.2112 -0.4050
 1203SOL    HW115068   3.242   3.291   4.290  0.8995  1.3155 -3.4896
 1203SOL    HW215069   3.161   3.405   4.259  0.6722 -1.1889 -1.7275
 1204SOL     OW15070   1.727   1.221   1.932  0.5126  0.5064 -0.1128
 1204SOL    HW115071   1.749   1.137   1.971 -3.3890 -0.7520 -0.6913
 1204SOL    HW215072   1.690   1.205   1.845  1.1830 -1.0067 -0.1195
 1205SOL     OW15073   4.409   2.398   1.112  0.2151  0.5705 -0.6204
 1205SOL    HW115074   4.461   2.389   1.031 -0.0196 -1.2270 -0.5546
 1205SOL    HW215075   4.338   2.451   1.076 -0.5345 -1.3934 -2.0524
 1206SOL     OW15076   2.001   0.415   7.617  1.1062  0.5855 -0.1818
 1206SOL    HW115077   1.915   0.443   7.588  0.4122 -1.5512 -0.1698
 1206SOL    HW215078   2.049   0.385   7.541 -0.4637  0.3440 -1.0741
 1207SOL     OW15079   3.223   1.406   9.996  0.0093  0.2974  0.4599
 1207SOL    HW115080   3.248   1.319  10.028  1.0001  0.4435  0.1035
 1207SOL    HW215081   3.128   1.406  10.006  0.0399 -0.2960  0.7738
 1208SOL     OW15082   2.688   3.754  15.338  0.3854  0.1154 -0.3734
 1208SOL    HW115083   2.607   3.801  15.320 -0.0028 -0.0193  1.0478
 1208SOL    HW215084   2.685   3.748  15.434 -0.0302  0.8165 -0.3374
 1209SOL     OW15085   1.946   0.014   6.391  0.8053 -0.5733 -0.1755
 1209SOL    HW115086   1.900   0.079   6.337 -1.1573 -2.2310 -0.5072
 1209SOL    HW215087   1.939   0.036   6.484 -0.3880 -0.2282 -0.3435
 1210SOL     OW15088   0.125   1.624   8.565 -0.3341  0.3830  0.5584
 1210SOL    HW115089   0.191   1.593   8.504  0.4068 -1.8944  2.5022
 1210SOL    HW215090   0.136   1.719   8.565  1.8635  0.1384  1.4015
 1211SOL     OW15091   1.335   3.538   8.678  0.1951  0.9938  0.0632
 1211SOL    HW115092   1.272   3.512   8.746  0.5057 -0.7620 -0.3189
 1211SOL    HW215093   1.346   3.630   8.701  1.1422  0.5452  1.3928
 1212SOL     OW15094   0.518   2.060  11.417  0.5577  0.3138  0.3006
 1212SOL    HW115095   0.427   2.081  11.397  0.2433  0.9239  2.4277
 1212SOL    HW215096   0.524   2.106  11.500  3.9566  0.6947 -0.1320
 1213SOL     OW15097   1.422   1.565  15.278  0.9063  0.1521  0.1898
 1213SOL    HW115098   1.378   1.571  15.363  1.8488  1.8640  0.5617
 1213SOL    HW215099   1.479   1.641  15.290  0.7387 -0.1284  2.7184
 1214SOL     OW15100   3.133   2.649   2.443 -0.5484 -0.1080  0.2245
 1214SOL    HW115101   3.137   2.745   2.442  0.8762 -0.1506  1.4341
 1214SOL    HW215102   3.113   2.646   2.537 -0.2267  1.1541  0.3428
 1215SOL     OW15103   0.850   3.639   3.963  0.5305  0.5173 -0.4360
 1215SOL    HW115104   0.865   3.567   4.025 -1.4758  2.1241  1.9248
 1215SOL    HW215105   0.822   3.713   4.016  1.0581 -0.7188  1.5821
 1216SOL     OW15106   1.599   3.695   4.913 -0.5447  0.1772 -0.7897
 1216SOL    HW115107   1.640   3.738   4.989  0.7516  1.6225 -2.3043
 1216SOL    HW215108   1.554   3.767   4.869 -2.2902 -0.3962  0.0635
 1217SOL     OW15109   4.280   1.126   4.570 -0.8136 -0.2963 -0.1524
 1217SOL    HW115110   4.186   1.116   4.555 -1.3478  1.3379  2.1521
 1217SOL    HW215111   4.293   1.207   4.521  0.0227  0.5555  1.4700
 1218SOL     OW15112   2.489   3.273  11.198  0.3574  0.1411 -0.0065
 1218SOL    HW115113   2.416   3.212  11.202  1.0237 -0.8471 -3.0533
 1218SOL    HW215114   2.545   3.234  11.266 -0.6583 -0.0046  0.7443
 1219SOL     OW15115   3.775   0.035   5.593  0.1791 -0.8461  0.4193
 1219SOL    HW115116   3.842   4.695   5.617  1.3028  0.0014 -0.4634
 1219SOL    HW215117   3.803   0.065   5.506  2.1299  2.4129  2.1602
 1220SOL     OW15118   3.136   3.414   6.324  0.4893 -1.1171  0.0687
 1220SOL    HW115119   3.043   3.435   6.331  0.7762 -0.3770  1.5223
 1220SOL    HW215120   3.150   3.357   6.399 -3.7861  0.7918  2.2960
 1221SOL     OW15121   0.333   1.387   0.342 -0.2694  0.2241  0.3549
 1221SOL    HW115122   0.405   1.446   0.364 -0.3377  0.3604  0.2054
 1221SOL    HW215123   0.265   1.415   0.404 -0.9980  0.5136 -0.5846
 1222SOL     OW15124   0.193   2.187   0.658  0.6332  0.6070  0.2041
 1222SOL    HW115125   0.243   2.268   0.668 -1.1340  1.5950  0.9347
 1222SOL    HW215126   0.245   2.149   0.587  0.8998  2.0408 -0.3712
 1223SOL     OW15127   0.992   1.683   8.884  0.7203  0.2311 -0.2626
 1223SOL    HW115128   1.015   1.775   8.875  0.7588  0.4047  1.5664
 1223SOL    HW215129   1.036   1.645   8.808  0.4319  0.3922 -0.5097
 1224SOL     OW15130   2.856   2.838   1.428  0.6385  0.6054 -0.3026
 1224SOL    HW115131   2.856   2.843   1.524 -1.0498  1.6973 -0.3565
 1224SOL    HW215132   2.762   2.852   1.411  0.6274  0.1298 -0.6428
 1225SOL     OW15133   0.887   2.230   5.675 -0.1144 -0.5227 -0.3180
 1225SOL    HW115134   0.902   2.237   5.581 -1.6234 -1.5792 -0.6312
 1225SOL    HW215135   0.979   2.240   5.698 -0.2244  0.9247 -0.4769
 1226SOL     OW15136   2.263   2.443   4.317  0.3348 -0.1882  0.1784
 1226SOL    HW115137   2.346   2.475   4.281  1.8244 -0.2536  3.5427
 1226SOL    HW215138   2.200   2.480   4.255 -0.1948  1.5654  1.7490
 1227SOL     OW15139   1.710   1.312   0.417 -0.0176  0.5551  0.0436
 1227SOL    HW115140   1.739   1.229   0.379  2.3632  0.6838  1.5481
 1227SOL    HW215141   1.634   1.293   0.472 -2.1555  2.3838 -2.3479
 1228SOL     OW15142   1.974   1.465   1.106  0.4971 -0.0384 -0.2791
 1228SOL    HW115143   2.039   1.532   1.128  1.3482 -1.1146  0.4504
 1228SOL    HW215144   2.034   1.409   1.057 -0.8886 -3.1253  1.6275
 1229SOL     OW15145   2.374   4.311  13.447 -0.0118 -0.2035 -0.8723
 1229SOL    HW115146   2.366   4.285  13.355 -3.5088  0.1818 -0.6734
 1229SOL    HW215147   2.349   4.403  13.447  0.7236 -0.0070  1.4496
 1230SOL     OW15148   4.398   0.813   2.902  0.5649  0.2440  0.8180
 1230SOL    HW115149   4.362   0.791   2.988 -2.2674  0.4784 -0.3290
 1230SOL    HW215150   4.484   0.846   2.927 -0.4658  2.7571  0.9877
 1231SOL     OW15151   4.322   2.364   5.831 -0.5182 -0.5985  0.1615
 1231SOL    HW115152   4.396   2.383   5.888  0.9764  0.6475 -2.1516
 1231SOL    HW215153   4.333   2.271   5.814 -0.1494 -0.7426  1.2259
 1232SOL     OW15154   2.432   2.083   7.753 -0.5855 -0.4072  0.3044
 1232SOL    HW115155   2.402   2.170   7.727 -2.4568 -0.4655  2.2714
 1232SOL    HW215156   2.455   2.060   7.663  3.3647 -0.5279  1.3611
 1233SOL     OW15157   1.976   2.115   8.288  0.2214  0.0193  0.8766
 1233SOL    HW115158   2.049   2.056   8.306  0.2151  0.2693  1.6954
 1233SOL    HW215159   1.910   2.078   8.347 -0.2572 -1.4803 -0.6032
 1234SOL     OW15160   2.723   4.479   0.040  0.3824  0.4185 -0.5350
 1234SOL    HW115161   2.812   4.488   0.075  0.9198  1.1680 -2.1030
 1234SOL    HW215162   2.713   4.562  17.690 -0.1096  1.9083  2.2920
 1235SOL     OW15163   1.594   1.608   6.424  0.5742 -0.2323  0.8507
 1235SOL    HW115164   1.602   1.638   6.514  0.9846  1.8847  0.0982
 1235SOL    HW215165   1.654   1.533   6.431 -0.0326 -0.9367 -1.4224
 1236SOL     OW15166   1.876   0.075  15.837 -0.2281 -0.3433 -0.6357
 1236SOL    HW115167   1.934   0.002  15.815  3.5061  2.2809  0.5120
 1236SOL    HW215168   1.918   0.114  15.914  1.4519 -1.8199 -0.8031
 1237SOL     OW15169   0.688   0.129   6.288  0.5518  0.4056  0.0505
 1237SOL    HW115170   0.771   0.135   6.335  0.5245 -3.3221  0.6381
 1237SOL    HW215171   0.675   0.215   6.249 -1.4520  0.9687  1.9321
 1238SOL     OW15172   1.016   0.578   4.259 -0.3502 -0.2563  0.0309
 1238SOL    HW115173   1.082   0.515   4.288  0.7279  0.5372 -0.7261
 1238SOL    HW215174   0.944   0.550   4.316 -1.5663  1.6708 -0.5715
 1239SOL     OW15175   4.134   0.447  13.500  0.3062  0.2291 -0.3413
 1239SOL    HW115176   4.054   0.497  13.516  0.5408  1.3459 -2.8015
 1239SOL    HW215177   4.109   0.355  13.499  1.2506  0.0001 -1.5711
 1240SOL     OW15178   1.626   2.064   7.185  0.1572  0.2997 -0.0353
 1240SOL    HW115179   1.697   2.005   7.157  1.1550  1.3722  0.2176
 1240SOL    HW215180   1.618   2.102   7.097  0.0831 -0.2625 -0.2712
 1241SOL     OW15181   0.019   3.867   9.388 -0.2822  0.0854 -0.1660
 1241SOL    HW115182   4.670   3.830   9.437  1.2228 -0.1904  1.8555
 1241SOL    HW215183   0.081   3.795   9.375 -1.5901 -1.0542  0.0214
 1242SOL     OW15184   4.513   2.507  16.666  0.0396 -0.0031 -0.5826
 1242SOL    HW115185   4.561   2.554  16.598  0.8098  0.1544  0.0731
 1242SOL    HW215186   4.429   2.509  16.620 -0.5061 -1.5082  0.3547
 1243SOL     OW15187   0.353   2.649   5.916 -0.7787 -0.1302  0.1082
 1243SOL    HW115188   0.442   2.630   5.946 -0.3360  0.3267 -0.9456
 1243SOL    HW215189   0.368   2.670   5.824  0.7246  1.9525  0.8129
 1244SOL     OW15190   0.655   1.005   6.185  0.0274  0.2698 -0.3241
 1244SOL    HW115191   0.571   1.049   6.186 -1.1379 -2.0011  1.0478
 1244SOL    HW215192   0.706   1.078   6.148  2.8359 -1.4251  0.2199
 1245SOL     OW15193   3.001   0.041   8.740  0.4387 -0.8499 -0.4227
 1245SOL    HW115194   3.022   4.693   8.801  0.7038 -1.3693 -1.1275
 1245SOL    HW215195   2.977   4.718   8.660  0.3055 -0.8591 -0.3780
 1246SOL     OW15196   2.061   1.053   4.695  0.2438 -0.4716 -0.7986
 1246SOL    HW115197   1.994   1.072   4.629 -0.5919  1.6776  0.6630
 1246SOL    HW215198   2.120   0.999   4.643  2.3687 -0.0504  1.1862
 1247SOL     OW15199   4.523   2.080  11.163  0.8436 -0.6811 -0.1932
 1247SOL    HW115200   4.586   2.152  11.159 -0.6154  0.4524 -2.4256
 1247SOL    HW215201   4.454   2.111  11.105  1.4264  1.3154  0.1933
 1248SOL     OW15202   4.552   0.023  11.916 -0.0461 -0.1212  0.3531
 1248SOL    HW115203   4.491   4.709  11.852 -0.9321  0.0413  1.0994
 1248SOL    HW215204   4.597   4.669  11.950 -0.7059 -1.2459 -1.2986
 1249SOL     OW15205   1.647   1.886   2.972  0.2812 -0.2303 -0.4749
 1249SOL    HW115206   1.587   1.845   3.034  1.2188 -0.6312  0.1647
 1249SOL    HW215207   1.665   1.966   3.022 -2.0639  1.6621 -2.6600
 1250SOL     OW15208   4.256   0.335  14.432  0.2833  0.0665  0.1063
 1250SOL    HW115209   4.181   0.277  14.422  1.7135 -1.8623  0.6094
 1250SOL    HW215210   4.316   0.288  14.490  1.5033  0.2449 -1.0265
 1251SOL     OW15211   3.111   2.630   6.862  0.0870 -0.2552 -0.5430
 1251SOL    HW115212   3.075   2.646   6.950 -2.0825 -2.4498 -1.0397
 1251SOL    HW215213   3.049   2.569   6.822 -3.2283  2.5456  0.2902
 1252SOL     OW15214   2.894   2.529   1.448  0.2168 -0.3587 -0.0134
 1252SOL    HW115215   2.807   2.516   1.410  0.3795 -2.3822  0.2731
 1252SOL    HW215216   2.889   2.618   1.482  0.7069 -0.4683  0.3477
 1253SOL     OW15217   0.095   3.224  15.105  0.4284 -0.5281  0.3234
 1253SOL    HW115218   0.114   3.252  15.015  0.1186 -1.3190  0.0119
 1253SOL    HW215219   0.154   3.151  15.121  0.2725 -0.9807 -1.1910
 1254SOL     OW15220   3.085   1.599  14.837 -0.5119  0.0099 -0.3790
 1254SOL    HW115221   3.146   1.537  14.879  1.1226  1.4249 -0.6972
 1254SOL    HW215222   3.105   1.686  14.871 -3.1205  0.0997  0.8955
 1255SOL     OW15223   3.777   2.787  14.843 -0.6630 -0.9441  0.2422
 1255SOL    HW115224   3.691   2.813  14.877  1.2647  1.3683  3.3104
 1255SOL    HW215225   3.800   2.721  14.908 -0.5459 -1.4537 -0.3137
 1256SOL     OW15226   2.336   1.011  12.904  0.1360 -0.3286 -0.2412
 1256SOL    HW115227   2.279   0.936  12.888  0.4995 -0.1902 -2.1281
 1256SOL    HW215228   2.411   0.964  12.942 -0.7819  0.1512  2.1671
 1257SOL     OW15229   4.302   3.087   2.662 -0.0173 -0.2080 -0.0159
 1257SOL    HW115230   4.292   3.181   2.676  0.8165  0.0173 -0.9025
 1257SOL    HW215231   4.384   3.083   2.612  0.3844 -2.7821  0.8593
 1258SOL     OW15232   0.675   0.426  15.185 -0.0785 -0.3885  0.1843
 1258SOL    HW115233   0.713   0.415  15.273 -0.3343 -0.2334  0.3148
 1258SOL    HW215234   0.625   0.344  15.185 -0.6438 -0.0402 -1.7576
 1259SOL     OW15235   1.425   2.700  12.758  0.3298 -0.4618  0.1698
 1259SOL    HW115236   1.370   2.653  12.821  1.4124 -2.2808 -0.2436
 1259SOL    HW215237   1.450   2.783  12.800 -1.2746  0.4365 -0.6306
 1260SOL     OW15238   3.764   0.102   8.329 -0.0157  0.0731 -0.1361
 1260SOL    HW115239   3.670   0.086   8.320 -0.2816  1.7288 -0.2864
 1260SOL    HW215240   3.768   0.177   8.270  2.1077  0.4316  0.4668
 1261SOL     OW15241   2.675   1.310   7.065 -0.2704  0.0815  0.2114
 1261SOL    HW115242   2.719   1.229   7.091 -2.1580 -0.2738  2.3451
 1261SOL    HW215243   2.676   1.294   6.971  2.0484  0.5730  0.1498
 1262SOL     OW15244   4.515   3.932   7.232  0.4761  0.4313  0.1743
 1262SOL    HW115245   4.593   3.982   7.256 -0.5424  2.1777 -0.1964
 1262SOL    HW215246   4.476   3.947   7.318 -1.7152  1.6343 -1.0338
 1263SOL     OW15247   3.181   2.453   2.076 -0.2165  0.6853  0.2323
 1263SOL    HW115248   3.219   2.369   2.050 -1.2358 -0.2870  1.8645
 1263SOL    HW215249   3.185   2.495   1.990 -0.2352  0.5926  0.1858
 1264SOL     OW15250   0.610   4.039  14.384  0.4511 -0.0875  0.1669
 1264SOL    HW115251   0.692   4.088  14.387  0.8892 -0.7701 -0.6165
 1264SOL    HW215252   0.573   4.081  14.306  3.0788 -2.4169 -2.3468
 1265SOL     OW15253   2.424   1.414   2.790  0.1584  0.1476  0.7464
 1265SOL    HW115254   2.412   1.431   2.696  2.4620  1.4595  0.6938
 1265SOL    HW215255   2.361   1.343   2.802  0.1595  0.1323  0.6588
 1266SOL     OW15256   2.693   3.112   9.009 -0.0150 -0.1949  0.0105
 1266SOL    HW115257   2.730   3.061   8.937 -0.8261 -0.8876  0.0864
 1266SOL    HW215258   2.766   3.100   9.070  2.6193  2.5108 -2.6198
 1267SOL     OW15259   2.891   2.766  12.765  1.0351 -0.1017  0.5070
 1267SOL    HW115260   2.874   2.701  12.698 -1.0205  0.5778  0.3499
 1267SOL    HW215261   2.959   2.814  12.718  0.6102  1.5717  1.5920
 1268SOL     OW15262   1.136   2.432   8.065  0.0939  0.5690 -0.6055
 1268SOL    HW115263   1.217   2.469   8.100  0.2294 -1.7584  1.5214
 1268SOL    HW215264   1.085   2.507   8.032 -0.5545 -0.1052 -1.1359
 1269SOL     OW15265   4.714   3.528   8.827  0.6619  0.0130  0.7307
 1269SOL    HW115266   0.011   3.611   8.784  2.9034 -0.9631 -0.1025
 1269SOL    HW215267   0.076   3.483   8.828  0.7977  0.2312 -0.2022
 1270SOL     OW15268   3.788   2.551   0.992  0.3810  0.3403  0.2523
 1270SOL    HW115269   3.847   2.620   1.022  1.8457 -1.6405  1.9596
 1270SOL    HW215270   3.849   2.477   0.999 -0.2840 -0.3756 -1.4260
 1271SOL     OW15271   2.788   1.775   6.061  0.8296  0.2463 -0.2662
 1271SOL    HW115272   2.722   1.832   6.100 -1.2012 -1.2676 -1.4462
 1271SOL    HW215273   2.777   1.785   5.966 -0.8812  1.2509  0.0505
 1272SOL     OW15274   2.023   2.987   6.930  0.3093 -0.1037 -0.1851
 1272SOL    HW115275   2.099   3.039   6.903 -0.5408  1.4780  0.4989
 1272SOL    HW215276   1.962   3.046   6.886 -1.4989 -0.3991  1.9181
 1273SOL     OW15277   4.019   1.441   9.853 -0.2208 -0.3991  0.0158
 1273SOL    HW115278   4.090   1.480   9.903 -0.0279 -0.0008 -0.5741
 1273SOL    HW215279   3.944   1.489   9.888  0.4762  0.5533  0.1951
 1274SOL     OW15280   4.424   3.670   9.307 -1.0423  0.0227 -0.2083
 1274SOL    HW115281   4.419   3.587   9.355 -0.8621  1.1321  1.7055
 1274SOL    HW215282   4.344   3.719   9.327 -1.3745 -0.6809  0.1965
 1275SOL     OW15283   2.314   2.178   1.190 -0.4080 -0.0520 -0.0015
 1275SOL    HW115284   2.337   2.271   1.188 -0.6512  0.0873  3.2342
 1275SOL    HW215285   2.220   2.193   1.185 -0.3153  0.6397  0.3594
 1276SOL     OW15286   4.466   3.182   8.118 -0.0626  0.2431 -0.5411
 1276SOL    HW115287   4.553   3.160   8.150 -0.7720 -1.8958 -0.0830
 1276SOL    HW215288   4.420   3.196   8.201  1.2891 -2.3148  0.6402
 1277SOL     OW15289   2.125   3.734   7.669 -0.6901  0.0187 -0.2064
 1277SOL    HW115290   2.111   3.828   7.681 -0.3777  0.2183 -1.4810
 1277SOL    HW215291   2.166   3.713   7.753  0.2105  1.6635 -0.2309
 1278SOL     OW15292   1.959   2.208   7.790  0.2752 -0.1065 -0.2089
 1278SOL    HW115293   1.867   2.217   7.815  0.4708  1.3685  0.0040
 1278SOL    HW215294   1.964   2.231   7.697  1.4684  0.2147 -0.0591
 1279SOL     OW15295   3.980   3.685   2.208  0.2909 -0.5128 -0.2152
 1279SOL    HW115296   4.018   3.749   2.268 -2.1959  0.5624  0.2017
 1279SOL    HW215297   3.895   3.724   2.189  0.3820 -0.3645 -0.3267
 1280SOL     OW15298   2.377   4.430  15.541 -0.1231  0.1365 -0.3375
 1280SOL    HW115299   2.364   4.525  15.533  0.1843  0.1502 -0.6935
 1280SOL    HW215300   2.463   4.432  15.584 -0.0233  0.8068 -0.5699
 1281SOL     OW15301   1.542   0.028  12.658 -0.2591 -0.2757  0.4948
 1281SOL    HW115302   1.470   0.045  12.718 -1.0382  1.0782 -0.8401
 1281SOL    HW215303   1.617   0.074  12.694 -0.9352 -0.0435  1.5905
 1282SOL     OW15304   4.466   0.408  12.512  0.0022 -0.5171 -0.6444
 1282SOL    HW115305   4.384   0.415  12.462  1.7280  1.7135 -3.1685
 1282SOL    HW215306   4.489   0.499  12.496  0.7709 -0.3833  1.2370
 1283SOL     OW15307   1.152   3.133   4.920  0.2457  0.3351 -0.2137
 1283SOL    HW115308   1.188   3.185   4.849  0.6612 -0.5473 -0.6543
 1283SOL    HW215309   1.089   3.070   4.884  0.2131  0.5223 -0.4828
 1284SOL     OW15310   0.266   0.610   0.684 -0.5705 -0.3643 -0.1533
 1284SOL    HW115311   0.298   0.672   0.619 -0.7943 -1.6688 -1.4958
 1284SOL    HW215312   0.195   0.669   0.709 -1.5674 -1.2300 -0.9382
 1285SOL     OW15313   3.432   0.657   1.279 -0.0902 -0.4503  0.5193
 1285SOL    HW115314   3.518   0.673   1.240 -0.2780 -1.7211 -0.4095
 1285SOL    HW215315   3.409   0.749   1.288  1.3972  0.1310 -1.6416
 1286SOL     OW15316   0.382   1.067   7.927 -0.0258 -0.3947 -0.2802
 1286SOL    HW115317   0.427   1.002   7.981 -1.3155 -2.0240 -1.2032
 1286SOL    HW215318   0.450   1.082   7.861 -1.1591  0.1348 -1.3092
 1287SOL     OW15319   2.596   2.725   7.709 -0.1108  0.3945  0.0927
 1287SOL    HW115320   2.627   2.635   7.715 -0.2139  0.4121  0.9578
 1287SOL    HW215321   2.640   2.746   7.627 -0.2619 -0.6309 -0.2517
 1288SOL     OW15322   4.553   1.912   6.173 -0.4085 -0.0455 -0.5846
 1288SOL    HW115323   4.604   1.993   6.186 -1.7335  0.7935 -0.5860
 1288SOL    HW215324   4.620   1.855   6.136  0.7555  0.4336  0.7475
 1289SOL     OW15325   3.767   3.082  11.444  0.3050  0.2236  0.1890
 1289SOL    HW115326   3.764   3.171  11.410  0.1436  0.2046  0.1551
 1289SOL    HW215327   3.680   3.059  11.412  0.2736  0.6970 -0.0663
 1290SOL     OW15328   0.838   1.463  11.465  0.2157 -0.7528 -0.0018
 1290SOL    HW115329   0.788   1.543  11.452  2.2286  0.8450  2.1330
 1290SOL    HW215330   0.920   1.487  11.422  0.1410  0.7997  0.7203
 1291SOL     OW15331   1.618   3.541   7.039  0.0015  0.1306  0.3001
 1291SOL    HW115332   1.545   3.594   7.008  0.6505  0.4811 -0.6246
 1291SOL    HW215333   1.583   3.460   7.075 -1.4472  0.9162  0.6671
 1292SOL     OW15334   0.307   0.477   9.663  0.3180  0.0548  0.7884
 1292SOL    HW115335   0.386   0.437   9.630 -1.6490 -2.6064 -0.6422
 1292SOL    HW215336   0.298   0.558   9.612 -0.1392 -1.0649 -0.9050
 1293SOL     OW15337   3.291   4.024  13.318  0.2055  0.2466 -0.4424
 1293SOL    HW115338   3.275   4.037  13.224 -1.2150  0.4068 -0.1841
 1293SOL    HW215339   3.202   3.992  13.337  0.0241  0.4960 -0.8542
 1294SOL     OW15340   1.985   3.509   8.173  0.0947  0.2764  0.3046
 1294SOL    HW115341   1.977   3.487   8.080 -1.7243  1.0487  0.2799
 1294SOL    HW215342   2.080   3.507   8.186  0.0209  1.3307  1.0358
 1295SOL     OW15343   4.379   2.189   7.224 -0.0142  0.6202 -0.0089
 1295SOL    HW115344   4.441   2.196   7.152  1.2899  1.7968  1.2048
 1295SOL    HW215345   4.409   2.105   7.258 -0.4990  0.2158 -0.6062
 1296SOL     OW15346   0.009   2.328   0.420  0.5199  0.1501 -0.1662
 1296SOL    HW115347   4.637   2.332   0.433  0.6975 -2.1682  1.7996
 1296SOL    HW215348   0.031   2.296   0.507  0.5636  0.8857  0.0995
 1297SOL     OW15349   1.713   0.586   4.018  0.2800 -0.2870 -0.2884
 1297SOL    HW115350   1.666   0.533   3.954  0.9414 -0.5001 -0.6031
 1297SOL    HW215351   1.645   0.629   4.069 -0.8256 -0.0798 -1.9396
 1298SOL     OW15352   3.876   3.205   5.269  0.5447 -0.0378 -0.0439
 1298SOL    HW115353   3.860   3.215   5.175  0.5122  1.4988  0.1220
 1298SOL    HW215354   3.877   3.111   5.286 -1.1478  0.1237  0.9987
 1299SOL     OW15355   1.674   0.784  11.833  0.1208  0.0226 -0.1188
 1299SOL    HW115356   1.619   0.724  11.782  4.2459 -3.6199 -0.2776
 1299SOL    HW215357   1.655   0.749  11.920 -1.0020  1.6291  0.2711
 1300SOL     OW15358   1.098   0.807   4.562  0.2529  0.4066  0.6505
 1300SOL    HW115359   1.177   0.792   4.614  1.2974  2.4118 -0.3632
 1300SOL    HW215360   1.025   0.805   4.624 -0.7988 -0.3799 -0.6201
 1301SOL     OW15361   1.233   0.143  12.414  0.0974  0.2727 -0.8593
 1301SOL    HW115362   1.284   0.081  12.362  0.8100 -0.2711  0.4701
 1301SOL    HW215363   1.140   0.122  12.408  0.4600 -1.2552 -1.0458
 1302SOL     OW15364   2.760   1.612   5.543  0.6257 -0.3822 -0.6654
 1302SOL    HW115365   2.780   1.703   5.520  1.1305 -0.4474 -0.4649
 1302SOL    HW215366   2.766   1.584   5.452  0.1124 -2.0673 -0.1754
 1303SOL     OW15367   4.718   1.174  16.097 -0.5090  0.2627  0.2198
 1303SOL    HW115368   0.007   1.168  16.003  0.4882  0.2426  0.3474
 1303SOL    HW215369   4.644   1.234  16.101 -1.6623 -1.0479 -1.8701
 1304SOL     OW15370   3.860   0.873  10.335 -0.1303 -0.2532  0.7200
 1304SOL    HW115371   3.815   0.919  10.406 -2.0562 -0.4680 -0.3528
 1304SOL    HW215372   3.951   0.902  10.347 -0.4724  0.7430  0.9190
 1305SOL     OW15373   1.787   2.830   4.551 -0.0651 -0.2364 -0.1772
 1305SOL    HW115374   1.758   2.769   4.483 -0.2921 -0.6436  0.2810
 1305SOL    HW215375   1.864   2.864   4.505  0.5294 -1.4137 -0.0564
 1306SOL     OW15376   3.193   1.130   9.690 -0.2751  0.7035 -0.8921
 1306SOL    HW115377   3.227   1.164   9.607  0.9714  0.8647 -0.3042
 1306SOL    HW215378   3.273   1.120   9.741  0.4836 -0.2496 -2.2645
 1307SOL     OW15379   1.223   0.815  12.034  0.2100  0.4711  0.4863
 1307SOL    HW115380   1.128   0.807  12.043  0.2090 -0.3548 -0.3171
 1307SOL    HW215381   1.239   0.741  11.976 -1.5873 -0.2015  0.8446
 1308SOL     OW15382   2.685   2.519   5.008 -0.1243 -0.1452  0.1402
 1308SOL    HW115383   2.610   2.517   4.948 -0.3420  2.2745  0.3492
 1308SOL    HW215384   2.678   2.610   5.035  3.2223  0.6334 -1.5775
 1309SOL     OW15385   0.840   3.807   8.377  0.2293  0.0982  0.0654
 1309SOL    HW115386   0.838   3.807   8.281  1.2527  1.9715  0.0412
 1309SOL    HW215387   0.932   3.782   8.388 -0.1868 -0.0904  3.1905
 1310SOL     OW15388   2.896   4.222  16.342 -0.1771 -0.1467  0.4281
 1310SOL    HW115389   2.930   4.309  16.324 -0.8810 -0.1273 -0.7685
 1310SOL    HW215390   2.867   4.183  16.260  0.0373 -3.1597  1.7620
 1311SOL     OW15391   0.157   3.662   9.049  0.3953 -0.1093  0.5217
 1311SOL    HW115392   0.173   3.659   8.955 -0.0956 -0.2147  0.4431
 1311SOL    HW215393   0.078   3.714   9.034 -0.0107 -1.1114 -0.7765
 1312SOL     OW15394   4.371   3.878  14.035 -0.3021  0.2367 -0.2112
 1312SOL    HW115395   4.287   3.873  13.990  0.1970  1.6903 -1.3116
 1312SOL    HW215396   4.338   3.916  14.117 -0.0772  0.2695 -0.1360
 1313SOL     OW15397   1.651   0.583   8.948  0.0284  0.1173 -0.3527
 1313SOL    HW115398   1.698   0.531   8.883  0.2821 -1.8145  1.3892
 1313SOL    HW215399   1.565   0.542   8.951 -0.7120  1.8192  1.7621
 1314SOL     OW15400   2.593   2.305   6.005  0.1768  0.3053 -0.4269
 1314SOL    HW115401   2.543   2.375   5.962  1.5271  0.1167 -2.3003
 1314SOL    HW215402   2.589   2.333   6.096 -1.3176  2.5168 -1.1557
 1315SOL     OW15403   1.266   2.568   4.434 -0.3360 -0.2133  0.5142
 1315SOL    HW115404   1.196   2.560   4.499 -1.0963 -2.3455 -0.5779
 1315SOL    HW215405   1.219   2.551   4.352 -0.2208  0.4754  0.3069
 1316SOL     OW15406   2.098   3.776   5.199 -0.3100 -0.4045 -0.0263
 1316SOL    HW115407   2.177   3.784   5.145 -0.5062  0.6454 -0.1650
 1316SOL    HW215408   2.115   3.850   5.257  1.7157 -0.1795 -0.8916
 1317SOL     OW15409   2.058   0.272   1.325 -0.9147  0.1158  0.8865
 1317SOL    HW115410   2.090   0.362   1.319  0.2059 -0.4073 -0.9417
 1317SOL    HW215411   1.982   0.270   1.266 -0.2829 -0.4132  0.0983
 1318SOL     OW15412   1.371   4.634  12.273 -0.1635  0.3428 -0.1403
 1318SOL    HW115413   1.302   4.579  12.237 -1.3890  1.2199  0.9029
 1318SOL    HW215414   1.397   4.671  12.188 -1.5568  1.1713 -0.2077
 1319SOL     OW15415   0.490   3.769   4.187 -0.2135 -0.2243  0.6257
 1319SOL    HW115416   0.521   3.698   4.131 -1.5830 -1.0741  0.9492
 1319SOL    HW215417   0.513   3.842   4.131  1.4462  0.1996  1.8530
 1320SOL     OW15418   0.464   0.455   6.556 -0.3099 -0.4925 -0.1522
 1320SOL    HW115419   0.497   0.538   6.519  0.2139 -0.9886 -0.7997
 1320SOL    HW215420   0.385   0.445   6.502 -0.1290  0.5858 -0.6330
 1321SOL     OW15421   0.735   0.293   2.673  0.1078 -0.4122 -0.2580
 1321SOL    HW115422   0.752   0.222   2.735  2.5861  0.0351 -0.4132
 1321SOL    HW215423   0.720   0.371   2.726  0.2163 -0.0046 -0.8325
 1322SOL     OW15424   3.314   1.516   4.832  0.5396 -0.7343  0.0633
 1322SOL    HW115425   3.262   1.442   4.802  1.7662 -0.9267 -1.5958
 1322SOL    HW215426   3.404   1.491   4.811  0.2481 -0.3868 -1.5599
 1323SOL     OW15427   2.653   4.470   7.143 -1.1993  0.5868 -0.1965
 1323SOL    HW115428   2.703   4.419   7.078 -0.0041 -0.1094  1.2745
 1323SOL    HW215429   2.615   4.398   7.194 -1.8551 -0.1046 -1.6339
 1324SOL     OW15430   2.294   2.403   5.424 -0.1686 -0.0680 -0.3765
 1324SOL    HW115431   2.342   2.427   5.504  1.8627 -1.4950 -1.1806
 1324SOL    HW215432   2.241   2.333   5.461 -2.0054  0.5225 -1.8916
 1325SOL     OW15433   1.014   1.086   1.970  0.1012  0.3668  0.4457
 1325SOL    HW115434   0.925   1.094   2.003 -0.4484  1.4071 -1.2621
 1325SOL    HW215435   1.033   0.992   1.965 -2.6258 -0.0589 -2.1874
 1326SOL     OW15436   1.606   3.495   4.699 -0.5804  0.6924 -0.0937
 1326SOL    HW115437   1.557   3.568   4.737  0.9120  2.6228 -1.8925
 1326SOL    HW215438   1.664   3.482   4.773 -0.9053 -2.7804 -0.4449
 1327SOL     OW15439   0.173   1.499  15.860  0.9195  0.0443  0.4978
 1327SOL    HW115440   0.189   1.593  15.870 -0.4129  0.2010  1.2250
 1327SOL    HW215441   0.239   1.450  15.909 -1.1455  0.1867  3.4336
 1328SOL     OW15442   1.006   3.746   8.163  0.2120 -0.1654  0.3811
 1328SOL    HW115443   1.090   3.717   8.201 -2.9050 -0.8660  6.7665
 1328SOL    HW215444   1.049   3.796   8.094  1.7100  0.2125  1.5625
 1329SOL     OW15445   1.457   4.365   8.099 -0.1010  0.1133  0.7238
 1329SOL    HW115446   1.432   4.372   8.192 -2.3148  0.9804  0.0502
 1329SOL    HW215447   1.551   4.371   8.117 -0.2086  1.6116  0.7776
 1330SOL     OW15448   3.716   4.073   1.675  0.1966 -0.0669 -0.3595
 1330SOL    HW115449   3.791   4.078   1.734 -0.4319  1.1562  0.3543
 1330SOL    HW215450   3.722   3.980   1.656 -1.3749  0.0515 -1.3813
 1331SOL     OW15451   1.649   1.003  10.527  0.4766 -0.2429  0.2752
 1331SOL    HW115452   1.685   0.940  10.588  1.7740  1.7509  1.5742
 1331SOL    HW215453   1.671   0.962  10.443  1.9930 -1.2966  1.1935
 1332SOL     OW15454   2.438   3.583   2.977  0.0667 -0.0077  0.3894
 1332SOL    HW115455   2.461   3.509   2.921  1.4791  0.6365  0.1369
 1332SOL    HW215456   2.359   3.628   2.945 -0.0374  0.2647  1.0322
 1333SOL     OW15457   2.126   2.059  12.251 -0.2728  0.6570  0.0921
 1333SOL    HW115458   2.208   2.029  12.290  0.2863  0.7175 -1.0158
 1333SOL    HW215459   2.122   2.007  12.170  0.2476  1.9017 -0.7295
 1334SOL     OW15460   0.469   1.330   4.026 -0.1858  0.4150 -0.3968
 1334SOL    HW115461   0.386   1.370   4.000  1.6147  2.9607 -2.1819
 1334SOL    HW215462   0.439   1.239   4.024  1.8280 -0.2563 -0.1017
 1335SOL     OW15463   4.707   1.518   0.049  0.4404  0.2457  0.6870
 1335SOL    HW115464   4.630   1.462   0.044 -0.0155  0.8631  0.8775
 1335SOL    HW215465   0.052   1.459   0.083  0.5735 -0.2651 -0.4886
 1336SOL     OW15466   1.913   4.594   4.387  0.8574  0.1672  1.0105
 1336SOL    HW115467   1.992   4.595   4.333  0.4150 -0.4897  0.3552
 1336SOL    HW215468   1.920   4.673   4.441  1.4384 -0.3400  1.6889
 1337SOL     OW15469   4.640   0.038  14.185  0.6151  0.3609 -0.4756
 1337SOL    HW115470   4.576   4.718  14.128 -1.3523  3.6839 -0.7566
 1337SOL    HW215471   4.578   0.101  14.220  1.2436  0.6120  0.1868
 1338SOL     OW15472   2.483   2.892   3.755  0.0910 -0.4624 -0.1662
 1338SOL    HW115473   2.575   2.879   3.731 -0.0796 -0.5286 -0.7846
 1338SOL    HW215474   2.484   2.837   3.833 -2.2895 -0.0083  0.1716
 1339SOL     OW15475   4.483   2.212   6.464 -0.2341  0.6682 -0.5621
 1339SOL    HW115476   4.396   2.234   6.498 -0.5391  0.0671 -0.9422
 1339SOL    HW215477   4.528   2.188   6.545 -0.3465  2.3278 -0.0185
 1340SOL     OW15478   4.678   2.471   3.643  0.1696  0.1831  0.0022
 1340SOL    HW115479   4.584   2.477   3.660  0.0533 -1.6503  0.0616
 1340SOL    HW215480   4.706   2.408   3.710  1.4085  0.3925 -0.3131
 1341SOL     OW15481   0.482   2.358   4.597  0.0575 -0.0730  0.6071
 1341SOL    HW115482   0.411   2.412   4.633  0.8011  0.4709  1.2432
 1341SOL    HW215483   0.426   2.292   4.556 -0.9632  1.3231 -0.2836
 1342SOL     OW15484   1.385   2.277   7.152 -0.0649  0.3040 -0.8114
 1342SOL    HW115485   1.444   2.253   7.081 -0.2511 -1.3026 -0.4338
 1342SOL    HW215486   1.324   2.204   7.163  2.0364 -1.5709 -1.7694
 1343SOL     OW15487   2.924   2.962   6.244  0.1185  0.4136  0.4207
 1343SOL    HW115488   2.946   2.934   6.333 -1.0915  0.0088  0.5926
 1343SOL    HW215489   2.829   2.952   6.249  0.3580 -2.0365  0.0876
 1344SOL     OW15490   4.513   0.581   9.136 -0.2553  0.3028  0.0691
 1344SOL    HW115491   4.535   0.674   9.146 -0.0019  0.3364 -0.8523
 1344SOL    HW215492   4.528   0.554   9.227  0.1039 -0.2021 -0.1424
 1345SOL     OW15493   3.148   3.049   3.210  1.2476  0.6969 -0.3460
 1345SOL    HW115494   3.165   3.139   3.237 -1.0365  1.0033  0.0827
 1345SOL    HW215495   3.121   3.074   3.121  1.7393  0.0057 -0.6870
 1346SOL     OW15496   2.502   3.184   5.164  0.5159 -0.3003  0.4873
 1346SOL    HW115497   2.476   3.124   5.234 -1.1249 -2.3062 -1.8607
 1346SOL    HW215498   2.501   3.271   5.205 -1.1166 -1.0899  2.0890
 1347SOL     OW15499   2.382   4.070  15.873  0.3615  0.2838  0.5252
 1347SOL    HW115500   2.463   4.036  15.836 -0.1782 -0.3357 -0.0963
 1347SOL    HW215501   2.387   4.164  15.856  0.1165  0.5529  1.9518
 1348SOL     OW15502   2.545   1.590   7.043  0.4903  0.1030 -0.5021
 1348SOL    HW115503   2.558   1.640   6.962  0.8463 -1.0425 -1.1609
 1348SOL    HW215504   2.520   1.508   7.000  0.8560  0.1953 -0.8987
 1349SOL     OW15505   1.383   2.619   8.428 -0.0888  0.6750 -0.4117
 1349SOL    HW115506   1.362   2.586   8.515  1.7692  0.0793 -0.2018
 1349SOL    HW215507   1.381   2.536   8.381 -1.1663  0.6890 -0.3882
 1350SOL     OW15508   1.949   3.962   1.085  0.2364 -0.0533 -0.0831
 1350SOL    HW115509   2.034   3.957   1.129  0.8491  0.1630 -1.2371
 1350SOL    HW215510   1.962   4.049   1.049  1.7364  0.5056  1.8234
 1351SOL     OW15511   0.873   4.587   4.185 -0.3908  0.2083 -0.3514
 1351SOL    HW115512   0.841   4.497   4.181 -0.0192  0.1044 -1.0402
 1351SOL    HW215513   0.799   4.641   4.156 -0.3299  0.2351 -0.4597
 1352SOL     OW15514   2.128   3.940   7.129 -0.6093 -0.1926 -0.0578
 1352SOL    HW115515   2.080   3.921   7.209  0.8461 -2.6688  0.2239
 1352SOL    HW215516   2.064   3.908   7.066 -0.7402  2.1335 -1.1090
 1353SOL     OW15517   1.914   3.042   3.557  0.0317 -0.4598 -0.1460
 1353SOL    HW115518   1.906   2.964   3.613  0.8099 -2.1972 -2.4599
 1353SOL    HW215519   1.863   3.023   3.478 -2.6963  0.3650  1.4020
 1354SOL     OW15520   3.479   4.097  17.085  0.0196  0.4384  0.0416
 1354SOL    HW115521   3.454   4.056  17.168 -2.1823  1.7264  0.0119
 1354SOL    HW215522   3.540   4.033  17.049 -0.2790 -1.3709  2.7850
 1355SOL     OW15523   3.952   1.962  10.879  0.2134 -0.0418 -0.0419
 1355SOL    HW115524   4.043   1.935  10.865 -0.3332 -2.1608  0.4731
 1355SOL    HW215525   3.957   2.057  10.882  1.1608 -0.1183  0.8484
 1356SOL     OW15526   2.062   2.288   5.192  0.4224  0.1268 -0.1278
 1356SOL    HW115527   2.095   2.301   5.282  0.8391 -0.9934 -0.1167
 1356SOL    HW215528   2.035   2.377   5.169  1.3800 -0.0676 -1.9551
 1357SOL     OW15529   3.640   3.786   6.385 -0.1739 -0.0253 -0.3967
 1357SOL    HW115530   3.688   3.804   6.466 -1.7870  0.2458  0.4999
 1357SOL    HW215531   3.566   3.846   6.386 -0.5011 -0.4612  2.8240
 1358SOL     OW15532   3.163   0.143   2.556  0.2464 -0.0480  0.0106
 1358SOL    HW115533   3.189   0.233   2.540 -1.3340  0.7132  1.7037
 1358SOL    HW215534   3.201   0.087   2.488  0.4819 -1.0352  0.9533
 1359SOL     OW15535   3.687   0.600   3.112  0.2012  0.2028  0.4226
 1359SOL    HW115536   3.643   0.612   3.028 -0.0302 -1.8253  0.2500
 1359SOL    HW215537   3.769   0.648   3.108  0.4918 -0.1718  1.6832
 1360SOL     OW15538   3.711   4.664  13.330 -0.1046 -0.0229 -0.5791
 1360SOL    HW115539   3.749   0.023  13.299 -1.2884  0.2716 -1.2711
 1360SOL    HW215540   3.618   4.673  13.309  0.1667  1.8233 -0.9767
 1361SOL     OW15541   3.912   2.462   4.318 -0.4128 -0.2909  0.6189
 1361SOL    HW115542   3.925   2.405   4.242 -0.7695  0.3539  0.0747
 1361SOL    HW215543   3.854   2.409   4.372  0.4049 -1.1873  0.6204
 1362SOL     OW15544   3.936   4.329   5.206 -0.1101 -0.0144 -0.5794
 1362SOL    HW115545   3.899   4.404   5.158 -0.1641 -0.6323 -1.5059
 1362SOL    HW215546   3.858   4.276   5.223  0.5567 -1.0587 -0.7993
 1363SOL     OW15547   4.675   0.381   8.323  0.0890 -0.2763  0.0596
 1363SOL    HW115548   4.628   0.413   8.401 -0.9170  0.9087 -1.0275
 1363SOL    HW215549   4.622   0.421   8.254  0.0840  1.6337  1.1657
 1364SOL     OW15550   2.388   0.460   6.713 -0.1038  0.7267  0.4297
 1364SOL    HW115551   2.378   0.371   6.749 -2.3594  0.1359 -1.6677
 1364SOL    HW215552   2.382   0.438   6.620  0.1568 -0.1385  0.6120
 1365SOL     OW15553   4.472   3.144   4.678  0.1119  0.2447 -0.8044
 1365SOL    HW115554   4.404   3.159   4.611 -1.6722 -0.5607  0.8255
 1365SOL    HW215555   4.434   3.074   4.732  2.9922 -0.9806 -0.4101
 1366SOL     OW15556   3.877   4.058   4.083 -0.3614  0.3619  0.0893
 1366SOL    HW115557   3.829   3.991   4.033  0.4456  0.9153 -1.4263
 1366SOL    HW215558   3.895   4.119   4.012 -0.2841 -0.2510 -0.4205
 1367SOL     OW15559   4.171   1.854   8.049  0.2056 -0.1793  0.6056
 1367SOL    HW115560   4.143   1.774   8.094  0.9774 -0.7148  0.1146
 1367SOL    HW215561   4.140   1.922   8.109  0.0131  0.6401 -0.4237
 1368SOL     OW15562   4.144   0.866   6.812 -0.2706  0.5745  0.3130
 1368SOL    HW115563   4.080   0.794   6.811  0.2607  0.1097 -0.1138
 1368SOL    HW215564   4.225   0.819   6.830 -0.2200  0.3768 -0.4183
 1369SOL     OW15565   0.331   0.520  17.663  0.5191 -0.4533  0.3925
 1369SOL    HW115566   0.378   0.444   0.001  0.2401 -1.3565 -1.2323
 1369SOL    HW215567   0.249   0.505   0.013  0.4580  1.3584  0.8939
 1370SOL     OW15568   2.718   2.106  16.364  0.2343 -0.1960 -0.2709
 1370SOL    HW115569   2.700   2.013  16.377 -0.2628 -0.1816 -0.8985
 1370SOL    HW215570   2.737   2.094  16.271  1.2349  0.8831 -0.2113
 1371SOL     OW15571   2.627   0.693   9.093  0.3941  0.3877  0.1464
 1371SOL    HW115572   2.672   0.679   9.009 -0.8008  0.4462 -0.4966
 1371SOL    HW215573   2.680   0.763   9.133 -0.8875  0.7221  1.2279
 1372SOL     OW15574   4.473   3.969   8.969  0.3236 -0.3574  0.4878
 1372SOL    HW115575   4.524   3.954   9.049  1.0639  0.6422  0.2052
 1372SOL    HW215576   4.390   3.975   9.015  1.3993 -0.2955  2.4300
 1373SOL     OW15577   3.866   0.881   3.368 -0.1108 -0.0448  0.1671
 1373SOL    HW115578   3.957   0.901   3.387 -0.3170  1.5174 -0.5395
 1373SOL    HW215579   3.833   0.832   3.443 -1.6019  2.7244  1.3187
 1374SOL     OW15580   1.324   3.289  14.029 -0.6016  0.1273  0.5304
 1374SOL    HW115581   1.412   3.318  14.054 -0.1119 -1.4038  0.5625
 1374SOL    HW215582   1.295   3.353  13.964 -2.0837 -1.0183  0.0632
 1375SOL     OW15583   3.070   0.150   4.331  0.1814 -0.2253  0.0150
 1375SOL    HW115584   3.123   0.118   4.258  0.5592 -1.0783  0.6520
 1375SOL    HW215585   2.997   0.089   4.322  0.2017 -0.4232  1.1192
 1376SOL     OW15586   3.272   3.012   6.615 -0.5779 -0.0050 -0.4502
 1376SOL    HW115587   3.343   2.996   6.677  0.6411 -0.2110 -1.9124
 1376SOL    HW215588   3.233   2.925   6.621 -1.0545  0.3125  1.3411
 1377SOL     OW15589   3.742   0.401  13.976  0.9916 -0.2216 -0.4892
 1377SOL    HW115590   3.685   0.329  13.951  0.8184 -1.2541  2.8886
 1377SOL    HW215591   3.761   0.431  13.887 -0.0177 -1.3678 -1.0876
 1378SOL     OW15592   3.677   0.043  13.647 -0.1917  0.4822  0.0957
 1378SOL    HW115593   3.633   4.682  13.658  1.9720 -0.5958  0.4941
 1378SOL    HW215594   3.662   0.060  13.554 -1.0172  2.1866  0.5509
 1379SOL     OW15595   4.332   1.267   0.856  0.4103 -0.1770  0.2931
 1379SOL    HW115596   4.367   1.178   0.867  0.6795 -0.1495 -0.3578
 1379SOL    HW215597   4.245   1.249   0.892 -0.1235 -0.0587 -0.9364
 1380SOL     OW15598   3.669   0.581   9.821 -0.1999 -0.4192 -0.0552
 1380SOL    HW115599   3.609   0.654   9.838  0.3351  0.2907 -1.1853
 1380SOL    HW215600   3.755   0.610   9.853  0.8247 -1.1751 -2.1612
 1381SOL     OW15601   2.822   1.210   6.546  0.4107  0.2169  0.1280
 1381SOL    HW115602   2.843   1.295   6.586  1.6449 -0.8792  1.8094
 1381SOL    HW215603   2.814   1.217   6.451 -0.0726  0.2416  0.1692
 1382SOL     OW15604   1.912   1.900   2.901  0.2582 -1.2364 -0.9411
 1382SOL    HW115605   1.945   1.815   2.929  0.3208 -0.8171  0.2842
 1382SOL    HW215606   1.821   1.879   2.925  0.8700  0.5399  3.0333
 1383SOL     OW15607   3.307   2.739   4.709 -0.1800 -0.4456  0.1990
 1383SOL    HW115608   3.255   2.698   4.778 -1.8459  0.9901 -0.2040
 1383SOL    HW215609   3.235   2.753   4.648 -0.8873 -1.5307  0.7872
 1384SOL     OW15610   0.929   1.497   9.982 -0.1250  0.6094 -0.3688
 1384SOL    HW115611   0.887   1.583   9.988 -0.0128  0.5113  1.7143
 1384SOL    HW215612   0.895   1.458   9.902  0.8821  0.9448 -0.9691
 1385SOL     OW15613   2.045   0.089   5.285 -0.2969  0.0909  0.5441
 1385SOL    HW115614   1.989   0.014   5.307  1.1155 -1.1295 -0.0426
 1385SOL    HW215615   1.978   0.155   5.304 -0.1578  0.3254  0.2137
 1386SOL     OW15616   2.133   0.905   3.113 -0.0614  0.7618  0.0903
 1386SOL    HW115617   2.105   0.844   3.181  0.1150 -1.3647 -1.7465
 1386SOL    HW215618   2.147   0.845   3.039 -1.4118 -0.4060  0.7981
 1387SOL     OW15619   3.784   1.635  11.631  0.0678  0.3262  0.0920
 1387SOL    HW115620   3.818   1.701  11.571 -2.1041  0.3036 -1.1437
 1387SOL    HW215621   3.747   1.573  11.568 -0.0518 -1.7719  2.2033
 1388SOL     OW15622   3.000   4.669   9.559  0.2188 -0.1939  0.6041
 1388SOL    HW115623   3.076   4.682   9.615  0.3439  2.2775 -0.1612
 1388SOL    HW215624   2.948   0.009   9.609 -0.4367 -0.1334 -0.1600
 1389SOL     OW15625   1.146   0.806  16.748  0.5938  0.2146  0.6762
 1389SOL    HW115626   1.083   0.753  16.699  1.0613  1.0545 -0.8347
 1389SOL    HW215627   1.190   0.741  16.803  0.5658 -0.1006  0.3256
 1390SOL     OW15628   1.474   1.023  15.449  0.0232  0.7594  0.0009
 1390SOL    HW115629   1.489   1.036  15.355 -3.4235 -1.7665 -0.8828
 1390SOL    HW215630   1.511   0.936  15.465  1.5546  0.9215 -2.5671
 1391SOL     OW15631   3.126   0.453  10.023 -0.4474 -0.4417  0.0728
 1391SOL    HW115632   3.090   0.468   9.935  2.6340  1.8777 -0.7886
 1391SOL    HW215633   3.098   0.362  10.031 -0.7113 -0.3846 -0.1890
 1392SOL     OW15634   3.384   2.117  14.079 -0.2879  0.7913 -0.8474
 1392SOL    HW115635   3.344   2.176  14.143 -2.7819 -0.8686 -0.8726
 1392SOL    HW215636   3.319   2.047  14.076  0.4366  0.0789  0.4615
 1393SOL     OW15637   2.180   1.285   2.792 -0.1728  0.5125 -0.1089
 1393SOL    HW115638   2.106   1.345   2.780  0.8768  1.9598  0.6356
 1393SOL    HW215639   2.149   1.215   2.735  2.4803 -0.8394  0.1314
 1394SOL     OW15640   4.315   1.625   8.954  0.3181  0.4078 -0.3194
 1394SOL    HW115641   4.373   1.606   9.027  0.1825 -0.1150 -0.3495
 1394SOL    HW215642   4.301   1.719   8.970  1.3609  0.3612  0.9032
 1395SOL     OW15643   0.643   3.382  13.080 -0.0435  0.1416 -0.1013
 1395SOL    HW115644   0.564   3.360  13.030 -0.3208 -0.5653  0.6358
 1395SOL    HW215645   0.675   3.299  13.116 -3.3705 -0.8567  0.5149
 1396SOL     OW15646   2.166   4.670   6.635 -0.6039 -0.9077  0.2886
 1396SOL    HW115647   2.154   0.042   6.636  0.0375 -0.8104 -1.6116
 1396SOL    HW215648   2.073   4.651   6.623 -1.4792  0.9862  4.0135
 1397SOL     OW15649   1.629   2.191   9.770 -0.2681  0.3231 -0.3765
 1397SOL    HW115650   1.666   2.111   9.731  0.1567 -0.1470  0.9945
 1397SOL    HW215651   1.590   2.238   9.696 -2.2166 -2.1344 -0.9077
 1398SOL     OW15652   4.419   0.020   3.077  0.1327  0.3958 -0.4446
 1398SOL    HW115653   4.419   4.680   3.006 -2.1915 -0.7243  0.5360
 1398SOL    HW215654   4.328   0.000   3.099  0.1794 -2.2064 -2.5963
 1399SOL     OW15655   4.247   2.635  14.893 -0.0682 -0.8598  0.2864
 1399SOL    HW115656   4.300   2.692  14.949  2.0426 -1.2465 -1.3176
 1399SOL    HW215657   4.284   2.553  14.927  0.7448 -1.1946 -1.4484
 1400SOL     OW15658   1.355   1.414   8.138  0.0168 -0.3486  0.1417
 1400SOL    HW115659   1.266   1.383   8.123 -0.2676  0.2944  0.4968
 1400SOL    HW215660   1.390   1.329   8.165  0.0067 -0.4893 -0.2847
 1401SOL     OW15661   1.585   4.392   3.432  0.1365 -0.0755  0.1633
 1401SOL    HW115662   1.600   4.428   3.344  0.5244 -2.4737 -0.7482
 1401SOL    HW215663   1.673   4.392   3.469  0.0294 -1.1038  0.4306
 1402SOL     OW15664   3.782   2.685   2.155  0.0693  0.0139 -0.5152
 1402SOL    HW115665   3.829   2.606   2.183  1.4389  0.6846 -0.9431
 1402SOL    HW215666   3.698   2.674   2.200 -0.3209 -1.4087 -1.5698
 1403SOL     OW15667   2.832   2.830   5.013  0.4153 -0.0067 -0.0343
 1403SOL    HW115668   2.738   2.820   5.026  0.7193  1.4325  3.2468
 1403SOL    HW215669   2.828   2.920   4.982 -0.2603 -0.2006 -0.4939
 1404SOL     OW15670   0.629   1.908   7.288  0.1771  0.0925 -0.1253
 1404SOL    HW115671   0.707   1.921   7.234 -1.0683 -0.7585 -2.1350
 1404SOL    HW215672   0.617   1.813   7.277 -0.5099  0.0375  1.1483
 1405SOL     OW15673   3.290   0.716  12.329 -0.0885 -0.4837 -0.4645
 1405SOL    HW115674   3.372   0.758  12.356 -1.1291  1.3593 -0.1424
 1405SOL    HW215675   3.321   0.637  12.285 -2.6121 -1.8947  0.2697
 1406SOL     OW15676   0.274   2.236   4.451  0.3222 -0.1285  0.3414
 1406SOL    HW115677   0.231   2.301   4.395  1.6750 -0.8504 -1.5212
 1406SOL    HW215678   0.194   2.200   4.489 -0.5496 -1.2664 -2.5361
 1407SOL     OW15679   0.469   0.030   4.336 -0.2690 -0.8974 -0.3882
 1407SOL    HW115680   0.438   4.670   4.301 -1.0208  0.4183 -2.8706
 1407SOL    HW215681   0.493   0.073   4.254  1.0272 -0.4898  0.2029
 1408SOL     OW15682   0.267   0.773   5.844 -0.2103 -0.0255  0.2907
 1408SOL    HW115683   0.221   0.694   5.872  0.6870 -0.7137 -0.2047
 1408SOL    HW215684   0.358   0.744   5.849 -0.1232 -0.2241 -2.6204
 1409SOL     OW15685   1.723   0.540   5.806 -0.2557  0.5843 -0.4902
 1409SOL    HW115686   1.645   0.486   5.804  0.2333 -0.1102 -0.7729
 1409SOL    HW215687   1.697   0.628   5.834  0.4170 -0.4164  3.4185
 1410SOL     OW15688   1.272   1.974   6.758  0.2532  0.1946 -0.4837
 1410SOL    HW115689   1.325   1.934   6.826  1.7857  2.1490 -0.5184
 1410SOL    HW215690   1.261   2.065   6.787 -0.3260  0.2381 -0.8363
 1411SOL     OW15691   1.116   0.878   8.146  0.4139 -0.3143  0.4055
 1411SOL    HW115692   1.121   0.783   8.159  0.3742 -0.5213 -1.1229
 1411SOL    HW215693   1.057   0.899   8.218  0.6214 -1.8507  1.0344
 1412SOL     OW15694   4.106   1.865   3.204  0.0042 -0.1711 -0.4113
 1412SOL    HW115695   4.063   1.950   3.218  0.2322 -0.2360  0.6666
 1412SOL    HW215696   4.029   1.812   3.182 -1.2017  1.8320 -1.0333
 1413SOL     OW15697   0.988   2.972   9.401 -0.0923  0.3354 -0.3750
 1413SOL    HW115698   1.014   2.880   9.407  1.7590  0.8521 -0.4112
 1413SOL    HW215699   0.895   2.964   9.381 -0.7542  3.1679  1.7196
 1414SOL     OW15700   1.356   3.243  11.629 -0.5407  0.1659  0.5836
 1414SOL    HW115701   1.379   3.317  11.686 -1.9207  0.0112  1.3406
 1414SOL    HW215702   1.438   3.221  11.585 -0.9098  2.4236 -1.2325
 1415SOL     OW15703   0.077   0.555   3.953 -0.2270  0.3250  0.2058
 1415SOL    HW115704   0.121   0.634   3.923  1.2754 -1.1925 -1.6203
 1415SOL    HW215705   4.716   0.584   3.987 -0.8198 -1.1831  0.0386
 1416SOL     OW15706   4.334   0.458   2.299 -0.5887 -0.0347  0.4278
 1416SOL    HW115707   4.389   0.532   2.275 -0.8611  0.4151  1.2099
 1416SOL    HW215708   4.321   0.485   2.390  2.4138  0.8438  0.5965
 1417SOL     OW15709   3.276   4.567   6.924 -0.0074  0.2584 -0.1991
 1417SOL    HW115710   3.193   4.560   6.877 -0.1090  2.5234 -0.3758
 1417SOL    HW215711   3.266   4.507   6.998 -1.1156  1.6631  0.7862
 1418SOL     OW15712   0.357   2.869   2.579  0.4492 -0.1821 -0.1886
 1418SOL    HW115713   0.271   2.896   2.613  1.0885 -2.0345  2.9143
 1418SOL    HW215714   0.398   2.955   2.568  2.1913 -0.9620  0.3339
 1419SOL     OW15715   4.144   2.353   8.340 -0.0768  0.0339 -0.3272
 1419SOL    HW115716   4.235   2.366   8.314  0.0026  0.2224  0.0528
 1419SOL    HW215717   4.155   2.352   8.435 -2.8691  1.1201  0.0316
 1420SOL     OW15718   0.401   1.460   6.655  0.0246 -0.1609  0.7508
 1420SOL    HW115719   0.364   1.532   6.706 -0.2893 -0.8448  1.4784
 1420SOL    HW215720   0.325   1.403   6.642  0.8975 -1.0591 -0.5001
 1421SOL     OW15721   2.933   0.583   6.770 -0.1180 -0.1883  0.2210
 1421SOL    HW115722   2.922   0.591   6.676 -0.0700 -1.7369  0.0837
 1421SOL    HW215723   2.852   0.533   6.786 -1.2412  1.4029 -0.4902
 1422SOL     OW15724   2.955   1.241  12.590 -0.3254  0.4792 -0.4925
 1422SOL    HW115725   2.958   1.148  12.568 -3.7488 -0.1260  1.6157
 1422SOL    HW215726   2.925   1.245  12.681 -1.2481  2.0800 -0.8648
 1423SOL     OW15727   1.491   1.125   0.421  0.7613  0.5587  0.0969
 1423SOL    HW115728   1.445   1.071   0.486  0.7959 -2.5755 -2.4936
 1423SOL    HW215729   1.580   1.092   0.415  0.7543  0.3270  1.2786
 1424SOL     OW15730   3.236   2.574   5.229 -0.4254  0.1166  0.1563
 1424SOL    HW115731   3.143   2.594   5.225 -0.4324  0.2079  0.7450
 1424SOL    HW215732   3.253   2.513   5.158  3.6068  0.7350  0.5869
 1425SOL     OW15733   3.878   3.546   6.856 -0.6337 -0.2011  0.1757
 1425SOL    HW115734   3.829   3.544   6.774 -0.4164  0.2203  0.0302
 1425SOL    HW215735   3.965   3.520   6.828  0.8392  2.7199  2.0189
 1426SOL     OW15736   3.552   2.862   1.216  0.2307  0.4046  0.3824
 1426SOL    HW115737   3.556   2.910   1.299  0.3488 -0.2508  0.7572
 1426SOL    HW215738   3.592   2.928   1.160 -2.7380  1.6696 -0.2787
 1427SOL     OW15739   4.517   0.708   8.798 -0.1481 -0.3601  0.1551
 1427SOL    HW115740   4.451   0.639   8.800 -0.2165 -0.2872  0.3386
 1427SOL    HW215741   4.505   0.739   8.708 -1.3270  5.2588  2.2345
 1428SOL     OW15742   3.017   3.341   5.605 -0.5131  0.7776  0.2657
 1428SOL    HW115743   3.038   3.319   5.696 -1.4723 -0.2578  0.2398
 1428SOL    HW215744   3.037   3.265   5.550  0.6393 -0.0196  1.7683
 1429SOL     OW15745   1.840   0.914   4.012 -0.0349  0.3017  0.3169
 1429SOL    HW115746   1.877   0.839   3.963 -1.7325 -1.3705  1.6089
 1429SOL    HW215747   1.785   0.947   3.941  2.5832  1.1200 -1.3655
 1430SOL     OW15748   3.356   1.789   5.108 -0.0085 -0.0541 -0.2280
 1430SOL    HW115749   3.403   1.858   5.154 -1.9064  1.3668 -0.4256
 1430SOL    HW215750   3.348   1.828   5.021  0.5002 -0.3368 -0.4023
 1431SOL     OW15751   3.969   3.256   6.570 -0.3291  0.2011  0.0932
 1431SOL    HW115752   3.980   3.298   6.655 -2.2990  0.7960  0.0563
 1431SOL    HW215753   3.947   3.330   6.513 -0.5045  0.9501  1.1397
 1432SOL     OW15754   4.503   4.102   6.780 -0.2514 -0.5644  0.0876
 1432SOL    HW115755   4.515   4.050   6.700 -0.9680 -0.6721  0.0488
 1432SOL    HW215756   4.548   4.036   6.832 -1.7557 -2.4076 -0.9221
 1433SOL     OW15757   3.970   3.505  11.515  0.3204 -0.6712  0.1396
 1433SOL    HW115758   3.944   3.448  11.587 -1.3978 -0.6066 -0.4153
 1433SOL    HW215759   3.935   3.453  11.442  3.6803 -0.8190 -1.4035
 1434SOL     OW15760   0.069   2.889   4.034 -0.2782  0.9193  0.1374
 1434SOL    HW115761   0.082   2.904   3.940  0.3447 -0.4300  0.0031
 1434SOL    HW215762   0.036   2.976   4.056 -1.4263  0.7535 -0.8788
 1435SOL     OW15763   3.728   2.491   9.039  0.3669  1.1194  0.3898
 1435SOL    HW115764   3.690   2.528   8.959 -2.5278 -3.8585 -0.5327
 1435SOL    HW215765   3.819   2.518   9.030  0.9839 -0.7677  0.8323
 1436SOL     OW15766   1.049   3.845   7.856 -0.5513  0.1167  0.3738
 1436SOL    HW115767   1.019   3.934   7.877 -2.0123 -0.1750 -0.4167
 1436SOL    HW215768   1.052   3.845   7.760  0.5558  1.9278  0.4042
 1437SOL     OW15769   0.230   1.214  12.533 -0.2546  0.5844  0.7089
 1437SOL    HW115770   0.197   1.124  12.538  1.0389  0.2167  2.8444
 1437SOL    HW215771   0.319   1.198  12.502 -0.5931 -1.8265  0.9740
 1438SOL     OW15772   2.968   4.600   0.095 -0.4639  0.1452 -0.4852
 1438SOL    HW115773   2.978   4.695   0.104 -1.5679  0.2839 -0.7858
 1438SOL    HW215774   3.061   4.577   0.097 -0.0936  1.6711  0.4209
 1439SOL     OW15775   0.427   4.430   7.799 -0.1096 -0.0928 -0.1837
 1439SOL    HW115776   0.403   4.484   7.723  0.8263  0.0116 -0.4016
 1439SOL    HW215777   0.429   4.504   7.859  0.7451  0.7562 -1.2567
 1440SOL     OW15778   0.359   0.074  14.126 -0.0102 -0.9252 -0.3961
 1440SOL    HW115779   0.428   0.020  14.166  0.2147 -0.1423  0.2620
 1440SOL    HW215780   0.367   0.030  14.041  1.2347  0.5008 -1.0002
 1441SOL     OW15781   1.765   0.729  15.282  0.0998  0.2328  0.0817
 1441SOL    HW115782   1.776   0.634  15.290  2.6382  0.3395 -2.1395
 1441SOL    HW215783   1.670   0.740  15.287 -0.1567 -1.4352 -1.1429
 1442SOL     OW15784   0.415   3.630  13.461  0.1671  0.6828  0.0896
 1442SOL    HW115785   0.499   3.640  13.415  0.1162  0.8516  0.0319
 1442SOL    HW215786   0.375   3.573  13.395  0.6615 -0.1331  0.4993
 1443SOL     OW15787   2.655   1.086   2.476  0.3501  0.0710 -0.3436
 1443SOL    HW115788   2.648   1.026   2.402  0.3395  1.5652 -1.5362
 1443SOL    HW215789   2.579   1.142   2.457  0.5789  0.0943 -1.1819
 1444SOL     OW15790   2.921   2.297  17.475 -0.6138 -0.0221  0.2073
 1444SOL    HW115791   2.979   2.260  17.541  0.7803 -0.3256 -1.1716
 1444SOL    HW215792   2.983   2.287  17.402 -2.2972 -0.1297 -1.1860
 1445SOL     OW15793   0.083   3.623   6.644  0.5596  0.3494  0.0492
 1445SOL    HW115794   4.723   3.625   6.597 -0.2713 -0.6198  1.4956
 1445SOL    HW215795   0.128   3.564   6.584  1.4295  0.1086  0.9549
 1446SOL     OW15796   1.184   2.193   5.743  0.1073 -0.2884 -0.7440
 1446SOL    HW115797   1.260   2.156   5.697  1.3933  1.6121 -0.1109
 1446SOL    HW215798   1.227   2.267   5.786 -0.1884 -1.2657  1.2238
 1447SOL     OW15799   2.520   1.415   6.436  0.3705  0.2670  0.1553
 1447SOL    HW115800   2.611   1.384   6.437  0.0260 -0.7598  0.2376
 1447SOL    HW215801   2.495   1.392   6.347  0.7079 -3.2294  0.9449
 1448SOL     OW15802   3.827   0.818  15.409 -0.1482  0.0722 -0.2071
 1448SOL    HW115803   3.842   0.771  15.327  0.7853 -0.3159  0.1935
 1448SOL    HW215804   3.850   0.907  15.382  0.5049  0.0226  0.1884
 1449SOL     OW15805   1.494   3.095   6.509  0.0888 -0.3896  0.3020
 1449SOL    HW115806   1.414   3.092   6.457 -0.9751 -1.1957  1.9799
 1449SOL    HW215807   1.543   3.033   6.455  1.3693 -0.2202  1.2794
 1450SOL     OW15808   4.059   2.272  14.988 -0.1445 -0.0701  0.2056
 1450SOL    HW115809   4.111   2.194  14.971 -3.6485 -2.2660 -0.5271
 1450SOL    HW215810   3.994   2.280  14.918 -0.4036 -0.8023  0.3655
 1451SOL     OW15811   3.795   1.279  10.799 -0.2257 -0.2600  0.1976
 1451SOL    HW115812   3.824   1.189  10.812  2.4988  0.7384  1.1518
 1451SOL    HW215813   3.700   1.278  10.798 -0.2095 -1.9712  0.8905
 1452SOL     OW15814   2.608   2.144   5.247  0.1105  0.6794 -0.2694
 1452SOL    HW115815   2.663   2.205   5.199 -0.5720  2.7176  1.5055
 1452SOL    HW215816   2.532   2.201   5.256  0.2414  1.0829 -1.8393
 1453SOL     OW15817   3.186   2.897   7.825 -0.1932 -0.1577 -0.6148
 1453SOL    HW115818   3.281   2.908   7.831 -0.4364  1.1808  0.9236
 1453SOL    HW215819   3.161   2.952   7.899 -0.9991 -0.1191 -0.9094
 1454SOL     OW15820   4.220   0.362   7.746 -0.3052  0.0425 -0.5169
 1454SOL    HW115821   4.227   0.266   7.750  1.5489  0.1254 -1.9811
 1454SOL    HW215822   4.277   0.390   7.817 -1.7125  0.4712  0.4537
 1455SOL     OW15823   1.981   4.239   2.394  0.3572  0.1516  0.2814
 1455SOL    HW115824   2.019   4.240   2.306  0.0893 -0.1726  0.1631
 1455SOL    HW215825   2.037   4.177   2.441 -2.2632 -1.3868  1.4041
 1456SOL     OW15826   1.483   1.420   8.578 -0.2157  0.7804  0.3947
 1456SOL    HW115827   1.555   1.369   8.614  0.3309  1.9507  0.9729
 1456SOL    HW215828   1.526   1.462   8.503 -0.2073  2.1481  1.1485
 1457SOL     OW15829   4.038   2.129   3.241  0.0086 -0.0158  0.0318
 1457SOL    HW115830   4.083   2.152   3.322  0.5979 -0.8235 -0.0734
 1457SOL    HW215831   3.952   2.172   3.246  0.5192  1.3042 -2.6645
 1458SOL     OW15832   3.780   1.527   3.146  0.3294 -0.1850 -0.5599
 1458SOL    HW115833   3.739   1.450   3.106  1.5852 -1.7283  1.1435
 1458SOL    HW215834   3.700   1.580   3.144  0.8900  0.5758 -2.2406
 1459SOL     OW15835   2.922   2.737   7.894 -0.0121 -0.1557  0.1249
 1459SOL    HW115836   2.909   2.827   7.866  1.1757  0.2705  0.9398
 1459SOL    HW215837   2.850   2.729   7.956 -0.2909  2.1249  0.1023
 1460SOL     OW15838   1.143   1.344  13.479  0.3415  0.6037  0.2255
 1460SOL    HW115839   1.088   1.338  13.402  2.5821 -1.6040 -1.1983
 1460SOL    HW215840   1.104   1.423  13.518 -0.9136  0.8995 -1.6207
 1461SOL     OW15841   1.631   0.650   5.418 -0.6595  0.7831  0.0610
 1461SOL    HW115842   1.681   0.710   5.363 -3.3512  0.8602 -2.2883
 1461SOL    HW215843   1.689   0.610   5.483  0.2982  1.2242 -0.5176
 1462SOL     OW15844   2.063   1.436   4.056  0.2913 -0.6121  0.0317
 1462SOL    HW115845   1.992   1.376   4.078 -0.8977  0.4735 -0.8475
 1462SOL    HW215846   2.057   1.437   3.961 -2.8173  0.6268  0.2424
 1463SOL     OW15847   2.709   2.215   7.583  0.0738  0.0968 -0.1706
 1463SOL    HW115848   2.757   2.200   7.501 -0.5207  1.7934 -0.8448
 1463SOL    HW215849   2.620   2.200   7.551  0.3538  1.6018 -1.7081
 1464SOL     OW15850   3.828   4.365  13.662 -0.3762 -0.0329  0.2509
 1464SOL    HW115851   3.828   4.341  13.755 -0.7802  2.0901  0.8016
 1464SOL    HW215852   3.734   4.360  13.645  0.1642 -1.5336 -2.3651
 1465SOL     OW15853   3.853   1.253   6.804 -0.6450 -0.1782  0.4067
 1465SOL    HW115854   3.873   1.234   6.896 -1.0741 -1.1443  0.2974
 1465SOL    HW215855   3.935   1.222   6.765 -1.7897 -2.2694 -0.3363
 1466SOL     OW15856   3.881   2.781   7.215 -0.2672  0.4131  0.0908
 1466SOL    HW115857   3.900   2.871   7.240  1.2727 -0.5583  2.3981
 1466SOL    HW215858   3.931   2.734   7.282 -0.4057  1.2460  0.7798
 1467SOL     OW15859   2.030   4.137   5.558  0.1104  0.1600 -0.0865
 1467SOL    HW115860   2.042   4.228   5.585  1.4258 -0.2867  0.7849
 1467SOL    HW215861   2.073   4.089   5.629 -1.9809  0.2104  1.2316
 1468SOL     OW15862   1.255   4.507   6.064  0.2571 -0.0332 -0.1468
 1468SOL    HW115863   1.319   4.439   6.086  1.2917  0.7558 -0.6792
 1468SOL    HW215864   1.278   4.530   5.974  0.4826 -0.0455 -0.0948
 1469SOL     OW15865   4.604   0.726   4.034  0.0837  0.0637 -0.1610
 1469SOL    HW115866   4.637   0.784   4.103  1.1032 -0.2277 -0.3931
 1469SOL    HW215867   4.550   0.774   3.972  0.1501 -0.9052 -0.9794
 1470SOL     OW15868   2.899   0.758   4.931 -0.1218  0.2031  0.0511
 1470SOL    HW115869   2.949   0.826   4.886  1.4111 -0.4953  0.7124
 1470SOL    HW215870   2.889   0.694   4.860  1.1723  0.7259 -0.6015
 1471SOL     OW15871   2.509   3.308   3.229  0.0640  0.1145 -0.6834
 1471SOL    HW115872   2.415   3.319   3.245  0.1971  2.7356 -1.8205
 1471SOL    HW215873   2.532   3.391   3.189  1.1868 -0.6128 -1.5276
 1472SOL     OW15874   4.524   1.056   3.361  0.4890  0.1494  0.3177
 1472SOL    HW115875   4.488   1.144   3.365  2.7149  1.2054 -2.4923
 1472SOL    HW215876   4.554   1.053   3.270 -0.8689  0.7728 -0.1440
 1473SOL     OW15877   2.381   0.292   3.319 -0.0175  0.5279  0.0147
 1473SOL    HW115878   2.286   0.295   3.330  0.1478  0.6038  1.4383
 1473SOL    HW215879   2.388   0.201   3.291  2.9189  0.8522 -0.2323
 1474SOL     OW15880   4.405   2.243   3.373 -0.0326 -0.1837  0.3287
 1474SOL    HW115881   4.341   2.187   3.329 -3.3917  2.5256  1.7487
 1474SOL    HW215882   4.480   2.238   3.314 -1.3440  1.7670 -1.4992
 1475SOL     OW15883   2.428   3.857   8.816 -0.7186 -0.5692 -0.1501
 1475SOL    HW115884   2.414   3.878   8.908 -0.2158  1.6989 -0.5938
 1475SOL    HW215885   2.466   3.938   8.781  2.4082 -2.5551 -1.3541
 1476SOL     OW15886   0.238   3.859   6.683  0.1295 -0.2711  0.5026
 1476SOL    HW115887   0.221   3.866   6.589 -0.5595 -0.7807  0.5834
 1476SOL    HW215888   0.189   3.779   6.703 -1.6500  0.4490 -0.9572
 1477SOL     OW15889   1.743   0.493   8.091  0.4349  0.3667 -0.1264
 1477SOL    HW115890   1.775   0.582   8.075  1.3047  0.0005 -0.4557
 1477SOL    HW215891   1.652   0.499   8.061  1.5640 -2.3854 -4.0187
 1478SOL     OW15892   3.473   4.450   2.396 -0.0668 -0.1714  0.3268
 1478SOL    HW115893   3.518   4.366   2.392  0.7611  0.1772  2.5582
 1478SOL    HW215894   3.479   4.478   2.487  1.1890 -1.9523  0.7829
 1479SOL     OW15895   3.907   1.448   3.431 -0.9273 -0.0946 -0.5152
 1479SOL    HW115896   3.876   1.536   3.407 -1.7197  0.4784  2.5870
 1479SOL    HW215897   3.825   1.400   3.422 -1.1792  0.3318 -0.4798
 1480SOL     OW15898   3.494   2.345   2.143 -0.3143  0.3419 -0.1805
 1480SOL    HW115899   3.547   2.332   2.065 -3.0397 -0.5777 -1.8992
 1480SOL    HW215900   3.415   2.293   2.125 -1.1854  1.3033  0.8117
 1481SOL     OW15901   0.797   2.076   8.549 -0.0249  0.0637 -0.0162
 1481SOL    HW115902   0.849   2.109   8.622 -1.5200  0.8413  0.6850
 1481SOL    HW215903   0.840   1.992   8.529  2.5779  1.3577  0.0817
 1482SOL     OW15904   2.838   1.351   3.612 -0.1833 -0.0952 -0.2550
 1482SOL    HW115905   2.799   1.268   3.639  1.6031 -0.9094 -0.2013
 1482SOL    HW215906   2.852   1.324   3.521  0.2549 -0.0582 -0.2000
 1483SOL     OW15907   2.350   1.674  11.145 -0.3536 -0.2860  0.3067
 1483SOL    HW115908   2.261   1.639  11.153 -1.3079  1.8006 -1.0479
 1483SOL    HW215909   2.393   1.608  11.199  2.4902  1.6975  0.4491
 1484SOL     OW15910   0.544   4.254   6.490 -0.2003  0.4352 -0.2136
 1484SOL    HW115911   0.527   4.194   6.418 -2.6741 -0.9885  1.5294
 1484SOL    HW215912   0.511   4.191   6.554 -2.0300 -0.9264 -2.4917
 1485SOL     OW15913   2.064   0.070   5.783 -0.1424 -0.5863  0.7368
 1485SOL    HW115914   2.130   0.003   5.802 -0.0542 -0.7221 -0.0599
 1485SOL    HW215915   2.089   0.103   5.697 -1.6888 -1.6412 -0.1159
 1486SOL     OW15916   1.990   1.009   8.920  0.2150 -0.1686 -0.1657
 1486SOL    HW115917   2.056   1.004   8.988  0.1464  0.8383 -0.0302
 1486SOL    HW215918   1.909   1.027   8.968  1.3359  3.0076  0.5183
 1487SOL     OW15919   1.591   0.121   4.460  0.2823  0.2432 -0.4872
 1487SOL    HW115920   1.637   0.094   4.381 -0.7860  0.9236 -1.3428
 1487SOL    HW215921   1.561   0.038   4.497 -1.7908  1.7399  1.2449
 1488SOL     OW15922   3.061   3.382  11.627 -0.2895  0.4132  0.1407
 1488SOL    HW115923   3.113   3.384  11.707  1.8627 -0.5563 -1.2504
 1488SOL    HW215924   3.060   3.473  11.598 -0.4920  0.7703  1.2890
 1489SOL     OW15925   3.773   2.838  15.954  0.0242  0.1142  0.0778
 1489SOL    HW115926   3.691   2.884  15.933  1.4169  2.8806  0.7244
 1489SOL    HW215927   3.741   2.769  16.012 -1.4772  1.1437  0.4943
 1490SOL     OW15928   0.681   1.708   3.637 -0.3389  0.0199 -0.0703
 1490SOL    HW115929   0.764   1.687   3.594  0.2008 -0.9622  1.4316
 1490SOL    HW215930   0.702   1.797   3.665 -0.0792  0.0747 -0.4351
 1491SOL     OW15931   2.964   4.281  17.242 -0.4218  0.7835 -0.1920
 1491SOL    HW115932   2.918   4.204  17.209 -0.7547  0.3694  1.2361
 1491SOL    HW215933   3.017   4.303  17.165 -0.9626  0.0179 -0.7887
 1492SOL     OW15934   1.590   4.493   3.190  0.3356 -0.0002  0.1445
 1492SOL    HW115935   1.667   4.540   3.157  1.4167  0.4540  3.2411
 1492SOL    HW215936   1.547   4.473   3.107 -0.4833  1.0390  0.3072
 1493SOL     OW15937   1.122   2.220  14.024 -0.5966 -0.4103  0.6287
 1493SOL    HW115938   1.131   2.303  13.977 -0.0449 -0.7879  0.0641
 1493SOL    HW215939   1.212   2.188  14.015 -1.1368 -1.8257  0.4019
 1494SOL     OW15940   3.864   0.020   6.299 -0.0349  0.1468 -0.7469
 1494SOL    HW115941   3.949   0.059   6.318 -0.8201  1.4501  0.0881
 1494SOL    HW215942   3.801   0.074   6.347 -0.1600 -1.2372  0.6437
 1495SOL     OW15943   0.976   2.955  15.288 -0.1936  0.5618 -0.4862
 1495SOL    HW115944   0.946   2.869  15.260  2.1194 -0.0564 -1.0282
 1495SOL    HW215945   0.907   2.987  15.346  0.3172  1.5492 -0.4118
 1496SOL     OW15946   4.014   1.415  13.543  0.2674  0.4922  0.2774
 1496SOL    HW115947   3.932   1.445  13.503 -0.0243  1.9289  1.9156
 1496SOL    HW215948   3.977   1.386  13.627  2.6841  0.3152  1.2674
 1497SOL     OW15949   3.815   1.698   3.404  0.0200  0.3493  0.3565
 1497SOL    HW115950   3.738   1.734   3.448 -0.4726  0.0188 -0.2484
 1497SOL    HW215951   3.807   1.738   3.318  0.0859  0.6738  0.5024
 1498SOL     OW15952   3.296   1.184  10.107  0.3342 -0.1375 -0.5711
 1498SOL    HW115953   3.381   1.222  10.127 -0.2007  0.6258  0.2335
 1498SOL    HW215954   3.317   1.090  10.104  1.8202  0.2065 -0.7703
 1499SOL     OW15955   4.588   0.035   4.562  0.5887 -0.8509  0.5245
 1499SOL    HW115956   4.645   0.080   4.625 -0.3350  1.7136 -0.4732
 1499SOL    HW215957   4.552   0.112   4.519 -0.8505 -1.8941 -0.1058
 1500SOL     OW15958   2.202   1.596   3.621 -0.8516  0.5796  0.1829
 1500SOL    HW115959   2.242   1.681   3.601  1.7863 -0.8034 -0.4200
 1500SOL    HW215960   2.183   1.605   3.715  2.9453 -0.2640  1.0344
 1501SOL     OW15961   0.342   4.723  11.542 -0.3246 -0.8909 -0.3685
 1501SOL    HW115962   0.334   4.632  11.572  0.3914 -0.8176  0.0548
 1501SOL    HW215963   0.246   0.008  11.543 -0.3634 -1.3318 -0.4421
 1502SOL     OW15964   1.226   4.140   9.156 -0.3044 -0.1252 -0.1312
 1502SOL    HW115965   1.218   4.102   9.068  0.4522  2.1005 -1.1733
 1502SOL    HW215966   1.135   4.130   9.184 -0.3667 -0.6440 -0.5228
 1503SOL     OW15967   0.366   0.923   9.425 -0.0042 -0.2567 -0.1204
 1503SOL    HW115968   0.387   0.922   9.331  1.0765  1.2123  0.1087
 1503SOL    HW215969   0.445   0.960   9.463  0.4446 -1.2870 -0.0694
 1504SOL     OW15970   3.031   1.254  16.355  0.0295  0.6647 -0.7094
 1504SOL    HW115971   3.077   1.215  16.430 -2.6522  1.3525  1.2848
 1504SOL    HW215972   2.945   1.272  16.392  0.5433  0.1916  0.7264
 1505SOL     OW15973   1.293   1.238  15.894 -0.5989 -0.0710  0.0462
 1505SOL    HW115974   1.375   1.266  15.853 -1.6697 -0.1345 -2.1473
 1505SOL    HW215975   1.276   1.315  15.948 -0.2441  1.5895 -2.2292
 1506SOL     OW15976   0.486   4.133   2.548  0.1830 -0.2198 -0.3663
 1506SOL    HW115977   0.511   4.124   2.640 -1.3763 -0.2409  0.0625
 1506SOL    HW215978   0.549   4.195   2.511 -1.8752  1.8198 -0.4589
 1507SOL     OW15979   1.862   2.199  14.982 -0.0910  0.3925  0.4155
 1507SOL    HW115980   1.791   2.161  14.931 -0.8999 -0.9513  2.5921
 1507SOL    HW215981   1.846   2.288  14.949 -3.1751  0.3020  1.6714
 1508SOL     OW15982   4.415   0.258  16.651  0.3630 -0.1761  0.3770
 1508SOL    HW115983   4.340   0.294  16.699  1.1822 -1.7250  2.8369
 1508SOL    HW215984   4.476   0.257  16.725  0.9134  2.4452 -0.0128
 1509SOL     OW15985   0.174   4.291   4.398 -0.5577 -0.8062  0.0637
 1509SOL    HW115986   0.143   4.245   4.476  0.5067 -2.6881 -0.6016
 1509SOL    HW215987   0.092   4.339   4.387 -0.2732 -1.0522 -3.0012
 1510SOL     OW15988   1.947   1.429  13.981  0.0766  0.6081  0.4021
 1510SOL    HW115989   1.937   1.504  13.924 -1.3062  0.9133  1.0467
 1510SOL    HW215990   1.899   1.462  14.057 -1.0739  0.8560 -0.4320
 1511SOL     OW15991   4.495   0.989   2.591  0.0424 -0.2813 -0.3371
 1511SOL    HW115992   4.468   1.081   2.591 -1.2496 -0.6621 -0.0754
 1511SOL    HW215993   4.418   0.935   2.575  0.2381 -0.8078  0.4975
 1512SOL     OW15994   1.981   0.315  14.565 -0.3474  0.3964 -0.2787
 1512SOL    HW115995   2.045   0.330  14.496  1.3470 -2.9417  0.5928
 1512SOL    HW215996   1.944   0.401  14.542  0.6144 -0.3855 -4.7094
 1513SOL     OW15997   2.240   3.540   8.207  0.6820 -0.5721  0.0683
 1513SOL    HW115998   2.285   3.490   8.140 -0.6627 -0.1715 -1.1297
 1513SOL    HW215999   2.260   3.629   8.176 -0.4036 -0.5475 -0.5580
 1514SOL     OW16000   0.728   0.817   1.722  0.1075 -0.3016 -0.6998
 1514SOL    HW116001   0.689   0.822   1.635  0.4039  0.1873 -0.8049
 1514SOL    HW216002   0.747   0.723   1.729 -1.7853 -0.7296 -1.4820
 1515SOL     OW16003   3.860   4.411   1.836  0.2446 -0.4788  0.0263
 1515SOL    HW116004   3.900   4.340   1.886 -0.1351  1.4646  3.1061
 1515SOL    HW216005   3.914   4.407   1.757 -2.3306 -0.1918 -1.7694
 1516SOL     OW16006   2.517   3.787   6.253  0.3445 -0.1303  0.1276
 1516SOL    HW116007   2.508   3.771   6.347  0.9263  2.8965  0.7037
 1516SOL    HW216008   2.430   3.779   6.215 -0.4196  0.5039  1.7401
 1517SOL     OW16009   0.848   2.547   1.005 -0.2094 -0.0709 -0.2560
 1517SOL    HW116010   0.878   2.464   0.967  1.4558 -0.3885  1.7499
 1517SOL    HW216011   0.761   2.519   1.035 -0.6139 -2.1997 -3.4411
 1518SOL     OW16012   2.741   2.982   8.772 -0.1081 -0.0248  0.0305
 1518SOL    HW116013   2.683   2.911   8.744  1.3898 -1.8978  1.6490
 1518SOL    HW216014   2.824   2.947   8.740 -0.6382 -1.2826  0.0269
 1519SOL     OW16015   3.256   0.033   3.221  0.0542 -0.2001 -0.3229
 1519SOL    HW116016   3.300   4.675   3.197  2.0388  0.2694  1.6949
 1519SOL    HW216017   3.335   0.079   3.249 -1.2237  2.2340 -0.6479
 1520SOL     OW16018   3.395   1.042  16.151  0.5654 -0.3586  0.0233
 1520SOL    HW116019   3.479   1.088  16.155  1.3744 -1.8921  0.7883
 1520SOL    HW216020   3.409   0.992  16.231 -2.0078 -1.6265 -0.3229
 1521SOL     OW16021   0.161   3.239   5.188 -0.1212 -0.3524 -0.6124
 1521SOL    HW116022   0.108   3.212   5.113 -1.0166  0.7922 -0.3990
 1521SOL    HW216023   0.238   3.281   5.149  1.4336 -0.5565  2.2791
 1522SOL     OW16024   3.424   1.576   7.440  0.0055  0.2020  0.2442
 1522SOL    HW116025   3.499   1.523   7.414  0.7340  0.6022  1.5204
 1522SOL    HW216026   3.428   1.651   7.381  0.2566  0.6277  0.8025
 1523SOL     OW16027   3.197   3.418   1.302  0.4665 -0.3493  0.1091
 1523SOL    HW116028   3.160   3.382   1.382  2.0677 -0.0739  0.9628
 1523SOL    HW216029   3.148   3.376   1.231 -0.7200  0.9201  0.1777
 1524SOL     OW16030   0.348   1.071   3.965  0.2074 -0.5691 -0.2653
 1524SOL    HW116031   0.390   1.056   3.880  0.6429 -0.1501 -0.1229
 1524SOL    HW216032   0.256   1.047   3.948  0.2923  0.7689 -2.6355
 1525SOL     OW16033   1.484   0.855   0.529 -0.5337 -0.0333 -0.0217
 1525SOL    HW116034   1.451   0.873   0.617  0.3116 -1.6700  0.6345
 1525SOL    HW216035   1.560   0.808   0.564 -0.2208 -0.5345 -1.3576
 1526SOL     OW16036   1.302   0.813   4.718  0.8867 -0.0121 -0.8125
 1526SOL    HW116037   1.257   0.862   4.787  2.8980 -1.1054  1.2403
 1526SOL    HW216038   1.373   0.771   4.765 -1.2015 -2.6973 -0.0511
 1527SOL     OW16039   2.442   2.015   8.303 -0.4709 -0.1397 -0.4170
 1527SOL    HW116040   2.413   2.064   8.225  1.4355  0.2490 -0.8677
 1527SOL    HW216041   2.529   1.981   8.282 -0.3416 -2.0576  3.2125
 1528SOL     OW16042   2.693   0.300   9.754 -0.4008  0.3385  0.4730
 1528SOL    HW116043   2.775   0.292   9.706 -0.4502 -1.1594  0.6363
 1528SOL    HW216044   2.634   0.286   9.680  1.4985  4.0193 -1.7286
 1529SOL     OW16045   3.898   3.313   6.986 -0.5376 -0.1729 -0.3325
 1529SOL    HW116046   3.891   3.391   6.931 -2.1255 -0.5831 -0.6999
 1529SOL    HW216047   3.961   3.345   7.051 -0.8744 -1.8599  0.8139
 1530SOL     OW16048   4.082   3.069   1.626  0.3868 -0.3020  0.3354
 1530SOL    HW116049   4.007   3.123   1.602  1.2126  0.1049 -1.3258
 1530SOL    HW216050   4.108   3.122   1.702  0.3833 -0.5167  0.4867
 1531SOL     OW16051   2.456   4.298   9.384 -0.3461  0.0867  0.1352
 1531SOL    HW116052   2.379   4.242   9.395 -1.1091  1.7907  3.2452
 1531SOL    HW216053   2.519   4.255   9.441 -1.2171 -0.4453  0.7021
 1532SOL     OW16054   4.053   1.056   4.464  0.6002 -0.0786  0.1670
 1532SOL    HW116055   3.971   1.015   4.491  1.2675 -0.0836  2.1498
 1532SOL    HW216056   4.019   1.107   4.390  1.5238  2.7022  1.6504
 1533SOL     OW16057   3.265   4.083   1.797 -0.3980 -0.9151 -0.1076
 1533SOL    HW116058   3.274   3.998   1.841 -0.2487 -0.5548  0.5534
 1533SOL    HW216059   3.300   4.061   1.711 -0.4480 -1.2048 -0.0555
 1534SOL     OW16060   1.581   0.758  15.545 -0.4390  0.2813  0.3480
 1534SOL    HW116061   1.671   0.780  15.523 -1.3447  3.6508 -0.0155
 1534SOL    HW216062   1.550   0.709  15.469  1.5289  0.8578 -0.8123
 1535SOL     OW16063   0.251   3.375   9.097  0.3689 -0.0034  0.3581
 1535SOL    HW116064   0.181   3.310   9.095  0.2800  0.0856  0.5573
 1535SOL    HW216065   0.203   3.457   9.081  1.5510  0.6742  0.2313
 1536SOL     OW16066   3.480   4.306   4.444  0.0031 -0.3520 -0.3114
 1536SOL    HW116067   3.498   4.400   4.451  1.4009 -0.6165 -0.2422
 1536SOL    HW216068   3.470   4.296   4.349  0.1663 -0.1500 -0.3524
 1537SOL     OW16069   1.345   3.018  11.823  1.2376  0.1080  0.0162
 1537SOL    HW116070   1.356   3.095  11.766  2.5117 -0.0908 -0.0029
 1537SOL    HW216071   1.438   2.998  11.837  0.9404 -1.5330 -0.3730
 1538SOL     OW16072   1.942   2.501   5.621 -0.4035 -0.4148  0.7846
 1538SOL    HW116073   1.972   2.540   5.539  0.0083  0.3698  1.3058
 1538SOL    HW216074   1.855   2.540   5.626 -0.2871  0.0261 -0.5641
 1539SOL     OW16075   1.971   1.389   2.633 -0.3889 -0.0831  0.0073
 1539SOL    HW116076   1.953   1.301   2.601 -1.8965 -0.4097  1.7754
 1539SOL    HW216077   1.886   1.433   2.642  0.1786  1.2966 -1.2373
 1540SOL     OW16078   0.976   1.859   3.649  0.1865  0.0156 -0.3238
 1540SOL    HW116079   0.980   1.813   3.565  0.3447  0.0074 -0.3121
 1540SOL    HW216080   0.894   1.907   3.640  0.7538  1.0226 -0.2244
 1541SOL     OW16081   3.429   3.429   5.119 -0.1752  0.3665 -0.1133
 1541SOL    HW116082   3.420   3.383   5.202 -1.6411  1.8269  0.5330
 1541SOL    HW216083   3.453   3.517   5.148 -1.2667  0.3752  0.7836
 1542SOL     OW16084   1.035   1.970  16.217 -0.2808  0.1202  0.2907
 1542SOL    HW116085   0.998   2.043  16.166  2.0996  0.3568 -1.0770
 1542SOL    HW216086   1.009   1.896  16.163 -1.4483  0.8662 -0.1904
 1543SOL     OW16087   3.722   2.681  14.590 -0.6037  0.0954 -0.2640
 1543SOL    HW116088   3.638   2.725  14.579 -1.0487 -1.0207 -1.3304
 1543SOL    HW216089   3.746   2.702  14.680  1.9740 -1.8607 -0.4877
 1544SOL     OW16090   1.233   0.583   4.942  0.3943  0.5230  1.0539
 1544SOL    HW116091   1.231   0.488   4.949  1.2630  0.6809  3.2554
 1544SOL    HW216092   1.328   0.595   4.940  0.4821 -0.1960  1.1397
 1545SOL     OW16093   0.141   1.926   0.824 -0.2216 -0.3195  0.4362
 1545SOL    HW116094   0.126   2.020   0.811 -0.6482 -0.4903 -0.3126
 1545SOL    HW216095   0.054   1.904   0.858  0.5522 -2.4497  0.9978
 1546SOL     OW16096   4.473   3.113   0.399  0.2604 -0.3940  0.3624
 1546SOL    HW116097   4.378   3.104   0.393  0.3727 -0.9176 -0.5740
 1546SOL    HW216098   4.488   3.191   0.345  1.4738  0.0730  1.3517
 1547SOL     OW16099   3.051   0.636   3.572  0.4792  0.3292  0.3580
 1547SOL    HW116100   3.003   0.648   3.654 -0.9019 -0.8671 -0.2810
 1547SOL    HW216101   3.108   0.567   3.605  0.9143 -0.3963 -1.9278
 1548SOL     OW16102   1.308   1.120   5.235  0.0197 -0.6216 -0.0804
 1548SOL    HW116103   1.360   1.104   5.314 -0.5948 -2.5964 -0.0815
 1548SOL    HW216104   1.355   1.065   5.172  0.9721 -1.3395  1.2582
 1549SOL     OW16105   2.022   3.398   7.922 -0.2054  0.0770 -0.0446
 1549SOL    HW116106   1.986   3.310   7.933  0.3643  0.0216  1.3987
 1549SOL    HW216107   1.993   3.407   7.832  3.5777 -0.8637 -1.3417
 1550SOL     OW16108   3.944   2.155   5.325 -0.1613  0.1493  0.2751
 1550SOL    HW116109   3.998   2.112   5.259 -1.7435  0.9843 -1.5879
 1550SOL    HW216110   3.994   2.225   5.365  1.2636 -0.3606 -0.6159
 1551SOL     OW16111   2.119   2.664   5.909  0.6542  0.6839  0.5225
 1551SOL    HW116112   2.093   2.686   5.819  1.1427 -0.2483  0.1557
 1551SOL    HW216113   2.170   2.743   5.927  0.6115  1.0781 -1.0387
 1552SOL     OW16114   3.754   3.796   1.661 -0.9023  0.1996 -0.0855
 1552SOL    HW116115   3.676   3.765   1.615 -1.5210  1.1538  0.3278
 1552SOL    HW216116   3.746   3.763   1.750 -1.3194  0.6786  0.0509
 1553SOL     OW16117   3.856   2.193   5.670 -0.0276  0.2727 -0.0678
 1553SOL    HW116118   3.944   2.160   5.654  0.2157  1.2580 -0.8168
 1553SOL    HW216119   3.873   2.275   5.622  2.4423  0.6034  1.3562
 1554SOL     OW16120   4.698   1.502   4.522  0.3270 -0.1237  0.5446
 1554SOL    HW116121   4.619   1.455   4.494  0.0480  0.0480  1.0414
 1554SOL    HW216122   4.652   1.564   4.579 -1.2400 -0.5132 -0.3040
 1555SOL     OW16123   0.646   3.889  14.146  0.0696 -0.1991 -0.1349
 1555SOL    HW116124   0.583   3.958  14.127  1.0375  0.2524 -1.7349
 1555SOL    HW216125   0.666   3.902  14.239  1.8831  0.9572 -0.6666
 1556SOL     OW16126   1.341   1.438   3.944 -0.2984 -0.3368 -0.0294
 1556SOL    HW116127   1.321   1.345   3.945  1.0292 -0.6646 -4.4944
 1556SOL    HW216128   1.262   1.469   3.989  0.3793 -1.2675  1.8189
 1557SOL     OW16129   3.920   1.987   0.998  0.3477  0.2778  0.2826
 1557SOL    HW116130   3.988   2.042   0.958 -0.3236 -0.2134 -1.5311
 1557SOL    HW216131   3.839   2.038   0.992 -1.0665 -2.0864 -0.6016
 1558SOL     OW16132   2.907   0.648  17.627  0.2535 -0.5167 -0.4617
 1558SOL    HW116133   2.883   0.624  17.538  2.3438  0.9005 -1.4290
 1558SOL    HW216134   3.001   0.628  17.630  0.4437 -0.0421 -3.2234
 1559SOL     OW16135   4.650   3.736  16.535  0.0741  0.0404  0.1704
 1559SOL    HW116136   4.708   3.660  16.527  1.1768  0.7708  1.2717
 1559SOL    HW216137   4.612   3.714  16.620 -3.4198  1.0282 -1.1376
 1560SOL     OW16138   0.130   3.239   8.571  0.0837 -0.1799  0.4514
 1560SOL    HW116139   0.179   3.263   8.492  0.1662 -1.9692 -0.0430
 1560SOL    HW216140   0.135   3.144   8.578  0.8036 -0.3120 -1.7088
 1561SOL     OW16141   3.468   0.595   2.096 -0.0333  0.1824 -0.0981
 1561SOL    HW116142   3.553   0.559   2.124 -0.8146 -3.8019 -2.7470
 1561SOL    HW216143   3.408   0.545   2.152 -0.5859  0.4077 -0.4938
 1562SOL     OW16144   4.006   0.537  17.175 -0.1742  0.2496  0.1630
 1562SOL    HW116145   3.914   0.511  17.166 -0.4567  0.7624  1.6270
 1562SOL    HW216146   4.005   0.617  17.121  2.8784 -0.7429 -1.3372
 1563SOL     OW16147   0.491   2.623   0.874 -0.1314 -0.1941 -0.2551
 1563SOL    HW116148   0.479   2.654   0.785 -0.6745 -2.6773 -1.0413
 1563SOL    HW216149   0.415   2.671   0.907 -0.0894  0.1877 -0.7120
 1564SOL     OW16150   3.446   3.763   7.959  0.1239 -0.1773 -1.0983
 1564SOL    HW116151   3.501   3.748   8.036 -1.2787 -1.6173 -0.3839
 1564SOL    HW216152   3.362   3.738   7.996  0.6130  1.8114  1.4146
 1565SOL     OW16153   0.111   2.198   5.833  0.8905  0.2026 -0.2916
 1565SOL    HW116154   0.150   2.116   5.861 -1.2183 -0.5470  0.5047
 1565SOL    HW216155   0.188   2.232   5.788  0.6146  2.9707  1.3099
 1566SOL     OW16156   1.276   1.068   7.592 -0.3181  0.1966  0.2356
 1566SOL    HW116157   1.310   1.155   7.575  1.0227 -0.5299 -0.7769
 1566SOL    HW216158   1.184   1.067   7.563 -0.7903 -0.1189  1.7159
 1567SOL     OW16159   0.219   4.206   5.289 -0.3930  0.0310 -0.3498
 1567SOL    HW116160   0.123   4.214   5.294 -0.6316 -2.8153 -0.8866
 1567SOL    HW216161   0.231   4.120   5.250  0.9795 -0.1364  0.4537
 1568SOL     OW16162   4.160   1.015   4.977  0.2048  0.2336 -0.0841
 1568SOL    HW116163   4.160   1.096   5.028  0.4771 -0.5762  1.2093
 1568SOL    HW216164   4.125   0.958   5.045  0.2901  0.5775  0.2511
 1569SOL     OW16165   0.126   2.816   6.531 -0.6471 -0.0146 -0.6566
 1569SOL    HW116166   0.218   2.840   6.547 -0.0694 -2.5084 -0.3082
 1569SOL    HW216167   0.094   2.776   6.612 -0.4939 -0.5895 -0.8811
 1570SOL     OW16168   1.834   0.279   5.371 -0.0797 -0.3904  0.2672
 1570SOL    HW116169   1.751   0.274   5.419 -0.0925  1.7250  0.4502
 1570SOL    HW216170   1.802   0.316   5.288 -0.1837  0.7505  0.8131
 1571SOL     OW16171   3.080   2.353   3.609 -0.2554 -0.0678 -0.3807
 1571SOL    HW116172   3.006   2.399   3.650 -0.6424  0.0905 -1.2598
 1571SOL    HW216173   3.035   2.331   3.528 -1.5411 -0.2162  0.3694
 1572SOL     OW16174   4.194   3.233   2.013  0.1222  0.0071  0.2272
 1572SOL    HW116175   4.155   3.257   2.097  0.5011  0.8929  0.1397
 1572SOL    HW216176   4.265   3.294   1.994 -1.6235  0.7780 -3.9592
 1573SOL     OW16177   2.300   4.602   6.420  0.3153  0.0027 -0.6578
 1573SOL    HW116178   2.245   4.622   6.495  0.0863 -0.3396 -0.7373
 1573SOL    HW216179   2.384   4.635   6.453 -0.5430 -0.6409  2.1292
 1574SOL     OW16180   4.374   3.767   3.909  0.2192  0.5573 -0.4851
 1574SOL    HW116181   4.395   3.838   3.849  2.1166 -0.0396 -0.5317
 1574SOL    HW216182   4.279   3.763   3.903  0.1813 -1.3734  1.1592
 1575SOL     OW16183   0.876   4.169   8.844 -0.3547 -0.3688  0.3107
 1575SOL    HW116184   0.943   4.236   8.832 -0.4048 -0.5843 -1.2302
 1575SOL    HW216185   0.926   4.095   8.811  0.9639  0.5977  0.1284
 1576SOL     OW16186   2.003   0.702   3.935  0.0627 -0.7393 -0.0931
 1576SOL    HW116187   2.018   0.680   3.843 -1.1379 -2.1041  0.0411
 1576SOL    HW216188   1.927   0.651   3.963  0.0085 -0.6551 -0.0887
 1577SOL     OW16189   0.787   1.839   3.997  0.3072  0.0962 -0.4832
 1577SOL    HW116190   0.879   1.844   4.024 -0.2877  0.5545  1.4731
 1577SOL    HW216191   0.758   1.930   4.000 -0.1867 -0.0860  0.1735
 1578SOL     OW16192   1.834   0.262   4.374  0.0994 -0.2116 -0.1537
 1578SOL    HW116193   1.775   0.215   4.315  0.1888 -2.6579  1.6865
 1578SOL    HW216194   1.789   0.346   4.376 -1.3140 -0.9531 -0.9280
 1579SOL     OW16195   4.097   2.332   5.464  0.2454 -0.8337  0.1444
 1579SOL    HW116196   4.079   2.388   5.541  0.8415 -0.3783 -0.0490
 1579SOL    HW216197   4.189   2.353   5.446  0.1820  0.9207  1.8120
 1580SOL     OW16198   1.083   1.100   4.158 -0.3129 -0.1575  0.5046
 1580SOL    HW116199   1.014   1.036   4.140  0.5642 -1.5440  2.0760
 1580SOL    HW216200   1.076   1.156   4.081 -2.3406 -1.0230  0.0645
 1581SOL     OW16201   1.590   0.097   3.126  0.1714  0.1686 -0.0551
 1581SOL    HW116202   1.530   0.054   3.187  1.0884 -0.6544  0.2532
 1581SOL    HW216203   1.673   0.050   3.130 -1.3421 -2.4585  0.1775
 1582SOL     OW16204   1.524   1.617  13.492  0.1898  0.0418 -0.3250
 1582SOL    HW116205   1.452   1.671  13.459  1.6525  2.5678  0.7051
 1582SOL    HW216206   1.549   1.564  13.415 -0.1865 -2.3425  1.1768
 1583SOL     OW16207   1.973   4.090   3.026  0.3875  0.2037 -0.1892
 1583SOL    HW116208   2.039   4.034   3.066 -0.6626 -0.4340  0.6441
 1583SOL    HW216209   2.019   4.173   3.040 -0.3126  1.4466 -5.1509
 1584SOL     OW16210   0.118   1.701   8.251 -0.1537 -0.7990  0.2270
 1584SOL    HW116211   0.042   1.704   8.310  0.2403  1.0551  0.6257
 1584SOL    HW216212   0.099   1.613   8.217  1.6369 -0.9650 -0.3350
 1585SOL     OW16213   1.646   3.067   6.917 -0.0327 -0.3444  0.0549
 1585SOL    HW116214   1.716   3.130   6.895 -0.3901  0.0603  0.0736
 1585SOL    HW216215   1.580   3.084   6.850  1.3740  1.1918 -0.9546
 1586SOL     OW16216   0.725   3.500  16.611 -0.4790  0.0139 -0.4052
 1586SOL    HW116217   0.808   3.459  16.585 -0.3660  0.7173 -1.1702
 1586SOL    HW216218   0.762   3.552  16.682 -0.0068 -1.0189  0.1116
 1587SOL     OW16219   1.419   0.089   7.329 -0.2738 -0.1437  0.0578
 1587SOL    HW116220   1.387   0.003   7.355  0.1576 -0.2875  0.1115
 1587SOL    HW216221   1.510   0.067   7.307  0.9292  3.5376  1.2849
 1588SOL     OW16222   3.159   1.034  11.326 -0.0647  0.0990 -0.2233
 1588SOL    HW116223   3.156   1.006  11.234  1.4183  0.5390 -0.4152
 1588SOL    HW216224   3.098   0.974  11.368  1.3155 -0.7538  0.5597
 1589SOL     OW16225   3.299   2.543  11.756  0.9702  0.2717  0.4534
 1589SOL    HW116226   3.227   2.601  11.733 -0.8102 -1.8127  0.7025
 1589SOL    HW216227   3.367   2.577  11.697  2.4132 -0.6223  1.5920
 1590SOL     OW16228   4.425   0.725   5.105 -0.6110  0.1082 -0.0978
 1590SOL    HW116229   4.335   0.702   5.082 -0.7905 -0.4354  1.1586
 1590SOL    HW216230   4.447   0.651   5.161 -0.3870 -0.3703 -0.8160
 1591SOL     OW16231   2.705   1.698   3.484 -0.1304 -0.6821 -0.0411
 1591SOL    HW116232   2.622   1.714   3.438  0.3986 -1.1638 -1.1407
 1591SOL    HW216233   2.684   1.637   3.555  0.6569 -1.5095 -0.5366
 1592SOL     OW16234   4.086   0.601   2.764  0.1691 -0.6967  0.1773
 1592SOL    HW116235   4.173   0.564   2.776  1.7158  3.0086  0.3385
 1592SOL    HW216236   4.032   0.523   2.752 -1.4583  0.1018  2.2540
 1593SOL     OW16237   1.703   2.664   3.112 -0.1067 -0.6340  0.6224
 1593SOL    HW116238   1.631   2.621   3.067 -0.3568  1.0960 -0.6250
 1593SOL    HW216239   1.778   2.630   3.063 -0.7010 -1.0732  0.0306
 1594SOL     OW16240   0.133   3.707   6.132  0.2912  0.1555 -0.9688
 1594SOL    HW116241   0.201   3.640   6.125  0.7015  0.6762 -2.0851
 1594SOL    HW216242   0.062   3.669   6.184  0.8832  1.7544  0.9748
 1595SOL     OW16243   0.730   2.924  17.242 -0.0418  0.1188  0.2959
 1595SOL    HW116244   0.692   2.917  17.154  2.3831 -2.2748 -0.5386
 1595SOL    HW216245   0.672   2.875  17.300 -0.1792  2.4448  2.1187
 1596SOL     OW16246   4.312   2.081   1.955 -0.1524 -0.8278 -0.1794
 1596SOL    HW116247   4.279   2.006   2.004  0.2326  1.2406  3.1814
 1596SOL    HW216248   4.227   2.114   1.926  0.5639  0.3807 -0.9198
 1597SOL     OW16249   1.832   2.181   3.493 -0.4224  0.5152 -0.2619
 1597SOL    HW116250   1.914   2.211   3.532  0.2796 -0.7401 -0.8166
 1597SOL    HW216251   1.875   2.158   3.411 -2.9717 -0.7622 -1.2527
 1598SOL     OW16252   0.850   1.170  16.890 -0.3091  0.1385  0.5724
 1598SOL    HW116253   0.899   1.246  16.922  0.0208 -0.8730  2.4812
 1598SOL    HW216254   0.915   1.136  16.829 -1.0544 -1.3663  0.6369
 1599SOL     OW16255   3.262   3.043   4.709  0.0401 -0.3865 -0.2059
 1599SOL    HW116256   3.228   3.063   4.796 -0.6470  1.4596 -0.9172
 1599SOL    HW216257   3.347   3.087   4.714 -0.3399  0.1501  1.3767
 1600SOL     OW16258   4.547   2.859   0.294 -0.4735 -0.4760 -0.0639
 1600SOL    HW116259   4.494   2.839   0.372 -1.4963  1.3220 -0.2822
 1600SOL    HW216260   4.567   2.951   0.312 -0.4295 -0.6598  0.8329
 1601SOL     OW16261   3.330   1.418  16.671 -0.2757  0.1264  0.2234
 1601SOL    HW116262   3.355   1.334  16.631  3.2625  0.8380  0.9604
 1601SOL    HW216263   3.347   1.414  16.765  0.0995  1.1450  0.1970
 1602SOL     OW16264   2.459   2.194   3.516 -0.3763 -0.1143 -0.0044
 1602SOL    HW116265   2.428   2.211   3.427  2.1414 -0.1539 -0.8924
 1602SOL    HW216266   2.442   2.280   3.553  2.1185 -0.5303  2.1448
 1603SOL     OW16267   1.292   0.445   4.638 -0.0114  0.5625 -0.1805
 1603SOL    HW116268   1.345   0.431   4.560 -2.4501  0.1881 -1.7620
 1603SOL    HW216269   1.319   0.531   4.672  2.2449  0.1227 -0.8396
 1604SOL     OW16270   4.260   2.813   7.640  0.2193  0.1504 -0.3871
 1604SOL    HW116271   4.245   2.723   7.669  0.7919 -0.0394 -0.6883
 1604SOL    HW216272   4.204   2.862   7.701  1.2824  0.7682  0.0855
 1605SOL     OW16273   1.389   4.354   6.324 -0.5508 -0.0793  0.0126
 1605SOL    HW116274   1.443   4.389   6.254 -1.5641  0.5415 -0.4626
 1605SOL    HW216275   1.375   4.428   6.383  0.2606  0.0097  0.0842
 1606SOL     OW16276   3.773   4.092   6.781  0.4216 -0.3726  0.3740
 1606SOL    HW116277   3.757   4.125   6.869 -0.8739  1.3160 -0.5046
 1606SOL    HW216278   3.829   4.159   6.742 -0.9245  0.1201 -0.6915
 1607SOL     OW16279   0.041   3.433   2.926  0.0366  0.1371  0.3373
 1607SOL    HW116280   4.722   3.482   2.997  0.4219  0.1454  0.5620
 1607SOL    HW216281   0.132   3.450   2.951  0.3508 -0.5140 -0.3483
 1608SOL     OW16282   0.149   2.389   5.474  0.1731  0.1888 -0.0942
 1608SOL    HW116283   0.208   2.455   5.511 -0.1008 -0.1308  0.9110
 1608SOL    HW216284   0.148   2.420   5.383  0.5411  1.0686  0.2021
 1609SOL     OW16285   3.895   2.388   1.397 -0.6864  0.0745  0.2502
 1609SOL    HW116286   3.866   2.434   1.475 -0.6226  1.6405 -0.6389
 1609SOL    HW216287   3.976   2.431   1.367 -1.4254  2.0963  1.1734
 1610SOL     OW16288   1.952   3.855   7.342 -0.6892  0.2419 -0.1562
 1610SOL    HW116289   1.902   3.845   7.423 -0.3621 -1.4479 -0.1543
 1610SOL    HW216290   1.903   3.789   7.294 -0.6674 -1.4989  2.1779
 1611SOL     OW16291   2.424   4.638   3.576 -0.2755  0.1747 -0.8019
 1611SOL    HW116292   2.349   4.650   3.634 -0.8070 -2.5739 -0.9277
 1611SOL    HW216293   2.420   4.544   3.557  0.6142 -0.1494  0.6596
 1612SOL     OW16294   0.903   2.764   1.365  0.6156 -0.0342  0.4629
 1612SOL    HW116295   0.941   2.748   1.279  1.2427  0.0827  0.7184
 1612SOL    HW216296   0.948   2.698   1.418 -1.8302 -2.0116  0.1114
 1613SOL     OW16297   0.034   3.743   2.793 -0.2787 -0.2386 -0.0626
 1613SOL    HW116298   0.055   3.835   2.805 -0.7748 -0.4271  2.1988
 1613SOL    HW216299   0.031   3.711   2.883  0.6919 -0.7483 -0.2154
 1614SOL     OW16300   1.165   2.109   3.026 -0.0166 -0.2892 -0.4700
 1614SOL    HW116301   1.188   2.109   3.119 -1.8246 -3.0620 -0.0208
 1614SOL    HW216302   1.088   2.164   3.038  0.6809  0.3071  1.2559
 1615SOL     OW16303   1.653   1.659  15.078 -0.1729 -0.3938  0.0826
 1615SOL    HW116304   1.688   1.607  15.150 -1.9978 -0.2611  1.0548
 1615SOL    HW216305   1.720   1.650  15.009  1.3464  1.2636  1.3382
 1616SOL     OW16306   1.395   0.034   6.407 -0.4349 -0.2827  0.1018
 1616SOL    HW116307   1.370   4.680   6.458 -0.4717 -0.6742 -0.5071
 1616SOL    HW216308   1.335   0.033   6.332  0.0736  1.1525 -0.3405
 1617SOL     OW16309   0.529   0.670   5.851 -0.6947  0.7597  0.6133
 1617SOL    HW116310   0.590   0.736   5.884  0.9716  0.8022 -2.5646
 1617SOL    HW216311   0.563   0.657   5.762  2.2367 -2.0864  2.1095
 1618SOL     OW16312   3.052   0.910   8.290  0.1183 -0.4694 -0.8675
 1618SOL    HW116313   2.972   0.891   8.339  0.2325 -1.4831 -1.0765
 1618SOL    HW216314   3.121   0.882   8.351  0.3694  1.2324 -0.3810
 1619SOL     OW16315   1.160   3.901   5.635 -0.4663 -0.1101  0.0278
 1619SOL    HW116316   1.065   3.893   5.632 -0.1086 -4.2891  0.7828
 1619SOL    HW216317   1.180   3.989   5.669  0.7079 -0.9860  1.5925
 1620SOL     OW16318   0.978   2.272   3.419 -0.3939 -0.5166  0.0829
 1620SOL    HW116319   0.909   2.336   3.437  0.0149  0.4584 -1.7432
 1620SOL    HW216320   0.936   2.186   3.411 -0.4665 -0.4204 -0.6411
 1621SOL     OW16321   3.771   3.803  15.975  0.0018  0.3791 -0.1948
 1621SOL    HW116322   3.734   3.719  15.948 -2.0492  2.0364 -2.4704
 1621SOL    HW216323   3.821   3.824  15.897  0.4072 -2.3958 -0.6582
 1622SOL     OW16324   0.809   0.362   9.100  0.3765  0.3140  0.2837
 1622SOL    HW116325   0.737   0.366   9.038  0.9623  3.6201 -0.2178
 1622SOL    HW216326   0.799   0.449   9.139  1.0034 -0.4528  2.1661
 1623SOL     OW16327   4.397   0.658  11.230 -0.4076 -0.6943 -0.5219
 1623SOL    HW116328   4.391   0.580  11.285 -0.6279  1.2123  2.1181
 1623SOL    HW216329   4.351   0.622  11.154 -1.0400  0.3525 -0.6294
 1624SOL     OW16330   0.612   0.018   4.562 -0.2787 -0.0044 -0.2004
 1624SOL    HW116331   0.574   0.017   4.474  0.6632 -2.7912 -0.5733
 1624SOL    HW216332   0.685   0.078   4.543 -0.0926  0.5396  2.2030
 1625SOL     OW16333   2.732   0.755   0.732 -0.0497 -0.0546 -0.1551
 1625SOL    HW116334   2.820   0.739   0.765  0.5998  0.3951 -1.6912
 1625SOL    HW216335   2.689   0.671   0.752  1.4615 -0.8533 -0.3238
 1626SOL     OW16336   4.707   1.359  11.166 -0.3195  0.2397  0.7180
 1626SOL    HW116337   0.027   1.276  11.146 -0.0852  0.7487 -0.8523
 1626SOL    HW216338   4.653   1.339  11.243  0.1790 -0.5637  0.8600
 1627SOL     OW16339   0.303   0.837   8.529 -1.1645  0.7262  0.4820
 1627SOL    HW116340   0.284   0.931   8.537 -2.0523  0.5181  0.8072
 1627SOL    HW216341   0.241   0.802   8.593 -1.4787  0.4832  0.0400
 1628SOL     OW16342   3.459   0.722   8.782 -0.2863 -0.1335 -0.2437
 1628SOL    HW116343   3.420   0.809   8.769  2.8577  1.4876  1.2010
 1628SOL    HW216344   3.465   0.736   8.877 -1.3914  0.0747 -0.1991
 1629SOL     OW16345   0.398   0.304   0.187 -0.2960  1.0407  0.3148
 1629SOL    HW116346   0.322   0.273   0.236 -0.1526 -0.3514 -0.3381
 1629SOL    HW216347   0.443   0.223   0.162 -0.8962  1.0036 -0.6433
 1630SOL     OW16348   2.198   3.079   2.915  0.0419  0.4781  0.4578
 1630SOL    HW116349   2.162   3.066   2.828 -1.8005 -0.4584  1.3740
 1630SOL    HW216350   2.147   3.158   2.930 -2.8078 -1.3728  0.4684
 1631SOL     OW16351   4.668   2.075   4.521 -0.6276  0.0013  0.0764
 1631SOL    HW116352   4.609   2.000   4.519 -2.4152  1.3934 -0.3780
 1631SOL    HW216353   0.009   2.040   4.582 -1.6749  0.2146  1.3082
 1632SOL     OW16354   2.481   2.303   0.457 -0.3105 -0.0994 -0.0946
 1632SOL    HW116355   2.404   2.254   0.489 -0.5701  0.4636  0.1392
 1632SOL    HW216356   2.544   2.235   0.433  2.1751  2.5019 -0.8673
 1633SOL     OW16357   3.957   3.312   2.848 -0.4693  0.0762  0.1532
 1633SOL    HW116358   4.051   3.329   2.849 -0.3191 -0.7435 -0.5914
 1633SOL    HW216359   3.918   3.363   2.777  2.3515  2.2733  0.1678
 1634SOL     OW16360   3.818   1.889   2.537  0.0603  0.6423  0.3572
 1634SOL    HW116361   3.771   1.806   2.546  0.4107  0.4647  0.5713
 1634SOL    HW216362   3.885   1.877   2.604  0.0511 -2.2116 -0.1189
 1635SOL     OW16363   3.194   3.198   9.319 -0.0686  0.3633 -0.3024
 1635SOL    HW116364   3.275   3.146   9.315 -0.2552  0.2483 -2.5056
 1635SOL    HW216365   3.226   3.253   9.390 -0.9533  1.2785 -0.6235
 1636SOL     OW16366   1.568   0.877  13.236  0.0291 -0.0901 -0.5270
 1636SOL    HW116367   1.522   0.858  13.154 -0.1799 -1.5544 -0.0702
 1636SOL    HW216368   1.641   0.820  13.212  0.9370  0.7817  0.1963
 1637SOL     OW16369   3.559   3.517  10.710  0.1154  0.0787  0.7205
 1637SOL    HW116370   3.491   3.554  10.766 -1.6680  1.8400 -2.5952
 1637SOL    HW216371   3.584   3.440  10.760  2.1933 -0.0965 -0.6184
 1638SOL     OW16372   1.590   1.741  13.730 -0.6213 -0.4872 -0.1487
 1638SOL    HW116373   1.639   1.797  13.669 -2.7613  1.8058  0.2142
 1638SOL    HW216374   1.571   1.676  13.662 -0.8255 -1.7492  1.1176
 1639SOL     OW16375   0.802   1.032   5.489  0.4741  0.0151 -0.0752
 1639SOL    HW116376   0.733   0.973   5.518  0.9463 -0.8376 -0.6806
 1639SOL    HW216377   0.884   0.984   5.481 -0.4583 -1.2771 -1.7498
 1640SOL     OW16378   2.479   4.380  12.731  0.2135 -0.4065  0.7572
 1640SOL    HW116379   2.504   4.293  12.698  1.6233 -0.2733  1.4661
 1640SOL    HW216380   2.559   4.428  12.709 -0.5749 -0.4810 -2.2512
 1641SOL     OW16381   2.199   4.222   9.260  0.5155 -0.2014  0.2567
 1641SOL    HW116382   2.148   4.302   9.252  0.8489 -0.0838 -0.7538
 1641SOL    HW216383   2.144   4.164   9.313  2.1031 -1.8786  0.0926
 1642SOL     OW16384   1.063   0.886   7.691 -0.2553  0.1570  0.0581
 1642SOL    HW116385   1.074   0.926   7.604 -0.1286  3.1888  1.4469
 1642SOL    HW216386   1.068   0.792   7.675  1.3820 -0.1132  2.1577
 1643SOL     OW16387   1.438   2.982   3.498 -0.0990 -0.0037  0.0450
 1643SOL    HW116388   1.398   2.981   3.411  1.4846  2.5577 -0.7184
 1643SOL    HW216389   1.474   2.894   3.507 -2.0448 -0.6123  1.6306
 1644SOL     OW16390   4.017   2.411   8.105  0.0049  0.0020 -0.7378
 1644SOL    HW116391   4.023   2.405   8.200  1.9746 -0.7391 -0.9197
 1644SOL    HW216392   4.093   2.462   8.078  0.0862  0.5460  0.4984
 1645SOL     OW16393   2.560   0.418  11.174 -0.9352 -0.0049  0.4259
 1645SOL    HW116394   2.578   0.430  11.268  0.9945  0.8396 -0.0425
 1645SOL    HW216395   2.643   0.448  11.135 -0.4534 -0.5600  1.0188
 1646SOL     OW16396   2.300   1.366  13.944  0.2257 -0.2670  0.2068
 1646SOL    HW116397   2.272   1.449  13.905  1.3763 -0.5077 -1.1571
 1646SOL    HW216398   2.384   1.387  13.985  0.4400  0.3122 -0.5251
 1647SOL     OW16399   1.356   2.591   3.098 -0.1418  0.6214  0.0154
 1647SOL    HW116400   1.413   2.531   3.050 -1.1252 -1.4795  1.4985
 1647SOL    HW216401   1.288   2.534   3.134 -0.0884  2.0726  2.4163
 1648SOL     OW16402   1.754   3.193   5.173 -0.3361  0.4622  0.3787
 1648SOL    HW116403   1.834   3.229   5.134  1.3460 -2.1899  1.3744
 1648SOL    HW216404   1.713   3.271   5.210 -0.9071  0.5768 -0.4891
 1649SOL     OW16405   0.373   4.658   4.005 -0.0447  0.1518 -0.2138
 1649SOL    HW116406   0.336   4.581   4.048 -0.1128 -0.9491 -2.2120
 1649SOL    HW216407   0.291   4.698   3.978 -0.5611 -0.9034 -0.2097
 1650SOL     OW16408   3.798   1.893  13.041  0.1912 -0.3648 -0.1560
 1650SOL    HW116409   3.742   1.857  12.972 -0.5002  2.0078 -0.8273
 1650SOL    HW216410   3.774   1.846  13.122 -1.0533  0.8919  0.1967
 1651SOL     OW16411   1.175   1.871  16.425  0.1879 -0.0945 -0.7954
 1651SOL    HW116412   1.140   1.782  16.419  0.5300 -0.2451 -0.5248
 1651SOL    HW216413   1.130   1.913  16.351 -1.8180  0.6275  0.8463
 1652SOL     OW16414   3.397   1.257   7.374 -0.1509 -0.3141 -0.3928
 1652SOL    HW116415   3.447   1.208   7.439  0.7809  0.4221 -0.5494
 1652SOL    HW216416   3.313   1.273   7.418 -0.1896 -0.7697 -0.3012
 1653SOL     OW16417   0.233   1.927  11.587 -0.0379  0.7896 -0.6644
 1653SOL    HW116418   0.325   1.941  11.612 -0.2236  0.3700  0.2330
 1653SOL    HW216419   0.233   1.832  11.595 -0.0770  0.7715 -0.8764
 1654SOL     OW16420   3.403   0.930  10.059 -0.9829 -0.2548  0.0490
 1654SOL    HW116421   3.389   0.978   9.978  2.2827 -0.0625 -0.4205
 1654SOL    HW216422   3.492   0.903  10.037 -1.2491 -0.1143 -1.1946
 1655SOL     OW16423   0.859   2.709  15.250 -0.4320  0.0306 -0.6760
 1655SOL    HW116424   0.931   2.646  15.244 -0.3551  0.1919 -1.5027
 1655SOL    HW216425   0.804   2.668  15.316  0.6043  0.1275  0.2534
 1656SOL     OW16426   2.935   1.989  12.412  0.5838 -0.1029  0.4582
 1656SOL    HW116427   2.889   2.059  12.366 -0.4752 -0.9170  0.2891
 1656SOL    HW216428   3.017   1.988  12.362  0.8208  0.1234  0.8420
 1657SOL     OW16429   1.361   4.568   5.825 -0.1228  0.0866  0.3241
 1657SOL    HW116430   1.331   4.573   5.735  2.8404 -3.0546 -0.8268
 1657SOL    HW216431   1.451   4.537   5.817  0.1551  1.5560 -2.1813
 1658SOL     OW16432   3.418   2.726   3.607  0.0689  0.2252  0.2586
 1658SOL    HW116433   3.367   2.752   3.530 -0.5007 -0.8315  0.2686
 1658SOL    HW216434   3.495   2.685   3.568  1.4888  3.0134  0.1549
 1659SOL     OW16435   2.587   2.986   6.976  0.5680 -0.0574  0.2220
 1659SOL    HW116436   2.515   3.042   7.005  1.3635  0.6627  0.8086
 1659SOL    HW216437   2.650   3.052   6.948  0.5853 -0.4661 -0.7032
 1660SOL     OW16438   0.949   0.594   6.404 -0.3367 -0.2046 -0.4443
 1660SOL    HW116439   0.906   0.651   6.340 -0.6022 -0.7469 -0.7457
 1660SOL    HW216440   0.974   0.523   6.346 -0.0462 -1.2965  1.0088
 1661SOL     OW16441   3.058   2.108   0.369  0.0558  0.8750  0.3615
 1661SOL    HW116442   3.033   2.111   0.276 -0.0514  3.2659  0.4790
 1661SOL    HW216443   3.051   2.196   0.404 -0.3765 -0.0588  2.6287
 1662SOL     OW16444   3.022   0.599   7.912  0.1552  0.5464 -0.5927
 1662SOL    HW116445   3.098   0.570   7.963  1.2803  2.1789 -1.3071
 1662SOL    HW216446   3.063   0.652   7.844  1.4821 -0.7312 -0.7947
 1663SOL     OW16447   0.593   0.640   6.901 -0.4743 -0.4315  0.0326
 1663SOL    HW116448   0.504   0.677   6.898  0.5346  1.9503 -0.4717
 1663SOL    HW216449   0.579   0.595   6.984  0.3614 -0.7380  0.0039
 1664SOL     OW16450   3.938   1.176   2.446 -0.2376  0.3177 -0.2003
 1664SOL    HW116451   3.964   1.084   2.447 -0.1034  0.3389 -1.6128
 1664SOL    HW216452   3.934   1.200   2.353 -0.6680  3.3331  0.6076
 1665SOL     OW16453   2.547   1.954   6.987  0.6933  0.2843 -0.0234
 1665SOL    HW116454   2.622   2.012   6.977 -0.9392  1.7898 -3.4657
 1665SOL    HW216455   2.578   1.877   6.940 -0.5599 -0.0751 -0.2729
 1666SOL     OW16456   2.127   1.468   9.643 -0.2587  0.3253 -0.2753
 1666SOL    HW116457   2.097   1.421   9.720 -0.7120 -0.5063 -0.9593
 1666SOL    HW216458   2.165   1.391   9.602 -0.6747  0.6269 -1.2319
 1667SOL     OW16459   1.074   1.465  15.653  0.0231 -1.0548  0.2651
 1667SOL    HW116460   1.007   1.506  15.599  1.4472 -0.0408 -0.7273
 1667SOL    HW216461   1.150   1.475  15.596  0.7365 -0.3685  1.3251
 1668SOL     OW16462   4.014   1.863  14.922 -0.5768  0.2776  0.2997
 1668SOL    HW116463   4.076   1.935  14.926  2.1254 -2.1312  1.9221
 1668SOL    HW216464   4.075   1.791  14.909  0.4997  1.3424 -0.5447
 1669SOL     OW16465   2.420   1.444   1.890 -0.2423  0.3343  0.5894
 1669SOL    HW116466   2.352   1.416   1.828  0.7258 -0.5656 -0.0569
 1669SOL    HW216467   2.432   1.533   1.856  2.1020 -0.0883  0.3473
 1670SOL     OW16468   1.277   4.110   4.421  0.1720 -0.3088 -0.1694
 1670SOL    HW116469   1.327   4.149   4.350 -1.9782  1.2534 -0.8115
 1670SOL    HW216470   1.317   4.025   4.401 -0.3181 -0.5613 -0.0776
 1671SOL     OW16471   3.376   1.384  12.264  0.3285  0.2048  0.1554
 1671SOL    HW116472   3.343   1.316  12.323 -2.1329 -0.3123 -1.8579
 1671SOL    HW216473   3.314   1.456  12.264  0.0652 -0.0226  0.3896
 1672SOL     OW16474   3.601   2.592   9.747  0.1113  0.0056 -0.1663
 1672SOL    HW116475   3.578   2.507   9.708  0.8588  0.4811 -1.6306
 1672SOL    HW216476   3.535   2.602   9.815  0.3507 -0.5312  0.1454
 1673SOL     OW16477   2.768   2.908  13.466 -0.3658  0.0512 -0.0026
 1673SOL    HW116478   2.714   2.922  13.543  1.5251  1.8933  0.9861
 1673SOL    HW216479   2.850   2.913  13.516  0.5863 -0.7432 -1.4734
 1674SOL     OW16480   4.366   0.557   3.905 -0.8469 -0.5520 -0.3170
 1674SOL    HW116481   4.294   0.620   3.913 -1.1101 -0.9786  0.7391
 1674SOL    HW216482   4.417   0.574   3.984 -0.6424  1.6199 -0.9216
 1675SOL     OW16483   1.654   3.109  13.424 -0.9385  0.3306 -0.4605
 1675SOL    HW116484   1.638   3.075  13.512  3.0705  0.4541  0.2732
 1675SOL    HW216485   1.575   3.073  13.384 -1.2495 -2.4163  2.6445
 1676SOL     OW16486   2.346   3.278   4.934  0.1960 -0.2612 -0.4208
 1676SOL    HW116487   2.403   3.289   4.858  1.5980  1.5476  0.8819
 1676SOL    HW216488   2.406   3.225   4.988  0.6404 -0.3937 -1.0462
 1677SOL     OW16489   2.533   2.173   4.628  0.1667 -0.1946  0.0560
 1677SOL    HW116490   2.524   2.189   4.722 -0.9756  0.9147 -0.2322
 1677SOL    HW216491   2.441   2.159   4.606 -0.0033  0.2486  0.4706
 1678SOL     OW16492   1.875   3.022   1.153  0.2855  0.0312  0.5547
 1678SOL    HW116493   1.841   3.112   1.148  0.0821 -0.1092 -0.6838
 1678SOL    HW216494   1.919   3.024   1.238 -0.0660  1.7734  0.7076
 1679SOL     OW16495   4.349   0.942   9.376 -0.9293 -0.0467  0.4427
 1679SOL    HW116496   4.397   0.990   9.444 -0.5696 -2.7310  2.0813
 1679SOL    HW216497   4.288   0.898   9.435 -1.5389  1.2624  0.7879
 1680SOL     OW16498   3.725   3.093   9.022 -0.9611  0.0953  0.0836
 1680SOL    HW116499   3.733   2.997   9.028  0.6987  0.1923 -0.5148
 1680SOL    HW216500   3.790   3.129   9.081 -0.5269 -0.4315 -0.0724
 1681SOL     OW16501   1.077   2.535   5.442  0.0444 -0.1252  0.1410
 1681SOL    HW116502   1.165   2.503   5.423  0.4476  1.2738 -0.3063
 1681SOL    HW216503   1.045   2.445   5.431 -2.3024  0.7479 -0.1628
 1682SOL     OW16504   0.838   2.275   9.893 -0.6776  0.3346  0.1429
 1682SOL    HW116505   0.933   2.277   9.882 -0.3214 -1.6680  3.0663
 1682SOL    HW216506   0.835   2.280   9.988 -0.9127 -2.5432  0.2717
 1683SOL     OW16507   1.991   2.834   3.926 -1.1403  0.3258  0.0999
 1683SOL    HW116508   1.939   2.900   3.973 -1.2816  1.3832 -1.5340
 1683SOL    HW216509   2.063   2.883   3.885  0.1594 -1.0756  0.7126
 1684SOL     OW16510   4.392   1.964  11.997  0.6151  0.4433 -0.1395
 1684SOL    HW116511   4.357   1.999  12.079 -0.0031  0.3816 -0.3852
 1684SOL    HW216512   4.400   2.045  11.948  2.4809  1.8543  2.4363
 1685SOL     OW16513   0.855   4.492  16.496  0.5612  0.2514 -0.4252
 1685SOL    HW116514   0.792   4.461  16.431  2.6273  0.7543 -2.6717
 1685SOL    HW216515   0.866   4.580  16.460 -0.3628  0.2503 -0.7200
 1686SOL     OW16516   3.044   4.190   3.730  0.3824  0.1392 -0.4573
 1686SOL    HW116517   3.104   4.132   3.683 -0.2003  0.5848 -1.7579
 1686SOL    HW216518   3.098   4.269   3.736  2.9389 -1.4139 -2.8513
 1687SOL     OW16519   1.754   3.665   4.156 -0.2107 -0.3651 -0.3571
 1687SOL    HW116520   1.825   3.715   4.196 -0.7043  1.5230 -1.8376
 1687SOL    HW216521   1.724   3.620   4.235  0.6954 -0.0255  0.1775
 1688SOL     OW16522   2.725   0.181   8.445 -0.0859  0.1033 -0.1887
 1688SOL    HW116523   2.731   0.199   8.539  0.7146  1.3003 -0.4714
 1688SOL    HW216524   2.655   0.116   8.444  0.9885 -1.0502  0.4070
 1689SOL     OW16525   3.120   2.190  17.615 -0.4578  0.3391  0.0821
 1689SOL    HW116526   3.075   2.115  17.653 -0.3333  0.0806 -0.2832
 1689SOL    HW216527   3.181   2.214  17.685  0.7904 -3.6548  0.3548
 1690SOL     OW16528   0.290   3.917   2.851  0.0415  0.0317  0.0748
 1690SOL    HW116529   0.306   3.918   2.945 -0.5132 -0.8171  0.1814
 1690SOL    HW216530   0.218   3.979   2.840  0.0426 -0.0716 -0.5593
 1691SOL     OW16531   4.078   4.387   4.764  0.3982 -0.3983 -0.5134
 1691SOL    HW116532   3.983   4.374   4.770  0.7115 -2.6110 -0.2583
 1691SOL    HW216533   4.080   4.461   4.704 -1.1820 -0.4547 -0.6283
 1692SOL     OW16534   0.919   2.915   6.372  0.0879  0.0855  0.4045
 1692SOL    HW116535   0.993   2.971   6.350  1.5347 -1.0047  2.4288
 1692SOL    HW216536   0.839   2.964   6.391  0.2922 -1.0103  4.0541
 1693SOL     OW16537   2.660   0.325   7.995  0.4596 -0.2679 -0.3596
 1693SOL    HW116538   2.648   0.233   7.970  0.9356  0.6931 -4.1444
 1693SOL    HW216539   2.636   0.317   8.087 -0.0952  0.2355 -0.4664
 1694SOL     OW16540   2.329   4.070  16.771  0.4424  0.3065  0.3277
 1694SOL    HW116541   2.375   4.112  16.844  3.1964  0.7587 -1.6606
 1694SOL    HW216542   2.358   3.979  16.769 -1.1661 -0.2674  3.5938
 1695SOL     OW16543   0.373   2.955   6.587 -0.8539 -0.4008 -0.1690
 1695SOL    HW116544   0.414   2.940   6.501  0.7217  0.0920  0.4886
 1695SOL    HW216545   0.449   2.944   6.644 -3.6173  2.1110  3.9310
 1696SOL     OW16546   2.734   1.112  14.895 -0.0773  0.3844  0.5389
 1696SOL    HW116547   2.699   1.199  14.878 -0.6391  0.3361  1.4611
 1696SOL    HW216548   2.828   1.131  14.886  0.1990 -2.0849 -1.7640
 1697SOL     OW16549   3.924   0.010   7.239 -0.0924 -0.0054 -0.0801
 1697SOL    HW116550   3.934   0.044   7.328 -1.8799 -5.2911  2.1745
 1697SOL    HW216551   3.878   4.656   7.271 -0.1941  0.4327  0.8229
 1698SOL     OW16552   4.015   0.465   6.189 -0.2207 -0.2496  0.2425
 1698SOL    HW116553   3.919   0.464   6.183 -0.2136 -2.5801  0.5841
 1698SOL    HW216554   4.032   0.501   6.102 -1.0700  0.4515  0.3645
 1699SOL     OW16555   1.306   0.676  14.549  0.1814  1.1137  0.6093
 1699SOL    HW116556   1.337   0.603  14.496  0.9372  2.0004 -0.1636
 1699SOL    HW216557   1.324   0.751  14.492 -1.8319  2.3003  1.5138
 1700SOL     OW16558   4.027   0.008   9.463 -0.5238 -0.7535 -0.3803
 1700SOL    HW116559   4.071   4.670   9.521  1.7789 -0.1831 -1.5045
 1700SOL    HW216560   3.978   0.071   9.516  1.2538 -0.9709  1.5183
 1701SOL     OW16561   0.331   2.487   6.559  0.1811  0.2347  0.1822
 1701SOL    HW116562   0.336   2.396   6.587  2.5288  0.4300  0.4055
 1701SOL    HW216563   0.317   2.532   6.643  1.7765  2.6408 -0.8231
 1702SOL     OW16564   2.358   3.995   4.912  0.5785 -0.2201 -0.2224
 1702SOL    HW116565   2.344   3.913   4.959  0.6171  0.8092  1.6028
 1702SOL    HW216566   2.268   4.001   4.878  0.5574  0.8751  0.0293
 1703SOL     OW16567   0.985   2.225   8.668  0.1726 -0.8480 -0.5130
 1703SOL    HW116568   1.063   2.232   8.613  2.4619  1.6728  3.0034
 1703SOL    HW216569   0.977   2.311   8.710 -1.1677 -0.5496 -1.3914
 1704SOL     OW16570   3.619   3.620  11.526  0.1098  0.3537 -0.2760
 1704SOL    HW116571   3.560   3.579  11.589  0.6069 -1.3341 -0.8972
 1704SOL    HW216572   3.591   3.582  11.443 -0.2719  1.1512 -0.5146
 1705SOL     OW16573   4.532   0.822   6.069  0.4010  0.7391  0.3625
 1705SOL    HW116574   4.474   0.849   5.998 -1.2089  0.4474  1.5593
 1705SOL    HW216575   4.482   0.860   6.142  0.0727 -1.1644  1.1343
 1706SOL     OW16576   2.765   4.048  17.446  0.0452 -0.3883  0.2745
 1706SOL    HW116577   2.857   4.039  17.470  0.2480 -0.3726 -0.4768
 1706SOL    HW216578   2.745   4.129  17.492  2.9051  0.5861 -0.2146
 1707SOL     OW16579   2.382   0.288   8.666 -0.2559  0.0452 -0.1934
 1707SOL    HW116580   2.384   0.332   8.751 -0.3274  1.9121 -1.1666
 1707SOL    HW216581   2.465   0.317   8.627  0.4823 -2.0289 -0.1878
 1708SOL     OW16582   0.616   0.087  12.422  0.0806 -0.5257 -0.0158
 1708SOL    HW116583   0.657   0.042  12.495  0.6545 -0.2054 -0.1436
 1708SOL    HW216584   0.553   0.142  12.469 -0.0102  1.2705 -2.2419
 1709SOL     OW16585   0.652   4.106  15.704 -0.4788  0.0195 -0.3090
 1709SOL    HW116586   0.625   4.152  15.783 -1.7605 -1.9324  0.3951
 1709SOL    HW216587   0.744   4.131  15.701  0.0738 -1.9542  0.9013
 1710SOL     OW16588   2.222   0.875   5.040  0.0849 -0.7585  0.2450
 1710SOL    HW116589   2.260   0.793   5.008  1.8798 -0.3713  1.3323
 1710SOL    HW216590   2.282   0.941   5.004 -2.7658  0.7010 -1.7526
 1711SOL     OW16591   3.322   3.040   7.183 -0.6938 -0.0980 -0.0005
 1711SOL    HW116592   3.385   2.978   7.145  2.2932  4.4681 -2.5729
 1711SOL    HW216593   3.386   3.104   7.215 -0.5465 -0.7640  1.0117
 1712SOL     OW16594   2.571   1.191   8.965 -0.2634 -0.1002 -0.2791
 1712SOL    HW116595   2.544   1.100   8.955 -0.8431 -0.1207  1.5291
 1712SOL    HW216596   2.581   1.204   9.059 -0.7051 -0.0323 -0.2419
 1713SOL     OW16597   2.589   4.209   7.257  0.2205 -0.0799 -0.1773
 1713SOL    HW116598   2.504   4.201   7.300  0.4556  0.7969  0.4752
 1713SOL    HW216599   2.583   4.129   7.206 -0.3774  0.8620 -1.5938
 1714SOL     OW16600   2.665   2.515   1.317 -0.2271 -0.8632  0.4430
 1714SOL    HW116601   2.653   2.493   1.224  2.1252  2.0580 -0.5542
 1714SOL    HW216602   2.583   2.565   1.325  0.9102  1.0567  0.1043
 1715SOL     OW16603   2.843   2.588  12.556 -0.5116  0.6970  0.0594
 1715SOL    HW116604   2.926   2.557  12.522 -1.7793 -0.3696 -2.0962
 1715SOL    HW216605   2.818   2.516  12.614  0.8952  1.1058  1.1801
 1716SOL     OW16606   4.247   2.601   4.792 -0.0225 -0.4278 -0.6481
 1716SOL    HW116607   4.157   2.601   4.825 -0.1570  0.3831 -1.0007
 1716SOL    HW216608   4.288   2.517   4.814  0.7617  0.2517  0.4758
 1717SOL     OW16609   1.724   1.900   7.759 -0.2385 -0.0826  0.1847
 1717SOL    HW116610   1.740   1.805   7.756  0.2534  0.0932 -2.4595
 1717SOL    HW216611   1.628   1.892   7.763 -0.2716  1.8934  2.9220
 1718SOL     OW16612   4.124   2.723  16.756  0.4741  0.8316  0.4576
 1718SOL    HW116613   4.076   2.644  16.777  0.0729  0.7593 -0.7129
 1718SOL    HW216614   4.077   2.790  16.805 -0.3560  0.6000 -0.0238
 1719SOL     OW16615   3.379   0.440   4.887  0.3939 -0.3035  0.7418
 1719SOL    HW116616   3.448   0.472   4.945 -0.8543 -1.0058  2.6030
 1719SOL    HW216617   3.383   0.345   4.894  0.3433 -0.3457  0.2019
 1720SOL     OW16618   4.387   2.087   4.059  0.7907 -0.4716 -0.3469
 1720SOL    HW116619   4.296   2.093   4.032  1.1089 -0.0814 -1.3445
 1720SOL    HW216620   4.428   2.083   3.972 -0.2489  2.4516 -0.9638
 1721SOL     OW16621   2.333   3.070   8.076 -0.3212 -0.1628  0.4689
 1721SOL    HW116622   2.406   3.090   8.134  0.2468 -0.7493 -0.0397
 1721SOL    HW216623   2.357   2.985   8.038  2.5175  1.2959 -0.9573
 1722SOL     OW16624   0.812   1.104   2.644 -0.2224  0.2126 -0.2012
 1722SOL    HW116625   0.787   1.077   2.556  1.0031  1.0689 -0.8077
 1722SOL    HW216626   0.800   1.019   2.687  1.3447 -0.7872 -1.7696
 1723SOL     OW16627   3.355   3.389   6.978 -0.2423  0.0263 -0.4902
 1723SOL    HW116628   3.445   3.358   6.968 -0.3418 -0.4675  0.0807
 1723SOL    HW216629   3.302   3.327   6.927  0.8142 -1.1977 -0.1084
 1724SOL     OW16630   0.208   4.048  16.614 -0.0106 -0.3166  0.3641
 1724SOL    HW116631   0.236   4.114  16.551 -0.9868 -0.9214 -0.7030
 1724SOL    HW216632   0.287   3.995  16.622 -0.7590 -1.5950 -0.7019
 1725SOL     OW16633   1.279   4.451  17.035 -0.1366  0.2782  0.0946
 1725SOL    HW116634   1.260   4.517  17.102 -1.3114 -1.2007  1.2104
 1725SOL    HW216635   1.277   4.498  16.951  4.3432  1.4719  0.6550
 1726SOL     OW16636   0.460   3.283  10.975 -0.3828 -0.1244  0.1137
 1726SOL    HW116637   0.539   3.285  11.031 -0.7923  0.4020  0.6702
 1726SOL    HW216638   0.494   3.315  10.892  0.5983  0.8933  0.9078
 1727SOL     OW16639   2.127   2.479   8.508  0.3023  0.1177 -0.4357
 1727SOL    HW116640   2.062   2.546   8.482 -0.3779 -0.1076  0.6728
 1727SOL    HW216641   2.081   2.455   8.589  1.0296 -0.1406 -0.1039
 1728SOL     OW16642   3.377   0.100   8.077  0.0270  0.2295  0.1955
 1728SOL    HW116643   3.451   0.152   8.043  0.6617 -1.9032 -1.7257
 1728SOL    HW216644   3.397   0.108   8.170 -1.0520 -3.1873  0.6991
 1729SOL     OW16645   1.468   1.851   7.673  0.0920  0.0143  0.2889
 1729SOL    HW116646   1.440   1.942   7.659 -0.1349 -0.2052 -0.6609
 1729SOL    HW216647   1.387   1.811   7.705  0.7173 -1.6611 -0.2172
 1730SOL     OW16648   2.550   0.294   8.254  0.0018  0.0262 -0.6396
 1730SOL    HW116649   2.472   0.238   8.247 -2.2141  2.8840  1.3814
 1730SOL    HW216650   2.608   0.240   8.308  0.3032  1.9852  0.9784
 1731SOL     OW16651   0.799   1.656   0.287  0.7215 -0.3195  0.2005
 1731SOL    HW116652   0.853   1.586   0.251  0.7357  1.2586 -2.9268
 1731SOL    HW216653   0.832   1.660   0.376  0.3297  2.6480  0.2155
 1732SOL     OW16654   0.471   3.457   5.903 -0.5271  0.2890  0.5439
 1732SOL    HW116655   0.437   3.547   5.899  2.4139  1.3845  0.0043
 1732SOL    HW216656   0.561   3.475   5.929 -0.2369  0.8447 -0.8155
 1733SOL     OW16657   3.199   3.703   1.276 -0.0079  0.3544  0.3714
 1733SOL    HW116658   3.280   3.683   1.322 -1.3381  0.1582  2.5977
 1733SOL    HW216659   3.167   3.614   1.265 -0.9885  0.5869  1.3620
 1734SOL     OW16660   3.254   2.933   8.731 -0.5691  0.1052 -0.0227
 1734SOL    HW116661   3.317   2.862   8.741  0.2009  0.7917 -0.0182
 1734SOL    HW216662   3.319   3.002   8.744  0.5268 -0.6937 -1.3419
 1735SOL     OW16663   0.887   2.948  17.459  0.0189 -0.3405 -0.0691
 1735SOL    HW116664   0.828   2.938  17.384  0.1315  0.3825 -0.2590
 1735SOL    HW216665   0.873   2.876  17.520 -0.5128  0.6456  0.9534
 1736SOL     OW16666   1.164   4.178   8.271  0.1374 -0.7152 -0.2088
 1736SOL    HW116667   1.186   4.154   8.361 -0.2017  1.1997  0.3741
 1736SOL    HW216668   1.241   4.138   8.231  0.1393 -2.2914  1.3539
 1737SOL     OW16669   1.732   1.557   5.465 -0.4365 -0.5479  0.2955
 1737SOL    HW116670   1.821   1.522   5.456  0.0063  0.7991 -0.5167
 1737SOL    HW216671   1.754   1.636   5.514  1.8267  0.0156 -1.6683
 1738SOL     OW16672   4.621   3.208   3.092 -0.1446  0.1075 -0.4461
 1738SOL    HW116673   4.694   3.266   3.115 -1.1931  1.1437  0.2894
 1738SOL    HW216674   4.657   3.121   3.103  0.0725  0.0498 -1.5790
 1739SOL     OW16675   3.500   4.100   5.971  0.0250 -0.3085 -0.7027
 1739SOL    HW116676   3.445   4.120   6.047  2.0093  0.1251  0.6256
 1739SOL    HW216677   3.584   4.068   6.006 -0.9658 -1.2253  0.8664
 1740SOL     OW16678   4.380   1.711   4.214  0.6568  0.2156 -0.3877
 1740SOL    HW116679   4.399   1.804   4.199  2.8231 -0.6159 -2.9466
 1740SOL    HW216680   4.286   1.725   4.207  0.4688 -1.7435 -1.7559
 1741SOL     OW16681   2.079   4.319   3.090  0.4304  0.3197  0.2813
 1741SOL    HW116682   2.051   4.410   3.104  0.8774  0.4156  0.5707
 1741SOL    HW216683   2.080   4.295   3.183 -1.3658 -0.8972 -0.0350
 1742SOL     OW16684   3.881   2.154  14.196  0.2764 -0.2009 -0.4007
 1742SOL    HW116685   3.952   2.107  14.153  0.7120  0.9873 -0.9802
 1742SOL    HW216686   3.807   2.128  14.141  1.7561 -5.0871 -0.0613
 1743SOL     OW16687   0.055   4.013   2.413  0.5434 -0.3016 -0.0706
 1743SOL    HW116688   0.121   3.976   2.472  2.9432  1.4261 -1.6803
 1743SOL    HW216689   0.022   3.936   2.367  1.9860 -0.9129 -0.0760
 1744SOL     OW16690   3.011   2.442  15.319 -0.1402  0.5339  0.0691
 1744SOL    HW116691   2.985   2.521  15.365  0.7877  0.2735  1.0486
 1744SOL    HW216692   3.087   2.415  15.370  1.6526 -0.4056 -3.0825
 1745SOL     OW16693   2.921   3.043   5.730 -0.0579  0.3627  0.5395
 1745SOL    HW116694   2.956   3.080   5.811  1.7053 -0.2231  0.0640
 1745SOL    HW216695   2.843   2.997   5.761  0.4722 -1.4164 -0.7528
 1746SOL     OW16696   4.192   4.661   4.257  0.1420  0.4726  0.4845
 1746SOL    HW116697   4.184   4.688   4.349  0.2523 -0.2016  0.6889
 1746SOL    HW216698   4.212   4.567   4.258  1.3266  0.7260  0.1380
 1747SOL     OW16699   1.314   1.679   5.304 -0.1275 -0.3887  0.0111
 1747SOL    HW116700   1.224   1.650   5.320 -0.4747  0.7557  0.1616
 1747SOL    HW216701   1.367   1.605   5.332  1.0099  0.5801  0.3866
 1748SOL     OW16702   2.326   3.497   6.367 -0.3483  0.0679 -0.1108
 1748SOL    HW116703   2.259   3.547   6.321 -0.1917  0.4782  0.1073
 1748SOL    HW216704   2.272   3.449   6.430  1.6460 -1.0419  0.7739
 1749SOL     OW16705   2.401   1.420  10.102 -0.3984  0.4929  0.0017
 1749SOL    HW116706   2.327   1.380  10.055 -0.6353  2.1971 -1.0820
 1749SOL    HW216707   2.349   1.466  10.167  0.1302 -0.1181  0.8452
 1750SOL     OW16708   3.448   1.629   0.467  0.0636  0.4113  0.4272
 1750SOL    HW116709   3.529   1.613   0.515  0.2899 -1.3993 -0.5274
 1750SOL    HW216710   3.467   1.719   0.441  2.2702  0.5791  2.5617
 1751SOL     OW16711   1.896   3.168  13.299 -0.0706  0.2560 -0.1670
 1751SOL    HW116712   1.840   3.197  13.228  0.6628 -2.1068 -1.6985
 1751SOL    HW216713   1.821   3.131  13.345 -0.3017  1.6907  0.6199
 1752SOL     OW16714   3.970   0.580   5.128  0.4167 -0.7074 -0.1696
 1752SOL    HW116715   3.893   0.568   5.073  0.8340 -3.8942 -0.0848
 1752SOL    HW216716   4.010   0.493   5.122  1.2457 -0.3335 -0.0370
 1753SOL     OW16717   4.314   1.331   3.293  0.2338 -0.2957 -0.1938
 1753SOL    HW116718   4.334   1.314   3.201  0.9599  2.1715 -0.5135
 1753SOL    HW216719   4.221   1.311   3.305  0.7965 -2.2818  0.8654
 1754SOL     OW16720   4.094   3.841   3.902 -0.1850  0.0190  0.2739
 1754SOL    HW116721   4.146   3.907   3.947 -1.9439  1.0243  0.8177
 1754SOL    HW216722   4.017   3.835   3.958 -0.5189 -2.6919 -0.4826
 1755SOL     OW16723   3.734   2.461  17.339  0.1698 -0.0362  0.0851
 1755SOL    HW116724   3.778   2.475  17.255 -2.8697  0.0243 -1.4955
 1755SOL    HW216725   3.806   2.484  17.397  1.4153  4.0554 -3.0796
 1756SOL     OW16726   0.931   1.050  16.049 -0.2585 -0.1495 -0.4372
 1756SOL    HW116727   0.903   0.991  15.979 -1.7169  0.9891 -0.8104
 1756SOL    HW216728   0.960   1.124  15.995  1.5062  0.5398  1.4707
 1757SOL     OW16729   2.537   0.157   1.237  0.2603 -0.6058  0.2068
 1757SOL    HW116730   2.615   0.149   1.182 -0.4196  0.1288 -0.8686
 1757SOL    HW216731   2.554   0.076   1.286 -1.8248 -0.8514  0.5038
 1758SOL     OW16732   2.960   1.799   3.116  0.0071 -0.0439  0.5055
 1758SOL    HW116733   2.927   1.888   3.116 -1.4380 -0.5752  1.2000
 1758SOL    HW216734   3.008   1.786   3.198 -2.6358  0.6124  2.1726
 1759SOL     OW16735   3.543   4.398   0.835 -0.2538 -0.0138  0.0495
 1759SOL    HW116736   3.630   4.431   0.858 -0.7782  0.2649  1.6395
 1759SOL    HW216737   3.491   4.419   0.913  1.9505 -0.1487  1.5435
 1760SOL     OW16738   3.746   0.604   2.439  0.1516  0.2936 -0.0850
 1760SOL    HW116739   3.735   0.562   2.354 -0.4715 -0.6388  0.4566
 1760SOL    HW216740   3.676   0.668   2.434 -0.8522 -0.9940 -2.4806
 1761SOL     OW16741   2.840   2.031   6.995 -0.0010 -0.6619 -0.1248
 1761SOL    HW116742   2.913   2.078   7.036  1.6013 -0.7917 -2.8221
 1761SOL    HW216743   2.891   1.982   6.931  0.0347  0.2756 -0.8166
 1762SOL     OW16744   1.111   0.185   3.476  0.7103  0.0637  0.2582
 1762SOL    HW116745   1.133   0.273   3.448  1.3767  0.5108  2.2096
 1762SOL    HW216746   1.043   0.195   3.542 -0.0234 -0.6361 -0.3785
 1763SOL     OW16747   3.883   0.783   9.525 -0.6600  0.2391 -0.2349
 1763SOL    HW116748   3.843   0.698   9.539  1.3865 -0.6242  0.3251
 1763SOL    HW216749   3.834   0.840   9.585 -0.3066  2.0599 -1.6738
 1764SOL     OW16750   1.395   1.784   6.329  0.4442 -0.2295 -0.1345
 1764SOL    HW116751   1.401   1.825   6.416  0.7120  0.6867 -0.5916
 1764SOL    HW216752   1.465   1.718   6.333 -1.4190 -2.2903 -1.8508
 1765SOL     OW16753   1.051   0.455   6.202 -0.0737  0.5229  0.5111
 1765SOL    HW116754   1.126   0.400   6.178 -0.3623 -0.4761  1.9360
 1765SOL    HW216755   1.021   0.478   6.114 -0.7228  1.3613  0.9593
 1766SOL     OW16756   3.739   2.489   9.442  0.2771 -0.5413 -0.7758
 1766SOL    HW116757   3.674   2.446   9.497  1.2239 -2.7015 -1.3494
 1766SOL    HW216758   3.802   2.525   9.505 -0.2144 -0.0462 -0.5712
 1767SOL     OW16759   2.773   2.134  13.956 -0.3650 -0.2383 -0.4086
 1767SOL    HW116760   2.733   2.203  14.009 -0.5087 -0.5693 -0.0933
 1767SOL    HW216761   2.734   2.054  13.988 -1.9599  0.6826 -0.0714
 1768SOL     OW16762   1.202   1.724   7.185 -0.6000 -0.8261 -0.1954
 1768SOL    HW116763   1.186   1.809   7.226  0.1611 -1.2549  0.9799
 1768SOL    HW216764   1.294   1.706   7.200 -0.4014 -0.0888 -0.5444
 1769SOL     OW16765   4.651   2.511   2.491  0.4244 -0.5294  0.0626
 1769SOL    HW116766   4.632   2.488   2.400 -2.5956  1.8885  0.0796
 1769SOL    HW216767   4.630   2.427   2.533  0.8284 -1.9687 -2.6223
 1770SOL     OW16768   3.809   1.256   2.701  0.2944  0.0020  0.6063
 1770SOL    HW116769   3.833   1.210   2.620 -2.5745 -1.3469  0.4994
 1770SOL    HW216770   3.715   1.265   2.684  0.3493  1.7142  1.2508
 1771SOL     OW16771   1.434   0.163   1.179 -0.2629 -0.3612 -0.5291
 1771SOL    HW116772   1.489   0.106   1.126  0.0086 -0.3544 -0.2577
 1771SOL    HW216773   1.479   0.247   1.184  1.1496 -1.1345 -0.4447
 1772SOL     OW16774   0.752   4.152   7.930  0.0485  0.1185 -0.0599
 1772SOL    HW116775   0.833   4.132   7.978  0.3008 -1.0248 -0.9515
 1772SOL    HW216776   0.698   4.190   7.999 -0.6555 -2.1520  0.6505
 1773SOL     OW16777   3.104   0.289   8.699 -0.3656  0.1268  0.0030
 1773SOL    HW116778   3.075   0.333   8.779 -2.1255 -2.6937  0.9402
 1773SOL    HW216779   3.086   0.200   8.732 -1.2293  0.9422  1.7544
 1774SOL     OW16780   2.518   0.948   5.104  0.6214  0.4237  0.0573
 1774SOL    HW116781   2.604   0.988   5.118  0.4905 -0.2567  2.8634
 1774SOL    HW216782   2.470   1.007   5.046  0.7202 -0.0214 -0.4776
 1775SOL     OW16783   3.793   2.623   5.359 -0.6553  0.3691 -0.0230
 1775SOL    HW116784   3.709   2.667   5.349 -0.4803  0.7426  0.1345
 1775SOL    HW216785   3.853   2.682   5.313  0.3548 -2.2766 -2.0816
 1776SOL     OW16786   2.633   3.022   3.431  0.0413  0.1644 -0.1189
 1776SOL    HW116787   2.706   3.035   3.370  0.4682 -0.3566  0.2800
 1776SOL    HW216788   2.660   2.961   3.499 -2.6043  1.8702  2.4177
 1777SOL     OW16789   4.013   3.905   3.392  0.2847  0.0073  0.1728
 1777SOL    HW116790   4.008   3.941   3.480  0.7472  0.5317 -0.0168
 1777SOL    HW216791   3.967   3.821   3.395 -2.4948  1.5636  0.7453
 1778SOL     OW16792   4.519   1.366   3.499 -0.0736 -0.4614  0.3367
 1778SOL    HW116793   4.444   1.357   3.440 -0.5290 -2.4086  1.2178
 1778SOL    HW216794   4.538   1.459   3.486 -2.0379 -0.0019  0.8095
 1779SOL     OW16795   4.165   4.195   0.969  0.2164  0.5458 -0.0463
 1779SOL    HW116796   4.257   4.172   0.979 -0.1269 -1.3621 -1.3655
 1779SOL    HW216797   4.158   4.220   1.061 -0.7292 -3.8254  1.0360
 1780SOL     OW16798   1.872   3.249   1.403 -0.0078  0.1803  0.6039
 1780SOL    HW116799   1.780   3.228   1.417 -0.7342  1.6645 -2.0284
 1780SOL    HW216800   1.875   3.279   1.312  0.9553 -0.5204  0.4034
 1781SOL     OW16801   3.964   0.341   3.953 -0.9368  0.4360 -0.2440
 1781SOL    HW116802   4.000   0.283   4.020 -1.2523  1.4186  0.7631
 1781SOL    HW216803   3.992   0.303   3.869  0.1991 -0.6482  0.6282
 1782SOL     OW16804   3.881   4.087   4.599 -0.4508  0.6437 -0.0155
 1782SOL    HW116805   3.972   4.061   4.583 -0.9310  0.3160 -2.2938
 1782SOL    HW216806   3.827   4.049   4.530 -0.5438  0.8451 -0.0537
 1783SOL     OW16807   1.938   2.044   3.281 -0.3257  0.2685 -0.2738
 1783SOL    HW116808   1.984   1.964   3.308  1.5033  0.9560 -1.3043
 1783SOL    HW216809   1.994   2.060   3.204 -0.1311  1.9742  0.2149
 1784SOL     OW16810   0.722   3.616  10.886  0.5141 -0.4716 -0.4579
 1784SOL    HW116811   0.811   3.617  10.851  0.7727  1.3333  0.2403
 1784SOL    HW216812   0.742   3.622  10.980 -0.0046  1.6082 -0.4790
 1785SOL     OW16813   4.072   1.595  11.893  0.0977  0.5797 -0.0371
 1785SOL    HW116814   4.157   1.597  11.937  0.9641  0.8757 -1.7169
 1785SOL    HW216815   4.086   1.627  11.804  1.6831  1.7165  0.6362
 1786SOL     OW16816   3.407   0.350  13.601 -0.1839 -0.3383 -0.2765
 1786SOL    HW116817   3.336   0.351  13.666  0.8939 -1.4785  0.9230
 1786SOL    HW216818   3.394   0.441  13.576  1.9972  0.3139  0.9371
 1787SOL     OW16819   3.085   1.491   3.634 -0.1396  0.2865 -0.5632
 1787SOL    HW116820   3.008   1.456   3.589 -0.3581 -0.4409  0.3556
 1787SOL    HW216821   3.048   1.517   3.718  0.2132  0.6452 -0.5199
 1788SOL     OW16822   4.612   0.587   3.087 -0.3734  0.2702 -0.5201
 1788SOL    HW116823   4.704   0.587   3.061 -0.0096 -1.6334  0.7217
 1788SOL    HW216824   4.582   0.520   3.025 -1.5691  0.3788 -0.0658
 1789SOL     OW16825   3.208   3.918   2.972 -0.3191  0.3908 -0.1158
 1789SOL    HW116826   3.200   3.971   2.892 -1.8650  0.7357  0.2574
 1789SOL    HW216827   3.142   3.959   3.029 -1.0403  0.1330 -0.7581
 1790SOL     OW16828   2.067   1.040  10.690 -0.9368 -0.3310 -0.5219
 1790SOL    HW116829   2.099   1.125  10.720  1.6705 -1.5675  0.1519
 1790SOL    HW216830   2.010   1.068  10.618 -0.9508  1.8538  0.3614
 1791SOL     OW16831   2.225   4.610   4.197  0.0831 -0.0911  0.1510
 1791SOL    HW116832   2.229   4.524   4.155  1.2034  0.1411 -0.2078
 1791SOL    HW216833   2.232   4.672   4.124 -0.0908  1.8164  1.7693
 1792SOL     OW16834   2.025   3.630   1.574  0.4970 -0.7579  0.1735
 1792SOL    HW116835   1.950   3.638   1.515  0.5896 -0.3816  0.1074
 1792SOL    HW216836   2.099   3.621   1.514  0.7485  1.1130  0.2182
 1793SOL     OW16837   3.028   3.575   3.487 -0.4249 -0.0581 -0.5312
 1793SOL    HW116838   2.942   3.549   3.455 -0.7329 -1.9517  1.8350
 1793SOL    HW216839   3.072   3.492   3.475  2.7041  1.8874 -2.4273
 1794SOL     OW16840   1.830   4.050   8.531  0.0538 -0.3644  0.3427
 1794SOL    HW116841   1.851   4.143   8.542  0.0076 -0.1876 -1.0710
 1794SOL    HW216842   1.876   4.037   8.448  0.0275  0.9470  0.1138
 1795SOL     OW16843   2.115   1.737   9.608 -0.0502  0.5262 -0.1788
 1795SOL    HW116844   2.128   1.643   9.617 -1.5408  0.2824 -0.5813
 1795SOL    HW216845   2.204   1.772   9.615 -0.2095  1.0195 -0.5953
 1796SOL     OW16846   0.098   1.967  10.489 -0.3077  0.5552 -0.5934
 1796SOL    HW116847   0.092   2.058  10.459  2.7482  0.4256 -1.6481
 1796SOL    HW216848   0.065   1.976  10.578 -1.6275 -1.4824 -0.8828
 1797SOL     OW16849   1.196   2.971   5.975  0.2083 -0.6913 -0.0436
 1797SOL    HW116850   1.123   2.945   5.919  0.4695 -1.7400  0.1064
 1797SOL    HW216851   1.153   3.029   6.038  0.4282  0.8567 -1.3339
 1798SOL     OW16852   1.044   0.575  13.634 -0.9213  0.9301 -0.1142
 1798SOL    HW116853   1.063   0.547  13.545  1.6836 -0.1077  0.7486
 1798SOL    HW216854   1.054   0.670  13.631  0.7556  0.7414 -0.8809
 1799SOL     OW16855   2.863   0.494   8.116  0.2832 -0.2523 -0.3837
 1799SOL    HW116856   2.788   0.445   8.082 -0.8901 -1.4486  3.8345
 1799SOL    HW216857   2.909   0.516   8.036  0.3598  2.0346  0.2934
 1800SOL     OW16858   4.086   3.146   9.745 -0.0542 -0.0321  0.3908
 1800SOL    HW116859   4.082   3.237   9.714 -1.4998  0.2491  1.3721
 1800SOL    HW216860   3.995   3.122   9.761  0.4161 -1.4782  0.9273
 1801SOL     OW16861   0.964   3.122   7.907  0.2609 -0.3988  0.4516
 1801SOL    HW116862   1.053   3.139   7.875  1.0395 -4.1355  0.6677
 1801SOL    HW216863   0.956   3.197   7.966 -1.3611 -1.2229  1.2598
 1802SOL     OW16864   4.231   1.491   0.485  0.2624  0.1350  0.4089
 1802SOL    HW116865   4.198   1.525   0.402  0.7707  0.4915  0.3571
 1802SOL    HW216866   4.194   1.402   0.479 -2.4448  1.2199  0.8241
 1803SOL     OW16867   2.966   2.185  11.668  0.2003  0.4000  0.1875
 1803SOL    HW116868   2.920   2.102  11.681  0.8863 -0.2310 -1.3971
 1803SOL    HW216869   3.025   2.156  11.598  1.1650 -0.4696  1.3557
 1804SOL     OW16870   1.296   0.898   8.701 -0.4732  0.1096  0.1403
 1804SOL    HW116871   1.253   0.931   8.780 -0.3155 -0.5724  0.5085
 1804SOL    HW216872   1.219   0.884   8.645  0.2332 -0.8285 -0.6016
 1805SOL     OW16873   4.230   0.324  14.048  0.1724  0.1731 -0.5686
 1805SOL    HW116874   4.183   0.374  13.981 -1.1916  0.1314  0.3375
 1805SOL    HW216875   4.194   0.238  14.029  3.6180 -1.4721  0.4147
 1806SOL     OW16876   3.284   4.334   1.576 -0.1250 -0.1086  0.1720
 1806SOL    HW116877   3.227   4.259   1.593  2.1961 -1.6523  1.3296
 1806SOL    HW216878   3.337   4.304   1.502 -0.6613 -1.2361  0.2310
 1807SOL     OW16879   1.708   0.851  10.743 -0.3288  0.7444  0.1165
 1807SOL    HW116880   1.623   0.866  10.785 -0.7310  0.0445 -0.4576
 1807SOL    HW216881   1.734   0.783  10.806  2.0777  3.1895  1.8089
 1808SOL     OW16882   2.068   3.503   9.440 -0.4807 -0.3444 -0.2743
 1808SOL    HW116883   2.149   3.466   9.407  0.1965  0.7696  0.1479
 1808SOL    HW216884   2.069   3.489   9.535  0.0079 -3.2460 -0.7079
 1809SOL     OW16885   4.336   2.587  14.617  0.0926  0.0478 -0.0403
 1809SOL    HW116886   4.431   2.591  14.610  0.0803  0.2581 -0.1073
 1809SOL    HW216887   4.321   2.613  14.708 -1.6551 -3.2335  0.6142
 1810SOL     OW16888   3.146   3.067   2.515  0.4220 -0.1667  0.1517
 1810SOL    HW116889   3.170   2.998   2.454  1.0220  0.2643 -0.0939
 1810SOL    HW216890   3.189   3.138   2.468  0.3244 -0.2504 -0.0629
 1811SOL     OW16891   2.162   4.559  16.891  0.2370  0.6295  0.2240
 1811SOL    HW116892   2.070   4.579  16.911  0.6089  1.2280  1.2743
 1811SOL    HW216893   2.155   4.542  16.797  3.1490  1.1076 -0.0704
 1812SOL     OW16894   2.899   1.394   6.240  0.0445  0.1796  0.1039
 1812SOL    HW116895   2.919   1.479   6.278  0.8045 -0.0498  0.2130
 1812SOL    HW216896   2.984   1.352   6.229  0.3329  1.3411 -2.0243
 1813SOL     OW16897   1.402   2.245   4.485 -0.6380 -0.0204  0.1170
 1813SOL    HW116898   1.387   2.191   4.408  1.4482  2.0092 -1.7361
 1813SOL    HW216899   1.447   2.319   4.443  1.7319 -2.4154 -1.5885
 1814SOL     OW16900   1.791   2.551   4.106  0.1159 -0.5703 -0.2222
 1814SOL    HW116901   1.747   2.503   4.036  2.4151 -0.6860 -1.5536
 1814SOL    HW216902   1.876   2.573   4.069 -0.5590 -1.1849 -2.1106
 1815SOL     OW16903   2.230   4.007   5.688 -0.6127 -0.3155 -0.2706
 1815SOL    HW116904   2.302   4.061   5.655 -0.2486 -1.4803 -1.3817
 1815SOL    HW216905   2.277   3.925   5.669  0.4901  0.4015 -0.6509
 1816SOL     OW16906   1.424   0.553   2.771  0.5748 -0.0586  0.2952
 1816SOL    HW116907   1.470   0.636   2.759 -0.9881  0.5934 -1.2801
 1816SOL    HW216908   1.375   0.570   2.851  0.2806 -0.9449  0.3047
 1817SOL     OW16909   4.368   0.830   7.412  0.3923  0.5699  0.3944
 1817SOL    HW116910   4.316   0.769   7.464 -0.4434  0.6661 -0.3331
 1817SOL    HW216911   4.459   0.820   7.441  1.3024 -1.1743 -3.0651
 1818SOL     OW16912   2.462   2.868   3.307  0.0189  0.4175  0.3856
 1818SOL    HW116913   2.510   2.917   3.374  2.2259 -0.9275 -0.2432
 1818SOL    HW216914   2.445   2.941   3.248 -1.8757 -2.4906 -2.6834
 1819SOL     OW16915   3.855   2.653   6.973 -0.2798  0.0088  0.6902
 1819SOL    HW116916   3.950   2.645   6.980 -0.4167 -1.5292  0.7756
 1819SOL    HW216917   3.841   2.696   7.057 -0.2499 -0.0900  0.7461
 1820SOL     OW16918   2.770   0.429  17.411 -0.4297  0.1423 -0.1354
 1820SOL    HW116919   2.779   0.454  17.319 -0.8362  1.4270  0.1810
 1820SOL    HW216920   2.688   0.380  17.401 -1.1591  1.4932 -0.7620
 1821SOL     OW16921   1.039   4.702   5.468 -0.2380  0.0583 -0.0891
 1821SOL    HW116922   1.035   0.074   5.469  2.8031  0.1539  0.8674
 1821SOL    HW216923   0.956   4.661   5.442  0.3617 -1.8097  0.9687
 1822SOL     OW16924   1.847   4.491   7.420 -0.8774 -0.2738 -0.3248
 1822SOL    HW116925   1.898   4.572   7.422 -2.3276  0.6264  0.1995
 1822SOL    HW216926   1.771   4.512   7.475 -0.1027 -0.0210  0.6416
 1823SOL     OW16927   2.904   4.025  12.975 -0.1897  0.3532 -0.0143
 1823SOL    HW116928   2.844   4.082  12.927  0.3532  0.3116 -0.7333
 1823SOL    HW216929   2.833   3.976  13.017 -0.6120  1.2228  0.3125
 1824SOL     OW16930   1.678   0.807   1.537 -0.2936 -0.0289 -0.0414
 1824SOL    HW116931   1.625   0.750   1.593  0.3993 -0.0794  0.5604
 1824SOL    HW216932   1.619   0.811   1.462 -1.7882 -2.1263  1.0047
 1825SOL     OW16933   3.614   2.669   8.534  0.1889  0.4708  0.1293
 1825SOL    HW116934   3.644   2.719   8.610  0.8508  0.4761 -0.1281
 1825SOL    HW216935   3.680   2.600   8.524 -0.2519  0.1321 -0.4354
 1826SOL     OW16936   3.035   2.728  17.477  0.0805 -0.0417 -0.2394
 1826SOL    HW116937   3.045   2.782  17.399 -3.8153  2.2516  0.8244
 1826SOL    HW216938   3.061   2.795  17.540  2.0464 -0.2911 -0.7853
 1827SOL     OW16939   2.794   4.182   9.074 -0.1580 -0.5242 -0.0571
 1827SOL    HW116940   2.764   4.254   9.129  1.1172 -0.2261  0.2683
 1827SOL    HW216941   2.734   4.112   9.095  1.2924 -2.1802 -1.4275
 1828SOL     OW16942   1.384   1.947  14.346  0.5181  0.3146  0.9304
 1828SOL    HW116943   1.392   2.039  14.370 -1.9162  0.6363  0.4485
 1828SOL    HW216944   1.433   1.896  14.411 -0.0425  2.6373  3.1656
 1829SOL     OW16945   0.500   3.102   0.450 -0.5530  0.2517 -0.7671
 1829SOL    HW116946   0.463   3.183   0.484 -3.3339 -1.2097 -0.2642
 1829SOL    HW216947   0.438   3.034   0.476  1.8607 -2.6430 -2.5965
 1830SOL     OW16948   4.675   4.637   3.306 -0.9473 -0.0462 -0.2256
 1830SOL    HW116949   4.686   4.573   3.236 -1.0334 -0.2100 -0.0897
 1830SOL    HW216950   4.678   4.716   3.252 -1.2461 -0.0234 -0.2101
 1831SOL     OW16951   0.193   3.960  12.631  0.3508 -0.5230  0.3970
 1831SOL    HW116952   0.151   3.875  12.614  0.9525 -0.7414 -0.0002
 1831SOL    HW216953   0.231   3.981  12.546 -0.1628 -2.0763 -0.2201
 1832SOL     OW16954   4.095   1.293   1.876  0.6437  0.6606 -0.1442
 1832SOL    HW116955   4.054   1.376   1.853 -0.5281 -0.3094 -1.5414
 1832SOL    HW216956   4.023   1.236   1.904  1.8528 -0.8894 -0.1542
 1833SOL     OW16957   1.396   1.733   8.514  0.0105 -0.2136 -0.2183
 1833SOL    HW116958   1.361   1.720   8.426  1.2939 -1.0817 -0.5866
 1833SOL    HW216959   1.475   1.679   8.511  1.1947  1.6317 -2.0860
 1834SOL     OW16960   3.112   3.331  15.526 -0.5381  0.7070 -0.7721
 1834SOL    HW116961   3.073   3.246  15.544  0.6231  0.0339 -1.4778
 1834SOL    HW216962   3.036   3.387  15.509 -0.1624  0.9027 -1.7733
 1835SOL     OW16963   4.019   2.696  14.697 -0.0652  0.5163  0.4074
 1835SOL    HW116964   4.079   2.647  14.753  0.9631  1.9082  0.5086
 1835SOL    HW216965   3.972   2.740  14.767  2.0295  0.5097  1.7960
 1836SOL     OW16966   0.203   1.609   3.221  0.2948 -0.1217 -0.3944
 1836SOL    HW116967   0.191   1.688   3.273  1.6174 -0.0633 -0.2009
 1836SOL    HW216968   0.193   1.548   3.294  0.4345 -0.8253 -0.9726
 1837SOL     OW16969   3.324   4.468  16.869 -0.5006 -0.1228 -0.0299
 1837SOL    HW116970   3.319   4.383  16.913  0.5013 -1.2807 -2.1668
 1837SOL    HW216971   3.411   4.498  16.895 -1.1934  2.4779 -0.6862
 1838SOL     OW16972   4.426   0.792   6.541  0.1736  0.0711  0.2090
 1838SOL    HW116973   4.366   0.720   6.527 -0.4733  0.9525 -1.5528
 1838SOL    HW216974   4.501   0.751   6.585  1.4735  3.3063  1.0287
 1839SOL     OW16975   0.198   0.476   6.855  0.3512 -0.1912  0.0511
 1839SOL    HW116976   0.259   0.403   6.867  0.2873 -0.4280 -1.1057
 1839SOL    HW216977   0.251   0.555   6.861 -0.4844  0.2072  2.1915
 1840SOL     OW16978   2.586   4.302   6.925 -0.1259 -0.2159 -0.4835
 1840SOL    HW116979   2.534   4.292   6.846 -0.7069  0.2729 -0.1716
 1840SOL    HW216980   2.545   4.236   6.981 -1.6506  0.1375 -1.1881
 1841SOL     OW16981   1.135   1.967  13.499 -0.4554  0.1820 -0.0084
 1841SOL    HW116982   1.163   2.031  13.434  1.0606  0.9383  1.3605
 1841SOL    HW216983   1.066   2.010  13.548  0.8781  1.2721  0.9200
 1842SOL     OW16984   1.918   1.633   6.560  0.0239  0.2019  0.2619
 1842SOL    HW116985   1.876   1.680   6.488  2.0020  1.3527 -0.1227
 1842SOL    HW216986   1.863   1.556   6.544 -0.7814  0.6070  1.0809
 1843SOL     OW16987   4.267   2.928  15.346  0.2279  0.2934  0.4275
 1843SOL    HW116988   4.292   2.933  15.439 -2.6851 -1.2895  1.2919
 1843SOL    HW216989   4.269   2.834  15.329  1.9629  0.4178 -0.0750
 1844SOL     OW16990   0.855   1.058   7.720 -0.4947  0.0305 -0.5406
 1844SOL    HW116991   0.819   1.070   7.632  0.2011  0.8915 -0.7062
 1844SOL    HW216992   0.929   0.999   7.701 -0.3380  0.3950 -1.0543
 1845SOL     OW16993   0.511   4.614  15.156 -0.0290  0.1274 -0.6962
 1845SOL    HW116994   0.527   4.688  15.098  0.4317 -0.4152 -1.2726
 1845SOL    HW216995   0.422   4.601  15.124  0.0626 -2.1271 -0.0512
 1846SOL     OW16996   0.599   1.885   6.823  0.5154  0.1999  0.0647
 1846SOL    HW116997   0.644   1.969   6.827  1.0866 -0.0556 -1.0811
 1846SOL    HW216998   0.653   1.841   6.758  1.2927 -2.1251  2.2781
 1847SOL     OW16999   0.305   3.941   3.128  0.3146  0.4962 -0.2339
 1847SOL    HW117000   0.362   4.016   3.142  0.4420 -0.1786  2.8008
 1847SOL    HW217001   0.228   3.970   3.177 -0.1427 -0.0734 -0.6133
 1848SOL     OW17002   3.649   1.432   2.463 -0.0277  0.0763  0.5399
 1848SOL    HW117003   3.605   1.370   2.521 -2.2940 -1.3150 -2.6780
 1848SOL    HW217004   3.652   1.513   2.514 -0.5609  0.8059 -0.5727
 1849SOL     OW17005   1.289   3.008   1.043 -0.0265 -0.6000 -0.4152
 1849SOL    HW117006   1.383   3.025   1.035  0.4072 -3.2549 -0.8374
 1849SOL    HW217007   1.272   3.000   0.949 -1.6660  2.7991 -0.4021
 1850SOL     OW17008   0.670   2.746   3.130  0.2691  0.0003 -0.0577
 1850SOL    HW117009   0.620   2.787   3.202  0.4289 -0.8285  0.5208
 1850SOL    HW217010   0.760   2.761   3.156 -0.0312  3.1445 -0.8170
 1851SOL     OW17011   4.676   3.541   6.260 -0.2225  0.7236  0.2481
 1851SOL    HW117012   4.704   3.465   6.311 -0.2669 -0.1950 -1.1051
 1851SOL    HW217013   4.632   3.508   6.182 -0.6696 -0.8851  1.1878
 1852SOL     OW17014   3.577   4.659   3.975 -0.0318 -0.4591  0.1032
 1852SOL    HW117015   3.640   4.721   3.939 -2.7127  1.5011 -1.1695
 1852SOL    HW217016   3.503   4.666   3.915 -1.5014 -3.7259  1.5228
 1853SOL     OW17017   2.624   0.694   4.913 -0.3241 -0.4095 -0.8658
 1853SOL    HW117018   2.621   0.762   4.980  1.1392 -0.1078 -1.1118
 1853SOL    HW217019   2.704   0.709   4.863  0.2001  1.7937  0.6137
 1854SOL     OW17020   2.483   1.809  15.187  0.3074 -0.2638 -0.7381
 1854SOL    HW117021   2.430   1.884  15.215 -0.7396 -1.9110  1.7714
 1854SOL    HW217022   2.424   1.771  15.122  1.5830 -2.2971 -0.7040
 1855SOL     OW17023   1.951   4.575   8.393  0.2025 -0.0326 -0.0182
 1855SOL    HW117024   2.031   4.616   8.360  0.9085 -0.9171  0.5806
 1855SOL    HW217025   1.890   4.648   8.386 -0.6970 -0.7869 -0.0636
 1856SOL     OW17026   3.322   0.530  12.148  0.1020 -0.2137 -0.2971
 1856SOL    HW117027   3.328   0.441  12.181  0.5798 -0.6847 -1.6556
 1856SOL    HW217028   3.251   0.533  12.084 -0.8876  0.8819  0.8497
 1857SOL     OW17029   2.710   1.324   4.351  0.6465 -0.1860 -0.3454
 1857SOL    HW117030   2.624   1.290   4.327  0.6603  0.4366 -1.2605
 1857SOL    HW217031   2.728   1.390   4.284  0.4798  0.1191 -0.0932
 1858SOL     OW17032   4.300   2.026   6.320 -0.3082  0.2942  0.5891
 1858SOL    HW117033   4.354   1.957   6.282 -3.1910 -1.4794 -0.2860
 1858SOL    HW217034   4.365   2.075   6.371  2.0514 -0.0283 -2.0791
 1859SOL     OW17035   4.285   3.965   3.320 -0.2020 -0.8499 -0.2726
 1859SOL    HW117036   4.286   4.009   3.405 -0.7643 -0.8024 -0.2898
 1859SOL    HW217037   4.197   3.927   3.318 -0.2956 -0.7008  0.9706
 1860SOL     OW17038   4.404   0.690  14.381 -0.5382 -0.3549 -0.7007
 1860SOL    HW117039   4.433   0.652  14.464  0.9729 -0.5275 -1.2961
 1860SOL    HW217040   4.394   0.611  14.329  2.3584 -2.3837  1.7903
 1861SOL     OW17041   3.619   0.348   6.936  0.2811  0.1473 -0.1496
 1861SOL    HW117042   3.589   0.271   6.983  1.7100 -1.4560 -1.8590
 1861SOL    HW217043   3.541   0.351   6.880  0.5781 -0.0749 -0.5769
 1862SOL     OW17044   2.668   2.866   6.211  0.1135  0.2096  0.3886
 1862SOL    HW117045   2.606   2.885   6.140  2.6146  1.4907 -1.4675
 1862SOL    HW217046   2.614   2.822   6.277 -0.6243  2.0474  0.9969
 1863SOL     OW17047   2.252   3.351   4.208 -0.2249 -0.0801  0.4799
 1863SOL    HW117048   2.227   3.341   4.117 -1.5401 -0.6905  0.9076
 1863SOL    HW217049   2.218   3.272   4.250  0.4839 -0.7553 -0.2322
 1864SOL     OW17050   3.782   0.486   7.538  0.0339 -0.3766 -0.2520
 1864SOL    HW117051   3.807   0.447   7.454  2.0350 -1.0041  0.6301
 1864SOL    HW217052   3.826   0.441   7.610 -0.2903 -0.5462 -0.1583
 1865SOL     OW17053   0.631   4.099   2.774 -0.0593 -0.0603 -0.0891
 1865SOL    HW117054   0.715   4.145   2.769  1.3178 -2.7087 -1.3331
 1865SOL    HW217055   0.672   4.016   2.799 -0.0222  0.4035  1.4395
 1866SOL     OW17056   2.111   1.037   8.162  0.0183 -0.2191 -0.0133
 1866SOL    HW117057   2.060   1.114   8.188  0.7019  0.6285 -1.1562
 1866SOL    HW217058   2.040   1.005   8.106  0.1897  1.2923 -1.1036
 1867SOL     OW17059   4.422   2.617   5.548 -0.1370  0.0192  0.1474
 1867SOL    HW117060   4.475   2.695   5.531 -2.6110  1.4241 -1.2681
 1867SOL    HW217061   4.461   2.549   5.493  1.9533  0.7243  0.7537
 1868SOL     OW17062   2.648   1.184  16.062 -0.1857 -0.2304  0.6473
 1868SOL    HW117063   2.672   1.276  16.063 -1.3040  0.0771 -0.6347
 1868SOL    HW217064   2.730   1.138  16.042 -0.9080 -1.1566 -0.2131
 1869SOL     OW17065   4.215   2.466  12.056  0.4070 -0.2846 -0.4120
 1869SOL    HW117066   4.233   2.527  12.126 -0.3742 -2.0865  1.3588
 1869SOL    HW217067   4.182   2.526  11.989 -0.3540 -0.4888 -0.2165
 1870SOL     OW17068   4.095   1.850   0.043 -0.3098 -0.1843  0.1845
 1870SOL    HW117069   4.051   1.849  17.654  0.2052 -1.9633 -0.0668
 1870SOL    HW217070   4.177   1.894   0.022 -1.5696  2.7642  1.4402
 1871SOL     OW17071   2.437   2.299  16.301 -0.3864 -0.3631  0.1603
 1871SOL    HW117072   2.395   2.321  16.218 -0.3466  0.3336  0.3277
 1871SOL    HW217073   2.403   2.217  16.337 -0.7813  0.4783  1.7181
 1872SOL     OW17074   4.279   3.929  11.908 -0.1662  0.1186 -0.0156
 1872SOL    HW117075   4.341   3.922  11.981  1.2538 -1.7160 -1.4117
 1872SOL    HW217076   4.211   3.872  11.944 -0.0481 -0.9603 -1.5351
 1873SOL     OW17077   1.478   1.552   9.291 -0.1440 -0.1735 -0.0463
 1873SOL    HW117078   1.419   1.572   9.363  1.4267  3.1412  0.2906
 1873SOL    HW217079   1.542   1.623   9.293  0.9242 -1.1709  0.9767
 1874SOL     OW17080   2.973   0.866  14.316  0.1135  0.6850  1.1177
 1874SOL    HW117081   3.055   0.915  14.325 -0.7773  2.2317  0.8169
 1874SOL    HW217082   2.904   0.932  14.314  0.0115  0.5259 -1.1919
 1875SOL     OW17083   2.483   0.014   3.306  0.1125  0.7599  0.5865
 1875SOL    HW117084   2.431   4.713   3.230  1.2075 -0.9361  0.3732
 1875SOL    HW217085   2.430   4.708   3.380 -1.8710  4.9637  0.8333
 1876SOL     OW17086   3.918   4.636   2.373 -0.0883 -0.0333 -0.5515
 1876SOL    HW117087   3.955   4.635   2.284  0.4525  1.6759 -0.3546
 1876SOL    HW217088   3.967   4.706   2.417 -1.3673  1.0604 -0.8798
 1877SOL     OW17089   2.679   0.395   2.995  0.0013  0.0586 -0.7507
 1877SOL    HW117090   2.663   0.302   2.977  0.7953  0.0997 -1.6408
 1877SOL    HW217091   2.633   0.438   2.922 -1.8235  0.0282  0.3789
 1878SOL     OW17092   1.883   3.228   0.799  0.3879  0.2007 -0.0077
 1878SOL    HW117093   1.826   3.225   0.722  0.9067 -0.9688 -0.3396
 1878SOL    HW217094   1.821   3.196   0.865 -0.6526  0.2300 -0.9577
 1879SOL     OW17095   1.905   0.581   5.548  0.2828  0.0638  0.1113
 1879SOL    HW117096   1.904   0.634   5.627 -1.1830  1.1976 -0.6576
 1879SOL    HW217097   1.990   0.611   5.515  2.7531 -3.2759  3.6355
 1880SOL     OW17098   3.033   2.632   5.537  0.3614 -0.2226 -0.0595
 1880SOL    HW117099   2.970   2.704   5.545  0.2946 -0.4366  1.2810
 1880SOL    HW217100   3.113   2.673   5.568  0.2971  0.5269 -0.8899
 1881SOL     OW17101   2.138   3.899   9.644 -0.1477 -0.2261  0.3804
 1881SOL    HW117102   2.225   3.900   9.684 -0.0571 -1.3417  0.2083
 1881SOL    HW217103   2.141   3.804   9.630  3.6771 -0.5222  3.1158
 1882SOL     OW17104   2.148   1.634   2.231 -0.4260  0.1007 -0.4825
 1882SOL    HW117105   2.095   1.673   2.161  2.6316  3.3964 -0.9157
 1882SOL    HW217106   2.091   1.565   2.263 -0.0068 -1.3996 -2.9258
 1883SOL     OW17107   3.918   1.110  15.707 -0.3854 -0.3387 -0.4132
 1883SOL    HW117108   3.971   1.168  15.652  3.0076 -1.8554  1.2655
 1883SOL    HW217109   3.934   1.025  15.668 -1.2563 -0.8108  0.2565
 1884SOL     OW17110   4.530   3.315   4.910  0.6739  0.3685 -0.6522
 1884SOL    HW117111   4.497   3.258   4.979 -0.9060  0.7363 -1.0949
 1884SOL    HW217112   4.498   3.256   4.841  2.0906  1.3218 -2.1174
 1885SOL     OW17113   4.220   2.938  15.607  0.3678 -0.0344  0.1527
 1885SOL    HW117114   4.151   2.995  15.642  1.0962  1.6820 -1.1836
 1885SOL    HW217115   4.168   2.858  15.614  0.7612 -0.1738  1.4867
 1886SOL     OW17116   2.384   4.142   5.416  0.1595  0.3899 -0.3227
 1886SOL    HW117117   2.389   4.212   5.352 -1.9423  1.5283  0.7336
 1886SOL    HW217118   2.427   4.179   5.493  0.7173 -1.2300  0.1396
 1887SOL     OW17119   1.413   3.083   3.782  0.0804  0.5102 -0.5261
 1887SOL    HW117120   1.421   3.056   3.690  1.1412  1.6130 -0.7564
 1887SOL    HW217121   1.399   3.178   3.782 -1.2124  0.3216 -0.2735
 1888SOL     OW17122   4.010   2.160  10.600  0.1965  0.2872 -0.4297
 1888SOL    HW117123   4.088   2.105  10.594 -1.5451 -2.3015  0.5523
 1888SOL    HW217124   3.996   2.159  10.694  0.3492  0.2517 -0.4082
 1889SOL     OW17125   0.189   4.432   9.218 -0.6388 -0.2507  0.2108
 1889SOL    HW117126   0.201   4.434   9.313 -2.0312 -0.5038  0.3868
 1889SOL    HW217127   0.138   4.511   9.202 -0.5385 -0.2224  0.0343
 1890SOL     OW17128   1.872   0.966   5.781 -0.0888 -0.3313  0.0327
 1890SOL    HW117129   1.919   1.028   5.837 -1.7709 -0.6384  1.7971
 1890SOL    HW217130   1.821   0.912   5.842 -0.4091 -0.8332 -0.6901
 1891SOL     OW17131   4.419   3.856   9.855  0.1647  0.6340 -0.3974
 1891SOL    HW117132   4.482   3.786   9.873 -0.0872  0.1565 -1.3626
 1891SOL    HW217133   4.368   3.864   9.935 -0.2476  0.3183 -0.6320
 1892SOL     OW17134   0.046   1.741   1.907 -0.3970 -0.2748 -0.5893
 1892SOL    HW117135   4.684   1.729   1.867 -0.9761  1.1210  0.2347
 1892SOL    HW217136   0.046   1.688   1.987  2.0175  0.5717 -0.0259
 1893SOL     OW17137   3.826   1.465   5.024 -0.1339  0.9812  0.6768
 1893SOL    HW117138   3.775   1.384   5.023 -0.7953  1.3926  1.1452
 1893SOL    HW217139   3.891   1.434   4.961  0.5352  3.1912  0.3077
 1894SOL     OW17140   2.355   0.506   5.478  0.5062  0.0514  1.0771
 1894SOL    HW117141   2.406   0.512   5.397  0.0841 -3.3763  0.5634
 1894SOL    HW217142   2.280   0.560   5.455  0.8184 -0.2788 -0.6851
 1895SOL     OW17143   2.896   2.497   5.341 -0.7744 -0.2446  0.2266
 1895SOL    HW117144   2.951   2.529   5.412  0.0757 -1.7542  0.2487
 1895SOL    HW217145   2.899   2.568   5.277 -0.3848 -1.2041 -0.8235
 1896SOL     OW17146   2.842   2.163   9.152  0.0227  0.0039 -0.4908
 1896SOL    HW117147   2.819   2.199   9.066  5.1507 -0.3550 -2.0042
 1896SOL    HW217148   2.759   2.135   9.192  0.9850 -0.3893  1.2384
 1897SOL     OW17149   0.816   1.466  16.627 -0.2801  0.3030  0.1339
 1897SOL    HW117150   0.748   1.416  16.581  1.1911 -1.8775  0.3231
 1897SOL    HW217151   0.898   1.432  16.591 -0.4940 -1.6037  1.4151
 1898SOL     OW17152   4.565   3.517   6.004  0.2246 -0.0297  0.0117
 1898SOL    HW117153   4.475   3.545   5.988  1.3304  2.4974 -1.7751
 1898SOL    HW217154   4.612   3.527   5.921 -3.8776 -0.3547 -2.3730
 1899SOL     OW17155   2.190   2.211   7.919 -0.2018  0.6127  0.3703
 1899SOL    HW117156   2.118   2.240   7.865 -0.0327  0.0023 -0.1831
 1899SOL    HW217157   2.251   2.186   7.850 -1.4509  0.7041 -0.7586
 1900SOL     OW17158   3.989   3.432   9.717  0.0933 -0.1597 -0.0336
 1900SOL    HW117159   3.953   3.417   9.630 -0.8163 -1.8959  0.6416
 1900SOL    HW217160   3.908   3.462   9.760 -0.9772 -1.5776 -1.0705
 1901SOL     OW17161   4.195   3.871   6.164 -0.1592 -0.2304 -0.4355
 1901SOL    HW117162   4.228   3.948   6.118 -0.9945  1.1744  1.3283
 1901SOL    HW217163   4.279   3.830   6.188  0.2999  0.1361 -1.4212
 1902SOL     OW17164   2.889   0.999  17.488 -0.1017 -0.1047 -0.2852
 1902SOL    HW117165   2.887   1.093  17.470  1.8873  0.0502  0.2772
 1902SOL    HW217166   2.893   0.998  17.584  1.7586 -2.0802 -0.3882
 1903SOL     OW17167   2.309   1.009  10.539 -0.9651 -0.2244  0.5072
 1903SOL    HW117168   2.299   1.096  10.578 -3.7395 -0.5675  0.6067
 1903SOL    HW217169   2.352   1.037  10.458  0.0594 -2.7388  0.1922
 1904SOL     OW17170   0.238   3.817   7.470 -0.4611  0.0843  0.0793
 1904SOL    HW117171   0.209   3.780   7.386 -0.4028 -0.7022  0.4037
 1904SOL    HW217172   0.166   3.794   7.527 -2.0058  0.1958 -1.8263
 1905SOL     OW17173   2.803   0.826   7.596  0.6996  0.3346 -0.1774
 1905SOL    HW117174   2.784   0.919   7.612 -1.9802 -0.3239  0.3719
 1905SOL    HW217175   2.765   0.791   7.676 -1.0982  1.9711 -0.3241
 1906SOL     OW17176   0.703   3.789   4.546 -0.3178  0.5359 -0.6612
 1906SOL    HW117177   0.722   3.877   4.581 -0.1910 -0.2573  1.2830
 1906SOL    HW217178   0.790   3.759   4.522 -0.8642  1.1329 -3.3367
 1907SOL     OW17179   0.815   4.431   1.546  0.3018 -0.7121  0.5288
 1907SOL    HW117180   0.832   4.436   1.452 -0.6761 -2.7404  0.2556
 1907SOL    HW217181   0.898   4.471   1.572  0.0126  0.1194  0.1626
 1908SOL     OW17182   4.179   1.757   2.980 -0.4910  0.4655 -0.2165
 1908SOL    HW117183   4.184   1.664   3.000 -0.8146  0.2639 -1.0421
 1908SOL    HW217184   4.151   1.797   3.062  0.9829  2.0767 -0.4920
 1909SOL     OW17185   4.490   4.305   3.505 -0.6206  0.0769  0.2293
 1909SOL    HW117186   4.539   4.354   3.570  1.6404  0.2129 -1.5931
 1909SOL    HW217187   4.558   4.265   3.451  1.0629  2.3198  0.6677
 1910SOL     OW17188   3.453   3.853  11.411  0.5130 -0.2617  0.4604
 1910SOL    HW117189   3.442   3.903  11.330  2.5357  1.7690  1.4475
 1910SOL    HW217190   3.543   3.853  11.442 -0.0656 -0.0521  2.1936
 1911SOL     OW17191   3.157   4.516   2.295 -0.4504  0.3931 -0.2074
 1911SOL    HW117192   3.093   4.479   2.235  0.4559 -0.2121 -0.7992
 1911SOL    HW217193   3.230   4.456   2.281  0.0002  0.5552  1.4051
 1912SOL     OW17194   2.128   4.019   0.852  0.2867 -0.0448  0.4072
 1912SOL    HW117195   2.063   3.949   0.848 -0.7711  0.9560  0.1376
 1912SOL    HW217196   2.095   4.077   0.921  0.2392 -0.2023  0.5164
 1913SOL     OW17197   3.140   2.908   5.574  0.0281  0.0503  0.1573
 1913SOL    HW117198   3.046   2.928   5.576  0.2171  0.9410 -0.0615
 1913SOL    HW217199   3.178   2.967   5.640  0.5125  0.6109 -0.6241
 1914SOL     OW17200   4.216   2.119  14.411 -0.0490  0.7984  0.1097
 1914SOL    HW117201   4.292   2.147  14.360 -0.4418  0.3426 -0.7326
 1914SOL    HW217202   4.176   2.200  14.442  0.4856  1.4947 -1.0203
 1915SOL     OW17203   1.778   4.114   3.256  0.7240  0.4427 -0.6060
 1915SOL    HW117204   1.777   4.068   3.172  1.6303 -0.1727 -0.2737
 1915SOL    HW217205   1.685   4.105   3.279  0.5413  1.2305 -1.0370
 1916SOL     OW17206   0.401   3.365   2.534 -0.4148 -0.6778  0.1637
 1916SOL    HW117207   0.379   3.445   2.581  0.4414 -0.8790  0.9106
 1916SOL    HW217208   0.473   3.397   2.479 -0.4509  0.3272  0.7149
 1917SOL     OW17209   2.656   0.652   9.663  0.0362 -0.3799  0.1498
 1917SOL    HW117210   2.679   0.602   9.741 -0.3713 -1.1391 -0.2163
 1917SOL    HW217211   2.662   0.736   9.709  1.8576  0.6941 -2.0559
 1918SOL     OW17212   3.973   3.286   9.200  0.1251  0.3238 -0.0657
 1918SOL    HW117213   3.982   3.323   9.112  0.7748 -0.3724 -0.2987
 1918SOL    HW217214   4.011   3.361   9.244 -0.0440 -1.2520  2.7658
 1919SOL     OW17215   2.538   4.540  12.383  0.3137 -0.1459 -0.0897
 1919SOL    HW117216   2.550   4.446  12.365 -3.2170 -0.9792  1.9130
 1919SOL    HW217217   2.463   4.569  12.332 -0.3461  0.3733  1.1744
 1920SOL     OW17218   0.922   4.604  10.801 -0.1244 -0.1121 -0.7546
 1920SOL    HW117219   0.836   4.622  10.839 -1.0590 -0.8824 -2.4747
 1920SOL    HW217220   0.946   4.525  10.849 -1.3448  1.8313  3.0080
 1921SOL     OW17221   2.702   1.226  12.845 -0.0974 -0.3920 -0.5157
 1921SOL    HW117222   2.767   1.285  12.883  1.3480 -0.2170 -3.2663
 1921SOL    HW217223   2.758   1.148  12.839 -0.8807 -0.9890 -0.1131
 1922SOL     OW17224   3.418   2.768   7.082  0.1229  0.2439  0.0186
 1922SOL    HW117225   3.494   2.712   7.093 -0.8851 -1.1898 -0.2446
 1922SOL    HW217226   3.392   2.745   6.993  1.8918  0.2402 -0.4969
 1923SOL     OW17227   0.992   2.419   8.919  0.3378 -0.6353  0.6569
 1923SOL    HW117228   0.907   2.419   8.964  0.9681  0.0468  1.8285
 1923SOL    HW217229   0.999   2.515   8.911  1.3570 -0.7719 -0.1179
 1924SOL     OW17230   0.965   4.295   5.993 -0.4372  0.4355 -0.3624
 1924SOL    HW117231   0.888   4.250   6.027  0.9278 -1.4718  0.2214
 1924SOL    HW217232   0.991   4.347   6.069 -2.5317 -0.9451  1.2959
 1925SOL     OW17233   2.216   0.038   3.983 -0.4299  0.4017 -0.8718
 1925SOL    HW117234   2.218   0.006   3.893 -0.0795  2.0857 -1.4610
 1925SOL    HW217235   2.204   0.132   3.967  0.2307  0.7350  0.5621
 1926SOL     OW17236   3.412   4.221   3.335  0.1804  0.2685  0.3841
 1926SOL    HW117237   3.402   4.137   3.381 -0.5783  0.1244 -0.0430
 1926SOL    HW217238   3.421   4.197   3.242 -3.8419 -0.9789  0.2948
 1927SOL     OW17239   1.592   4.458  13.107  0.1271  0.0895 -0.2436
 1927SOL    HW117240   1.528   4.524  13.080 -0.8128 -1.3238 -1.4342
 1927SOL    HW217241   1.561   4.390  13.047  1.3194 -0.0266 -0.7392
 1928SOL     OW17242   1.024   4.691  15.086 -0.1264  0.0913 -0.3306
 1928SOL    HW117243   0.996   0.051  15.122  1.0588  1.4639 -2.5774
 1928SOL    HW217244   1.101   4.667  15.137 -1.9928 -1.6286  1.6629
 1929SOL     OW17245   2.561   1.481   5.192  0.2683 -0.5408  0.0330
 1929SOL    HW117246   2.627   1.548   5.209 -1.8394  1.8324 -1.2038
 1929SOL    HW217247   2.608   1.423   5.132  1.2470  2.6798 -2.2496
 1930SOL     OW17248   2.819   4.032   3.618  0.5467 -0.4845  0.4995
 1930SOL    HW117249   2.822   4.038   3.523 -0.4585  0.5493  0.5269
 1930SOL    HW217250   2.898   4.079   3.643  1.2387 -0.2328 -2.2262
 1931SOL     OW17251   1.780   0.440   5.122 -0.0094  0.4094 -0.5914
 1931SOL    HW117252   1.751   0.514   5.068  1.7592  3.2501  2.3580
 1931SOL    HW217253   1.873   0.450   5.105 -0.4715  0.1720 -3.1666
 1932SOL     OW17254   0.218   4.367   6.561 -0.5637 -0.1180  0.1428
 1932SOL    HW117255   0.217   4.290   6.503  1.5835  0.5381 -0.7824
 1932SOL    HW217256   0.132   4.383   6.598 -1.3197 -0.4811 -1.4670
 1933SOL     OW17257   3.146   1.110   7.712  0.1684  0.2170 -0.0935
 1933SOL    HW117258   3.153   1.091   7.618  1.9818 -0.7516  0.2321
 1933SOL    HW217259   3.058   1.074   7.722  1.5871 -3.6608 -1.5158
 1934SOL     OW17260   3.377   0.942   8.070 -0.0053 -0.7919  0.0939
 1934SOL    HW117261   3.348   1.033   8.062 -1.2277 -1.1930  0.0846
 1934SOL    HW217262   3.421   0.950   8.155 -1.1302  2.2517  0.3782
 1935SOL     OW17263   0.858   1.397   2.982 -0.5578 -0.0729  0.1319
 1935SOL    HW117264   0.817   1.311   2.983 -0.0806 -0.3460 -4.1152
 1935SOL    HW217265   0.789   1.446   3.027  1.2702  2.1510  0.5371
 1936SOL     OW17266   1.037   3.196   9.607  0.4759  0.1205  0.1499
 1936SOL    HW117267   0.946   3.205   9.637 -0.3248  0.2531 -2.2591
 1936SOL    HW217268   1.029   3.148   9.524 -1.5558 -0.5662  0.7352
 1937SOL     OW17269   0.619   2.561  14.856 -0.0053  0.2515  0.2831
 1937SOL    HW117270   0.655   2.489  14.909 -2.1840 -0.9583  0.1290
 1937SOL    HW217271   0.556   2.600  14.917 -1.7174  0.4835 -1.6522
 1938SOL     OW17272   1.730   0.189  12.748 -0.4708 -0.5603 -0.0585
 1938SOL    HW117273   1.756   0.280  12.739 -1.0304 -0.2078  1.9871
 1938SOL    HW217274   1.810   0.146  12.717  0.0783  1.0014 -0.7823
 1939SOL     OW17275   0.345   1.473  11.379  0.0057  0.1782 -0.1752
 1939SOL    HW117276   0.319   1.435  11.462  0.5014 -1.6925 -0.8820
 1939SOL    HW217277   0.352   1.395  11.323 -1.3113  0.9243 -1.3861
 1940SOL     OW17278   3.923   4.610  13.599  0.5410 -0.0643  0.8687
 1940SOL    HW117279   3.884   4.523  13.608 -0.8921  0.4705 -0.1072
 1940SOL    HW217280   3.852   4.662  13.560  1.2803  0.9668  0.9073
 1941SOL     OW17281   0.409   3.136   6.147  0.1597  0.5463  0.1569
 1941SOL    HW117282   0.426   3.196   6.219 -0.1636  1.3437 -0.4395
 1941SOL    HW217283   0.315   3.148   6.133  0.1131  1.0215  0.9103
 1942SOL     OW17284   2.488   3.592   4.897 -0.4553  0.1553  0.6942
 1942SOL    HW117285   2.402   3.609   4.860  0.3142  0.5844 -0.8798
 1942SOL    HW217286   2.509   3.506   4.861  1.2655  0.8263  0.1149
 1943SOL     OW17287   1.821   4.338  15.466 -0.1316  0.2172  0.1187
 1943SOL    HW117288   1.777   4.385  15.536  0.2061  0.8337 -0.0841
 1943SOL    HW217289   1.868   4.409  15.421 -0.8840 -0.5031 -1.8010
 1944SOL     OW17290   3.356   0.003   2.369 -0.2513 -0.0487  0.8054
 1944SOL    HW117291   3.307   4.644   2.379  1.0748 -0.8655  0.4899
 1944SOL    HW217292   3.396   4.715   2.283 -1.2345  2.2612  0.0310
 1945SOL     OW17293   3.347   0.401   2.639 -0.0442  0.2200 -0.2582
 1945SOL    HW117294   3.350   0.444   2.554 -2.9323  2.6415  0.8699
 1945SOL    HW217295   3.422   0.341   2.632 -0.5063 -0.2660 -0.9751
 1946SOL     OW17296   0.035   1.724   6.085 -0.1356 -1.1613  0.4211
 1946SOL    HW117297   0.081   1.756   6.163 -3.7525  0.2919  1.9464
 1946SOL    HW217298   0.098   1.727   6.014 -1.4259 -1.9395 -0.7489
 1947SOL     OW17299   1.456   1.920  15.789 -0.1591 -0.3000  0.1314
 1947SOL    HW117300   1.490   1.836  15.819 -0.0303 -1.3596 -2.9835
 1947SOL    HW217301   1.477   1.910  15.696 -0.1931 -0.7850  0.1745
 1948SOL     OW17302   2.840   1.970   4.855 -0.0845 -0.6610 -0.2003
 1948SOL    HW117303   2.806   2.037   4.796  0.7154  0.8074  0.9886
 1948SOL    HW217304   2.760   1.944   4.900  1.4143 -1.6941  1.8525
 1949SOL     OW17305   1.202   0.102   9.241 -0.7237 -0.3778  0.3793
 1949SOL    HW117306   1.255   0.058   9.307  1.3474  1.4235 -0.0727
 1949SOL    HW217307   1.276   0.117   9.181 -0.1863 -1.8849  0.6644
 1950SOL     OW17308   3.348   2.283   3.522  0.0201 -0.4773  0.6178
 1950SOL    HW117309   3.257   2.313   3.531  0.4477  0.9649  0.0960
 1950SOL    HW217310   3.375   2.301   3.432 -1.5197 -3.0127 -0.3435
 1951SOL     OW17311   1.768   3.685   3.477  0.2733  0.9633  0.0586
 1951SOL    HW117312   1.694   3.700   3.418  0.6426 -2.9422 -1.4317
 1951SOL    HW217313   1.841   3.699   3.417  0.8262  1.9561  0.9621
 1952SOL     OW17314   3.253   4.578   0.032 -0.1657 -0.8409  0.4496
 1952SOL    HW117315   3.244   4.673   0.047  1.0917 -0.6216 -0.2017
 1952SOL    HW217316   3.330   4.559   0.086  0.2967 -0.0121  0.0842
 1953SOL     OW17317   0.983   1.107   3.879 -0.5067 -0.6807 -0.1667
 1953SOL    HW117318   0.939   1.068   3.954 -0.4380 -0.4142  0.0112
 1953SOL    HW217319   0.912   1.152   3.834  1.2391  2.6833  0.4035
 1954SOL     OW17320   2.339   3.321   2.787  0.1584 -0.0076 -0.2043
 1954SOL    HW117321   2.267   3.302   2.847 -2.1014  0.6136 -2.7659
 1954SOL    HW217322   2.288   3.311   2.707  2.1300 -2.1704 -1.1868
 1955SOL     OW17323   1.300   2.655   1.560  0.2724  0.0658 -0.0610
 1955SOL    HW117324   1.323   2.653   1.653 -0.0172 -1.2985 -0.0199
 1955SOL    HW217325   1.299   2.750   1.550 -1.4236  0.0218 -0.2573
 1956SOL     OW17326   4.112   0.012  15.561  0.4278  0.3380  0.0623
 1956SOL    HW117327   4.174   4.704  15.628  1.0783  0.3804 -0.5149
 1956SOL    HW217328   4.096   4.650  15.522  2.4439 -0.8517  1.7767
 1957SOL     OW17329   1.783   3.967  10.893 -0.0651 -0.1634 -0.0529
 1957SOL    HW117330   1.875   3.982  10.915 -0.1280  0.2657 -0.0797
 1957SOL    HW217331   1.729   4.001  10.965 -0.2225  0.3584 -0.4148
 1958SOL     OW17332   2.806   2.340   0.118 -0.5398 -0.2584 -0.0609
 1958SOL    HW117333   2.842   2.402   0.055 -3.6904  0.9983 -0.5861
 1958SOL    HW217334   2.724   2.311   0.079 -0.8237 -2.2733  2.0058
 1959SOL     OW17335   3.897   1.745   7.004  0.0560  0.0927  0.3389
 1959SOL    HW117336   3.922   1.673   6.946  2.0159  0.8917  0.1775
 1959SOL    HW217337   3.806   1.717   7.017 -0.6109  1.2169 -1.8799
 1960SOL     OW17338   1.714   2.544  10.748 -0.3750 -0.1315  0.5085
 1960SOL    HW117339   1.737   2.471  10.805 -0.5825  0.9363  1.9788
 1960SOL    HW217340   1.723   2.498  10.665 -0.0968  0.5847  0.1368
 1961SOL     OW17341   3.069   1.528   3.102  0.4737 -0.0531  0.5196
 1961SOL    HW117342   3.057   1.622   3.086  1.3836 -0.3757 -2.0763
 1961SOL    HW217343   2.980   1.496   3.116  0.4554 -0.2706 -0.0784
 1962SOL     OW17344   3.374   1.170   2.877 -0.2449 -0.1707  0.3686
 1962SOL    HW117345   3.374   1.250   2.826  1.1388 -1.9307 -2.3521
 1962SOL    HW217346   3.458   1.130   2.857 -0.6080 -0.1409 -1.1544
 1963SOL     OW17347   4.634   2.046  14.925 -0.0824 -0.1699 -0.0934
 1963SOL    HW117348   4.566   2.012  14.984  1.2840 -0.0843  1.5381
 1963SOL    HW217349   4.587   2.083  14.851  0.2201  0.0263 -0.1846
 1964SOL     OW17350   3.876   0.077  12.547 -0.0523 -0.1222  0.5718
 1964SOL    HW117351   3.870   0.128  12.628 -0.9493  0.6122  0.0561
 1964SOL    HW217352   3.956   0.026  12.552 -0.8564 -1.3855  0.4548
 1965SOL     OW17353   3.345   3.052  14.063 -0.4249 -0.1671 -0.6376
 1965SOL    HW117354   3.378   3.116  14.001  2.3001  0.1045  1.0938
 1965SOL    HW217355   3.419   3.015  14.112 -0.5664 -1.0036 -1.0551
 1966SOL     OW17356   1.976   2.823   2.799  0.1745  0.3887 -0.3990
 1966SOL    HW117357   2.016   2.910   2.798 -0.3971  0.6324 -1.3621
 1966SOL    HW217358   1.892   2.843   2.758 -0.7527  0.4360  1.5054
 1967SOL     OW17359   1.406   0.427   2.290 -0.2738 -0.3037 -0.1145
 1967SOL    HW117360   1.420   0.511   2.246  2.2720  0.9231  3.0898
 1967SOL    HW217361   1.478   0.377   2.251 -1.1276 -2.3404  0.9280
 1968SOL     OW17362   2.821   0.704  12.184 -0.2145  0.0833  0.3410
 1968SOL    HW117363   2.771   0.784  12.200 -0.2461  0.0894  0.2141
 1968SOL    HW217364   2.768   0.656  12.120 -1.5855 -0.0111  1.5521
 1969SOL     OW17365   0.507   0.911  10.166  0.1847  0.1853  0.4439
 1969SOL    HW117366   0.595   0.930  10.198  1.2837 -1.9549 -1.2731
 1969SOL    HW217367   0.455   0.967  10.224 -0.3315 -0.0365  0.2050
 1970SOL     OW17368   0.450   2.531  13.807 -0.3504 -0.1754  0.5754
 1970SOL    HW117369   0.542   2.507  13.795 -0.8118 -2.1238  0.9124
 1970SOL    HW217370   0.419   2.498  13.722 -1.4334 -0.1243  0.9518
 1971SOL     OW17371   1.848   4.686   6.676  0.2730 -0.2675  0.4974
 1971SOL    HW117372   1.797   4.668   6.755  0.1522 -0.5378  0.3533
 1971SOL    HW217373   1.800   4.635   6.612 -0.8829 -0.4032  1.4739
 1972SOL     OW17374   4.706   3.556   5.241 -0.0613  0.1341 -0.1984
 1972SOL    HW117375   4.668   3.570   5.154 -1.2329  1.5562  0.5641
 1972SOL    HW217376   0.073   3.542   5.213  0.4059 -0.0134  1.4161
 1973SOL     OW17377   1.121   1.958   5.596  0.2883  0.7406 -0.2130
 1973SOL    HW117378   1.106   1.989   5.507  1.2177 -1.1086 -1.0128
 1973SOL    HW217379   1.138   2.044   5.635  1.2917 -0.0126  1.0631
 1974SOL     OW17380   2.216   2.980   6.031  0.2765 -0.2877  0.0876
 1974SOL    HW117381   2.218   3.044   6.102  1.3353 -1.9628  1.5659
 1974SOL    HW217382   2.139   3.001   5.978 -0.1848  1.8895  1.6122
 1975SOL     OW17383   0.966   3.259   2.974  0.2154  0.3884 -0.2872
 1975SOL    HW117384   0.977   3.249   2.879  0.0434  1.0969 -0.3806
 1975SOL    HW217385   1.006   3.344   2.991  0.9021 -0.1714  0.9238
 1976SOL     OW17386   0.380   4.183   0.413 -0.4999 -0.0105  0.7727
 1976SOL    HW117387   0.352   4.160   0.502 -2.3046 -0.6690  0.0361
 1976SOL    HW217388   0.403   4.100   0.371  0.4948  1.3143 -1.2761
 1977SOL     OW17389   3.334   2.299  16.277  0.6467 -0.1061  0.0564
 1977SOL    HW117390   3.344   2.204  16.286  1.0627  0.1761  2.6265
 1977SOL    HW217391   3.262   2.307  16.340  0.0161 -0.9853 -0.5494
 1978SOL     OW17392   3.023   0.228   7.360 -0.3315 -0.0332  0.3778
 1978SOL    HW117393   3.087   0.296   7.381  0.4320 -0.2462 -1.3129
 1978SOL    HW217394   2.960   0.237   7.432  0.6632 -1.2461  1.4147
 1979SOL     OW17395   0.012   4.121   8.432 -0.2030  0.1756  0.2925
 1979SOL    HW117396   0.035   4.075   8.351 -1.0814  1.4667 -0.6966
 1979SOL    HW217397   4.652   4.158   8.402 -2.0429 -2.6002  2.0287
 1980SOL     OW17398   3.350   2.713   8.045  0.2464  0.3787  0.4102
 1980SOL    HW117399   3.372   2.649   7.977 -1.7131  1.1010 -0.9166
 1980SOL    HW217400   3.397   2.676   8.119 -0.6219 -2.0863 -0.2449
 1981SOL     OW17401   1.705   1.719   9.324 -0.1420  0.5460  0.1600
 1981SOL    HW117402   1.764   1.726   9.400 -0.8236 -1.0961  0.8497
 1981SOL    HW217403   1.753   1.754   9.250 -0.8628  1.0891 -0.0481
 1982SOL     OW17404   4.676   0.125   2.246 -0.0865  0.4269  0.1032
 1982SOL    HW117405   4.654   0.033   2.235 -1.6193  1.1069 -2.4940
 1982SOL    HW217406   0.034   0.115   2.295 -0.2067  1.9003  0.6185
 1983SOL     OW17407   0.512   0.809   5.291 -0.4429 -0.3815  0.2152
 1983SOL    HW117408   0.495   0.893   5.332  0.2041 -1.3620  2.4996
 1983SOL    HW217409   0.436   0.755   5.314 -0.2655 -1.2548 -1.2724
 1984SOL     OW17410   0.477   2.379   2.396 -0.5070 -0.5990  0.8743
 1984SOL    HW117411   0.507   2.470   2.397 -0.6908 -0.5204 -1.2286
 1984SOL    HW217412   0.548   2.341   2.449 -0.0116 -0.9936 -0.0864
 1985SOL     OW17413   0.231   3.931   4.197  0.0071  0.9779  0.1523
 1985SOL    HW117414   0.169   3.885   4.253 -2.6883  2.0555 -1.9252
 1985SOL    HW217415   0.318   3.899   4.221 -0.8063 -1.0612  0.3427
 1986SOL     OW17416   3.571   2.228   7.013 -0.5199  0.3152 -0.7271
 1986SOL    HW117417   3.586   2.180   6.931 -2.0070 -1.3470 -0.0050
 1986SOL    HW217418   3.607   2.312   6.984  0.9710  0.3758  1.2808
 1987SOL     OW17419   0.687   0.662   2.089  0.1349  0.2465 -0.4434
 1987SOL    HW117420   0.761   0.708   2.129  0.2483  0.9545 -1.4611
 1987SOL    HW217421   0.737   0.584   2.063 -0.8746 -0.4716 -0.1944
 1988SOL     OW17422   2.395   1.223   6.975 -0.0362 -0.3180 -0.5204
 1988SOL    HW117423   2.484   1.225   7.011  0.0335  0.9713 -0.7421
 1988SOL    HW217424   2.416   1.199   6.885  2.8167  1.5684 -0.3870
 1989SOL     OW17425   3.363   0.669   9.040  0.0649 -0.3221  0.0954
 1989SOL    HW117426   3.422   0.692   9.112 -0.0662  2.4393 -0.6776
 1989SOL    HW217427   3.337   0.579   9.058  0.7199 -0.7382 -1.0132
 1990SOL     OW17428   3.326   0.491   3.221  0.2948 -0.4785 -0.3500
 1990SOL    HW117429   3.303   0.439   3.297  0.6913  0.2305  0.2531
 1990SOL    HW217430   3.351   0.572   3.265 -1.6743 -1.1011  1.9225
 1991SOL     OW17431   2.416   0.205  11.125  0.5111 -0.4840 -0.2922
 1991SOL    HW117432   2.463   0.194  11.043 -0.3988 -1.3853 -0.6965
 1991SOL    HW217433   2.466   0.280  11.156 -0.4850  0.6552 -1.4147
 1992SOL     OW17434   4.119   4.253   5.969  0.0521  0.3194  0.4862
 1992SOL    HW117435   4.178   4.261   6.043 -0.2251  0.4408  0.6952
 1992SOL    HW217436   4.173   4.194   5.917 -2.6852 -0.9310 -0.9828
 1993SOL     OW17437   2.513   2.760   4.016 -0.1721  0.3570 -0.3865
 1993SOL    HW117438   2.471   2.674   4.015  1.6189 -0.5057 -1.4688
 1993SOL    HW217439   2.605   2.744   4.035 -0.7320 -0.3639  1.6309
 1994SOL     OW17440   0.198   3.407  16.978 -0.2672 -0.0249 -0.0078
 1994SOL    HW117441   0.252   3.420  17.055  0.7024 -1.2926 -0.4940
 1994SOL    HW217442   0.137   3.336  16.998 -1.1256  0.9123  0.7215
 1995SOL     OW17443   0.768   0.762   7.602  0.6471 -0.0167 -1.0127
 1995SOL    HW117444   0.738   0.833   7.545 -1.1340 -2.1204 -2.7336
 1995SOL    HW217445   0.860   0.754   7.577  1.2847 -1.0249  1.6747
 1996SOL     OW17446   1.316   2.690   5.926  0.0375 -0.2784  0.1368
 1996SOL    HW117447   1.408   2.666   5.936 -0.2730 -0.8033  1.7643
 1996SOL    HW217448   1.320   2.782   5.952 -0.4182 -0.4819  0.9225
 1997SOL     OW17449   2.055   1.918   7.823  0.1287  0.0520 -0.2299
 1997SOL    HW117450   2.005   1.994   7.793  1.6648  0.3616 -2.0064
 1997SOL    HW217451   2.022   1.902   7.911 -0.2889 -0.4492 -0.4804
 1998SOL     OW17452   3.172   3.453   2.443 -0.2031  0.4810 -0.3537
 1998SOL    HW117453   3.082   3.440   2.414  0.2711 -3.0808 -0.2812
 1998SOL    HW217454   3.156   3.465   2.537 -1.2638  1.6756 -0.6916
 1999SOL     OW17455   0.917   4.535   3.444  0.1792 -0.4306  0.7741
 1999SOL    HW117456   0.832   4.546   3.487  0.3143  1.4754  0.5742
 1999SOL    HW217457   0.978   4.535   3.518  0.1551  0.5174  0.7963
 2000SOL     OW17458   0.944   1.809   7.603  1.2248  0.2990 -0.6678
 2000SOL    HW117459   0.912   1.817   7.513 -0.5365  1.7235  0.1039
 2000SOL    HW217460   0.868   1.807   7.660  1.3259 -2.2371 -0.6237
 2001SOL     OW17461   2.398   2.733  14.662  0.5423  0.4456  0.0019
 2001SOL    HW117462   2.419   2.779  14.581 -3.1769 -0.5013 -1.4744
 2001SOL    HW217463   2.352   2.801  14.712 -0.0184  0.5247 -0.6237
 2002SOL     OW17464   0.002   0.782   8.945  0.0578  0.0232 -0.1709
 2002SOL    HW117465   4.643   0.764   8.900  1.1681 -3.6597 -0.7191
 2002SOL    HW217466   0.017   0.704   8.998 -2.5038 -0.5719 -0.3024
 2003SOL     OW17467   3.643   4.462   2.154 -0.1228 -0.2544 -0.1667
 2003SOL    HW117468   3.567   4.449   2.210  0.4207 -1.1855  0.3627
 2003SOL    HW217469   3.708   4.393   2.169 -1.2378 -1.3399 -0.3072
 2004SOL     OW17470   0.284   0.379   0.860 -0.4065  0.2147  0.1030
 2004SOL    HW117471   0.286   0.467   0.822 -3.9674 -0.3859 -1.5327
 2004SOL    HW217472   0.312   0.398   0.950  0.7894  0.8215 -0.4003
 2005SOL     OW17473   1.381   0.114  12.839 -0.1800  0.3597 -0.0431
 2005SOL    HW117474   1.429   0.116  12.922 -0.0500 -1.8443 -0.0628
 2005SOL    HW217475   1.321   0.039  12.846 -0.8940  0.9626  0.2019
 2006SOL     OW17476   4.497   1.191  14.845 -0.0203  0.2755  0.4633
 2006SOL    HW117477   4.415   1.220  14.804 -0.6972 -0.5033  1.2758
 2006SOL    HW217478   4.472   1.211  14.935 -0.1326  0.7153  0.3344
 2007SOL     OW17479   0.731   1.256   7.210  0.6466 -0.0920  0.0501
 2007SOL    HW117480   0.751   1.265   7.117 -0.3233  0.0868 -0.1419
 2007SOL    HW217481   0.698   1.166   7.217  2.7289 -0.7701  1.1542
 2008SOL     OW17482   2.824   0.138   6.338 -0.6476 -0.7712  0.3125
 2008SOL    HW117483   2.854   0.052   6.309 -0.1959  0.0008 -1.5053
 2008SOL    HW217484   2.763   0.155   6.266  0.0951  0.9732  0.0883
 2009SOL     OW17485   0.178   4.188   4.145  0.5448  0.4517  0.2315
 2009SOL    HW117486   0.198   4.094   4.140 -1.2921  0.2013 -2.6027
 2009SOL    HW217487   0.189   4.204   4.239 -0.9181 -0.7251  0.6001
 2010SOL     OW17488   3.641   3.580   1.868  0.5342 -0.2362  0.4817
 2010SOL    HW117489   3.697   3.642   1.914 -1.3970  1.4946  0.5201
 2010SOL    HW217490   3.692   3.501   1.882  0.3789 -0.6579 -1.2486
 2011SOL     OW17491   4.021   2.274   1.738 -0.2909 -0.1268 -0.3038
 2011SOL    HW117492   4.071   2.241   1.663 -0.0281  1.2092 -0.7126
 2011SOL    HW217493   3.953   2.333   1.707 -0.3554 -1.0354 -1.8766
 2012SOL     OW17494   2.754   2.340  11.649 -0.8320  0.1048 -0.1106
 2012SOL    HW117495   2.791   2.427  11.635 -2.5191  0.7405 -0.7436
 2012SOL    HW217496   2.829   2.287  11.674 -0.8343 -0.3482 -1.0515
 2013SOL     OW17497   3.711   4.632   7.780  0.0683 -0.1934 -0.1366
 2013SOL    HW117498   3.663   4.703   7.736 -0.4225 -1.0495 -0.9701
 2013SOL    HW217499   3.705   4.569   7.709  0.6356 -1.8896  1.3129
 2014SOL     OW17500   2.967   3.713   0.381  0.2600  0.0127 -0.3690
 2014SOL    HW117501   2.974   3.773   0.455 -1.2243  0.7226 -0.7846
 2014SOL    HW217502   3.013   3.762   0.312  0.9133 -0.3256 -0.1625
 2015SOL     OW17503   3.538   3.381   8.051  0.2950 -0.2077 -0.1406
 2015SOL    HW117504   3.569   3.364   8.140  0.7846  0.8541 -0.1103
 2015SOL    HW217505   3.615   3.426   8.015  1.0627  0.4663  2.3557
 2016SOL     OW17506   0.082   0.462   2.003  0.3285  0.1012 -0.2133
 2016SOL    HW117507   0.169   0.449   1.966  0.7955  0.7647  0.6575
 2016SOL    HW217508   0.073   0.555   1.983 -3.6879 -0.0704  0.7249
 2017SOL     OW17509   3.618   0.112  11.952 -0.2327  0.2494  0.5110
 2017SOL    HW117510   3.703   0.122  11.910  0.3577  0.3408  1.7267
 2017SOL    HW217511   3.618   0.025  11.992 -0.7866  0.5791  1.2488
 2018SOL     OW17512   3.480   0.802   2.715 -0.0846 -0.1738 -0.6253
 2018SOL    HW117513   3.442   0.780   2.800 -0.6048  2.0751 -0.2959
 2018SOL    HW217514   3.406   0.830   2.661 -0.0046  2.4091  0.6190
 2019SOL     OW17515   4.428   1.981  15.116  0.4219 -0.3514  0.1075
 2019SOL    HW117516   4.408   1.897  15.157 -0.6702 -0.2132 -0.1356
 2019SOL    HW217517   4.405   2.036  15.191 -3.5409  0.5941 -1.8227
 2020SOL     OW17518   2.439   1.388   5.409  0.2733  0.0173  0.4324
 2020SOL    HW117519   2.498   1.416   5.340  0.4387  0.6824  0.8365
 2020SOL    HW217520   2.459   1.447   5.482 -0.7774  0.9311 -0.0229
 2021SOL     OW17521   2.710   4.295  17.538  0.0062 -0.1401 -0.2175
 2021SOL    HW117522   2.718   4.346  17.619  0.3659  0.1303 -0.4223
 2021SOL    HW217523   2.678   4.366  17.482  0.8150  0.5062  0.1413
 2022SOL     OW17524   3.420   0.246  13.353 -0.1783  0.1056  0.7022
 2022SOL    HW117525   3.428   0.333  13.313 -1.1891  0.2516  0.8166
 2022SOL    HW217526   3.416   0.254  13.448  0.7141  0.8273  0.6856
 2023SOL     OW17527   1.905   4.048   6.076  0.4789  0.0504 -0.2529
 2023SOL    HW117528   1.848   4.079   6.146  1.4609 -2.1016  1.5284
 2023SOL    HW217529   1.897   4.105   6.000  0.6085  0.8298  0.3213
 2024SOL     OW17530   1.843   0.799   0.476 -0.4709 -0.4241  0.3425
 2024SOL    HW117531   1.910   0.830   0.536 -0.9458  2.8246 -0.8272
 2024SOL    HW217532   1.772   0.792   0.540 -0.4616 -0.3408  0.3611
 2025SOL     OW17533   3.685   2.306  14.640  0.0232  0.0168  0.5942
 2025SOL    HW117534   3.662   2.315  14.547  1.8232 -1.1555  0.0346
 2025SOL    HW217535   3.773   2.344  14.638 -0.9812  2.3960  3.2106
 2026SOL     OW17536   4.571   0.362   4.912  0.7169  0.4432  0.0927
 2026SOL    HW117537   4.629   0.286   4.918 -0.0201 -0.0038  1.5251
 2026SOL    HW217538   4.501   0.332   4.971  2.8246 -1.4691  1.6109
 2027SOL     OW17539   3.937   0.497   8.437 -0.1862 -0.6780  0.4440
 2027SOL    HW117540   4.009   0.434   8.428  0.2084 -0.0440 -0.8457
 2027SOL    HW217541   3.904   0.479   8.349 -0.7108  0.1458  0.4786
 2028SOL     OW17542   0.109   2.574   1.044  0.0746  0.0310  0.2602
 2028SOL    HW117543   0.155   2.658   1.034  0.6233  0.0332  2.8069
 2028SOL    HW217544   0.171   2.519   1.092 -0.4220 -1.0945 -0.3978
 2029SOL     OW17545   0.926   1.885  15.685  0.1704 -0.1914  0.3084
 2029SOL    HW117546   1.002   1.838  15.651  1.0505  0.5384  1.2909
 2029SOL    HW217547   0.945   1.976  15.664 -0.3594  0.1870  1.4677
 2030SOL     OW17548   2.862   2.369  16.244 -0.0510 -0.5234 -0.2551
 2030SOL    HW117549   2.821   2.287  16.220  0.0200 -0.4590 -0.6016
 2030SOL    HW217550   2.792   2.433  16.259  0.8099  0.5489 -0.7601
 2031SOL     OW17551   0.930   3.314  16.591 -0.4180  0.3623  0.1262
 2031SOL    HW117552   0.992   3.283  16.657  2.3243  2.9017 -1.2566
 2031SOL    HW217553   0.993   3.355  16.532 -1.2001  2.8358  1.0296
 2032SOL     OW17554   3.738   0.683   6.604 -0.2531 -0.0402 -1.1031
 2032SOL    HW117555   3.816   0.738   6.618 -1.5626  1.6830 -0.6201
 2032SOL    HW217556   3.702   0.689   6.693 -1.9620  0.8914 -1.8651
 2033SOL     OW17557   0.391   1.525   9.187 -0.0886 -0.0098 -0.0221
 2033SOL    HW117558   0.333   1.556   9.257 -0.1154  0.6984 -0.3613
 2033SOL    HW217559   0.351   1.439   9.175 -0.3338  0.0346  0.4646
 2034SOL     OW17560   3.517   0.469   5.721  0.1860  0.3334  0.0952
 2034SOL    HW117561   3.486   0.395   5.669  2.9541 -0.0977 -0.9611
 2034SOL    HW217562   3.613   0.468   5.719  0.2122 -0.2373  1.3214
 2035SOL     OW17563   1.029   0.353   8.143 -0.1548  0.0689 -0.1112
 2035SOL    HW117564   0.952   0.317   8.187  0.3868  0.0352  0.8049
 2035SOL    HW217565   1.088   0.286   8.179 -1.0458 -0.2627  0.7369
 2036SOL     OW17566   4.260   3.198  14.976  0.5090 -0.3146 -0.3431
 2036SOL    HW117567   4.327   3.265  14.983  1.9078 -1.8756  1.1176
 2036SOL    HW217568   4.300   3.130  15.030 -2.9227 -1.6719  0.5180
 2037SOL     OW17569   1.317   4.380   8.748  0.1448  0.1743 -0.0824
 2037SOL    HW117570   1.361   4.382   8.833  0.8989 -0.7578 -0.4484
 2037SOL    HW217571   1.329   4.470   8.717 -2.8179 -0.1294 -2.1187
 2038SOL     OW17572   1.122   1.433   1.309 -0.2396 -0.3691  0.3075
 2038SOL    HW117573   1.093   1.442   1.399 -1.9180 -0.5212 -0.2188
 2038SOL    HW217574   1.148   1.341   1.304  1.2255  0.1048 -0.7804
 2039SOL     OW17575   2.481   3.622   0.936 -0.3007 -0.8355 -0.2445
 2039SOL    HW117576   2.575   3.630   0.922 -0.2068  0.4599  1.1452
 2039SOL    HW217577   2.483   3.615   1.031  1.8615 -3.3690 -0.4750
 2040SOL     OW17578   2.583   0.382   9.179  0.3229  0.1409 -0.9186
 2040SOL    HW117579   2.561   0.362   9.270 -0.4125  2.5353 -0.5642
 2040SOL    HW217580   2.618   0.470   9.193 -1.9039  0.4449  2.7808
 2041SOL     OW17581   0.690   2.848  14.552  0.0282 -0.1269 -0.0709
 2041SOL    HW117582   0.780   2.828  14.578 -1.8130 -4.6186  2.8436
 2041SOL    HW217583   0.654   2.765  14.521  0.6496  1.0380 -3.9025
 2042SOL     OW17584   0.311   2.613   3.562 -0.2790  0.4308 -0.4095
 2042SOL    HW117585   0.323   2.616   3.467 -1.8250 -0.0086 -0.6266
 2042SOL    HW217586   0.299   2.519   3.577 -0.4211  0.3577 -0.9841
 2043SOL     OW17587   4.593   1.704   1.698  0.1267 -0.1900 -0.1819
 2043SOL    HW117588   4.517   1.761   1.684  0.6596  0.9331  1.5157
 2043SOL    HW217589   4.587   1.664   1.611  1.3200 -0.8081  0.0233
 2044SOL     OW17590   2.291   4.711   7.886  0.0824 -0.2321  0.3163
 2044SOL    HW117591   2.298   0.031   7.801 -2.5468 -1.1997 -0.4004
 2044SOL    HW217592   2.333   4.629   7.861  3.3941  1.6939 -0.4660
 2045SOL     OW17593   0.573   0.430   4.279  0.0461 -0.1987 -0.4900
 2045SOL    HW117594   0.505   0.456   4.216  0.3811  3.1274  0.5322
 2045SOL    HW217595   0.646   0.402   4.223  0.5484 -2.2873  1.2258
 2046SOL     OW17596   3.482   4.588  15.754 -0.1324 -0.4594  0.2915
 2046SOL    HW117597   3.488   4.630  15.840  1.4367 -1.3009  0.5888
 2046SOL    HW217598   3.450   4.663  15.704  2.4072  0.6481  0.3784
 2047SOL     OW17599   1.183   0.451   6.880 -0.5486  0.2058  0.4641
 2047SOL    HW117600   1.224   0.538   6.882  0.4257 -0.2481  0.5958
 2047SOL    HW217601   1.101   0.458   6.928 -1.1177 -0.6562 -0.3938
 2048SOL     OW17602   3.699   2.098   7.228  0.5826 -0.5534 -0.3723
 2048SOL    HW117603   3.666   2.009   7.215  0.5218 -0.7337  1.1106
 2048SOL    HW217604   3.641   2.157   7.179 -3.2118 -2.2181  2.1348
 2049SOL     OW17605   3.584   3.560  14.963  0.0145 -0.1322 -0.1889
 2049SOL    HW117606   3.637   3.629  15.003 -3.8238  1.3522  2.3787
 2049SOL    HW217607   3.648   3.498  14.929 -0.2600 -0.0754 -0.7933
 2050SOL     OW17608   1.990   0.625   5.855  0.0100 -0.0664 -0.2834
 2050SOL    HW117609   1.916   0.563   5.852  0.2074 -0.3313  0.4246
 2050SOL    HW217610   2.040   0.581   5.924  2.2545  1.7685 -0.7568
 2051SOL     OW17611   4.586   2.693  14.314  0.1435  0.3714 -0.2923
 2051SOL    HW117612   4.594   2.754  14.241  1.6386 -0.8748 -1.1671
 2051SOL    HW217613   4.522   2.741  14.366 -0.7151 -0.9306 -0.1490
 2052SOL     OW17614   4.407   3.552   8.850 -0.0948  0.5062  0.3101
 2052SOL    HW117615   4.472   3.517   8.789 -0.3810 -0.3403  0.4903
 2052SOL    HW217616   4.465   3.600   8.909  1.4590  0.9598 -1.5807
 2053SOL     OW17617   3.985   1.972   4.562 -0.4094 -0.0876  0.1063
 2053SOL    HW117618   3.997   2.044   4.501  3.5149 -1.0309 -0.2542
 2053SOL    HW217619   3.910   1.926   4.525 -0.9432  0.5016  0.4662
 2054SOL     OW17620   3.073   4.486  10.923  0.2847 -0.3113  0.4368
 2054SOL    HW117621   3.164   4.505  10.901 -0.3042  0.2424 -1.4966
 2054SOL    HW217622   3.076   4.401  10.879 -0.1000  0.9474 -2.0294
 2055SOL     OW17623   3.385   0.141   4.419 -0.2215 -0.0859 -0.1943
 2055SOL    HW117624   3.462   0.134   4.476 -1.0355 -1.1414  0.7844
 2055SOL    HW217625   3.427   0.104   4.340 -0.4397 -0.8069  0.0320
 2056SOL     OW17626   0.826   3.866  16.498  0.2787 -0.4712  0.1437
 2056SOL    HW117627   0.764   3.806  16.458 -1.0892  0.3079  1.0999
 2056SOL    HW217628   0.825   3.933  16.430 -0.1206 -0.4155  0.2055
 2057SOL     OW17629   4.604   2.384   5.068 -0.1866  0.2365 -0.1114
 2057SOL    HW117630   4.631   2.298   5.037 -4.2345 -1.4215  1.0056
 2057SOL    HW217631   4.610   2.447   4.996  1.7687  1.4359  1.0985
 2058SOL     OW17632   1.775   2.265   3.824  0.9442 -0.3395  0.6882
 2058SOL    HW117633   1.828   2.269   3.904 -0.7011 -0.1037  1.7773
 2058SOL    HW217634   1.740   2.354   3.829 -0.9377 -1.1990  2.9597
 2059SOL     OW17635   0.636   2.759   8.663  0.1305 -0.5189 -0.3164
 2059SOL    HW117636   0.581   2.686   8.691 -0.8111  0.0155 -0.7473
 2059SOL    HW217637   0.611   2.767   8.571 -0.1077 -0.6659 -0.2637
 2060SOL     OW17638   0.506   2.402   1.676 -0.3120 -0.1407  0.5700
 2060SOL    HW117639   0.572   2.369   1.615 -1.6529  1.3090 -1.6827
 2060SOL    HW217640   0.429   2.378   1.624  1.2718 -0.4325 -1.6530
 2061SOL     OW17641   4.427   2.212   6.908 -0.2235 -0.3622 -0.0351
 2061SOL    HW117642   4.478   2.194   6.830  0.6351  0.0863  0.4243
 2061SOL    HW217643   4.447   2.304   6.927 -0.1264 -0.5227  0.6380
 2062SOL     OW17644   3.860   1.280   8.627 -0.1138 -0.5154 -0.5474
 2062SOL    HW117645   3.799   1.331   8.679  1.0175  0.2732  0.0193
 2062SOL    HW217646   3.849   1.318   8.539  0.1963 -2.5098 -1.4532
 2063SOL     OW17647   0.171   1.153   0.576 -0.2211 -0.1921  0.6078
 2063SOL    HW117648   0.096   1.096   0.593 -0.6365 -0.1048 -1.0104
 2063SOL    HW217649   0.129   1.235   0.552  2.6607  1.0942 -0.0284
 2064SOL     OW17650   0.154   3.616   9.330  0.4177 -0.7337  0.5429
 2064SOL    HW117651   0.247   3.613   9.352  0.4156  3.4048  1.0802
 2064SOL    HW217652   0.153   3.610   9.234  3.4720 -1.0696  0.5510
 2065SOL     OW17653   3.702   2.407   7.521  0.2076 -0.1333 -0.0701
 2065SOL    HW117654   3.749   2.325   7.538 -1.8248 -1.2556  0.0651
 2065SOL    HW217655   3.731   2.439   7.435  2.6455 -1.0120  0.4179
 2066SOL     OW17656   3.870   3.752   4.043  0.3595  0.4603  0.6509
 2066SOL    HW117657   3.778   3.765   4.020  0.2711 -3.0201 -1.0218
 2066SOL    HW217658   3.870   3.758   4.138  0.3560  0.4312  0.6525
 2067SOL     OW17659   0.209   4.669   6.652 -0.1685 -0.5485 -0.1850
 2067SOL    HW117660   0.123   4.630   6.667 -0.6677 -0.2817 -2.4931
 2067SOL    HW217661   0.181   0.031   6.619  1.9413  0.0267 -0.4862
 2068SOL     OW17662   0.196   3.278   6.699 -0.7144 -0.1593  0.8021
 2068SOL    HW117663   0.184   3.189   6.732 -0.8128 -0.5893 -0.3770
 2068SOL    HW217664   0.277   3.262   6.651 -0.5804  1.8583  0.3824
 2069SOL     OW17665   0.051   0.528  12.239 -0.0604 -0.0315  0.4071
 2069SOL    HW117666   0.058   0.558  12.148 -2.3973  1.8224  0.8617
 2069SOL    HW217667   4.689   0.487  12.235 -0.5607  1.0631 -0.0479
 2070SOL     OW17668   1.356   2.545   2.498  0.2729  0.3106  0.2352
 2070SOL    HW117669   1.427   2.507   2.446 -1.1061 -0.5169 -1.0453
 2070SOL    HW217670   1.380   2.525   2.589  1.8931 -0.5461 -0.3842
 2071SOL     OW17671   1.917   2.177   9.114 -0.2413 -0.0994  0.7582
 2071SOL    HW117672   1.837   2.131   9.141 -1.2334  0.3406 -1.4565
 2071SOL    HW217673   1.955   2.116   9.051  1.3072  0.2670  1.3340
 2072SOL     OW17674   3.418   4.052  12.932  0.0312 -0.2084  0.2072
 2072SOL    HW117675   3.446   4.091  12.848 -0.8087  1.1620  0.5604
 2072SOL    HW217676   3.450   4.122  12.989  0.3393 -1.1863  1.2164
 2073SOL     OW17677   1.483   1.523   4.176  0.0478 -0.3373  0.3618
 2073SOL    HW117678   1.535   1.604   4.181 -2.4353  1.2099  1.4457
 2073SOL    HW217679   1.489   1.499   4.083  2.1441 -1.2904  0.7281
 2074SOL     OW17680   2.860   4.427   3.516 -0.2268  0.3133 -0.1928
 2074SOL    HW117681   2.795   4.495   3.533  0.2668  0.5753  0.6341
 2074SOL    HW217682   2.938   4.462   3.474  0.3567 -1.4045 -0.5327
 2075SOL     OW17683   0.750   2.955   2.320 -0.6595  0.0812  0.4369
 2075SOL    HW117684   0.706   2.874   2.297  0.3620 -0.0330 -1.1237
 2075SOL    HW217685   0.793   2.978   2.237 -0.7500 -0.6040  0.2014
 2076SOL     OW17686   2.687   3.871   5.589  0.2276  0.6512  0.2263
 2076SOL    HW117687   2.704   3.844   5.499 -0.6277  4.4040 -1.0695
 2076SOL    HW217688   2.727   3.958   5.591 -1.5436  1.4906 -0.8851
 2077SOL     OW17689   1.859   1.728   1.334 -0.3679 -0.0131 -0.4289
 2077SOL    HW117690   1.941   1.703   1.291  0.0471  0.9346 -0.1886
 2077SOL    HW217691   1.882   1.815   1.367  1.4988 -0.7719  0.3379
 2078SOL     OW17692   0.650   1.776  12.486 -0.0137 -0.0596 -0.3154
 2078SOL    HW117693   0.713   1.734  12.428 -0.9661 -1.7212 -0.1462
 2078SOL    HW217694   0.661   1.865  12.453  2.7294 -0.4948 -0.5751
 2079SOL     OW17695   3.693   0.958   3.983  0.7787 -0.5341 -0.3288
 2079SOL    HW117696   3.737   0.908   3.914  0.0142  0.4180 -1.5078
 2079SOL    HW217697   3.774   1.003   4.008  1.8387 -1.8294 -1.4560
 2080SOL     OW17698   0.304   0.250   4.748  0.0001  0.0291 -0.0783
 2080SOL    HW117699   0.299   0.284   4.658 -0.0338 -1.1348 -0.5117
 2080SOL    HW217700   0.378   0.300   4.783  0.1852  0.0863 -0.5531
 2081SOL     OW17701   4.370   3.906   1.266  0.4703  0.1436  0.0805
 2081SOL    HW117702   4.462   3.900   1.295 -0.1006 -1.2820  1.6648
 2081SOL    HW217703   4.324   3.891   1.349  0.4932  1.1318  0.2746
 2082SOL     OW17704   4.297   2.391   1.812 -0.1250 -0.5061 -0.0967
 2082SOL    HW117705   4.245   2.338   1.751 -0.3984 -1.6553  1.1343
 2082SOL    HW217706   4.383   2.397   1.772  0.7711  1.1410  2.1308
 2083SOL     OW17707   1.968   1.131   3.268  0.2951  0.0835 -0.1545
 2083SOL    HW117708   1.876   1.104   3.270  0.5032 -0.4858  1.4334
 2083SOL    HW217709   2.006   1.044   3.260 -1.7195 -0.7119 -1.1408
 2084SOL     OW17710   0.463   3.413  16.866 -0.2319 -0.3898 -0.0300
 2084SOL    HW117711   0.444   3.422  16.773 -2.4519  1.3453  0.5979
 2084SOL    HW217712   0.374   3.389  16.891  0.2796 -0.1629  1.9957
 2085SOL     OW17713   3.283   4.195  16.933  0.0296 -0.5827  0.0944
 2085SOL    HW117714   3.346   4.145  16.983  1.7651  1.1499 -0.3392
 2085SOL    HW217715   3.322   4.175  16.848  0.8442  1.9475 -0.1535
 2086SOL     OW17716   2.091   1.624  11.027 -0.2304 -0.5549  0.2048
 2086SOL    HW117717   2.070   1.676  10.950 -0.5662  0.6161  1.0912
 2086SOL    HW217718   2.003   1.590  11.045  0.0134 -1.8917 -1.1884
 2087SOL     OW17719   2.432   0.993  11.403 -0.1281  0.6949  0.6238
 2087SOL    HW117720   2.500   0.934  11.437 -1.3646  0.1215  2.1355
 2087SOL    HW217721   2.420   1.039  11.486 -3.1177  0.0047  0.5875
 2088SOL     OW17722   4.303   1.003  12.364 -0.1941  0.4309  0.1108
 2088SOL    HW117723   4.387   1.012  12.409 -1.1332 -0.6534  2.1121
 2088SOL    HW217724   4.252   1.074  12.405 -2.5809 -1.3040  0.1454
 2089SOL     OW17725   3.731   2.704   5.687  0.2712 -0.0210  0.1680
 2089SOL    HW117726   3.789   2.778   5.667 -0.9346  1.0212  0.5524
 2089SOL    HW217727   3.671   2.715   5.613 -0.4524 -0.6441  0.6658
 2090SOL     OW17728   0.155   1.580  11.150  0.0896 -0.5481  0.0502
 2090SOL    HW117729   0.221   1.571  11.082 -1.0487  2.9513 -1.5338
 2090SOL    HW217730   0.101   1.501  11.148 -1.4600  0.5479 -1.0867
 2091SOL     OW17731   2.990   0.477   4.053 -0.7740  0.3863  0.2696
 2091SOL    HW117732   3.078   0.438   4.057 -1.2930 -0.7735  0.4494
 2091SOL    HW217733   3.018   0.561   4.017  0.6616 -1.0111 -1.8805
 2092SOL     OW17734   3.215   2.384   2.348 -0.0613 -0.3293  0.3940
 2092SOL    HW117735   3.227   2.392   2.253  1.7161 -1.6428  0.5035
 2092SOL    HW217736   3.211   2.477   2.370  0.8877 -0.7361  2.3031
 2093SOL     OW17737   2.653   3.406   8.108 -0.0636  0.6969  0.0382
 2093SOL    HW117738   2.732   3.359   8.135  0.0835  1.8740  1.6500
 2093SOL    HW217739   2.609   3.345   8.049  0.7794  0.4548 -0.3362
 2094SOL     OW17740   1.744   1.818  17.607  0.2744  0.0634  0.1191
 2094SOL    HW117741   1.799   1.891  17.637  0.9605 -0.6983  0.7167
 2094SOL    HW217742   1.800   1.741  17.612 -1.5407 -1.2816 -0.5352
 2095SOL     OW17743   1.236   2.083  15.830 -0.5131 -0.1605  0.4567
 2095SOL    HW117744   1.239   2.159  15.771  1.4781 -1.4193 -1.0371
 2095SOL    HW217745   1.322   2.044  15.816 -1.0735 -0.9801 -0.6099
 2096SOL     OW17746   3.185   3.199   6.466 -0.2753 -0.2634 -0.0737
 2096SOL    HW117747   3.263   3.214   6.413 -0.9263  2.7531 -0.1571
 2096SOL    HW217748   3.206   3.120   6.516  0.1486  0.4412  0.8625
 2097SOL     OW17749   2.073   2.997   2.374  0.0904  0.5358 -0.2923
 2097SOL    HW117750   2.131   3.030   2.306  0.4637  1.8645  0.6740
 2097SOL    HW217751   2.011   2.955   2.314 -1.3230 -0.0521  1.5914
 2098SOL     OW17752   1.916   4.283   8.756  0.1417  0.1512  0.1050
 2098SOL    HW117753   1.853   4.329   8.811  0.2205 -0.4906  0.7338
 2098SOL    HW217754   1.952   4.354   8.703 -1.3107  1.5876  1.0667
 2099SOL     OW17755   3.244   0.627   4.369  0.0077  0.0090 -0.7664
 2099SOL    HW117756   3.219   0.536   4.381  2.8019 -0.8758 -1.8211
 2099SOL    HW217757   3.162   0.674   4.387 -0.4766 -1.0669 -0.2005
 2100SOL     OW17758   3.907   2.901   1.272  0.2442  0.0685  0.0124
 2100SOL    HW117759   3.932   2.921   1.362  2.0608 -0.8805 -0.2791
 2100SOL    HW217760   3.854   2.970   1.233 -0.2560 -0.7699 -0.8029
 2101SOL     OW17761   0.007   1.500   2.435 -0.3580  0.9195 -0.6677
 2101SOL    HW117762   4.671   1.453   2.493  1.9483 -0.7893  0.2627
 2101SOL    HW217763   4.678   1.506   2.355 -1.6721 -0.7725  0.0728
 2102SOL     OW17764   0.813   3.783   2.542 -0.2879 -0.0102  0.0413
 2102SOL    HW117765   0.891   3.809   2.590  1.0030 -3.0893 -0.3900
 2102SOL    HW217766   0.747   3.844   2.577 -1.0226 -0.8823  0.1665
 2103SOL     OW17767   1.289   1.383   3.638 -0.3934  0.3412 -0.2803
 2103SOL    HW117768   1.383   1.370   3.646 -0.6644 -1.0390  0.5327
 2103SOL    HW217769   1.281   1.457   3.699  0.6718  0.5142 -0.3597
 2104SOL     OW17770   3.211   0.728   8.079 -0.4606  0.0346 -0.4735
 2104SOL    HW117771   3.162   0.797   8.125 -2.0157 -0.5452 -1.2676
 2104SOL    HW217772   3.287   0.781   8.055 -0.5422 -0.6466 -2.1828
 2105SOL     OW17773   1.076   3.930   2.650  0.5065 -0.0749 -0.5544
 2105SOL    HW117774   1.125   3.853   2.680  0.0823  0.0639  0.5212
 2105SOL    HW217775   1.145   3.996   2.648 -0.9589  1.4216 -1.7789
 2106SOL     OW17776   3.527   4.666   4.771  0.4620  0.0602 -0.0331
 2106SOL    HW117777   3.534   4.571   4.755 -0.0862  0.0091  0.0302
 2106SOL    HW217778   3.570   4.714   4.701  5.1359 -2.0349  1.4354
 2107SOL     OW17779   0.048   0.061   7.751 -0.2219  0.2362  0.3452
 2107SOL    HW117780   0.082   4.706   7.706  0.0245  1.0812 -0.9496
 2107SOL    HW217781   0.110   0.068   7.824  0.3031 -2.6569  0.1987
 2108SOL     OW17782   3.643   0.788   1.168  0.2419 -0.0349  0.0854
 2108SOL    HW117783   3.650   0.854   1.099  1.0086 -1.6943 -1.4173
 2108SOL    HW217784   3.738   0.781   1.180  0.1219 -1.0967  0.3529
 2109SOL     OW17785   1.132   0.029   6.173 -0.1187 -0.3173 -0.2681
 2109SOL    HW117786   1.175   4.677   6.133  0.6341  0.6553 -1.3089
 2109SOL    HW217787   1.082   4.716   6.246 -0.5004 -0.3892 -0.5640
 2110SOL     OW17788   3.019   0.944   4.036 -0.5718  0.5261 -0.1522
 2110SOL    HW117789   3.013   0.999   3.958 -0.9547 -0.8921 -1.0976
 2110SOL    HW217790   3.000   1.011   4.102 -0.8703 -1.6292  1.9236
 2111SOL     OW17791   0.937   1.390   3.544 -0.3825  0.4883  0.4261
 2111SOL    HW117792   0.922   1.441   3.464 -1.0770  0.3826  0.4868
 2111SOL    HW217793   0.919   1.303   3.509  2.3263 -0.5845  1.7502
 2112SOL     OW17794   4.326   1.640  14.358 -0.4835 -0.0836 -0.4289
 2112SOL    HW117795   4.326   1.726  14.399  0.1505  0.6925 -2.0341
 2112SOL    HW217796   4.254   1.654  14.296  0.7012 -0.4591 -1.8897
 2113SOL     OW17797   2.628   4.107   2.835 -0.1763 -0.1686 -1.1493
 2113SOL    HW117798   2.718   4.075   2.842 -0.6817 -1.2713  0.3167
 2113SOL    HW217799   2.619   4.088   2.741 -2.0899 -2.0838 -0.5834
 2114SOL     OW17800   4.217   1.093  17.499 -0.0538  0.0395  0.5058
 2114SOL    HW117801   4.158   1.053  17.435  3.5784 -0.4970 -2.5701
 2114SOL    HW217802   4.223   1.177  17.453 -1.6013  0.3870  0.9551
 2115SOL     OW17803   2.969   2.902   3.795  0.5103  0.3564 -0.0202
 2115SOL    HW117804   2.996   2.880   3.884  1.3630  1.0965 -0.0893
 2115SOL    HW217805   3.060   2.895   3.765  1.1799 -0.5290  2.2049
 2116SOL     OW17806   0.199   4.006   5.013  0.2170 -0.4457  0.3893
 2116SOL    HW117807   0.282   4.052   5.022  0.6875 -0.8249 -1.9625
 2116SOL    HW217808   0.230   3.933   4.959  0.3747 -0.0178 -0.0878
 2117SOL     OW17809   0.211   3.623   1.110 -0.4079 -0.1637 -0.0320
 2117SOL    HW117810   0.289   3.631   1.055  0.0313 -2.0098  0.3182
 2117SOL    HW217811   0.141   3.592   1.053 -0.7524  0.8383 -0.1492
 2118SOL     OW17812   0.440   0.282   5.284 -0.3607  0.1547 -0.1573
 2118SOL    HW117813   0.406   0.354   5.231  0.7720  1.5402  1.0162
 2118SOL    HW217814   0.481   0.230   5.214 -0.9960  0.2485 -0.6007
 2119SOL     OW17815   1.697   3.095   9.335  0.4143  0.2891  0.4943
 2119SOL    HW117816   1.671   3.124   9.247 -0.5260 -3.2016 -0.3735
 2119SOL    HW217817   1.750   3.167   9.370  3.1928 -1.3183 -0.3674
 2120SOL     OW17818   0.261   0.731   2.492  0.3635  0.4698 -0.0581
 2120SOL    HW117819   0.307   0.809   2.461  1.2152 -0.1302 -0.2889
 2120SOL    HW217820   0.236   0.690   2.409 -2.8128  0.3026  0.9804
 2121SOL     OW17821   2.787   2.177   3.664  0.8992  0.6418  0.2332
 2121SOL    HW117822   2.816   2.194   3.574  1.6177 -2.2151 -0.0653
 2121SOL    HW217823   2.835   2.247   3.709  0.9017  0.6317  0.2460
 2122SOL     OW17824   0.191   2.570   1.755  0.5424  0.2465 -0.2387
 2122SOL    HW117825   0.280   2.592   1.781 -0.1839  0.9671  1.5795
 2122SOL    HW217826   0.166   2.656   1.721  0.9670  1.3742  2.3472
 2123SOL     OW17827   0.259   1.942   3.503  0.1280  0.1648 -0.0912
 2123SOL    HW117828   0.217   1.887   3.437 -1.2518  0.8931  0.1766
 2123SOL    HW217829   0.310   1.876   3.551  1.8825 -0.5268 -2.9406
 2124SOL     OW17830   2.135   2.188  15.111 -0.0007  0.6875  0.1460
 2124SOL    HW117831   2.138   2.226  15.023  2.1204 -0.4615 -0.2791
 2124SOL    HW217832   2.120   2.272  15.153 -0.9974  0.9297 -0.6841
 2125SOL     OW17833   1.214   2.624   4.738 -0.8162  0.5923  0.1135
 2125SOL    HW117834   1.216   2.531   4.718 -1.9937  0.7403 -0.7276
 2125SOL    HW217835   1.265   2.638   4.818 -0.4213  0.0259 -0.0396
 2126SOL     OW17836   3.937   0.241  14.965 -0.1081  0.1467  0.3091
 2126SOL    HW117837   3.892   0.326  14.970 -2.4772 -1.1696  1.6905
 2126SOL    HW217838   4.025   0.270  14.988  0.3616 -0.1679 -1.0822
 2127SOL     OW17839   4.398   1.152   1.922  0.1099 -0.2974 -0.3403
 2127SOL    HW117840   4.315   1.198   1.908 -1.1894 -1.7602  2.5070
 2127SOL    HW217841   4.461   1.196   1.865 -1.6373 -0.9417 -2.7336
 2128SOL     OW17842   3.115   3.127   4.012 -0.6184  0.7959  0.0834
 2128SOL    HW117843   3.191   3.126   4.070 -0.6886  0.6486  0.1737
 2128SOL    HW217844   3.145   3.190   3.946 -0.4013  0.2296 -0.3629
 2129SOL     OW17845   3.946   3.459   5.659 -0.2367 -0.3268 -0.0433
 2129SOL    HW117846   3.855   3.463   5.630  0.9396  2.9768 -3.2714
 2129SOL    HW217847   3.946   3.368   5.689  0.6082  0.6664  2.9543
 2130SOL     OW17848   1.005   4.154   4.115  0.6040 -0.7207 -0.0282
 2130SOL    HW117849   1.082   4.200   4.149  1.8246 -2.4090 -0.4805
 2130SOL    HW217850   0.985   4.097   4.189  2.2919 -0.9125  0.2841
 2131SOL     OW17851   1.464   1.980   2.768 -0.0838 -0.0795  0.2109
 2131SOL    HW117852   1.550   1.983   2.726 -0.0884  1.3818  0.3044
 2131SOL    HW217853   1.481   1.923   2.843 -0.6420 -1.7698 -0.9357
 2132SOL     OW17854   3.916   0.545  13.617  0.3979 -0.2244  0.3129
 2132SOL    HW117855   3.836   0.510  13.579 -0.9430  2.3008  0.8473
 2132SOL    HW217856   3.893   0.637  13.617  1.6953  0.0992  1.1416
 2133SOL     OW17857   0.949   4.651   1.014 -0.7175  0.5479  0.8514
 2133SOL    HW117858   1.038   4.671   0.986 -0.2693 -1.4398  0.8249
 2133SOL    HW217859   0.924   4.580   0.955  0.5741 -0.1761  1.1658
 2134SOL     OW17860   0.705   2.909  15.152 -0.2188  0.1044 -0.5227
 2134SOL    HW117861   0.765   2.835  15.164  0.8345  1.3100  1.6060
 2134SOL    HW217862   0.761   2.967  15.101 -0.3704  0.7343  0.0343
 2135SOL     OW17863   1.031   2.189   6.989  0.4120 -0.6880 -0.6764
 2135SOL    HW117864   1.119   2.187   6.953  0.4714  0.0991 -0.5817
 2135SOL    HW217865   1.055   2.218   7.077 -0.0236 -1.4125 -0.3161
 2136SOL     OW17866   0.101   0.349  11.475 -0.2174 -0.0697  0.2439
 2136SOL    HW117867   0.006   0.343  11.489 -0.4079  0.8572 -0.6066
 2136SOL    HW217868   0.127   0.276  11.531 -0.6508  0.1506  0.7285
 2137SOL     OW17869   1.835   1.427   8.473 -0.2427 -0.3928  0.5314
 2137SOL    HW117870   1.914   1.479   8.490  0.1937 -0.5202 -1.1578
 2137SOL    HW217871   1.815   1.383   8.556  1.7128 -1.1366  0.6051
 2138SOL     OW17872   3.196   2.468   4.426 -0.0290 -1.2164  0.3475
 2138SOL    HW117873   3.179   2.553   4.465  1.5276 -0.4116 -0.7389
 2138SOL    HW217874   3.125   2.425   4.474  1.1789 -2.5854  0.9526
 2139SOL     OW17875   3.617   2.099   3.112 -0.1203 -0.1683 -0.1011
 2139SOL    HW117876   3.668   2.171   3.074  0.3466 -0.8022 -0.6578
 2139SOL    HW217877   3.564   2.072   3.038 -0.7279 -0.3307  0.3991
 2140SOL     OW17878   3.297   4.010   1.542  0.2225  0.3896 -0.1297
 2140SOL    HW117879   3.243   4.035   1.467 -0.8912 -1.6056  0.0280
 2140SOL    HW217880   3.380   3.996   1.497  1.3247 -0.4170  2.1662
 2141SOL     OW17881   3.652   3.338   5.780  0.2689  0.0280  0.0977
 2141SOL    HW117882   3.646   3.260   5.725  0.5086 -0.1057  0.2677
 2141SOL    HW217883   3.636   3.405   5.713  2.0978 -0.3885 -0.7498
 2142SOL     OW17884   3.856   4.597  12.242 -0.1219 -0.3656  0.0497
 2142SOL    HW117885   3.911   4.652  12.186 -1.0293 -0.0141 -0.4854
 2142SOL    HW217886   3.785   4.569  12.186  1.3104 -0.4979 -1.6967
 2143SOL     OW17887   1.294   2.728   7.441  0.1551  0.3533 -0.1303
 2143SOL    HW117888   1.311   2.658   7.378  0.3141  2.1604 -2.0833
 2143SOL    HW217889   1.380   2.770   7.434 -0.3306  1.2781 -0.6689
 2144SOL     OW17890   2.689   1.917   8.911  0.1091  0.0247 -0.0545
 2144SOL    HW117891   2.696   1.978   8.838 -1.1072  1.9425  1.4495
 2144SOL    HW217892   2.781   1.911   8.937  0.3944  0.6759 -0.9046
 2145SOL     OW17893   0.191   3.338   8.817  0.4420 -0.0065 -0.1968
 2145SOL    HW117894   0.277   3.304   8.841 -0.2872 -0.4508  1.8280
 2145SOL    HW217895   0.180   3.308   8.727 -0.2853  0.6401 -0.3221
 2146SOL     OW17896   0.972   3.183   8.492  0.1606  0.5073  0.6560
 2146SOL    HW117897   1.047   3.181   8.552 -0.1707 -2.3528  0.9718
 2146SOL    HW217898   1.005   3.148   8.409  0.7052  1.0777  0.6295
 2147SOL     OW17899   4.524   1.537  10.174  0.3108  0.2492  0.1450
 2147SOL    HW117900   4.497   1.448  10.151  1.3428  0.3530 -1.5424
 2147SOL    HW217901   4.570   1.517  10.255 -1.5858  0.3570  1.2438
 2148SOL     OW17902   4.287   3.783  12.225  0.1626 -0.4866  0.2322
 2148SOL    HW117903   4.290   3.844  12.298 -1.0283 -0.8967  0.6235
 2148SOL    HW217904   4.333   3.706  12.257  2.0630  0.2495 -0.7013
 2149SOL     OW17905   2.572   1.835   1.740  0.1349  0.3041 -0.0254
 2149SOL    HW117906   2.548   1.886   1.662  2.7191  0.6212 -0.5967
 2149SOL    HW217907   2.661   1.809   1.716 -0.2656  1.4164 -2.7299
 2150SOL     OW17908   2.485   2.730   1.734  0.8298  0.3500  0.2087
 2150SOL    HW117909   2.453   2.695   1.817  1.6429 -0.3132  0.2487
 2150SOL    HW217910   2.508   2.642   1.703 -0.2197  0.9355 -2.2669
 2151SOL     OW17911   4.197   2.112   3.043 -0.3059  0.4402 -0.4093
 2151SOL    HW117912   4.142   2.121   3.121 -0.3699 -1.2990 -0.2483
 2151SOL    HW217913   4.134   2.103   2.971 -0.8874 -0.0174  0.1561
 2152SOL     OW17914   1.433   3.030   5.269  0.0473  0.0705  0.3743
 2152SOL    HW117915   1.356   3.011   5.216 -0.0734  2.4593 -0.2875
 2152SOL    HW217916   1.469   3.102   5.217  1.3010 -0.7417  0.0951
 2153SOL     OW17917   1.076   1.824  14.047 -0.1233 -0.2153  0.6752
 2153SOL    HW117918   1.094   1.731  14.038 -0.2276 -0.0788 -1.0683
 2153SOL    HW217919   1.083   1.838  14.141 -0.5564 -0.5054  0.7499
 2154SOL     OW17920   3.072   0.064   2.195 -0.7330  0.2175 -0.3150
 2154SOL    HW117921   3.037   0.040   2.109 -2.2724  1.6023 -0.0946
 2154SOL    HW217922   3.114   4.705   2.215 -0.1296  0.1521 -1.8699
 2155SOL     OW17923   3.866   2.565  14.275 -0.1154  0.4520 -0.1266
 2155SOL    HW117924   3.793   2.588  14.217  0.1177  0.5380 -0.3830
 2155SOL    HW217925   3.924   2.523  14.212 -0.3807  1.7483 -1.2205
 2156SOL     OW17926   4.101   0.261   8.026  0.1440  0.0232  0.5137
 2156SOL    HW117927   4.038   0.334   8.029  0.8835  0.7227 -1.4218
 2156SOL    HW217928   4.176   0.310   7.994 -0.4329  0.8987  0.5077
 2157SOL     OW17929   2.752   3.801   9.270  0.3315  0.5660  0.0849
 2157SOL    HW117930   2.695   3.861   9.222 -1.2996  1.7727  3.5113
 2157SOL    HW217931   2.705   3.793   9.353  1.3532 -1.5908  0.4550
 2158SOL     OW17932   0.969   4.712   1.275  0.3246  0.4801  0.3083
 2158SOL    HW117933   1.055   0.020   1.247 -0.3188 -0.0034 -2.2204
 2158SOL    HW217934   0.939   4.671   1.194  0.6313 -1.9821  1.4494
 2159SOL     OW17935   4.297   0.833   2.660  0.1983  0.2369  0.3419
 2159SOL    HW117936   4.204   0.856   2.670  0.1459  0.0406  0.3024
 2159SOL    HW217937   4.331   0.832   2.750  2.3613  2.1469 -0.4508
 2160SOL     OW17938   0.809   2.826   9.152  0.4561 -0.1360  0.2224
 2160SOL    HW117939   0.777   2.894   9.210  1.2646  0.6741 -0.2812
 2160SOL    HW217940   0.738   2.764   9.167  0.6739 -0.3732  0.2708
 2161SOL     OW17941   0.949   3.494   5.390  0.0609  0.2608  0.0906
 2161SOL    HW117942   1.014   3.427   5.369  2.4782  2.5590  0.2027
 2161SOL    HW217943   0.891   3.451   5.452  0.6044  0.2915  0.6175
 2162SOL     OW17944   0.662   2.665   2.300  0.0507  0.4607  0.3562
 2162SOL    HW117945   0.753   2.642   2.318  0.0041 -1.7262 -2.2102
 2162SOL    HW217946   0.640   2.606   2.228  4.0430  0.1791 -0.6369
 2163SOL     OW17947   2.266   0.090   8.499 -0.2412  0.1712  0.8373
 2163SOL    HW117948   2.274   0.155   8.568  2.3080  0.3094  0.4149
 2163SOL    HW217949   2.182   0.114   8.460 -0.1237  0.2623  0.6376
 2164SOL     OW17950   0.431   1.000   6.443 -1.1084  0.0755 -0.6488
 2164SOL    HW117951   0.381   1.010   6.362 -0.5701  0.5086 -0.9346
 2164SOL    HW217952   0.490   1.076   6.445 -2.0226  0.7922 -0.7445
 2165SOL     OW17953   2.500   1.143   5.580  0.2961 -0.2761  0.6788
 2165SOL    HW117954   2.451   1.224   5.566  0.6233  0.1120  1.8150
 2165SOL    HW217955   2.582   1.170   5.538 -0.3256  0.4394 -0.0608
 2166SOL     OW17956   0.432   0.677   7.977 -0.5841 -0.1973 -0.6085
 2166SOL    HW117957   0.500   0.723   7.929 -1.9565  1.1301 -1.2796
 2166SOL    HW217958   0.430   0.740   8.049  1.1882  0.5639 -1.2399
 2167SOL     OW17959   0.699   0.653   7.205  0.2942  0.0355 -0.1400
 2167SOL    HW117960   0.705   0.713   7.279 -0.6474  0.2075 -0.2064
 2167SOL    HW217961   0.793   0.642   7.188  0.6386 -1.4676  2.7166
 2168SOL     OW17962   2.992   1.263  12.857 -0.1844  0.3571 -0.1444
 2168SOL    HW117963   3.074   1.221  12.833  0.8172  1.6986  0.8960
 2168SOL    HW217964   3.022   1.353  12.844 -0.4637  0.7919  2.2394
 2169SOL     OW17965   2.698   0.419   6.744 -0.1642  0.4990  0.3377
 2169SOL    HW117966   2.684   0.368   6.665 -0.4307 -0.1943  0.8251
 2169SOL    HW217967   2.610   0.448   6.769 -0.6426 -0.3567 -0.3642
 2170SOL     OW17968   3.359   1.506  14.672 -0.0333  0.8968  0.9274
 2170SOL    HW117969   3.294   1.523  14.740  0.4180  2.5533  0.9418
 2170SOL    HW217970   3.422   1.574  14.695  0.1111  0.7536  0.9549
 2171SOL     OW17971   4.584   4.330  10.498  0.0624  0.2527 -0.4177
 2171SOL    HW117972   4.599   4.357  10.589 -0.6391 -0.2601 -0.1548
 2171SOL    HW217973   4.641   4.384  10.444  0.1701  0.1143 -0.4439
 2172SOL     OW17974   3.300   3.994   6.870  0.7797  0.8846 -0.2220
 2172SOL    HW117975   3.362   3.951   6.811 -0.0911  1.0341 -1.2515
 2172SOL    HW217976   3.254   4.049   6.806 -0.9157  1.0829  1.1599
 2173SOL     OW17977   0.641   2.520  10.710 -0.1744  0.0680 -0.4767
 2173SOL    HW117978   0.556   2.557  10.735 -1.1179 -1.8939 -0.8028
 2173SOL    HW217979   0.609   2.432  10.691 -1.1874  0.3014  0.1378
 2174SOL     OW17980   3.485   2.425   9.105 -0.7566  0.3527 -0.2650
 2174SOL    HW117981   3.454   2.511   9.133  3.2922  1.4594  0.7513
 2174SOL    HW217982   3.577   2.436   9.081 -0.5504  2.9565  1.6480
 2175SOL     OW17983   1.233   4.214   7.948  0.1370 -0.0444 -0.9173
 2175SOL    HW117984   1.190   4.232   7.865 -1.6646 -0.2851 -0.0439
 2175SOL    HW217985   1.301   4.279   7.933 -1.7844  2.2258  0.0138
 2176SOL     OW17986   3.879   3.737   4.326 -0.2743  0.4776 -0.6085
 2176SOL    HW117987   3.872   3.642   4.330 -0.5595  0.4797 -1.0743
 2176SOL    HW217988   3.811   3.768   4.386 -1.7919 -1.4845 -1.3057
 2177SOL     OW17989   2.512   0.012   8.380 -0.2429 -0.0965  0.3793
 2177SOL    HW117990   2.513   4.640   8.389 -0.6632 -0.2383 -1.1148
 2177SOL    HW217991   2.430   0.044   8.418  0.6695 -0.3810  2.5856
 2178SOL     OW17992   0.551   1.510  16.712 -0.3471  0.1583 -0.4385
 2178SOL    HW117993   0.536   1.416  16.702  1.6181 -0.1162 -0.7072
 2178SOL    HW217994   0.646   1.519  16.707 -0.2061 -0.9335  0.2393
 2179SOL     OW17995   3.049   3.784   3.253  0.0567  0.0720  0.2915
 2179SOL    HW117996   3.053   3.724   3.179  1.6842  0.7961 -0.2012
 2179SOL    HW217997   3.078   3.724   3.322  0.3640  0.0811  0.1713
 2180SOL     OW17998   1.612   2.323   4.955  0.1657  0.2539  0.1064
 2180SOL    HW117999   1.674   2.371   4.901  1.4802 -1.8219 -0.2288
 2180SOL    HW218000   1.659   2.314   5.038 -0.2302  0.9814  0.4102
 2181SOL     OW18001   2.554   1.775   3.829  0.2932  0.1562  0.0518
 2181SOL    HW118002   2.585   1.720   3.758  0.9891  1.3511 -0.5689
 2181SOL    HW218003   2.550   1.866   3.798 -1.6736 -0.2496 -0.9259
 2182SOL     OW18004   1.291   2.262  12.999 -0.5393 -0.2011 -0.2186
 2182SOL    HW118005   1.317   2.170  13.005  1.7449  0.6010  2.3886
 2182SOL    HW218006   1.196   2.249  12.994 -0.4553 -0.9517  0.1341
 2183SOL     OW18007   0.652   3.623  12.365 -0.9933 -0.2028 -0.5872
 2183SOL    HW118008   0.664   3.610  12.459  0.9222 -0.9949 -0.9333
 2183SOL    HW218009   0.590   3.696  12.362  1.2896  1.6939 -1.1769
 2184SOL     OW18010   3.027   0.442   6.352 -0.6380 -0.0071 -0.4559
 2184SOL    HW118011   2.948   0.462   6.302 -0.2343  1.4123 -0.5389
 2184SOL    HW218012   3.000   0.396   6.432 -1.4853  0.9556 -0.1742
 2185SOL     OW18013   0.404   0.793  12.684 -0.0036 -0.1877 -0.8232
 2185SOL    HW118014   0.494   0.771  12.659  0.0080 -0.5186 -0.4835
 2185SOL    HW218015   0.408   0.889  12.681  0.2489 -0.2412 -2.2125
 2186SOL     OW18016   1.055   4.357   8.783  0.2205 -0.0323  0.5426
 2186SOL    HW118017   1.058   4.445   8.745 -2.3047 -0.7952 -1.4580
 2186SOL    HW218018   1.136   4.316   8.754 -0.3723  0.2459 -1.5128
 2187SOL     OW18019   0.555   3.812   3.569 -0.1699  0.0148 -0.6322
 2187SOL    HW118020   0.643   3.789   3.599  0.7452  1.5223 -2.1426
 2187SOL    HW218021   0.559   3.898   3.611  0.1564 -1.2975  2.0151
 2188SOL     OW18022   0.954   3.399   6.181 -0.3590  0.2705  0.5152
 2188SOL    HW118023   0.956   3.386   6.275  0.9788  1.8563  0.6934
 2188SOL    HW218024   0.985   3.489   6.173 -0.2726  0.2995  1.2499
 2189SOL     OW18025   4.509   0.799  10.930  0.1793 -0.1673  0.0691
 2189SOL    HW118026   4.414   0.808  10.937  0.3420  1.5556 -0.1261
 2189SOL    HW218027   4.508   0.742  10.853  2.4372  2.0731 -1.6164
 2190SOL     OW18028   3.797   4.340   8.817 -0.1161  0.8966 -0.2425
 2190SOL    HW118029   3.837   4.255   8.802 -1.2714  0.4778 -0.9014
 2190SOL    HW218030   3.745   4.355   8.738 -0.0847 -2.4288 -0.8714
 2191SOL     OW18031   0.648   1.026   5.775  0.3227 -0.0586  0.6387
 2191SOL    HW118032   0.554   1.044   5.774  0.3367 -0.0700 -0.6791
 2191SOL    HW218033   0.638   0.974   5.695 -0.7033 -0.9282  1.3285
 2192SOL     OW18034   0.334   3.157   9.633  0.5210  0.0952  0.8491
 2192SOL    HW118035   0.283   3.079   9.610 -0.0171  0.5771  0.4290
 2192SOL    HW218036   0.312   3.163   9.726  1.9139 -2.2907  1.3464
 2193SOL     OW18037   1.786   2.992   3.324  0.2356  0.6049 -0.0232
 2193SOL    HW118038   1.787   2.906   3.282  0.2377  0.2459  0.7271
 2193SOL    HW218039   1.714   3.030   3.272  0.2749  2.9556  1.6621
 2194SOL     OW18040   0.655   4.657  15.645 -0.4041 -0.3937 -0.4292
 2194SOL    HW118041   0.623   0.023  15.635  1.0150 -0.1379 -2.4329
 2194SOL    HW218042   0.745   4.673  15.671  0.0524 -2.7725 -0.5305
 2195SOL     OW18043   3.774   3.871   8.595  0.1094  0.1173  0.2381
 2195SOL    HW118044   3.761   3.795   8.651  1.9601  0.9425  1.7737
 2195SOL    HW218045   3.857   3.842   8.556  0.2482  0.7219  0.0804
 2196SOL     OW18046   4.328   1.773   6.042  0.1837 -0.0807  0.5884
 2196SOL    HW118047   4.357   1.689   6.078 -0.0429 -1.0456 -1.4501
 2196SOL    HW218048   4.404   1.831   6.043 -0.1241  0.3856 -3.2209
 2197SOL     OW18049   2.652   3.115  11.710 -0.5648 -0.0217 -0.3434
 2197SOL    HW118050   2.714   3.082  11.774  0.2160  0.7583 -0.6945
 2197SOL    HW218051   2.667   3.208  11.728 -1.6959  0.0298  0.3019
 2198SOL     OW18052   3.888   2.049   6.673 -0.0172 -0.6053 -0.5595
 2198SOL    HW118053   3.929   2.038   6.759  0.1817  0.1148 -0.5639
 2198SOL    HW218054   3.937   1.987   6.619  0.7258 -0.6818  0.1975
 2199SOL     OW18055   1.473   0.682   2.098  0.1107 -0.1154  0.2165
 2199SOL    HW118056   1.396   0.694   2.042 -1.0371 -1.8348  1.4499
 2199SOL    HW218057   1.518   0.624   2.036  1.0911  0.1356  0.6853
 2200SOL     OW18058   3.039   1.634   4.052  0.0372  0.2949 -0.3142
 2200SOL    HW118059   3.088   1.711   4.025  1.3956 -0.1445  0.9193
 2200SOL    HW218060   2.983   1.633   3.973 -3.5444 -0.1737  2.2061
 2201SOL     OW18061   3.332   3.568  11.463  0.1421  0.0374  0.5709
 2201SOL    HW118062   3.376   3.652  11.449 -0.0643  0.3764  1.9882
 2201SOL    HW218063   3.313   3.583  11.556  0.1075 -1.0221  0.7341
 2202SOL     OW18064   1.711   0.478   7.760  0.2114 -0.2623 -0.0338
 2202SOL    HW118065   1.649   0.535   7.714 -1.2295 -1.4847  0.3958
 2202SOL    HW218066   1.779   0.539   7.789 -0.0414  0.6328 -1.3178
 2203SOL     OW18067   3.660   3.486   9.814 -0.5411 -0.2063  0.1229
 2203SOL    HW118068   3.635   3.578   9.813  0.7718  0.1437  2.0284
 2203SOL    HW218069   3.711   3.491   9.894 -0.9883  0.3043  0.3780
 2204SOL     OW18070   4.715   0.475   6.296  0.3882 -0.0507  0.3599
 2204SOL    HW118071   4.675   0.468   6.382  1.8563 -0.1316  1.0421
 2204SOL    HW218072   4.642   0.468   6.235  1.6532 -0.2854 -1.1435
 2205SOL     OW18073   3.038   0.494  10.549  0.3309 -0.0826 -0.2099
 2205SOL    HW118074   3.045   0.491  10.454 -0.5138  1.9595 -0.3489
 2205SOL    HW218075   2.981   0.421  10.573  0.5434  0.4521  1.9090
 2206SOL     OW18076   0.957   3.613   7.550  0.6577  0.0647 -0.0442
 2206SOL    HW118077   0.930   3.694   7.506  1.6407  0.7785  0.6510
 2206SOL    HW218078   1.041   3.581   7.517  1.7788  2.8354  0.0285
 2207SOL     OW18079   1.250   1.165  15.131  0.6455  0.5340  0.1315
 2207SOL    HW118080   1.256   1.165  15.036  1.9709  0.5967  0.2111
 2207SOL    HW218081   1.326   1.217  15.157 -0.6346  1.5566  1.9034
 2208SOL     OW18082   1.155   0.685   2.471  0.0974 -0.1537 -0.0124
 2208SOL    HW118083   1.157   0.647   2.384  0.8824  0.1197 -0.1146
 2208SOL    HW218084   1.247   0.705   2.490  0.2212 -0.1826 -0.5774
 2209SOL     OW18085   0.479   0.742   6.366  0.0674 -0.0482 -0.4294
 2209SOL    HW118086   0.527   0.822   6.390  0.1911 -0.2811  0.1055
 2209SOL    HW218087   0.386   0.765   6.369 -0.6410 -3.3831  2.3900
 2210SOL     OW18088   4.573   3.425   4.413  0.4854  0.0254  0.6641
 2210SOL    HW118089   4.514   3.496   4.441  0.1744  0.6712 -1.6082
 2210SOL    HW218090   4.514   3.349   4.416  1.0527 -0.4935 -1.2421
 2211SOL     OW18091   4.636   4.696   5.823  0.2947  0.1186  0.3622
 2211SOL    HW118092   4.702   4.635   5.857  1.3287  0.0352 -1.8106
 2211SOL    HW218093   4.555   4.650   5.845  0.9047 -0.1413  2.0372
 2212SOL     OW18094   2.273   1.700   8.474  0.6709  0.3708 -0.5414
 2212SOL    HW118095   2.286   1.619   8.424  0.1983 -1.6772  2.6536
 2212SOL    HW218096   2.359   1.731   8.503  1.5198 -1.7193 -0.7933
 2213SOL     OW18097   1.247   0.418   2.618 -0.3722  0.0395  0.1556
 2213SOL    HW118098   1.298   0.464   2.685  0.0489 -1.1876  0.6696
 2213SOL    HW218099   1.311   0.414   2.546  0.3231 -0.8369  0.8206
 2214SOL     OW18100   1.992   4.270   3.324  0.3098  0.3375  0.0364
 2214SOL    HW118101   1.954   4.320   3.397  1.1422  2.3765 -0.9195
 2214SOL    HW218102   1.911   4.246   3.279 -0.4085 -1.8015  2.4304
 2215SOL     OW18103   3.470   1.947  16.116  0.2725 -0.0932 -0.3341
 2215SOL    HW118104   3.468   1.987  16.203  0.3208  0.0200 -0.3851
 2215SOL    HW218105   3.384   1.905  16.104  0.0248 -0.1766  1.7694
 2216SOL     OW18106   1.628   4.287  15.964 -0.2482  0.3621  0.0764
 2216SOL    HW118107   1.570   4.211  15.972  1.6327 -1.1912 -0.8725
 2216SOL    HW218108   1.709   4.253  16.003 -0.8753  0.7744  1.7146
 2217SOL     OW18109   2.055   2.153  10.440  0.6887 -0.4503  0.6409
 2217SOL    HW118110   2.051   2.207  10.519  0.2226  0.7234 -0.1986
 2217SOL    HW218111   1.965   2.152  10.410  1.0226 -0.1990 -0.3802
 2218SOL     OW18112   0.223   0.773  10.423  0.8008 -0.0921  0.0649
 2218SOL    HW118113   0.223   0.746  10.514 -1.1640 -1.0555 -0.2084
 2218SOL    HW218114   0.225   0.692  10.372  0.6757  1.1061 -1.8448
 2219SOL     OW18115   4.239   4.359  12.706  0.1896 -0.0420 -0.2031
 2219SOL    HW118116   4.195   4.437  12.673 -0.9038 -1.1931 -1.4868
 2219SOL    HW218117   4.314   4.402  12.746  0.5560 -0.3273 -0.5881
 2220SOL     OW18118   3.208   0.075  12.865 -0.3571  0.2223 -0.0119
 2220SOL    HW118119   3.116   0.075  12.893 -0.2000 -0.2725  0.5021
 2220SOL    HW218120   3.207   4.713  12.823 -2.1539 -0.2037  0.8808
 2221SOL     OW18121   3.177   1.493   3.335  0.1044  0.6977  0.0368
 2221SOL    HW118122   3.117   1.558   3.369 -2.1559 -1.5627  0.3632
 2221SOL    HW218123   3.121   1.483   3.258 -0.3030 -4.2746  0.9936
 2222SOL     OW18124   1.460   1.955   3.713 -0.2904 -0.1500 -0.2147
 2222SOL    HW118125   1.552   1.979   3.718 -0.3578  0.0650  0.0519
 2222SOL    HW218126   1.479   1.865   3.688 -0.2574 -0.0703 -0.4740
 2223SOL     OW18127   1.390   0.536  15.091 -0.6858  0.4389  0.3300
 2223SOL    HW118128   1.348   0.498  15.014 -2.4733  0.7677  1.1405
 2223SOL    HW218129   1.481   0.533  15.063 -0.6273  0.0522  0.5627
 2224SOL     OW18130   3.350   1.439   3.674 -0.1341 -0.3478 -0.2385
 2224SOL    HW118131   3.363   1.438   3.769  2.2875  0.3524 -0.5422
 2224SOL    HW218132   3.255   1.443   3.663 -0.1614  0.9368  0.3900
 2225SOL     OW18133   1.925   2.294   1.505  0.2398 -0.5960 -0.1191
 2225SOL    HW118134   1.854   2.288   1.442  0.9474 -2.3175 -0.7555
 2225SOL    HW218135   1.881   2.258   1.582 -1.5838  2.3947  0.2459
 2226SOL     OW18136   4.127   2.918   3.302 -0.3931  0.0198 -0.6550
 2226SOL    HW118137   4.128   2.900   3.396  0.9603  0.5318 -0.5723
 2226SOL    HW218138   4.034   2.906   3.285 -0.4408 -1.8918  0.9955
 2227SOL     OW18139   4.236   4.644   1.809 -0.1560  0.2736  0.0461
 2227SOL    HW118140   4.228   4.558   1.849 -0.8318  0.5216  0.4313
 2227SOL    HW218141   4.278   4.698   1.875 -2.2591  0.3913  1.2766
 2228SOL     OW18142   3.624   0.424   8.420  0.0688  0.0473  0.1960
 2228SOL    HW118143   3.690   0.377   8.472  1.4694  1.4209 -0.3492
 2228SOL    HW218144   3.543   0.391   8.459 -0.2651  0.3847 -0.2189
 2229SOL     OW18145   0.043   3.335   0.998 -0.1504  0.3285  0.0066
 2229SOL    HW118146   4.712   3.414   0.989 -0.6162 -0.0666 -0.6554
 2229SOL    HW218147   4.720   3.286   0.930  1.3860  3.2352 -3.1065
 2230SOL     OW18148   3.188   4.546  14.756 -0.4941 -0.5398  0.3210
 2230SOL    HW118149   3.154   4.620  14.705 -2.2580 -0.4864  1.5383
 2230SOL    HW218150   3.194   4.581  14.845  1.4831 -0.4867  0.1513
 2231SOL     OW18151   2.795   1.760   1.584  0.0790  0.2226  0.2003
 2231SOL    HW118152   2.880   1.795   1.558 -0.1084 -0.3805 -1.2859
 2231SOL    HW218153   2.734   1.803   1.524 -1.8555 -0.5303  1.6392
 2232SOL     OW18154   2.398   4.493   7.762  0.1220  0.3264 -0.0613
 2232SOL    HW118155   2.373   4.466   7.673  2.3932  1.8317 -1.1740
 2232SOL    HW218156   2.491   4.511   7.745  0.7644 -2.8601  0.0864
 2233SOL     OW18157   1.589   0.467  17.182 -0.2447 -0.0690  0.3871
 2233SOL    HW118158   1.513   0.412  17.160  0.5630 -0.3801 -1.5996
 2233SOL    HW218159   1.551   0.527  17.246 -2.5253 -0.0971 -0.9259
 2234SOL     OW18160   3.860   0.399   3.162  0.2917 -0.2176 -0.5446
 2234SOL    HW118161   3.785   0.459   3.162  0.7228  0.3202 -0.8338
 2234SOL    HW218162   3.836   0.344   3.087  0.5290 -2.1399  0.8023
 2235SOL     OW18163   2.050   1.144  12.854 -0.0459  0.5182  0.1689
 2235SOL    HW118164   2.013   1.154  12.766  0.3658 -0.5814 -0.1277
 2235SOL    HW218165   2.009   1.218  12.898 -1.1821  0.0239 -0.0743
 2236SOL     OW18166   1.714   3.871   5.112 -0.4963 -0.7464  0.0466
 2236SOL    HW118167   1.640   3.927   5.137 -0.6956 -0.9294 -0.1315
 2236SOL    HW218168   1.783   3.938   5.117  2.1399 -3.4697 -0.0161
 2237SOL     OW18169   1.202   4.530   4.704 -0.0840 -0.3744 -0.6785
 2237SOL    HW118170   1.193   4.477   4.783 -1.3866 -0.2178 -0.7100
 2237SOL    HW218171   1.166   4.465   4.644  0.2185 -0.3567 -0.8745
 2238SOL     OW18172   0.919   2.268   2.970 -0.1126 -0.7960  0.0566
 2238SOL    HW118173   0.933   2.353   3.010 -0.4152 -1.0338  0.6746
 2238SOL    HW218174   0.852   2.235   3.031  0.7576 -2.6996 -0.0193
 2239SOL     OW18175   0.450   0.236   1.563  0.2944 -0.1906  0.2556
 2239SOL    HW118176   0.493   0.289   1.631  0.0934 -0.6230  0.7272
 2239SOL    HW218177   0.409   0.164   1.611 -1.7393 -0.1773 -1.4891
 2240SOL     OW18178   4.111   3.535   8.115 -0.0627  0.0516 -0.2707
 2240SOL    HW118179   4.017   3.528   8.098 -0.2494  0.1004  0.7436
 2240SOL    HW218180   4.134   3.446   8.088 -0.3477 -0.6206  1.7073
 2241SOL     OW18181   4.284   1.630   2.353 -0.2349 -0.2627 -0.3532
 2241SOL    HW118182   4.266   1.598   2.441  0.0408 -0.2088 -0.2789
 2241SOL    HW218183   4.353   1.571   2.326  0.6791  0.8768 -0.5104
 2242SOL     OW18184   2.682   1.854   3.040  0.0564  0.3463  0.0240
 2242SOL    HW118185   2.670   1.869   2.946  1.0605 -1.7895 -0.4377
 2242SOL    HW218186   2.771   1.820   3.036 -0.4261 -1.0060  0.9028
 2243SOL     OW18187   4.499   0.790  17.424 -0.3287  0.0482  0.0023
 2243SOL    HW118188   4.590   0.804  17.398 -1.3003  1.3546 -2.6607
 2243SOL    HW218189   4.513   0.742  17.506 -0.9482 -1.9122 -1.0456
 2244SOL     OW18190   2.791   3.328  11.746  0.4858 -0.1744  0.2997
 2244SOL    HW118191   2.883   3.336  11.723  1.1980 -0.7248  2.9773
 2244SOL    HW218192   2.774   3.422  11.749 -0.0727 -0.1999 -2.1173
 2245SOL     OW18193   3.881   2.993   6.489 -0.2876  0.0793 -0.4919
 2245SOL    HW118194   3.882   3.089   6.492  1.4339  0.0162  1.4976
 2245SOL    HW218195   3.788   2.981   6.511 -0.0026  0.0864  0.7443
 2246SOL     OW18196   1.645   0.343   7.235  0.3614  0.3528  0.2341
 2246SOL    HW118197   1.668   0.432   7.262  1.4426 -0.4248  1.8769
 2246SOL    HW218198   1.646   0.302   7.321  1.8253  1.9587  0.9983
 2247SOL     OW18199   0.624   1.891  12.869  0.2139 -0.0806 -0.0434
 2247SOL    HW118200   0.548   1.931  12.828  0.0134 -1.1661 -0.7229
 2247SOL    HW218201   0.653   1.822  12.809  0.5964  0.9026 -0.9895
 2248SOL     OW18202   2.518   2.674   2.283 -0.1704  0.0905  0.4017
 2248SOL    HW118203   2.509   2.633   2.369  0.4356 -2.2391 -0.6533
 2248SOL    HW218204   2.601   2.711   2.313 -0.2552 -1.6089  2.6902
 2249SOL     OW18205   4.218   3.167   6.490 -0.4821 -0.0213  0.2706
 2249SOL    HW118206   4.146   3.207   6.540 -0.4087 -2.7022  2.4522
 2249SOL    HW218207   4.170   3.108   6.432  0.6511 -0.1194 -0.5665
 2250SOL     OW18208   0.038   2.805   5.718  0.0883 -0.2768  0.9124
 2250SOL    HW118209   4.719   2.720   5.721 -1.7793  0.5822 -0.8978
 2250SOL    HW218210   0.071   2.814   5.807 -0.4155 -0.6091  1.1290
 2251SOL     OW18211   3.560   4.385   5.262 -0.4145  0.4613  0.0347
 2251SOL    HW118212   3.598   4.334   5.333 -0.2599 -0.3555 -0.6383
 2251SOL    HW218213   3.469   4.357   5.273 -0.3552  0.2201 -0.1035
 2252SOL     OW18214   1.877   1.203   4.014 -0.2070 -0.0918  0.3853
 2252SOL    HW118215   1.820   1.211   4.090 -2.4783  1.7530 -1.5299
 2252SOL    HW218216   1.893   1.109   4.007  0.6094  0.1071 -0.5505
 2253SOL     OW18217   0.693   2.979   9.356 -0.2186  0.1446 -0.1471
 2253SOL    HW118218   0.664   3.064   9.388  1.6096 -0.0330  2.0450
 2253SOL    HW218219   0.624   2.918   9.381  2.2597 -2.2337  0.9819
 2254SOL     OW18220   3.069   0.495  10.287 -0.3117  0.7059  0.1456
 2254SOL    HW118221   3.064   0.474  10.194  1.4904 -1.2580  0.4949
 2254SOL    HW218222   3.161   0.519  10.292 -0.1258  0.0260  0.0009
 2255SOL     OW18223   1.307   1.572  15.551  0.1847  1.0886  0.4870
 2255SOL    HW118224   1.389   1.566  15.600  0.0274  2.8682  0.9529
 2255SOL    HW218225   1.274   1.655  15.583 -0.0299  1.1256  0.1723
 2256SOL     OW18226   3.535   3.829   3.313 -0.2083  0.6067  0.4997
 2256SOL    HW118227   3.535   3.736   3.338 -0.8222  0.2009 -1.0061
 2256SOL    HW218228   3.513   3.879   3.391  0.3923  4.4048 -1.7767
 2257SOL     OW18229   4.144   1.709   6.257 -0.0200 -0.1640 -0.2496
 2257SOL    HW118230   4.186   1.761   6.189 -0.9940 -0.1899 -0.8685
 2257SOL    HW218231   4.204   1.634   6.248 -0.9952 -1.1957  1.8422
 2258SOL     OW18232   2.446   0.395   3.898 -0.6488 -0.0575  0.3003
 2258SOL    HW118233   2.518   0.438   3.851 -1.0598  0.2869 -0.0095
 2258SOL    HW218234   2.482   0.308   3.918  1.3664  0.4507 -1.1455
 2259SOL     OW18235   0.125   1.310   3.278 -0.3691 -0.1197  0.3308
 2259SOL    HW118236   0.210   1.339   3.311 -0.0487  0.2517 -0.8416
 2259SOL    HW218237   0.069   1.347   3.346  0.8612 -1.3719  2.0464
 2260SOL     OW18238   1.358   3.005  13.947 -0.0454  0.3612 -0.2172
 2260SOL    HW118239   1.442   3.029  13.908  0.1392 -0.8753 -0.5745
 2260SOL    HW218240   1.316   3.090  13.955 -0.7016 -0.1749  2.1203
 2261SOL     OW18241   2.613   3.107   0.920 -0.9293 -0.4527  0.1687
 2261SOL    HW118242   2.560   3.187   0.923  0.8191  0.7306 -0.5694
 2261SOL    HW218243   2.698   3.142   0.892 -0.5939 -0.6711  0.8906
 2262SOL     OW18244   2.117   0.202   5.547  0.4169 -0.0294 -0.2550
 2262SOL    HW118245   2.161   0.281   5.579 -0.4012  0.9652 -1.5542
 2262SOL    HW218246   2.086   0.234   5.461 -1.8054  0.8133  0.8466
 2263SOL     OW18247   2.618   3.586  16.391 -0.0125 -0.5614 -0.1223
 2263SOL    HW118248   2.547   3.619  16.446 -0.0204  0.2762 -0.6421
 2263SOL    HW218249   2.632   3.496  16.420  0.0725 -0.3527  0.4872
 2264SOL     OW18250   0.489   0.670   0.948 -0.1232  0.2326 -0.0588
 2264SOL    HW118251   0.527   0.680   0.860  0.6438  1.7670  0.4535
 2264SOL    HW218252   0.411   0.725   0.943 -0.4838 -0.0800  2.4693
 2265SOL     OW18253   1.882   2.199  15.994 -0.1012  0.5298 -0.1184
 2265SOL    HW118254   1.853   2.248  16.072  0.9722  0.8448  0.0846
 2265SOL    HW218255   1.944   2.258  15.952  0.6903  0.5380  1.0494
 2266SOL     OW18256   4.136   4.585  10.535  0.1097  0.1350  0.2934
 2266SOL    HW118257   4.185   4.519  10.485  0.4427  0.9811 -0.5053
 2266SOL    HW218258   4.109   4.534  10.612 -1.7238 -0.4711 -0.7562
 2267SOL     OW18259   2.263   0.644  17.610  0.0643  0.4565 -0.9247
 2267SOL    HW118260   2.221   0.653  17.695  3.7591  1.8054  0.7544
 2267SOL    HW218261   2.242   0.553  17.587 -2.1159  0.1706  2.2739
 2268SOL     OW18262   1.255   3.679  17.274 -0.0043  0.4633  0.0112
 2268SOL    HW118263   1.223   3.677  17.365 -1.6744 -1.4650 -0.6087
 2268SOL    HW218264   1.259   3.773  17.258  1.4824  0.1871 -1.1123
 2269SOL     OW18265   1.479   2.359  11.873 -0.1451  0.4244  0.1951
 2269SOL    HW118266   1.437   2.444  11.865 -0.1474  0.4317  0.2933
 2269SOL    HW218267   1.415   2.310  11.821 -0.0251 -1.2262  1.6190
 2270SOL     OW18268   2.994   2.215   3.995  0.1782  0.3120 -0.2354
 2270SOL    HW118269   2.912   2.265   3.992 -0.1129 -0.2704 -2.2949
 2270SOL    HW218270   3.026   2.219   4.085  0.8393  2.2127 -0.5583
 2271SOL     OW18271   2.221   1.442  15.280  0.4173  0.1866 -0.1075
 2271SOL    HW118272   2.145   1.475  15.328 -0.6246 -0.5630 -1.2650
 2271SOL    HW218273   2.191   1.410  15.195 -0.0652 -0.0608  0.1568
 2272SOL     OW18274   4.706   3.004   6.194  0.1500  0.0989 -1.2127
 2272SOL    HW118275   0.011   2.915   6.214 -2.6430 -0.8074 -1.2451
 2272SOL    HW218276   4.632   2.980   6.137 -0.6091  0.0501 -0.2156
 2273SOL     OW18277   0.792   3.723   3.512  0.0448  0.5020 -0.2632
 2273SOL    HW118278   0.819   3.682   3.430 -0.1111  1.4064 -0.7606
 2273SOL    HW218279   0.862   3.703   3.575  0.5759 -0.3845 -1.1416
 2274SOL     OW18280   4.579   2.119   2.287  0.3279  0.2309 -0.5667
 2274SOL    HW118281   4.507   2.056   2.295  1.6672 -1.0627  1.3933
 2274SOL    HW218282   4.627   2.075   2.217  0.9260  0.2862 -0.1955
 2275SOL     OW18283   4.038   3.878  16.087  0.1280 -0.8564 -0.0002
 2275SOL    HW118284   4.112   3.876  16.026 -0.2685 -1.1123 -0.4712
 2275SOL    HW218285   4.012   3.787  16.104 -0.5203 -0.2546  2.2396
 2276SOL     OW18286   3.102   3.352   0.833  0.2121 -0.0610 -0.3290
 2276SOL    HW118287   3.109   3.381   0.742  1.9662 -1.0262 -0.4878
 2276SOL    HW218288   3.128   3.430   0.882 -0.6203  0.4093 -0.6239
 2277SOL     OW18289   3.262   2.308   0.553 -0.1166  0.6851  0.0704
 2277SOL    HW118290   3.272   2.219   0.586  0.1749 -0.0089 -1.8944
 2277SOL    HW218291   3.299   2.362   0.623  1.5506 -0.8471  0.3604
 2278SOL     OW18292   2.807   2.562   2.641 -0.2793  1.0699 -1.0884
 2278SOL    HW118293   2.814   2.612   2.723  2.3915 -2.3029  0.7522
 2278SOL    HW218294   2.809   2.473   2.677  0.2589  1.0934 -1.0601
 2279SOL     OW18295   4.581   2.677   3.171 -0.0752 -0.1885  0.4850
 2279SOL    HW118296   4.649   2.629   3.219 -0.5331 -2.3238 -0.9719
 2279SOL    HW218297   4.503   2.645   3.216  0.8532 -1.6787  1.0341
 2280SOL     OW18298   4.041   1.290   9.421  0.4300  0.3185  0.4721
 2280SOL    HW118299   4.010   1.337   9.343  1.4671 -0.2678 -0.2807
 2280SOL    HW218300   4.023   1.197   9.405  0.5725  0.7580 -2.1977
 2281SOL     OW18301   3.503   4.723   4.233  0.3994  0.2075  0.4448
 2281SOL    HW118302   3.521   4.717   4.140 -2.1513 -0.3130 -0.0113
 2281SOL    HW218303   3.532   4.636   4.261  0.3658  0.0159 -0.1152
 2282SOL     OW18304   3.003   4.452   2.010  0.3621 -0.4669  0.1435
 2282SOL    HW118305   3.069   4.425   1.946  2.0536  1.0349  1.2529
 2282SOL    HW218306   2.970   4.533   1.973  2.0552 -0.7376 -1.9420
 2283SOL     OW18307   2.955   1.956   5.110 -0.3224  0.0287 -0.0022
 2283SOL    HW118308   3.015   2.025   5.139  0.7768 -1.8559  2.1870
 2283SOL    HW218309   2.908   1.996   5.037 -1.4545 -2.1616 -0.4733
 2284SOL     OW18310   2.025   1.937  12.508 -0.1009  0.5281 -0.0718
 2284SOL    HW118311   2.008   1.999  12.437  0.1274  1.9628  1.1185
 2284SOL    HW218312   2.108   1.967  12.545  0.7084 -2.3791  0.4935
 2285SOL     OW18313   3.653   0.418  10.135  0.1840  0.2122 -0.1176
 2285SOL    HW118314   3.596   0.446  10.207 -2.0696  1.1202 -2.2600
 2285SOL    HW218315   3.699   0.498  10.109 -1.9572  1.1099 -1.1408
 2286SOL     OW18316   3.622   4.110   8.600 -0.3300  0.2045 -0.2546
 2286SOL    HW118317   3.687   4.175   8.573  0.2277 -0.3778 -0.3247
 2286SOL    HW218318   3.670   4.027   8.602 -0.5331  0.0219 -2.3265
 2287SOL     OW18319   1.850   1.595  11.171 -0.5653  0.3117  0.1680
 2287SOL    HW118320   1.844   1.633  11.259  0.3395 -0.8483  0.7251
 2287SOL    HW218321   1.785   1.649  11.125  0.2844  0.6639 -0.6091
 2288SOL     OW18322   3.065   1.789   1.494 -0.0057 -0.0396 -0.2084
 2288SOL    HW118323   3.080   1.779   1.588  1.4106  1.8636 -0.2210
 2288SOL    HW218324   3.119   1.722   1.452 -2.1765 -2.0549  0.2415
 2289SOL     OW18325   3.221   0.333   4.092  0.4716  0.1639 -0.0466
 2289SOL    HW118326   3.234   0.239   4.095 -1.9190 -0.1129  1.7137
 2289SOL    HW218327   3.307   0.365   4.120  0.5095  0.0698 -0.0583
 2290SOL     OW18328   1.927   1.185   6.407  0.7692 -0.5293  0.3288
 2290SOL    HW118329   1.931   1.101   6.453  1.0378 -0.2097  0.8887
 2290SOL    HW218330   1.935   1.162   6.314  3.3479 -0.7306  0.5960
 2291SOL     OW18331   0.041   2.938   3.765  0.2197 -0.3484  0.0033
 2291SOL    HW118332   0.069   2.862   3.714 -0.1380  0.2689 -1.1206
 2291SOL    HW218333   0.081   2.999   3.703 -1.2126  0.4034 -0.1794
 2292SOL     OW18334   0.644   1.647  12.716 -0.6445 -0.8009  0.2551
 2292SOL    HW118335   0.664   1.692  12.634  1.2396  0.2685  1.3257
 2292SOL    HW218336   0.728   1.605  12.734 -0.1763 -0.1624 -0.4649
 2293SOL     OW18337   1.172   0.261   2.338 -0.2361 -0.9455 -0.0741
 2293SOL    HW118338   1.230   0.337   2.340  1.1781 -2.0100 -1.0083
 2293SOL    HW218339   1.228   0.197   2.293 -0.3278 -0.6307 -0.6208
 2294SOL     OW18340   2.393   1.804   2.456  0.0964  0.0600  0.2595
 2294SOL    HW118341   2.488   1.808   2.463  0.0449  0.0869  0.9401
 2294SOL    HW218342   2.379   1.755   2.375 -0.0784 -1.8991  1.4678
 2295SOL     OW18343   4.164   1.737   9.331  0.1203  0.8575 -0.1818
 2295SOL    HW118344   4.246   1.698   9.362  0.4318  0.8133 -1.0851
 2295SOL    HW218345   4.180   1.830   9.350 -0.6459  0.5059  2.2184
 2296SOL     OW18346   4.690   3.596   0.504  0.3703  0.0650 -0.3075
 2296SOL    HW118347   4.598   3.595   0.477  0.3302 -2.2061 -0.0691
 2296SOL    HW218348   0.010   3.633   0.427 -1.1053 -0.4458 -1.3910
 2297SOL     OW18349   0.216   4.713   2.356  0.1757 -0.1945 -0.1687
 2297SOL    HW118350   0.299   0.006   2.400  0.5807 -1.4939 -0.4573
 2297SOL    HW218351   0.204   4.618   2.359 -0.1642 -0.1954 -1.3446
 2298SOL     OW18352   1.417   2.408   5.820  0.2870 -0.3469 -0.1762
 2298SOL    HW118353   1.353   2.466   5.860  0.1911 -1.1650  0.8376
 2298SOL    HW218354   1.498   2.457   5.836  0.1579 -1.3201  3.3841
 2299SOL     OW18355   1.124   1.216   9.732  0.2822 -0.0782 -0.3462
 2299SOL    HW118356   1.093   1.209   9.642  1.2011  0.0624 -0.6747
 2299SOL    HW218357   1.046   1.246   9.778  0.1215 -0.2657 -0.4942
 2300SOL     OW18358   4.013   4.510  11.835 -0.4285 -0.0313 -0.7377
 2300SOL    HW118359   3.930   4.552  11.857  0.2055  0.7252  0.2075
 2300SOL    HW218360   4.039   4.478  11.921 -0.6160 -0.7113 -0.9273
 2301SOL     OW18361   4.253   1.768   6.551  0.4344  0.4888  0.0796
 2301SOL    HW118362   4.283   1.857   6.532  0.8192  0.4488  0.4950
 2301SOL    HW218363   4.159   1.781   6.538  0.2355  0.9793  1.9291
 2302SOL     OW18364   4.002   0.855   2.730  0.0034 -0.4777  0.3509
 2302SOL    HW118365   3.973   0.870   2.640 -0.7635  0.1526  0.6981
 2302SOL    HW218366   4.010   0.760   2.729 -2.1565 -0.7090  2.8425
 2303SOL     OW18367   0.535   0.429   4.541 -0.1960  0.3991 -0.2090
 2303SOL    HW118368   0.479   0.506   4.539 -0.8056 -0.0410 -0.3104
 2303SOL    HW218369   0.552   0.416   4.448  0.2043  0.4267 -0.1367
 2304SOL     OW18370   0.355   1.187   7.514 -0.2776 -0.1378 -0.1483
 2304SOL    HW118371   0.336   1.275   7.483  0.6182 -0.2258 -0.9360
 2304SOL    HW218372   0.337   1.142   7.432  0.9066 -0.4219 -0.2540
 2305SOL     OW18373   2.792   1.288   8.096 -0.4200 -0.2506  0.3826
 2305SOL    HW118374   2.865   1.227   8.107  1.0311  1.1366 -1.7000
 2305SOL    HW218375   2.734   1.221   8.059 -2.1067  0.9294  0.8947
 2306SOL     OW18376   4.372   2.411  14.931  0.0655  0.0726  0.5062
 2306SOL    HW118377   4.447   2.407  14.872  0.7170  2.4165  1.1624
 2306SOL    HW218378   4.316   2.333  14.926  0.9601 -0.4257 -1.7531
 2307SOL     OW18379   3.918   4.578   5.077  0.2582 -0.0597  1.0055
 2307SOL    HW118380   3.961   4.637   5.014  0.3060 -2.2335 -1.0147
 2307SOL    HW218381   3.833   4.566   5.035  0.3836 -2.6951  1.4884
 2308SOL     OW18382   3.580   1.992  14.834 -0.0910  0.4750  0.4223
 2308SOL    HW118383   3.513   2.050  14.870 -0.7497  0.9382 -1.5605
 2308SOL    HW218384   3.647   1.995  14.902  1.2855  3.1010 -1.0416
 2309SOL     OW18385   4.060   2.812  14.991  0.4609  0.0669 -0.3027
 2309SOL    HW118386   4.113   2.745  14.947  0.3300  0.1022 -0.5125
 2309SOL    HW218387   4.041   2.770  15.075 -1.3896  0.4751 -0.5112
 2310SOL     OW18388   3.724   1.117   4.764  0.1545 -0.0355 -0.5794
 2310SOL    HW118389   3.672   1.152   4.837 -2.5104 -0.3024 -2.3354
 2310SOL    HW218390   3.691   1.027   4.763 -0.4189  0.1296  2.2884
 2311SOL     OW18391   1.408   4.470   9.485  0.6860 -0.4425  0.4647
 2311SOL    HW118392   1.484   4.474   9.544  1.7441 -0.9932 -0.8677
 2311SOL    HW218393   1.389   4.376   9.484  2.6554 -0.8451 -0.9040
 2312SOL     OW18394   2.623   2.459   1.687  0.0669  0.1063  0.1632
 2312SOL    HW118395   2.628   2.403   1.610 -0.9221 -0.3123  0.3987
 2312SOL    HW218396   2.714   2.452   1.715 -0.2445  0.2295  1.2170
 2313SOL     OW18397   3.271   2.206   5.876  0.1134 -0.3903 -0.4858
 2313SOL    HW118398   3.333   2.184   5.806  0.1303  0.2562 -0.6764
 2313SOL    HW218399   3.195   2.241   5.829  0.3615 -2.1897 -2.2476
 2314SOL     OW18400   4.380   0.987   5.576 -0.3643  0.4676  0.4276
 2314SOL    HW118401   4.313   0.925   5.549  0.8495 -0.5059 -0.3577
 2314SOL    HW218402   4.371   1.052   5.506  2.1581  0.2623 -0.0891
 2315SOL     OW18403   1.370   0.108  11.773 -0.1103 -0.0480 -0.5739
 2315SOL    HW118404   1.368   0.179  11.709  1.3251  1.3285  0.9023
 2315SOL    HW218405   1.335   0.034  11.725  0.0263 -0.5713  0.1373
 2316SOL     OW18406   2.917   2.155   8.474  0.1486  0.5547 -0.1479
 2316SOL    HW118407   2.916   2.190   8.563 -0.9034 -2.6552  1.1032
 2316SOL    HW218408   2.934   2.062   8.486  1.0744  0.5451 -1.5399
 2317SOL     OW18409   2.567   3.148  13.278 -0.0506  0.2586 -0.1316
 2317SOL    HW118410   2.563   3.148  13.373 -0.5706 -1.8451 -0.1524
 2317SOL    HW218411   2.634   3.216  13.269 -0.2255  0.2859 -1.2846
 2318SOL     OW18412   4.616   0.750   3.316 -0.3661  0.1105 -0.6085
 2318SOL    HW118413   4.670   0.800   3.254 -2.0316 -0.6189 -2.6402
 2318SOL    HW218414   4.603   0.677   3.255 -0.4150 -0.5999  0.2452
 2319SOL     OW18415   4.636   3.603   7.355  0.2267  0.6473  0.0889
 2319SOL    HW118416   4.566   3.634   7.298 -0.5083  1.2716  1.3277
 2319SOL    HW218417   4.590   3.527   7.392  0.4614 -0.0019 -0.9481
 2320SOL     OW18418   0.590   2.660   6.273 -0.2181 -0.0316 -0.0728
 2320SOL    HW118419   0.626   2.639   6.359 -0.6559 -1.3656 -0.2102
 2320SOL    HW218420   0.520   2.722   6.291  0.0694  0.2074  0.2309
 2321SOL     OW18421   1.651   2.902   5.443  0.7837  0.1548  0.3828
 2321SOL    HW118422   1.597   2.911   5.364  0.2485 -0.2702  0.7044
 2321SOL    HW218423   1.711   2.976   5.433 -0.0116  0.6285 -0.9693
 2322SOL     OW18424   0.926   1.118  13.008 -0.4659  0.6404  0.5319
 2322SOL    HW118425   0.912   1.050  13.075 -2.7915  0.2810 -0.3156
 2322SOL    HW218426   0.963   1.068  12.935  0.3780 -0.1605  1.4947
 2323SOL     OW18427   1.449   1.404   0.867 -0.3228  0.4208 -0.2502
 2323SOL    HW118428   1.387   1.363   0.807 -0.4165  1.4618 -0.8582
 2323SOL    HW218429   1.399   1.463   0.925  0.8976 -1.5204  2.7363
 2324SOL     OW18430   2.140   1.263   0.982  0.3702  0.0691  0.1320
 2324SOL    HW118431   2.168   1.251   0.891 -0.8654 -0.5780 -0.1521
 2324SOL    HW218432   2.062   1.208   0.983 -0.4394  1.2550  0.8144
 2325SOL     OW18433   3.854   0.192  13.259 -0.5619  0.2824  0.8093
 2325SOL    HW118434   3.790   0.263  13.258 -0.7187  0.0589 -2.6147
 2325SOL    HW218435   3.837   0.178  13.166 -0.1713 -1.4203  0.9945
 2326SOL     OW18436   0.536   3.297   7.994  0.3417 -0.9526  0.2212
 2326SOL    HW118437   0.570   3.292   8.083  1.5693  2.0373 -0.0622
 2326SOL    HW218438   0.469   3.366   7.996  0.3634 -0.9221 -0.0241
 2327SOL     OW18439   1.451   4.302   5.012 -0.0897 -0.4530  0.0839
 2327SOL    HW118440   1.519   4.241   4.985  1.0716  1.6627 -1.7091
 2327SOL    HW218441   1.507   4.374   5.043 -0.4424  0.2095 -0.8196
 2328SOL     OW18442   1.125   4.251   3.187  0.0079  0.7329 -0.1582
 2328SOL    HW118443   1.191   4.292   3.243 -0.1347  1.9281 -0.8477
 2328SOL    HW218444   1.101   4.179   3.244 -2.6868  0.9833 -0.9530
 2329SOL     OW18445   0.593   1.960   2.385  0.0079 -0.1808  0.6045
 2329SOL    HW118446   0.649   1.944   2.461  0.6763 -1.4554 -0.1546
 2329SOL    HW218447   0.625   2.043   2.350 -0.9340 -0.1486 -0.1694
 2330SOL     OW18448   0.290   0.440   7.990  0.0734  0.0165  0.3282
 2330SOL    HW118449   0.327   0.528   7.988  0.8967 -0.3208  0.5413
 2330SOL    HW218450   0.281   0.421   8.084 -1.2737 -0.5848  0.0703
 2331SOL     OW18451   4.408   2.401   8.188 -0.2877 -0.2806  0.7831
 2331SOL    HW118452   4.466   2.459   8.237 -3.7718  2.8444  1.2133
 2331SOL    HW218453   4.442   2.320   8.226 -7.1135 -2.8081  1.4994
 2332SOL     OW18454   2.165   0.664   5.423 -0.5775 -0.3528  0.3412
 2332SOL    HW118455   2.146   0.739   5.367 -1.2115 -1.6898 -1.2426
 2332SOL    HW218456   2.173   0.710   5.507  0.3324 -0.0471  0.0848
 2333SOL     OW18457   3.422   0.484  16.781  0.5662  0.0145 -0.6696
 2333SOL    HW118458   3.338   0.485  16.827  0.0939 -0.9367 -1.5234
 2333SOL    HW218459   3.445   0.394  16.803 -0.6750 -0.1956 -0.2240
 2334SOL     OW18460   3.239   2.383  13.933  0.3795  0.6285 -0.1886
 2334SOL    HW118461   3.144   2.389  13.924  0.0944 -0.2469  2.0908
 2334SOL    HW218462   3.242   2.344  14.021 -0.7661  0.5162 -0.1918
 2335SOL     OW18463   2.353   0.291   5.195  0.4347 -0.3321 -0.0257
 2335SOL    HW118464   2.263   0.306   5.225  0.9262  0.4529  1.0672
 2335SOL    HW218465   2.407   0.370   5.200 -3.0299  1.8675  2.6898
 2336SOL     OW18466   2.613   1.087   3.343 -0.0659  0.6614 -0.1488
 2336SOL    HW118467   2.670   1.146   3.394 -0.0814  2.2022 -1.9235
 2336SOL    HW218468   2.683   1.028   3.314  0.8169  0.1136  2.9807
 2337SOL     OW18469   4.500   4.631  10.475 -0.1782 -0.0762 -0.4286
 2337SOL    HW118470   4.449   4.690  10.531  0.7586 -0.5958  0.9568
 2337SOL    HW218471   4.450   4.643  10.394  0.5826 -0.6591 -0.9766
 2338SOL     OW18472   0.552   2.132  17.569  0.2074 -0.3494  0.0188
 2338SOL    HW118473   0.550   2.217  17.613 -1.5181 -0.8389  0.8503
 2338SOL    HW218474   0.610   2.081  17.625  0.8677  0.9539  0.5191
 2339SOL     OW18475   4.592   0.573  15.911  0.1501  0.1147 -0.7995
 2339SOL    HW118476   4.541   0.610  15.839  0.3521  0.6584 -0.6649
 2339SOL    HW218477   4.592   0.484  15.876  2.0522  0.5389 -1.9257
 2340SOL     OW18478   3.187   3.683   8.374  0.5617 -0.5958 -0.5586
 2340SOL    HW118479   3.101   3.670   8.335 -0.4329  1.2422  1.0067
 2340SOL    HW218480   3.166   3.722   8.459 -0.9934 -1.9604 -0.3324
 2341SOL     OW18481   3.046   3.276   1.119  0.7264  0.2198 -0.6243
 2341SOL    HW118482   3.066   3.185   1.096  0.9426  0.2243 -0.4484
 2341SOL    HW218483   3.030   3.310   1.031 -2.7940 -0.5256 -0.2882
 2342SOL     OW18484   4.535   2.910  11.673 -0.0280 -0.3330  0.3385
 2342SOL    HW118485   4.453   2.956  11.655  0.3372 -0.2489 -1.0612
 2342SOL    HW218486   4.509   2.845  11.739  0.6315  0.5705  1.4883
 2343SOL     OW18487   0.805   3.826  17.198  0.2515  0.1310 -0.4206
 2343SOL    HW118488   0.744   3.822  17.272 -1.4933  0.1008 -1.8752
 2343SOL    HW218489   0.763   3.755  17.149 -0.9964  0.1268  0.6697
 2344SOL     OW18490   2.042   1.622   1.572  0.3496 -0.1758 -0.0379
 2344SOL    HW118491   1.957   1.658   1.548 -1.4813 -2.4798  2.8415
 2344SOL    HW218492   2.074   1.709   1.594  1.1042 -0.4173 -0.1808
 2345SOL     OW18493   0.832   3.435   8.475 -0.3127  0.0931  0.6785
 2345SOL    HW118494   0.869   3.504   8.529  0.0039  2.8334 -2.9897
 2345SOL    HW218495   0.894   3.364   8.487  0.4633  0.3237 -1.8194
 2346SOL     OW18496   0.751   3.893   6.285 -0.3316  0.0543 -0.1858
 2346SOL    HW118497   0.757   3.968   6.226 -0.2101  1.6719  1.8800
 2346SOL    HW218498   0.779   3.823   6.226  1.6845  1.1335 -0.5038
 2347SOL     OW18499   1.943   0.024   9.273 -0.1311 -0.5143  0.1396
 2347SOL    HW118500   2.008   0.094   9.269  0.5020 -0.9518  2.9412
 2347SOL    HW218501   1.983   4.689   9.209  2.4953  0.6079  0.7599
 2348SOL     OW18502   3.420   3.984   3.523  0.5612  0.8425 -0.4449
 2348SOL    HW118503   3.334   3.977   3.564  0.8757 -1.6994 -0.2317
 2348SOL    HW218504   3.458   4.052   3.579 -1.3371  0.5543  1.1695
 2349SOL     OW18505   0.557   3.153   9.470 -0.0549  0.0797 -0.6254
 2349SOL    HW118506   0.536   3.229   9.416  0.2427  1.6242  1.4093
 2349SOL    HW218507   0.477   3.130   9.517 -0.1643 -1.4183 -1.5423
 2350SOL     OW18508   3.010   1.141   8.153  0.5335  0.3415 -0.5583
 2350SOL    HW118509   3.082   1.172   8.098 -0.9028 -1.1536 -3.2994
 2350SOL    HW218510   3.052   1.067   8.197 -0.5107  0.1200  0.0650
 2351SOL     OW18511   1.376   2.805   2.534 -0.4453  0.2298  0.0917
 2351SOL    HW118512   1.446   2.799   2.598  0.6754 -0.8948 -1.2348
 2351SOL    HW218513   1.361   2.713   2.511  0.9143 -0.1334  0.6420
 2352SOL     OW18514   2.796   0.653   4.690 -0.3329 -0.0886 -0.1995
 2352SOL    HW118515   2.862   0.712   4.654  1.4561 -0.7432  1.9828
 2352SOL    HW218516   2.811   0.581   4.628 -1.8468  0.9143 -1.7321
 2353SOL     OW18517   0.847   3.589  16.844  0.0648 -0.1679 -0.0202
 2353SOL    HW118518   0.921   3.529  16.847 -0.3682 -0.7765 -1.4465
 2353SOL    HW218519   0.811   3.584  16.933 -2.0963 -1.6047 -0.9648
 2354SOL     OW18520   0.434   2.185  13.747 -0.6745  0.0445  0.3157
 2354SOL    HW118521   0.527   2.194  13.724 -0.8895  0.2645 -0.4837
 2354SOL    HW218522   0.391   2.184  13.661 -1.1405 -0.0060  0.5540
 2355SOL     OW18523   1.873   1.569   7.951 -0.6068 -0.3855  0.2277
 2355SOL    HW118524   1.939   1.562   8.020 -0.0594 -0.4272 -0.3030
 2355SOL    HW218525   1.801   1.521   7.992 -0.3057  0.4407  1.7610
 2356SOL     OW18526   0.979   0.593  14.850 -0.0087  0.2654  0.5978
 2356SOL    HW118527   0.957   0.503  14.872 -1.1113 -0.0444 -1.7138
 2356SOL    HW218528   0.983   0.588  14.755  0.2639 -0.7308  0.6684
 2357SOL     OW18529   3.541   1.138  12.016 -0.5526  0.2155  0.3876
 2357SOL    HW118530   3.477   1.209  12.021  0.2331  0.8164  1.5851
 2357SOL    HW218531   3.601   1.166  11.947 -0.2997  1.1545  0.9923
 2358SOL     OW18532   1.333   4.692  13.681  0.2180 -0.0381 -0.6147
 2358SOL    HW118533   1.420   0.007  13.683 -0.5838  1.6456  0.8836
 2358SOL    HW218534   1.354   4.602  13.653  0.5808 -0.3674  0.7145
 2359SOL     OW18535   1.822   3.893   9.281 -0.1139 -0.3803 -0.6766
 2359SOL    HW118536   1.755   3.861   9.342 -1.8658 -0.0804 -2.4373
 2359SOL    HW218537   1.888   3.824   9.286 -1.4218 -1.6470 -0.8908
 2360SOL     OW18538   4.467   3.318   7.889  0.2792 -0.2839 -0.2077
 2360SOL    HW118539   4.405   3.384   7.920  0.8389  0.5620 -0.8786
 2360SOL    HW218540   4.455   3.245   7.949  2.3770  1.2992  2.0970
 2361SOL     OW18541   0.987   3.688  14.778 -0.2629  0.3585  0.6934
 2361SOL    HW118542   0.969   3.649  14.693  0.7548 -2.5238  1.8205
 2361SOL    HW218543   1.061   3.747  14.765  1.0359 -1.2229  1.0194
 2362SOL     OW18544   3.034   3.012   1.323 -0.1552 -0.2141 -0.5547
 2362SOL    HW118545   3.104   3.022   1.387 -0.7007  1.5110 -0.2406
 2362SOL    HW218546   2.976   2.950   1.367 -0.4750  0.3306 -0.2184
 2363SOL     OW18547   2.700   2.506   8.813 -0.3196  1.0125 -0.3011
 2363SOL    HW118548   2.652   2.444   8.868 -0.6328 -0.6626 -2.4220
 2363SOL    HW218549   2.664   2.498   8.724 -1.0800 -0.1631  0.1003
 2364SOL     OW18550   2.993   0.112   4.884  0.2980 -0.1265  0.6002
 2364SOL    HW118551   3.056   0.171   4.842  0.7530  0.4643  2.0755
 2364SOL    HW218552   2.912   0.147   4.849 -1.0507  0.3267  4.1224
 2365SOL     OW18553   0.931   0.941  14.097 -0.1596 -0.4074  0.0273
 2365SOL    HW118554   0.998   1.003  14.066  0.3615  0.2101  2.3954
 2365SOL    HW218555   0.886   0.921  14.015 -0.8121 -1.8699  0.7464
 2366SOL     OW18556   2.000   4.673   7.768  0.2275  0.3605 -0.2717
 2366SOL    HW118557   2.059   4.692   7.842  0.2158 -2.4712  0.4514
 2366SOL    HW218558   1.939   0.024   7.763 -1.5755 -1.1077  0.0590
 2367SOL     OW18559   4.211   3.130   6.811 -0.2080  0.4613 -0.0874
 2367SOL    HW118560   4.221   3.079   6.731  1.3350 -0.0266  0.4174
 2367SOL    HW218561   4.298   3.156   6.842  0.3607  0.0429 -1.3687
 2368SOL     OW18562   4.418   1.115   7.821 -0.1360 -0.5746  0.0242
 2368SOL    HW118563   4.359   1.101   7.895  0.8191  0.2617  0.9593
 2368SOL    HW218564   4.480   1.044   7.839  1.3861  0.7144 -0.0252
 2369SOL     OW18565   1.871   2.216  12.478  0.4556  0.4772 -0.0455
 2369SOL    HW118566   1.847   2.190  12.567  1.4554 -1.1202 -0.2440
 2369SOL    HW218567   1.819   2.295  12.464  0.8550  1.0213  1.4679
 2370SOL     OW18568   1.802   3.694  16.848 -0.2870 -0.2302  0.0797
 2370SOL    HW118569   1.715   3.663  16.824 -0.4018 -1.0293  1.5511
 2370SOL    HW218570   1.856   3.649  16.784 -3.7733  0.3478 -3.2694
 2371SOL     OW18571   2.676   2.206   6.832  0.1330  0.0483 -0.3885
 2371SOL    HW118572   2.758   2.168   6.864 -1.2741 -1.8268  0.9774
 2371SOL    HW218573   2.711   2.286   6.793  1.7881 -0.4732  0.0336
 2372SOL     OW18574   0.817   2.516  14.672  0.6838 -0.0622 -0.4218
 2372SOL    HW118575   0.803   2.483  14.583  3.0151 -0.7211 -0.5423
 2372SOL    HW218576   0.745   2.481  14.724  2.3840  1.4607  3.0374
 2373SOL     OW18577   4.549   3.650   9.068  0.7322 -0.1876 -0.0854
 2373SOL    HW118578   4.487   3.647   9.141  2.1541 -0.5177  1.1313
 2373SOL    HW218579   4.585   3.738   9.076  0.7233 -0.2611  0.8212
 2374SOL     OW18580   1.659   0.820   1.268 -0.3259  0.0602  0.8980
 2374SOL    HW118581   1.734   0.835   1.211 -1.9470  1.6629 -0.8064
 2374SOL    HW218582   1.645   0.909   1.300 -0.4277 -0.6472  2.8431
 2375SOL     OW18583   3.334   1.726   5.943 -0.1815 -0.1655 -0.4304
 2375SOL    HW118584   3.422   1.740   5.907 -0.7939 -1.4368 -2.4109
 2375SOL    HW218585   3.289   1.702   5.862  0.5598  2.5750 -1.6614
 2376SOL     OW18586   0.633   2.017   5.087 -0.2602 -0.4103 -0.3727
 2376SOL    HW118587   0.676   2.091   5.045  2.0770 -2.4890 -1.5992
 2376SOL    HW218588   0.628   1.960   5.011 -2.0565 -1.3234  0.4243
 2377SOL     OW18589   3.024   1.906   6.542  0.0718 -0.3213  0.1633
 2377SOL    HW118590   2.998   1.906   6.450  0.2489  1.7142  0.1111
 2377SOL    HW218591   3.119   1.910   6.526  0.2037  1.5209  1.3792
 2378SOL     OW18592   1.225   2.434  13.871 -0.3004  0.5138 -0.2456
 2378SOL    HW118593   1.277   2.372  13.820  0.6605  0.8213  0.3674
 2378SOL    HW218594   1.296   2.492  13.897 -0.7695  2.2037 -2.8212
 2379SOL     OW18595   0.691   4.046   0.521 -0.2851 -0.0707 -0.3094
 2379SOL    HW118596   0.705   4.087   0.607 -0.9462  0.4170 -0.4292
 2379SOL    HW218597   0.753   3.974   0.535 -0.0395  0.1915 -0.0355
 2380SOL     OW18598   3.319   1.261   3.419  0.5175  0.5645 -0.1446
 2380SOL    HW118599   3.355   1.295   3.501 -0.7535  0.3180  0.5134
 2380SOL    HW218600   3.260   1.333   3.399  0.4420  1.3523  2.9201
 2381SOL     OW18601   2.210   3.336  17.519 -0.2387 -0.0614 -0.6256
 2381SOL    HW118602   2.215   3.289  17.436 -1.2715 -0.6023 -0.3829
 2381SOL    HW218603   2.208   3.428  17.491 -3.8519 -0.0600 -0.4341
 2382SOL     OW18604   3.478   2.831   3.195  0.0989  0.1099  0.1158
 2382SOL    HW118605   3.483   2.926   3.185 -3.5654  0.1735 -1.1756
 2382SOL    HW218606   3.541   2.826   3.267  1.3365 -0.7069 -1.0273
 2383SOL     OW18607   3.535   1.974   4.362  0.4235 -0.4893 -0.2436
 2383SOL    HW118608   3.461   2.016   4.405  0.0659  0.8316 -2.1618
 2383SOL    HW218609   3.535   2.021   4.278  0.0666 -0.3105 -0.1430
 2384SOL     OW18610   1.532   2.651   9.204 -0.2727 -0.4968 -0.7520
 2384SOL    HW118611   1.589   2.699   9.265 -0.3816 -2.8677  1.1883
 2384SOL    HW218612   1.517   2.717   9.136 -0.7302 -1.8039 -1.9074
 2385SOL     OW18613   0.086   2.041   4.190 -0.2854  0.5377 -0.3677
 2385SOL    HW118614   0.129   2.042   4.276 -1.2317 -0.3485  0.1172
 2385SOL    HW218615   4.719   2.018   4.210  0.3652 -1.4232  0.2649
 2386SOL     OW18616   3.811   4.650   4.591 -0.1225  0.3240 -0.0229
 2386SOL    HW118617   3.799   4.589   4.664  2.1057 -0.4434 -0.2981
 2386SOL    HW218618   3.905   4.639   4.582  0.1369  2.0728  0.6041
 2387SOL     OW18619   2.530   4.706   8.947 -0.3397 -0.1291 -0.0242
 2387SOL    HW118620   2.503   4.650   9.019  2.5121 -1.1455  0.2483
 2387SOL    HW218621   2.482   4.665   8.875  0.2592 -2.6919  1.0487
 2388SOL     OW18622   0.847   0.630   5.674 -0.0414 -0.6303 -0.2323
 2388SOL    HW118623   0.793   0.558   5.705  0.0598 -1.1265 -1.2110
 2388SOL    HW218624   0.798   0.698   5.720  1.3078  1.2877 -1.6305
 2389SOL     OW18625   4.370   3.007   3.496 -0.2460 -0.0351 -0.4722
 2389SOL    HW118626   4.451   2.974   3.458 -0.3296  2.7258 -3.0506
 2389SOL    HW218627   4.394   3.085   3.546 -0.5571  0.0199 -0.4070
 2390SOL     OW18628   3.781   0.890  17.329  0.3765 -0.5691 -0.1474
 2390SOL    HW118629   3.738   0.939  17.399 -1.8020 -1.4647 -0.8637
 2390SOL    HW218630   3.707   0.881  17.268  0.4057  1.8201 -0.5682
 2391SOL     OW18631   4.001   0.746  17.006  0.0434  0.2957 -0.2431
 2391SOL    HW118632   3.965   0.826  17.045 -1.3773  0.5879 -2.1989
 2391SOL    HW218633   4.093   0.774  16.997 -0.4189  1.9183 -0.0344
 2392SOL     OW18634   1.567   0.080   9.527  0.5164  0.5621 -0.1214
 2392SOL    HW118635   1.526   0.167   9.523  2.1297  1.3050 -0.4613
 2392SOL    HW218636   1.514   0.044   9.456  1.0865  1.3286 -0.9356
 2393SOL     OW18637   2.413   2.401   5.181 -0.4855 -0.3087 -0.1176
 2393SOL    HW118638   2.332   2.427   5.138 -0.4667  0.4371  0.2842
 2393SOL    HW218639   2.378   2.403   5.271  1.9497  1.8221  0.7759
 2394SOL     OW18640   0.748   2.836   6.689 -0.0616  0.0946  0.7658
 2394SOL    HW118641   0.685   2.849   6.760 -1.9912  1.5014 -1.2041
 2394SOL    HW218642   0.755   2.930   6.673 -1.6209 -0.0341 -0.7471
 2395SOL     OW18643   3.529   3.551  13.390 -0.1247  0.1508  0.1204
 2395SOL    HW118644   3.591   3.507  13.331 -1.1483 -2.0756  0.7069
 2395SOL    HW218645   3.508   3.623  13.331  0.1044 -0.3256 -0.5475
 2396SOL     OW18646   1.053   3.853   5.073 -0.4219 -0.1133 -0.3001
 2396SOL    HW118647   1.104   3.792   5.019  1.0108  2.3719 -1.7669
 2396SOL    HW218648   1.036   3.797   5.148  0.4006 -0.2234 -0.1889
 2397SOL     OW18649   4.589   0.006   6.375 -0.1211 -0.5447 -0.3605
 2397SOL    HW118650   4.528   4.684   6.432  1.6107 -1.8061  0.4862
 2397SOL    HW218651   4.581   0.096   6.407  2.8143 -0.1767 -0.6164
 2398SOL     OW18652   1.662   1.195  15.972  0.0811 -0.1614 -0.4255
 2398SOL    HW118653   1.631   1.270  15.920 -1.1398 -1.0540 -0.9817
 2398SOL    HW218654   1.591   1.133  15.957 -0.2069  0.3225 -1.0820
 2399SOL     OW18655   3.901   4.653   9.753  0.3923  0.4812  0.3818
 2399SOL    HW118656   3.853   4.588   9.804 -0.2189  1.1597  0.6615
 2399SOL    HW218657   3.835   4.697   9.700 -0.2667 -1.0390 -0.0734
 2400SOL     OW18658   3.706   3.520   4.735 -0.4876 -0.6749 -0.0298
 2400SOL    HW118659   3.668   3.450   4.789 -1.6740  1.2954  1.6719
 2400SOL    HW218660   3.726   3.581   4.806 -2.0539  0.8328 -0.9231
 2401SOL     OW18661   3.851   1.123   9.073 -0.2398  0.8113  0.3948
 2401SOL    HW118662   3.909   1.102   9.000  0.6741  1.4066  0.9479
 2401SOL    HW218663   3.879   1.211   9.101  1.2931  1.2186 -2.4945
 2402SOL     OW18664   4.508   1.121   9.520 -0.4744 -0.1802  0.2165
 2402SOL    HW118665   4.477   1.198   9.473  0.8731 -0.5089 -1.2138
 2402SOL    HW218666   4.580   1.170   9.560  0.1490 -0.9888  0.0769
 2403SOL     OW18667   0.746   4.492   0.670 -0.3097  0.8126 -0.4303
 2403SOL    HW118668   0.778   4.413   0.625 -0.2997  0.8257 -0.4460
 2403SOL    HW218669   0.825   4.532   0.707 -0.4131  0.5893  0.0283
 2404SOL     OW18670   0.316   0.862   7.429 -0.0418  0.1429 -0.6565
 2404SOL    HW118671   0.239   0.889   7.379  0.1072 -2.6015 -2.3532
 2404SOL    HW218672   0.296   0.769   7.443  2.6781 -0.3893 -0.4156
 2405SOL     OW18673   1.038   1.235   9.444  0.2513 -0.4028  0.3109
 2405SOL    HW118674   1.101   1.258   9.375 -0.0111 -0.6914 -0.0254
 2405SOL    HW218675   0.988   1.316   9.445 -0.9669 -1.1394 -0.8492
 2406SOL     OW18676   0.940   3.371   8.751  0.1345 -0.0478 -0.5338
 2406SOL    HW118677   0.863   3.324   8.783  1.1529 -1.2487  0.1584
 2406SOL    HW218678   0.994   3.299   8.719  0.6710  0.5250 -0.9054
 2407SOL     OW18679   3.455   0.606  12.691  0.0418 -0.1467  0.4272
 2407SOL    HW118680   3.497   0.576  12.610  0.8380 -2.2784  1.6233
 2407SOL    HW218681   3.491   0.695  12.699  0.0942 -0.0108 -1.5058
 2408SOL     OW18682   1.217   0.780  13.951  0.1176 -0.1328  0.9036
 2408SOL    HW118683   1.243   0.837  14.024  0.5643  1.5866 -0.5877
 2408SOL    HW218684   1.211   0.849  13.884 -1.4358 -0.7907  0.3760
 2409SOL     OW18685   0.002   1.147   8.131  0.1527  0.2517 -0.1283
 2409SOL    HW118686   0.028   1.100   8.052 -1.7173  0.0180 -0.6117
 2409SOL    HW218687   4.714   1.079   8.198 -0.9043  2.4640  1.9276
 2410SOL     OW18688   1.717   0.091   4.127  0.1948  0.0864  0.0298
 2410SOL    HW118689   1.747   0.012   4.082  0.7950  0.0559  0.4863
 2410SOL    HW218690   1.648   0.119   4.067  2.5229  2.3378 -1.6101
 2411SOL     OW18691   4.287   2.588   6.723 -0.0773  0.2035 -0.5910
 2411SOL    HW118692   4.258   2.601   6.632 -1.1491  0.8645 -0.1673
 2411SOL    HW218693   4.321   2.500   6.709  0.3384  0.0487  1.3743
 2412SOL     OW18694   2.213   3.001   3.823 -0.1532  0.5070 -0.2050
 2412SOL    HW118695   2.283   2.937   3.813  0.0117  0.3684  2.0412
 2412SOL    HW218696   2.213   3.036   3.733 -2.3435  0.8185 -0.0934
 2413SOL     OW18697   2.934   1.715   7.867  0.3461 -0.1772 -0.9027
 2413SOL    HW118698   2.938   1.662   7.947  0.5332 -2.0874 -2.1941
 2413SOL    HW218699   2.869   1.666   7.817 -0.8680 -0.7452  1.2361
 2414SOL     OW18700   3.670   1.602   8.762  0.4812  0.0015  0.5087
 2414SOL    HW118701   3.726   1.565   8.830 -0.2340  0.2436  1.2261
 2414SOL    HW218702   3.605   1.643   8.819 -1.2601 -0.5645 -1.0752
 2415SOL     OW18703   0.872   0.711  15.584 -0.2027 -0.6093 -0.0864
 2415SOL    HW118704   0.927   0.782  15.551  1.8763 -2.3606 -0.4407
 2415SOL    HW218705   0.788   0.734  15.545  0.3431  0.9220 -0.3257
 2416SOL     OW18706   4.722   2.681   4.332  0.0599  0.7588  0.2100
 2416SOL    HW118707   4.711   2.647   4.243  0.2421  0.5570  0.2651
 2416SOL    HW218708   4.630   2.700   4.351 -1.5992 -3.4789 -3.4656
 2417SOL     OW18709   4.156   2.093   2.636 -0.0474 -0.0967  0.1013
 2417SOL    HW118710   4.194   2.171   2.596  0.7114 -1.0979 -1.1175
 2417SOL    HW218711   4.230   2.034   2.618 -2.1611 -3.5621  2.6742
 2418SOL     OW18712   3.536   0.767  16.037  0.3880  0.0615 -0.8425
 2418SOL    HW118713   3.575   0.854  16.041  1.4334 -0.4286 -0.5616
 2418SOL    HW218714   3.444   0.794  16.033  0.4422  0.1687 -1.3841
 2419SOL     OW18715   2.309   3.780   9.848 -0.1160 -0.0460 -0.2126
 2419SOL    HW118716   2.395   3.740   9.866  0.5852  2.1920  1.3376
 2419SOL    HW218717   2.328   3.870   9.823  0.9639 -0.6542 -1.6364
 2420SOL     OW18718   0.279   0.501   2.651  0.2744 -0.0602 -0.4271
 2420SOL    HW118719   0.346   0.452   2.602  0.0088 -0.6066 -0.2437
 2420SOL    HW218720   0.290   0.581   2.599  2.7047  0.0224  0.2119
 2421SOL     OW18721   1.022   1.990  17.342 -0.5994 -0.1150 -0.2684
 2421SOL    HW118722   0.932   2.022  17.341 -0.9051 -0.9598  0.4799
 2421SOL    HW218723   1.045   2.053  17.410 -1.6892 -0.8741  0.8083
 2422SOL     OW18724   1.616   1.572   8.388 -0.3556  0.0332  0.0636
 2422SOL    HW118725   1.706   1.547   8.410 -1.0181 -1.1360  1.4236
 2422SOL    HW218726   1.633   1.614   8.303  0.3660  0.3770  0.3749
 2423SOL     OW18727   2.469   2.879   0.785 -0.2484  0.2000  0.5277
 2423SOL    HW118728   2.487   2.973   0.793  1.7664 -0.2851  1.7346
 2423SOL    HW218729   2.502   2.844   0.867 -0.2224 -1.3548 -0.1505
 2424SOL     OW18730   0.750   3.105   8.679  0.4993  0.2402 -0.1903
 2424SOL    HW118731   0.796   3.137   8.602  1.3944 -0.4945  0.0257
 2424SOL    HW218732   0.820   3.044   8.703  1.2449  0.9710 -0.5349
 2425SOL     OW18733   3.619   2.613   1.187 -0.3077  1.2054 -0.3311
 2425SOL    HW118734   3.697   2.615   1.132 -0.6766  2.0312 -0.8052
 2425SOL    HW218735   3.605   2.702   1.219  2.9697  1.5889  0.0951
 2426SOL     OW18736   4.056   4.677   2.945 -0.3149 -0.5800 -0.8341
 2426SOL    HW118737   3.962   4.692   2.933 -0.4872 -0.9944 -0.0013
 2426SOL    HW218738   4.077   0.019   3.011 -1.4218 -0.8681 -0.2011
 2427SOL     OW18739   0.385   1.415   0.706  0.6937  0.1744 -0.0644
 2427SOL    HW118740   0.292   1.436   0.694  0.8946  1.1420  0.0593
 2427SOL    HW218741   0.425   1.497   0.735 -0.3807  0.3120  1.0327
 2428SOL     OW18742   2.989   2.346   4.553  0.1318  1.0619  0.3850
 2428SOL    HW118743   2.931   2.270   4.556 -1.9289  2.4711 -3.0335
 2428SOL    HW218744   2.944   2.409   4.609 -0.2465  1.3645 -0.2623
 2429SOL     OW18745   0.760   2.420  16.311  0.0683 -0.1439  0.3084
 2429SOL    HW118746   0.818   2.347  16.287  0.5324 -0.4459  2.3506
 2429SOL    HW218747   0.682   2.370  16.334  0.5152 -0.8790  0.2537
 2430SOL     OW18748   0.267   0.695   7.733 -0.3687 -0.0626 -0.5551
 2430SOL    HW118749   0.323   0.623   7.703 -2.0655 -1.2952 -0.7147
 2430SOL    HW218750   0.328   0.740   7.792 -1.2430  0.4271 -0.0205
 2431SOL     OW18751   3.313   3.864   1.928  0.9194  0.2349 -0.7109
 2431SOL    HW118752   3.325   3.769   1.932 -0.6735  0.0995  0.8338
 2431SOL    HW218753   3.285   3.874   2.019  0.6737 -2.0558 -0.5396
 2432SOL     OW18754   2.991   2.845  11.397 -0.1536 -0.2994 -0.1420
 2432SOL    HW118755   2.974   2.937  11.416 -0.4494 -0.5470  0.7893
 2432SOL    HW218756   2.903   2.811  11.380  0.1268 -0.2357 -1.7705
 2433SOL     OW18757   4.238   0.811  17.378 -0.1368 -0.1523  0.8334
 2433SOL    HW118758   4.238   0.888  17.321  1.1240 -2.2284 -1.9458
 2433SOL    HW218759   4.325   0.813  17.416 -0.6573 -1.6257  2.1274
 2434SOL     OW18760   1.419   3.935   4.983  0.6061 -0.3995 -0.4411
 2434SOL    HW118761   1.342   3.880   5.000 -0.6214  1.5675  0.3925
 2434SOL    HW218762   1.446   3.958   5.072  2.0097 -1.0084 -0.7135
 2435SOL     OW18763   2.579   2.324   7.148 -0.5112  0.1343  0.0154
 2435SOL    HW118764   2.522   2.320   7.071  0.7825  0.2714 -0.9509
 2435SOL    HW218765   2.651   2.381   7.122  0.2560 -0.6864  0.3241
 2436SOL     OW18766   2.733   0.832   7.204  0.1342 -0.3880 -0.5292
 2436SOL    HW118767   2.742   0.753   7.258 -0.9078  0.1844  0.4848
 2436SOL    HW218768   2.820   0.873   7.201 -0.6728  1.3210 -0.5324
 2437SOL     OW18769   0.685   2.100   4.066 -0.3721  0.2133 -0.4648
 2437SOL    HW118770   0.678   2.195   4.054 -1.5286  0.1349 -0.3635
 2437SOL    HW218771   0.704   2.100   4.159  1.7061 -0.9434 -0.8758
 2438SOL     OW18772   1.556   1.508   1.833  0.3381  0.4728 -0.3706
 2438SOL    HW118773   1.545   1.445   1.762  2.6763  1.2105 -1.3855
 2438SOL    HW218774   1.637   1.553   1.810  0.9828  0.1833  1.3848
 2439SOL     OW18775   3.883   3.481  12.986 -0.0879 -0.6056 -0.0246
 2439SOL    HW118776   3.931   3.400  12.968  1.7465  0.0409  1.9173
 2439SOL    HW218777   3.838   3.478  13.070 -0.0207  1.1436  0.0680
 2440SOL     OW18778   2.190   3.532  11.338  0.2766 -0.5502 -0.3021
 2440SOL    HW118779   2.188   3.627  11.346 -3.2571 -0.5263 -1.5662
 2440SOL    HW218780   2.269   3.517  11.390 -0.0633  0.3360  0.4699
 2441SOL     OW18781   1.402   1.886   1.646  0.1096  0.3671 -0.0941
 2441SOL    HW118782   1.464   1.912   1.577  0.5490  1.1503  0.5921
 2441SOL    HW218783   1.387   1.972   1.686  1.0819  0.1518  0.7031
 2442SOL     OW18784   0.647   3.093  14.880  0.0583  0.1075 -0.2811
 2442SOL    HW118785   0.573   3.041  14.848 -1.0929  1.7169 -0.2226
 2442SOL    HW218786   0.597   3.163  14.921  1.0552  0.1967  0.7745
 2443SOL     OW18787   2.392   2.757   4.531  0.9449  0.5342 -0.0074
 2443SOL    HW118788   2.465   2.705   4.497  0.9567 -0.8060  2.1179
 2443SOL    HW218789   2.384   2.826   4.465 -1.7288 -0.3480 -0.5876
 2444SOL     OW18790   1.901   3.084   3.009 -0.2330 -0.0776  0.1376
 2444SOL    HW118791   1.924   3.153   2.948 -1.1959 -0.1810 -0.3436
 2444SOL    HW218792   1.857   3.031   2.943  0.3609 -0.9306  0.4237
 2445SOL     OW18793   0.987   0.253   3.021  0.0718  0.2645  0.6196
 2445SOL    HW118794   1.040   0.187   3.065 -0.5116 -0.3585  0.3877
 2445SOL    HW218795   0.940   0.194   2.962  3.1213 -1.9174  0.3928
 2446SOL     OW18796   4.355   0.022   2.073  0.5792 -0.1842 -0.0466
 2446SOL    HW118797   4.444   0.004   2.104  0.7323  0.8395  0.1127
 2446SOL    HW218798   4.352   0.115   2.097 -0.4176 -0.0169 -0.8425
 2447SOL     OW18799   0.855   3.189   4.812 -0.4150 -0.8731  0.5582
 2447SOL    HW118800   0.783   3.188   4.876  1.4940 -0.5957  2.7372
 2447SOL    HW218801   0.923   3.150   4.868 -0.0794  1.5954  1.9144
 2448SOL     OW18802   4.611   0.275   2.038  0.8616  0.1126  0.1629
 2448SOL    HW118803   4.620   0.229   2.122 -2.5143 -1.8812 -0.6209
 2448SOL    HW218804   4.679   0.343   2.039 -0.9028  1.8596  1.3331
 2449SOL     OW18805   4.037   4.267   2.367 -0.1025 -0.0565  0.2416
 2449SOL    HW118806   3.984   4.325   2.421 -0.6943 -0.4811  0.1192
 2449SOL    HW218807   3.988   4.185   2.374 -1.9752  1.0399 -0.0754
 2450SOL     OW18808   3.377   3.644   4.698  0.2850 -0.0391 -0.7370
 2450SOL    HW118809   3.304   3.687   4.743  0.7343 -1.4443  1.3320
 2450SOL    HW218810   3.428   3.608   4.771 -0.7884 -2.4482 -1.1824
 2451SOL     OW18811   2.082   4.665   8.870  0.5376 -0.0529 -0.0571
 2451SOL    HW118812   2.139   4.683   8.795  0.6148  1.3949  0.3371
 2451SOL    HW218813   2.019   4.616   8.817 -0.9450 -1.1803  2.7253
 2452SOL     OW18814   3.257   0.624   5.286 -0.1785 -0.0670  0.6848
 2452SOL    HW118815   3.172   0.579   5.283 -1.0744  1.6204  0.6176
 2452SOL    HW218816   3.309   0.545   5.299 -0.3965 -0.0202  1.8680
 2453SOL     OW18817   1.209   4.351   3.976  0.7433 -0.1289 -0.1980
 2453SOL    HW118818   1.172   4.438   3.959 -1.9345 -0.9376  1.5592
 2453SOL    HW218819   1.246   4.338   3.888  0.6997 -1.5325 -0.0103
 2454SOL     OW18820   3.974   0.492   9.717  0.1706 -0.2964  0.1763
 2454SOL    HW118821   3.964   0.585   9.738  0.1079  0.0596 -1.4070
 2454SOL    HW218822   4.057   0.489   9.765 -0.4584  0.1534  1.3043
 2455SOL     OW18823   1.445   1.756  14.573  0.1627  0.0639  0.4255
 2455SOL    HW118824   1.499   1.677  14.574 -2.8444 -1.9949 -0.9943
 2455SOL    HW218825   1.389   1.745  14.650 -2.0406  2.9564 -0.7666
 2456SOL     OW18826   0.941   3.385   6.867  0.1716 -0.0206  0.1798
 2456SOL    HW118827   0.977   3.363   6.953 -0.1020 -0.4866  0.1732
 2456SOL    HW218828   1.020   3.398   6.815 -0.0770  1.9969  0.3116
 2457SOL     OW18829   1.046   2.158  11.328 -0.1894 -0.2321  0.3106
 2457SOL    HW118830   1.084   2.188  11.245  1.9868  0.2301  1.4704
 2457SOL    HW218831   1.114   2.097  11.355  0.6180  0.7317  0.4621
 2458SOL     OW18832   1.721   0.522   4.311 -0.2056 -0.0528 -0.0726
 2458SOL    HW118833   1.685   0.601   4.270 -2.4609 -0.4351  1.1730
 2458SOL    HW218834   1.795   0.561   4.357 -0.9682  0.5867  0.6060
 2459SOL     OW18835   3.357   0.552  10.236  0.1151 -0.1961 -0.3516
 2459SOL    HW118836   3.334   0.513  10.151  0.7742 -0.1275 -0.5582
 2459SOL    HW218837   3.396   0.476  10.279 -0.3007  0.6643  1.5571
 2460SOL     OW18838   0.678   1.633   9.285  0.3810  0.4869 -0.0201
 2460SOL    HW118839   0.703   1.708   9.231 -1.0344 -0.1894 -1.6138
 2460SOL    HW218840   0.590   1.619   9.250  0.1845 -1.8218  1.3902
 2461SOL     OW18841   2.025   2.418  15.426 -0.6269 -0.1244 -0.3827
 2461SOL    HW118842   2.086   2.457  15.363 -3.9430  0.5366 -3.1260
 2461SOL    HW218843   2.087   2.376  15.486 -0.9202  1.3188  0.9162
 2462SOL     OW18844   3.003   4.330   2.457  0.5079 -0.3853  0.0997
 2462SOL    HW118845   2.934   4.322   2.523 -0.3887  3.0066 -0.4048
 2462SOL    HW218846   3.005   4.425   2.441  0.8632 -0.2890  0.7209
 2463SOL     OW18847   3.227   0.182   6.562  0.0181  0.3937  0.5236
 2463SOL    HW118848   3.223   0.087   6.552 -1.4610  0.3436  1.6515
 2463SOL    HW218849   3.138   0.216   6.565  0.1255  0.6826  0.4799
 2464SOL     OW18850   3.090   4.438   1.313 -0.5395  0.2950 -0.0260
 2464SOL    HW118851   3.122   4.406   1.228 -0.8165  0.1078 -0.0582
 2464SOL    HW218852   3.100   4.353   1.357 -1.1314 -1.0362 -2.4320
 2465SOL     OW18853   4.673   1.867   3.646 -0.1403  0.1741 -0.4225
 2465SOL    HW118854   4.600   1.818   3.608  0.4216 -0.5732 -0.5472
 2465SOL    HW218855   0.017   1.837   3.584 -0.5897  1.0824 -1.3476
 2466SOL     OW18856   2.093   1.919  10.553  0.2743  0.3762  0.1207
 2466SOL    HW118857   2.091   2.010  10.523 -3.1166 -0.2067 -1.4907
 2466SOL    HW218858   2.056   1.883  10.472 -1.1742 -1.7358  1.7113
 2467SOL     OW18859   3.632   4.151   9.645 -0.4418  0.2423 -0.1479
 2467SOL    HW118860   3.556   4.120   9.596 -1.6184  2.0637  0.5102
 2467SOL    HW218861   3.677   4.072   9.674 -0.0922  0.9385  1.2120
 2468SOL     OW18862   2.681   4.586   8.141  0.0889 -0.1809 -0.2687
 2468SOL    HW118863   2.769   4.575   8.175 -0.3683 -1.3272  0.5639
 2468SOL    HW218864   2.625   4.589   8.219 -2.8240 -1.4658 -2.3118
 2469SOL     OW18865   4.314   2.835  16.348 -0.0644  0.3581  0.1877
 2469SOL    HW118866   4.321   2.924  16.382  0.4869  0.5715 -0.4985
 2469SOL    HW218867   4.266   2.848  16.266  3.0155 -1.2633 -1.8640
 2470SOL     OW18868   4.363   0.483  14.211 -0.3031  0.6413  0.7764
 2470SOL    HW118869   4.337   0.456  14.299  0.2879  1.6916  1.2716
 2470SOL    HW218870   4.315   0.426  14.152  0.6477  0.3841  0.2474
 2471SOL     OW18871   3.232   3.305  11.398  0.5087  0.0675  0.3523
 2471SOL    HW118872   3.263   3.395  11.393  1.8379 -0.3392  1.0794
 2471SOL    HW218873   3.189   3.308  11.483 -1.3767 -2.2343 -0.5349
 2472SOL     OW18874   2.130   3.233   3.596 -0.3527  0.1549 -0.5622
 2472SOL    HW118875   2.075   3.159   3.571 -0.9570  0.4588 -0.1296
 2472SOL    HW218876   2.075   3.288   3.652 -0.0018  1.8119 -1.8408
 2473SOL     OW18877   4.628   0.980   2.827  0.7542  0.3635  0.2832
 2473SOL    HW118878   4.711   0.955   2.786 -0.3940 -2.4505 -0.3440
 2473SOL    HW218879   4.581   0.992   2.745 -0.6429 -0.0245  1.0268
 2474SOL     OW18880   2.572   3.283  16.747 -0.1029  0.8578 -0.2379
 2474SOL    HW118881   2.498   3.250  16.696 -1.5217  2.3072  0.8610
 2474SOL    HW218882   2.612   3.208  16.791  1.2680  1.1429 -0.9964
 2475SOL     OW18883   3.405   3.502  12.886 -0.2069  0.4061 -0.5159
 2475SOL    HW118884   3.368   3.584  12.854  1.6141  1.9232  1.1849
 2475SOL    HW218885   3.421   3.447  12.810 -0.8848 -0.5728  0.0502
 2476SOL     OW18886   0.155   1.145   2.594 -0.0726 -0.2663 -0.2390
 2476SOL    HW118887   0.095   1.189   2.654 -2.0694 -1.0937 -1.6311
 2476SOL    HW218888   0.107   1.141   2.511  0.7517 -0.5839 -0.7077
 2477SOL     OW18889   2.423   0.767   9.951 -0.3039 -0.5809  0.4721
 2477SOL    HW118890   2.512   0.735   9.965  0.0771  0.6105  0.7595
 2477SOL    HW218891   2.383   0.687   9.986  0.4324 -0.9184  0.5546
 2478SOL     OW18892   1.684   4.333  14.367 -0.1702 -0.0601  0.3948
 2478SOL    HW118893   1.642   4.410  14.327  1.2429  0.7300  0.4256
 2478SOL    HW218894   1.612   4.270  14.364  0.3967 -0.7335  1.3671
 2479SOL     OW18895   1.079   3.169  11.677 -0.9841  0.1261  0.0420
 2479SOL    HW118896   1.156   3.197  11.629 -0.7724 -0.2759  0.1536
 2479SOL    HW218897   1.090   3.213  11.762 -0.2669 -0.7280  0.3923
 2480SOL     OW18898   0.413   2.611   8.711  0.1364  0.1524 -0.8457
 2480SOL    HW118899   0.394   2.524   8.745  2.1287  1.2125  2.9464
 2480SOL    HW218900   0.340   2.668   8.734 -0.8914 -1.6474  0.2853
 2481SOL     OW18901   0.425   4.462  13.713 -0.7938 -0.0768 -0.3589
 2481SOL    HW118902   0.490   4.411  13.665 -1.6622 -0.1775 -1.4392
 2481SOL    HW218903   0.350   4.445  13.655 -0.3258  1.1084 -1.3096
 2482SOL     OW18904   4.398   4.611   7.642 -0.3381  0.0248 -0.0383
 2482SOL    HW118905   4.470   4.568   7.689  3.0344  3.2093 -2.2256
 2482SOL    HW218906   4.377   4.539   7.583  1.0414  0.0111 -0.5283
 2483SOL     OW18907   3.515   2.145   2.856  0.6239  0.4597 -0.5546
 2483SOL    HW118908   3.548   2.132   2.767 -2.1284  2.8963 -1.9455
 2483SOL    HW218909   3.437   2.092   2.842 -0.5483  2.2899 -0.8874
 2484SOL     OW18910   4.457   0.139   4.306 -0.7155  0.5532 -0.5088
 2484SOL    HW118911   4.460   0.234   4.300  0.4514  0.6294  1.1628
 2484SOL    HW218912   4.364   0.125   4.322 -0.8752  0.9564 -1.1057
 2485SOL     OW18913   1.273   2.272   9.459  0.2169  0.1744  0.1162
 2485SOL    HW118914   1.220   2.283   9.380  0.9482 -2.2827 -0.7344
 2485SOL    HW218915   1.223   2.338   9.508  0.3435  0.1232  0.3163
 2486SOL     OW18916   3.005   3.051   2.271 -0.8769  0.1650 -0.3055
 2486SOL    HW118917   3.086   3.004   2.252  0.3181  2.0308  0.1517
 2486SOL    HW218918   3.036   3.103   2.346  1.3973 -1.4283 -0.1506
 2487SOL     OW18919   4.020   2.353   5.036  0.1693 -0.1106  0.3665
 2487SOL    HW118920   4.056   2.431   5.079 -1.3442  1.4501 -1.2011
 2487SOL    HW218921   3.933   2.354   5.075  0.5010  0.3191  1.0889
 2488SOL     OW18922   3.351   3.705  15.849  0.0988  0.1630  0.1081
 2488SOL    HW118923   3.352   3.762  15.771 -2.1007 -0.1890 -0.1791
 2488SOL    HW218924   3.402   3.631  15.816  1.2676  0.0413  2.2165
 2489SOL     OW18925   4.305   3.748   7.612 -0.4452 -0.1746 -0.6681
 2489SOL    HW118926   4.365   3.681   7.646 -0.8097  0.1091  0.5341
 2489SOL    HW218927   4.264   3.679   7.560 -2.9922  2.3882 -2.0793
 2490SOL     OW18928   3.628   2.798   7.594 -0.5919  0.4176  0.0877
 2490SOL    HW118929   3.601   2.819   7.504  1.1650  1.3529 -0.2169
 2490SOL    HW218930   3.721   2.790   7.571 -0.0593  1.6337  1.8756
 2491SOL     OW18931   0.838   0.206   7.218 -0.1304 -0.1684 -0.3301
 2491SOL    HW118932   0.859   0.276   7.157  1.4418 -0.1656  0.2246
 2491SOL    HW218933   0.742   0.198   7.219 -0.4293  3.3380 -2.1361
 2492SOL     OW18934   0.156   3.365   5.434 -0.0837  0.3203  0.2704
 2492SOL    HW118935   0.085   3.343   5.494  1.8227 -1.1473  1.9844
 2492SOL    HW218936   0.138   3.303   5.363 -0.7669  0.5853  0.2122
 2493SOL     OW18937   2.290   2.919  14.818  0.4638  0.4908  0.5997
 2493SOL    HW118938   2.255   2.866  14.889  1.4350 -0.2751  0.5115
 2493SOL    HW218939   2.247   3.001  14.840  1.1533  0.9642  0.1973
 2494SOL     OW18940   3.380   1.049   3.798  0.2084 -0.6093  0.4792
 2494SOL    HW118941   3.460   1.019   3.755  0.2698  2.1637 -1.2916
 2494SOL    HW218942   3.365   0.965   3.842 -0.0859  0.7324  2.9688
 2495SOL     OW18943   3.747   0.173   9.277  0.1997  0.3004 -0.2378
 2495SOL    HW118944   3.793   0.217   9.349  0.2449  0.0930 -0.1411
 2495SOL    HW218945   3.732   0.085   9.311  1.8918  0.2274  0.3537
 2496SOL     OW18946   4.222   2.737   1.726  0.2715 -0.0494  0.3018
 2496SOL    HW118947   4.317   2.733   1.741  0.0894 -0.6964  1.2461
 2496SOL    HW218948   4.193   2.776   1.808  2.3681 -0.4701  1.2545
 2497SOL     OW18949   3.553   0.135   7.068  0.5329 -0.0209 -0.5709
 2497SOL    HW118950   3.591   0.080   7.137  0.5275 -1.0643 -1.4148
 2497SOL    HW218951   3.461   0.111   7.066  0.8269 -1.2296  0.3219
 2498SOL     OW18952   3.487   3.054   6.814 -0.2703  0.3367 -0.5024
 2498SOL    HW118953   3.504   3.141   6.852 -0.0083  0.5879 -1.2015
 2498SOL    HW218954   3.537   3.007   6.881 -1.9254  1.6816  1.6794
 2499SOL     OW18955   1.664   1.104   1.379 -0.3898 -0.4623 -0.8497
 2499SOL    HW118956   1.581   1.116   1.335 -0.8240 -1.0142 -0.1814
 2499SOL    HW218957   1.702   1.189   1.360  0.9200 -0.8755 -0.0993
 2500SOL     OW18958   2.385   0.982   3.479  0.0915 -0.6644 -0.1875
 2500SOL    HW118959   2.474   0.996   3.445  0.7021 -1.1994  1.2155
 2500SOL    HW218960   2.367   0.891   3.454 -1.3812 -0.4393  0.0648
 2501SOL     OW18961   0.789   2.108   6.860  0.4251  0.3058  0.0834
 2501SOL    HW118962   0.784   2.090   6.954 -1.3093  2.6445  0.4318
 2501SOL    HW218963   0.877   2.142   6.849 -0.6546  2.5571 -1.5772
 2502SOL     OW18964   0.169   1.034   5.375  0.4608  0.5516 -0.0745
 2502SOL    HW118965   0.114   1.096   5.328 -2.0106 -0.8368  0.9862
 2502SOL    HW218966   0.129   1.049   5.461 -1.2067 -2.4482 -0.3182
 2503SOL     OW18967   2.131   1.025   7.296 -0.3572  0.0735  0.3600
 2503SOL    HW118968   2.126   0.930   7.298  0.8294  0.0056  0.1306
 2503SOL    HW218969   2.076   1.045   7.220 -0.4367  0.1849  0.4470
 2504SOL     OW18970   4.224   4.613   3.249  0.0294 -0.4074 -0.5254
 2504SOL    HW118971   4.168   4.690   3.242  0.0942 -0.3001  0.1427
 2504SOL    HW218972   4.265   4.631   3.333 -1.9336  1.2178  0.0725
 2505SOL     OW18973   3.880   4.418   6.225  0.2373 -0.1297 -0.2664
 2505SOL    HW118974   3.837   4.358   6.163  0.2952  1.2406 -1.6245
 2505SOL    HW218975   3.890   4.501   6.179 -0.0386  0.8231  1.4134
 2506SOL     OW18976   3.293   3.341  13.431  0.3162 -0.0015 -0.0954
 2506SOL    HW118977   3.341   3.381  13.359 -0.9716 -1.5339 -1.7933
 2506SOL    HW218978   3.221   3.297  13.386  0.6266 -2.3902  1.7227
 2507SOL     OW18979   0.097   4.313  15.786 -0.0616 -0.2570  0.4603
 2507SOL    HW118980   0.153   4.282  15.857 -2.0375 -0.8117  1.7802
 2507SOL    HW218981   0.074   4.225  15.757  1.2505  0.1223 -1.7414
 2508SOL     OW18982   0.186   3.015   6.790  0.2939  0.5437 -0.3287
 2508SOL    HW118983   0.232   2.988   6.711 -0.9225 -1.1926 -0.4491
 2508SOL    HW218984   0.123   2.944   6.805 -1.0576  1.6424 -0.7841
 2509SOL     OW18985   2.367   2.021   6.008 -0.3581 -0.5930  0.2601
 2509SOL    HW118986   2.393   1.943   5.960 -3.5923 -0.7763 -1.1878
 2509SOL    HW218987   2.385   2.095   5.950  1.7647 -1.6316 -0.3927
 2510SOL     OW18988   0.690   3.077   6.044 -0.0330 -0.3147 -0.1086
 2510SOL    HW118989   0.755   3.054   6.111 -1.4016 -2.4755  0.4726
 2510SOL    HW218990   0.634   3.135   6.095  0.3234  1.1124 -1.3480
 2511SOL     OW18991   4.227   4.248   8.416 -0.1731  0.3366 -0.0142
 2511SOL    HW118992   4.297   4.196   8.456 -0.5463  1.1603  1.7054
 2511SOL    HW218993   4.205   4.187   8.345 -3.2889  1.0905  0.3198
 2512SOL     OW18994   3.768   1.135   6.350 -0.1711  0.0152 -0.4722
 2512SOL    HW118995   3.719   1.099   6.424  0.2961 -0.7228 -0.5215
 2512SOL    HW218996   3.744   1.225   6.373  1.9124  0.5448 -0.3674
 2513SOL     OW18997   3.837   3.505   6.103 -0.2735 -0.0917  0.5531
 2513SOL    HW118998   3.915   3.453   6.084  1.1803  2.8634 -1.4321
 2513SOL    HW218999   3.852   3.596   6.080  1.1772  0.0359  2.0217
 2514SOL     OW19000   2.393   3.027   2.031  0.4152  0.3057 -0.1895
 2514SOL    HW119001   2.457   3.078   2.081 -2.4064  1.4594  2.3015
 2514SOL    HW219002   2.438   2.946   2.009 -0.2693 -0.3253  0.7175
 2515SOL     OW19003   2.515   2.946  13.937 -0.5278 -0.1835 -0.3280
 2515SOL    HW119004   2.527   3.022  13.995 -1.6748  0.1131 -0.4678
 2515SOL    HW219005   2.432   2.914  13.972  0.2830 -1.2288  0.6189
 2516SOL     OW19006   1.613   1.301   1.067  0.0358  0.2879  0.0435
 2516SOL    HW119007   1.550   1.246   1.113 -1.8707  0.8111 -1.8731
 2516SOL    HW219008   1.550   1.326   0.999  1.9645 -0.8998 -2.1589
 2517SOL     OW19009   1.679   2.240   7.822  0.1448  0.3880 -0.7837
 2517SOL    HW119010   1.690   2.247   7.917  0.7748  2.7189 -1.0317
 2517SOL    HW219011   1.600   2.186   7.826  1.5310 -1.4621  1.7758
 2518SOL     OW19012   2.436   4.470   0.360 -0.0587 -0.0231  0.5062
 2518SOL    HW119013   2.366   4.409   0.384 -0.2737 -0.2214 -0.6357
 2518SOL    HW219014   2.450   4.446   0.269  0.3502 -0.1604  0.6075
 2519SOL     OW19015   3.359   2.681   9.128 -0.4191 -0.2306  0.6656
 2519SOL    HW119016   3.264   2.684   9.116 -0.6306 -0.3448  2.2001
 2519SOL    HW219017   3.369   2.648   9.218 -0.1168  1.3528  1.2098
 2520SOL     OW19018   0.730   2.468   8.551  0.3259 -0.3950  0.5217
 2520SOL    HW119019   0.637   2.486   8.544  0.3412  0.1043  1.6273
 2520SOL    HW219020   0.740   2.373   8.546  0.4693 -0.3023 -0.9343
 2521SOL     OW19021   0.453   1.651   8.660  0.1685 -0.5092  0.1340
 2521SOL    HW119022   0.403   1.584   8.707  0.7443 -1.7926 -1.0842
 2521SOL    HW219023   0.539   1.608   8.652  0.0501 -0.3277 -2.0541
 2522SOL     OW19024   3.246   4.627   6.553 -0.3511 -0.4076  0.2725
 2522SOL    HW119025   3.263   4.598   6.643 -0.8878  0.2941  0.6028
 2522SOL    HW219026   3.180   4.569   6.516  0.7580 -1.5168  0.0353
 2523SOL     OW19027   3.474   0.838   5.490 -0.3890  0.0530  0.4174
 2523SOL    HW119028   3.504   0.747   5.495 -1.0857 -0.2541 -0.9778
 2523SOL    HW219029   3.445   0.854   5.400  1.5546  0.5238 -0.1087
 2524SOL     OW19030   0.326   1.283  16.518 -0.0711 -0.2872  0.0944
 2524SOL    HW119031   0.251   1.336  16.490 -0.0035  0.6785  1.7428
 2524SOL    HW219032   0.346   1.238  16.436  0.1709  1.8260 -1.0136
 2525SOL     OW19033   0.822   1.761   6.003  0.6066  0.3401  0.5596
 2525SOL    HW119034   0.869   1.683   5.973  0.5764 -0.4699  2.5844
 2525SOL    HW219035   0.876   1.823   5.955  1.9338 -0.6369  0.7907
 2526SOL     OW19036   3.065   1.697   9.894  0.6485 -0.1308  0.0679
 2526SOL    HW119037   3.073   1.701   9.798 -0.2879  0.1447 -0.0050
 2526SOL    HW219038   3.157   1.701   9.918 -0.3791 -0.6178  4.0227
 2527SOL     OW19039   2.245   3.094  15.099 -0.0552  0.3344 -0.1797
 2527SOL    HW119040   2.158   3.068  15.128  0.0043 -0.9832 -1.1560
 2527SOL    HW219041   2.289   3.094  15.184 -0.7887 -3.1082  0.1833
 2528SOL     OW19042   3.864   1.580   2.687 -0.4242  0.0215  0.1977
 2528SOL    HW119043   3.874   1.560   2.780  1.8439 -0.7633 -0.2324
 2528SOL    HW219044   3.771   1.604   2.697 -0.2615 -0.4059  2.6790
 2529SOL     OW19045   2.458   0.599   8.658  0.0587  0.1959 -0.4899
 2529SOL    HW119046   2.458   0.650   8.576  1.0882  1.2295  0.1520
 2529SOL    HW219047   2.550   0.579   8.674  0.2264  1.5025  0.1611
 2530SOL     OW19048   1.168   2.669   2.799  0.1941 -0.1148 -0.0279
 2530SOL    HW119049   1.138   2.713   2.720  1.1223  0.5687  0.0018
 2530SOL    HW219050   1.215   2.596   2.760  2.0589  0.1791  1.6726
 2531SOL     OW19051   3.821   3.805  15.673  0.3130  0.0133 -0.3233
 2531SOL    HW119052   3.774   3.856  15.608 -0.4850  0.6875  0.7928
 2531SOL    HW219053   3.875   3.878  15.705 -3.4337  2.3658  0.5451
 2532SOL     OW19054   3.187   3.607   7.259  0.6693 -0.6672 -0.2850
 2532SOL    HW119055   3.200   3.677   7.194 -1.0582  0.2738  0.3698
 2532SOL    HW219056   3.104   3.635   7.298  0.4641  0.1662 -1.3098
 2533SOL     OW19057   3.990   2.710   8.425 -0.2399  0.4779 -0.0350
 2533SOL    HW119058   4.055   2.725   8.494  0.0272 -2.7777  0.4045
 2533SOL    HW219059   4.043   2.733   8.348 -1.1566 -1.3233 -1.2012
 2534SOL     OW19060   2.533   0.741   9.442  0.3452 -0.0907 -0.7933
 2534SOL    HW119061   2.607   0.717   9.387  0.9772 -0.8336  0.3681
 2534SOL    HW219062   2.572   0.732   9.529  0.9298 -0.1183 -1.0551
 2535SOL     OW19063   3.384   4.294   7.997 -0.0890  0.3621 -0.1978
 2535SOL    HW119064   3.412   4.386   8.000  0.2046  0.1889  2.4366
 2535SOL    HW219065   3.463   4.252   8.031 -0.8031 -0.4666  0.4444
 2536SOL     OW19066   4.122   4.088   6.844  0.0568  0.3644 -0.5833
 2536SOL    HW119067   4.051   4.147   6.818 -0.5737 -1.0734 -2.1502
 2536SOL    HW219068   4.078   4.025   6.901  1.3218  0.1136  0.1234
 2537SOL     OW19069   0.116   0.433  15.726 -0.0013 -0.0874  0.0640
 2537SOL    HW119070   0.155   0.494  15.789 -2.0955  1.6330 -0.3053
 2537SOL    HW219071   0.038   0.404  15.773  0.6617 -2.2679 -0.1685
 2538SOL     OW19072   4.093   1.463   8.050  0.6320 -0.5578 -0.5961
 2538SOL    HW119073   4.179   1.442   8.013  0.1270  0.4334 -2.3487
 2538SOL    HW219074   4.101   1.414   8.131 -2.1656  1.2525  0.7465
 2539SOL     OW19075   3.650   0.837  14.905 -0.2445 -0.6074 -0.5006
 2539SOL    HW119076   3.637   0.795  14.990  2.0655  0.7044  0.4960
 2539SOL    HW219077   3.666   0.763  14.847 -1.5301 -0.0940 -1.4885
 2540SOL     OW19078   4.350   2.729   7.140  0.2331  0.4448 -0.3743
 2540SOL    HW119079   4.293   2.692   7.207  0.6673 -0.0104 -0.2602
 2540SOL    HW219080   4.426   2.674   7.157  1.0527  1.1620 -1.6875
 2541SOL     OW19081   4.666   3.895   6.856 -0.0093 -0.1860 -0.3676
 2541SOL    HW119082   4.620   3.827   6.807 -0.8163 -0.7293  1.1351
 2541SOL    HW219083   4.721   3.846   6.917 -1.1018  1.0140  1.6090
 2542SOL     OW19084   1.086   1.276   8.831 -0.1686 -0.2064  0.2879
 2542SOL    HW119085   1.067   1.192   8.790 -0.1200  0.8403 -1.8752
 2542SOL    HW219086   1.148   1.311   8.767 -0.7508  0.3265  0.0183
 2543SOL     OW19087   0.801   2.836   7.557  0.0994 -0.2818 -0.1482
 2543SOL    HW119088   0.757   2.760   7.519 -0.9861  0.3338 -0.1347
 2543SOL    HW219089   0.889   2.800   7.559  0.2203  0.1337  2.6577
 2544SOL     OW19090   2.737   0.369   7.384  0.1077  0.0446 -0.1336
 2544SOL    HW119091   2.697   0.420   7.454  1.8756 -0.7440  1.4453
 2544SOL    HW219092   2.830   0.384   7.398 -0.1702  2.0938 -0.4955
 2545SOL     OW19093   0.155   1.551   5.433  0.2635  0.1672 -0.6635
 2545SOL    HW119094   0.130   1.472   5.480  2.9334 -1.0920 -1.3868
 2545SOL    HW219095   0.250   1.544   5.427  0.2656 -0.2895 -0.0415
 2546SOL     OW19096   3.282   2.017   0.624  0.2762  0.0699  0.5228
 2546SOL    HW119097   3.193   1.984   0.629  0.2540  0.1238  0.4822
 2546SOL    HW219098   3.341   1.942   0.623  0.1096 -0.0233 -1.4102
 2547SOL     OW19099   0.927   0.850   8.604  0.0815 -0.1279 -0.3412
 2547SOL    HW119100   0.880   0.769   8.623  0.2859 -0.0241  0.5672
 2547SOL    HW219101   0.905   0.896   8.685 -0.1382  0.0015 -0.4745
 2548SOL     OW19102   3.589   1.158   3.609 -0.0262 -0.1856 -0.2292
 2548SOL    HW119103   3.655   1.218   3.645  0.1009 -0.7298  0.4613
 2548SOL    HW219104   3.578   1.193   3.521  0.2457  1.7273  0.5018
 2549SOL     OW19105   1.050   4.674   7.087 -0.3074  0.3822 -0.4358
 2549SOL    HW119106   1.119   4.710   7.143  1.5916  2.0809 -3.8727
 2549SOL    HW219107   1.035   0.032   7.039 -0.8789  1.2632  1.2447
 2550SOL     OW19108   3.052   2.590   6.361 -0.5449  0.3056  1.0565
 2550SOL    HW119109   3.128   2.604   6.305 -0.1802 -0.2040  1.4221
 2550SOL    HW219110   3.019   2.679   6.371  0.3051  0.9650 -2.0445
 2551SOL     OW19111   1.443   2.994   7.347 -0.6392 -0.6550  0.6605
 2551SOL    HW119112   1.510   2.939   7.388  0.5475  1.9200  2.1819
 2551SOL    HW219113   1.481   3.082   7.357 -1.9765 -0.0049 -0.0402
 2552SOL     OW19114   2.097   0.471   6.065  0.1475 -0.2062 -0.4612
 2552SOL    HW119115   2.069   0.382   6.083  0.5597 -0.6011 -1.7694
 2552SOL    HW219116   2.056   0.514   6.140  1.0137 -0.1168 -0.0346
 2553SOL     OW19117   1.640   2.325  14.872 -0.2730 -0.2490  0.0132
 2553SOL    HW119118   1.612   2.361  14.788  0.0214 -1.2998 -0.5424
 2553SOL    HW219119   1.623   2.231  14.866  2.0314 -0.7336  0.9924
 2554SOL     OW19120   1.050   1.820   4.067 -0.3159 -0.2867  0.1910
 2554SOL    HW119121   1.112   1.789   4.133 -0.1126 -0.3695 -0.0421
 2554SOL    HW219122   1.094   1.799   3.985 -2.4630  1.0014 -1.2881
 2555SOL     OW19123   0.419   0.664   4.597 -0.0746 -0.6415 -0.2863
 2555SOL    HW119124   0.428   0.744   4.650 -1.4474  0.4271 -1.6743
 2555SOL    HW219125   0.346   0.627   4.645  0.8666  0.4209  1.9751
 2556SOL     OW19126   1.445   3.298   7.006  0.3830  0.1379  0.0044
 2556SOL    HW119127   1.420   3.358   6.936  0.3536  0.0629 -0.0497
 2556SOL    HW219128   1.431   3.216   6.959  1.5096  1.7096 -3.0622
 2557SOL     OW19129   3.076   4.336   0.232 -0.0185 -0.6589 -0.2143
 2557SOL    HW119130   3.164   4.351   0.265 -0.3343 -1.5654  0.9996
 2557SOL    HW219131   3.037   4.340   0.319  1.9721  2.0149  0.5734
 2558SOL     OW19132   0.529   2.335  10.992  0.0490  0.6528  0.1173
 2558SOL    HW119133   0.542   2.245  10.963  1.4450  0.6209  0.8378
 2558SOL    HW219134   0.458   2.356  10.931 -0.0402 -3.4511 -1.2187
 2559SOL     OW19135   3.694   1.320   9.370 -0.2615 -0.4682  0.2722
 2559SOL    HW119136   3.757   1.391   9.358 -2.0232  1.2075  0.9127
 2559SOL    HW219137   3.642   1.346   9.447 -3.0122 -2.8504 -0.7838
 2560SOL     OW19138   3.220   3.851  11.568  0.4756  0.4690  0.3463
 2560SOL    HW119139   3.280   3.839  11.494 -0.3885 -0.1326 -0.2678
 2560SOL    HW219140   3.234   3.942  11.594  2.3997  0.5352 -0.9294
 2561SOL     OW19141   0.698   3.101   3.299 -0.0579 -0.1034 -0.1095
 2561SOL    HW119142   0.603   3.094   3.292 -0.2283  1.3676  0.6956
 2561SOL    HW219143   0.725   3.086   3.208 -0.2140 -0.0216 -0.1697
 2562SOL     OW19144   1.140   1.262   0.945  0.2609  0.0943  0.5163
 2562SOL    HW119145   1.151   1.348   0.987 -1.4167 -0.0827  1.3509
 2562SOL    HW219146   1.217   1.211   0.970  0.5473 -0.3418 -1.2994
 2563SOL     OW19147   0.388   1.650   7.769  0.6759  0.2489  0.4360
 2563SOL    HW119148   0.293   1.645   7.758  0.7961 -1.1473  0.0230
 2563SOL    HW219149   0.405   1.733   7.725  0.2972  0.9276  1.5664
 2564SOL     OW19150   2.144   2.245   1.635  0.2373  0.3361 -0.3561
 2564SOL    HW119151   2.207   2.209   1.573 -0.3791  1.6199 -1.7202
 2564SOL    HW219152   2.068   2.261   1.579  0.0882 -2.0310 -0.8465
 2565SOL     OW19153   3.634   1.751  16.224  0.7242  0.0567  0.5887
 2565SOL    HW119154   3.576   1.805  16.170  0.0834 -2.8432 -1.6126
 2565SOL    HW219155   3.697   1.716  16.161 -1.1522 -1.5574 -0.3895
 2566SOL     OW19156   0.481   3.490   7.343  0.0574 -0.4405 -0.5017
 2566SOL    HW119157   0.434   3.498   7.426  0.5152  0.1647 -0.2980
 2566SOL    HW219158   0.521   3.576   7.332  0.3249 -0.1550  2.8473
 2567SOL     OW19159   4.524   3.190  15.874  0.2132 -0.1547 -0.2165
 2567SOL    HW119160   4.539   3.204  15.967  2.5126  0.8355 -0.7491
 2567SOL    HW219161   4.545   3.274  15.833 -1.2423  0.3501  0.0878
 2568SOL     OW19162   2.540   1.633   8.525 -0.7240  0.3644 -0.5568
 2568SOL    HW119163   2.578   1.546   8.537  3.0010  2.1875  0.8502
 2568SOL    HW219164   2.535   1.671   8.613  3.7774  3.0585 -1.4636
 2569SOL     OW19165   0.731   3.561  17.075  0.5428 -0.0015 -0.8931
 2569SOL    HW119166   0.644   3.596  17.093  0.5923 -0.8206  0.9000
 2569SOL    HW219167   0.734   3.483  17.131  2.1129  2.6161  2.6485
 2570SOL     OW19168   3.971   1.518   4.260 -0.1133 -0.1437 -0.4445
 2570SOL    HW119169   4.026   1.572   4.317 -1.8074 -0.3469  1.3584
 2570SOL    HW219170   4.005   1.546   4.175  0.9025 -2.1309 -0.7040
 2571SOL     OW19171   2.362   1.947  12.340 -0.1772  1.3387  0.2886
 2571SOL    HW119172   2.362   1.884  12.412  0.8759  2.0456  0.9197
 2571SOL    HW219173   2.456   1.936  12.323 -0.8125  2.5525 -3.8878
 2572SOL     OW19174   0.687   3.331   6.999 -0.4377 -0.2170 -0.5191
 2572SOL    HW119175   0.771   3.350   6.957 -0.4771 -0.2109 -0.5963
 2572SOL    HW219176   0.714   3.244   7.026 -2.2774 -0.2586  1.2353
 2573SOL     OW19177   1.339   3.563   3.070  0.0479  0.0350 -0.0403
 2573SOL    HW119178   1.405   3.495   3.063  0.3229  0.4518 -1.5611
 2573SOL    HW219179   1.380   3.643   3.035  1.5140 -0.4315  0.6501
 2574SOL     OW19180   3.663   3.951  13.148 -0.3224  0.1207  0.3036
 2574SOL    HW119181   3.670   3.868  13.100  0.4476 -0.5286  1.5559
 2574SOL    HW219182   3.638   4.010  13.077 -0.4635 -1.9553 -1.3919
 2575SOL     OW19183   4.056   2.942   2.692  0.1237  0.1833  0.5009
 2575SOL    HW119184   4.078   2.884   2.765 -2.0337 -0.2770  0.7741
 2575SOL    HW219185   4.111   3.017   2.715  1.3182 -0.0791 -1.5123
 2576SOL     OW19186   0.420   2.918  10.222 -0.0652 -0.0025  0.8810
 2576SOL    HW119187   0.437   3.007  10.255 -1.6153  0.0032  1.6725
 2576SOL    HW219188   0.425   2.939  10.128 -1.1015 -1.0134  0.6095
 2577SOL     OW19189   1.164   0.444  15.688  0.0826 -0.3650 -0.0471
 2577SOL    HW119190   1.218   0.501  15.633 -0.0722 -0.5611 -0.4025
 2577SOL    HW219191   1.158   0.374  15.624  0.7195 -1.2784  0.8839
 2578SOL     OW19192   1.718   1.973   9.616 -0.4573  0.4005 -0.2737
 2578SOL    HW119193   1.748   1.888   9.585  2.6624  0.9740  1.1773
 2578SOL    HW219194   1.788   2.012   9.563  1.9803 -1.1293  1.8048
 2579SOL     OW19195   2.889   1.317   7.619  0.3303 -0.4749 -0.4594
 2579SOL    HW119196   2.984   1.326   7.624  0.1907  0.5397  0.2432
 2579SOL    HW219197   2.862   1.404   7.647 -2.6890 -1.0754 -1.5477
 2580SOL     OW19198   3.116   3.565  12.462 -0.1719  0.0056 -0.6804
 2580SOL    HW119199   3.102   3.630  12.393  0.9209  0.9000 -0.0436
 2580SOL    HW219200   3.196   3.520  12.435 -0.1722  0.2840 -1.1476
 2581SOL     OW19201   4.350   0.160  11.016  0.4650 -0.0406 -0.2840
 2581SOL    HW119202   4.363   0.191  10.926  1.6864 -1.0294 -0.4553
 2581SOL    HW219203   4.262   0.190  11.039  0.9749  0.8014  0.5251
 2582SOL     OW19204   3.168   3.717  12.250 -0.2249  0.1438  0.1014
 2582SOL    HW119205   3.222   3.649  12.210  1.1797  0.8706  0.7771
 2582SOL    HW219206   3.160   3.778  12.176 -1.3658 -0.4497 -0.2710
 2583SOL     OW19207   4.712   0.245   3.384  0.1217 -0.1151 -0.0612
 2583SOL    HW119208   4.701   0.242   3.289  1.6038  0.1737 -0.2335
 2583SOL    HW219209   4.627   0.205   3.404  0.2548 -1.3537 -1.9041
 2584SOL     OW19210   0.099   1.677  13.794 -0.3671 -0.0535 -0.2311
 2584SOL    HW119211   0.034   1.627  13.743  0.8970 -1.0620 -0.8641
 2584SOL    HW219212   0.124   1.744  13.731  0.7663  0.3194  0.6304
 2585SOL     OW19213   0.368   4.008   7.300 -0.6625  0.3381  0.3128
 2585SOL    HW119214   0.315   3.938   7.339 -1.6593  1.7384  1.4649
 2585SOL    HW219215   0.349   4.082   7.358  0.4718  0.3682  0.6404
 2586SOL     OW19216   2.957   3.144   9.444  0.0836 -0.4422 -0.3026
 2586SOL    HW119217   2.979   3.126   9.536  0.3047  0.1602 -0.2375
 2586SOL    HW219218   3.043   3.166   9.410 -0.4843 -1.4589 -2.3635
 2587SOL     OW19219   0.674   3.626   6.352  0.2173  0.4200  0.1827
 2587SOL    HW119220   0.764   3.654   6.371 -0.6540  1.5864  2.6138
 2587SOL    HW219221   0.638   3.601   6.437  0.2388 -0.3054 -0.0277
 2588SOL     OW19222   1.446   0.047  12.035  0.2867 -0.1174  0.1060
 2588SOL    HW119223   1.495   0.127  12.055 -1.4032  0.9201  0.1027
 2588SOL    HW219224   1.402   0.068  11.952 -1.4045  1.1880  1.3181
 2589SOL     OW19225   2.470   1.323   5.872 -0.5531 -0.1147  0.0563
 2589SOL    HW119226   2.528   1.303   5.800  0.3676  0.4129  0.6504
 2589SOL    HW219227   2.540   1.328   5.937 -1.1630 -1.1520  0.8001
 2590SOL     OW19228   4.571   2.216   5.932 -0.3965  0.1606 -0.6510
 2590SOL    HW119229   4.664   2.194   5.930 -0.1770  1.0517 -0.3118
 2590SOL    HW219230   4.552   2.242   6.022 -1.5964 -3.4852  0.1525
 2591SOL     OW19231   2.402   4.225   9.925  0.5297 -0.2863  0.3640
 2591SOL    HW119232   2.323   4.212   9.977 -0.9616 -0.7213 -2.0094
 2591SOL    HW219233   2.370   4.286   9.858 -0.6529  0.0802  1.2706
 2592SOL     OW19234   2.480   2.495  17.674  0.7290  0.2097  0.0219
 2592SOL    HW119235   2.445   2.448   0.054 -3.1782  1.1375 -1.1972
 2592SOL    HW219236   2.548   2.437  17.641  1.1589 -1.3796  3.7164
 2593SOL     OW19237   3.464   4.108  15.803 -0.2971 -0.2162  0.0723
 2593SOL    HW119238   3.419   4.189  15.779  0.2623  0.4806  1.3532
 2593SOL    HW219239   3.553   4.136  15.784 -0.9597  2.7151  1.2431
 2594SOL     OW19240   4.059   3.461   5.396 -0.5649  0.1474 -0.0274
 2594SOL    HW119241   4.011   3.507   5.465 -1.8127  0.0497 -0.8448
 2594SOL    HW219242   4.098   3.399   5.458  2.2700  0.4560 -1.4964
 2595SOL     OW19243   1.533   0.360  12.555 -0.2310  0.3054 -0.1863
 2595SOL    HW119244   1.482   0.414  12.494 -1.3812 -2.1369 -1.3743
 2595SOL    HW219245   1.611   0.415  12.561 -1.3496  2.2950 -3.3703
 2596SOL     OW19246   0.875   3.354   3.704 -0.2938  0.4294  0.4942
 2596SOL    HW119247   0.898   3.276   3.655 -1.5875 -0.3306  1.1025
 2596SOL    HW219248   0.796   3.379   3.654  0.0353 -0.6928 -0.5824
 2597SOL     OW19249   2.938   1.419   5.260  0.1780  0.3423  0.0038
 2597SOL    HW119250   2.899   1.371   5.187  0.4037 -0.1643  0.2149
 2597SOL    HW219251   2.951   1.503   5.217 -0.8008  0.2142 -0.5551
 2598SOL     OW19252   1.518   2.400   2.686 -0.2709 -0.2374 -0.0012
 2598SOL    HW119253   1.607   2.406   2.651 -0.0756  2.4784  0.9632
 2598SOL    HW219254   1.501   2.312   2.653 -1.6276  0.3351 -0.8626
 2599SOL     OW19255   1.784   3.950   3.586 -0.7138  0.3231  0.2915
 2599SOL    HW119256   1.829   4.024   3.546 -0.5903 -0.0452 -0.2534
 2599SOL    HW219257   1.840   3.873   3.576 -2.5443 -0.8807 -0.6287
 2600SOL     OW19258   0.780   0.678   9.239  0.0628 -0.1154 -0.0709
 2600SOL    HW119259   0.841   0.644   9.304 -0.1590 -0.7542 -0.1977
 2600SOL    HW219260   0.703   0.627   9.263 -0.4241  0.3208 -0.7023
 2601SOL     OW19261   3.609   3.292   6.925  0.1590  0.2843  0.2307
 2601SOL    HW119262   3.686   3.278   6.980  1.0762 -1.5577 -1.4910
 2601SOL    HW219263   3.658   3.296   6.843  1.7266  0.4314  1.1724
 2602SOL     OW19264   1.577   2.192   7.414  0.5939  0.1342  0.4096
 2602SOL    HW119265   1.598   2.156   7.328 -1.6708 -1.1001  0.3799
 2602SOL    HW219266   1.642   2.138   7.459 -0.6088 -1.5374  0.1328
 2603SOL     OW19267   2.536   2.934   2.653 -0.1892 -0.1845 -0.0031
 2603SOL    HW119268   2.548   2.887   2.570 -0.3723  0.1950 -0.2423
 2603SOL    HW219269   2.543   2.865   2.720  1.0519  0.3200  0.3912
 2604SOL     OW19270   3.456   4.713  13.291 -0.1268  0.4523 -0.6166
 2604SOL    HW119271   3.454   0.084  13.309 -1.5936 -0.5819  4.5752
 2604SOL    HW219272   3.365   4.686  13.286  0.8498 -2.7195 -1.3791
 2605SOL     OW19273   0.348   0.059   3.268  0.3572 -0.5945  0.3749
 2605SOL    HW119274   0.279   0.073   3.203  1.9924  4.4216 -0.2853
 2605SOL    HW219275   0.429   0.072   3.218 -0.1296  1.5907  0.1520
 2606SOL     OW19276   4.364   2.289   2.905  0.5910  0.3471  0.1251
 2606SOL    HW119277   4.354   2.341   2.985 -1.2947 -1.2406  0.9266
 2606SOL    HW219278   4.286   2.236   2.922  2.2249 -2.2371 -0.4347
 2607SOL     OW19279   1.959   3.362  15.209 -0.1382  0.4148 -0.1536
 2607SOL    HW119280   1.947   3.445  15.163 -3.2775  0.6390  1.0611
 2607SOL    HW219281   1.877   3.315  15.190 -0.8538  0.8975  1.6917
 2608SOL     OW19282   1.356   0.340   3.663  0.3401  0.0759  0.7067
 2608SOL    HW119283   1.310   0.296   3.591  2.1183 -1.0245  0.2388
 2608SOL    HW219284   1.365   0.428   3.627  1.7553  0.1000  1.1286
 2609SOL     OW19285   4.586   1.668  10.734  0.1430 -0.2196 -0.2415
 2609SOL    HW119286   4.610   1.685  10.825  0.3066 -0.8917 -0.1622
 2609SOL    HW219287   4.673   1.673  10.694  0.4731 -1.8961  0.3035
 2610SOL     OW19288   0.382   4.291   9.795 -0.2192 -0.5161  0.1495
 2610SOL    HW119289   0.448   4.233   9.758 -1.0210 -0.6861 -1.0067
 2610SOL    HW219290   0.365   4.249   9.879 -1.2558 -1.6717 -0.6447
 2611SOL     OW19291   2.720   3.943  10.932 -0.5510 -0.3115  0.1529
 2611SOL    HW119292   2.666   4.014  10.896  0.5927 -0.7168 -2.3432
 2611SOL    HW219293   2.755   3.979  11.013  0.2775  1.2441 -0.8930
 2612SOL     OW19294   1.525   0.215  10.904 -0.1075 -0.0551  1.0116
 2612SOL    HW119295   1.610   0.204  10.862 -1.3887 -1.3015 -1.2912
 2612SOL    HW219296   1.471   0.240  10.829  0.6496 -0.0636  0.4650
 2613SOL     OW19297   2.707   3.269   5.860  0.2186 -0.3296  0.2666
 2613SOL    HW119298   2.644   3.333   5.894 -1.1005 -1.5696  0.1859
 2613SOL    HW219299   2.787   3.319   5.845 -0.7966  1.2269  0.0516
 2614SOL     OW19300   0.114   1.814   1.466  0.0536  0.1141  0.1686
 2614SOL    HW119301   0.032   1.765   1.475 -1.0773  1.5963 -2.0567
 2614SOL    HW219302   0.132   1.824   1.559 -3.1380 -1.2857  0.9341
 2615SOL     OW19303   2.916   4.534   5.889  0.2767  0.1619  0.0548
 2615SOL    HW119304   2.996   4.506   5.845 -0.2986 -3.6232  1.4421
 2615SOL    HW219305   2.855   4.543   5.816 -0.8424 -2.4931  0.6721
 2616SOL     OW19306   3.837   1.228  10.097 -0.0081 -0.6138  0.3499
 2616SOL    HW119307   3.893   1.254  10.169  0.4053 -2.9607  0.8749
 2616SOL    HW219308   3.902   1.209  10.030  0.2703 -0.4547  0.5764
 2617SOL     OW19309   1.687   2.698   4.338  0.6877 -0.4498 -0.1540
 2617SOL    HW119310   1.725   2.726   4.255 -2.2045  0.7915 -1.0703
 2617SOL    HW219311   1.627   2.772   4.346  0.0018 -0.7111 -2.8623
 2618SOL     OW19312   3.536   0.475   7.177  0.0570  0.8083  0.4601
 2618SOL    HW119313   3.457   0.422   7.189 -0.9294  2.1685 -0.1114
 2618SOL    HW219314   3.583   0.423   7.112  0.4685  1.5455  0.1655
 2619SOL     OW19315   2.571   3.513   5.978  0.4133  0.1086  0.0255
 2619SOL    HW119316   2.644   3.528   6.038 -1.0257 -0.4700  1.9195
 2619SOL    HW219317   2.578   3.583   5.914 -1.8480  1.6331  1.4172
 2620SOL     OW19318   3.246   3.554   6.124 -0.1766  0.1581 -0.2925
 2620SOL    HW119319   3.207   3.513   6.201  1.1962 -0.5326  0.0281
 2620SOL    HW219320   3.306   3.619   6.160 -0.0240 -0.7288  1.0339
 2621SOL     OW19321   2.753   1.094   3.693  0.2184 -0.0917 -0.2591
 2621SOL    HW119322   2.835   1.089   3.741 -1.0251  1.1514  2.0138
 2621SOL    HW219323   2.742   1.011   3.648 -0.5774 -0.4933  0.6684
 2622SOL     OW19324   0.750   1.707   6.701  0.1755  0.1406  0.6521
 2622SOL    HW119325   0.769   1.619   6.733 -0.9940 -0.2436  0.2753
 2622SOL    HW219326   0.706   1.676   6.623 -0.1833 -2.4532  1.8999
 2623SOL     OW19327   4.594   0.847   0.497  0.0502 -0.0971  0.0520
 2623SOL    HW119328   4.590   0.937   0.529  0.7251  0.2655 -0.8791
 2623SOL    HW219329   4.629   0.810   0.578 -0.4805  1.0508  0.8167
 2624SOL     OW19330   1.274   3.563   4.259 -0.0833  0.5336 -0.3795
 2624SOL    HW119331   1.369   3.556   4.261 -0.0600  1.1082  1.0014
 2624SOL    HW219332   1.248   3.501   4.327  0.8514  2.1767  1.4845
 2625SOL     OW19333   4.672   0.700   1.794 -0.2739  0.2510 -0.4162
 2625SOL    HW119334   4.679   0.627   1.732 -1.4406 -0.1395 -0.0919
 2625SOL    HW219335   4.686   0.772   1.733  0.9703  0.1874 -0.2116
 2626SOL     OW19336   0.718   3.351   8.240  0.2584 -0.9710  0.2105
 2626SOL    HW119337   0.753   3.373   8.326 -0.8417 -0.5879  0.5581
 2626SOL    HW219338   0.756   3.414   8.178  0.7773 -0.7909  0.7142
 2627SOL     OW19339   4.558   0.173   6.881 -0.4197 -0.3623 -0.3651
 2627SOL    HW119340   4.541   0.174   6.975 -2.0785  0.7761 -0.6768
 2627SOL    HW219341   4.653   0.189   6.884 -0.6120  0.4007  1.8987
 2628SOL     OW19342   0.954   3.447   2.507 -0.3884  0.4442  0.2231
 2628SOL    HW119343   0.911   3.431   2.423 -0.7497  0.5435  0.3887
 2628SOL    HW219344   0.982   3.538   2.498  3.4302 -0.7794 -0.4837
 2629SOL     OW19345   3.444   0.662   3.709  0.1228  0.2508 -0.5612
 2629SOL    HW119346   3.472   0.736   3.655 -2.0127 -0.5229 -2.7241
 2629SOL    HW219347   3.413   0.709   3.786 -0.2713 -2.2070  0.7844
 2630SOL     OW19348   4.389   0.378  11.289  0.2466 -0.1752  0.0847
 2630SOL    HW119349   4.299   0.353  11.307 -0.5380  3.0384  0.6990
 2630SOL    HW219350   4.427   0.291  11.282  0.9804  0.2927 -1.8690
 2631SOL     OW19351   4.285   1.223   5.443  0.6212  0.3492 -0.0426
 2631SOL    HW119352   4.351   1.259   5.502 -2.0198  2.0401  1.8730
 2631SOL    HW219353   4.214   1.214   5.507  0.9271 -1.2791  0.0739
 2632SOL     OW19354   1.683   4.210   6.120  0.2601  0.3318  0.0497
 2632SOL    HW119355   1.699   4.234   6.029 -1.6305  3.3268  0.5180
 2632SOL    HW219356   1.644   4.292   6.148 -1.1847 -0.3449  0.0271
 2633SOL     OW19357   4.274   2.194  12.082  0.2841 -0.5050  0.2702
 2633SOL    HW119358   4.248   2.197  12.174 -2.7850  0.8930 -0.6257
 2633SOL    HW219359   4.243   2.279  12.050  1.3960  0.2275  1.1596
 2634SOL     OW19360   1.315   2.488   9.143  0.5772 -0.7422 -0.1448
 2634SOL    HW119361   1.402   2.528   9.150  0.4767 -0.2884 -1.7574
 2634SOL    HW219362   1.263   2.543   9.201  1.0434  0.2931 -0.7242
 2635SOL     OW19363   3.181   4.378   3.145  0.3893  0.5057 -0.2157
 2635SOL    HW119364   3.131   4.452   3.180 -0.1437  0.9359 -1.8853
 2635SOL    HW219365   3.263   4.424   3.125  0.7833 -0.1193 -0.0586
 2636SOL     OW19366   1.125   4.149   5.777  0.2428  0.3518 -0.2222
 2636SOL    HW119367   1.073   4.206   5.834 -0.6823 -0.2423 -0.4672
 2636SOL    HW219368   1.103   4.192   5.695  1.0961  0.1201 -0.5643
 2637SOL     OW19369   3.098   3.940   2.698  0.1723 -0.6210  0.2262
 2637SOL    HW119370   3.136   4.007   2.641  0.9012 -0.6990  0.6193
 2637SOL    HW219371   3.009   3.971   2.714 -0.8004 -3.1281 -0.3085
 2638SOL     OW19372   3.679   2.322   4.132 -0.1432  0.1466 -0.0470
 2638SOL    HW119373   3.621   2.280   4.069 -2.7233  3.0819  0.3922
 2638SOL    HW219374   3.763   2.336   4.087 -1.1023 -0.1933 -1.9075
 2639SOL     OW19375   0.033   2.473   3.197 -0.8522 -0.1484 -0.4890
 2639SOL    HW119376   0.045   2.443   3.107 -0.3721  0.2596 -0.5552
 2639SOL    HW219377   0.021   2.391   3.246  1.1785 -0.0392  0.1738
 2640SOL     OW19378   1.391   3.752   6.097  0.1971  0.4706 -0.2307
 2640SOL    HW119379   1.438   3.830   6.124  0.3505  0.6359 -0.9755
 2640SOL    HW219380   1.444   3.718   6.025  1.6569  2.0257  0.1222
 2641SOL     OW19381   4.114   2.773  17.091  0.6935 -0.2875  0.7900
 2641SOL    HW119382   4.019   2.780  17.080  0.8657 -0.1922 -0.6039
 2641SOL    HW219383   4.147   2.843  17.035  1.2886  0.0523  1.5604
 2642SOL     OW19384   4.391   1.094   3.964 -0.1996  0.1246  0.0756
 2642SOL    HW119385   4.432   1.131   3.886 -0.2205  3.9930  1.9044
 2642SOL    HW219386   4.438   1.131   4.039  1.1635 -0.2296 -0.6068
 2643SOL     OW19387   1.621   2.766   3.916 -0.3115  0.3485  0.7697
 2643SOL    HW119388   1.592   2.855   3.898 -0.9550  0.2041  1.0950
 2643SOL    HW219389   1.628   2.774   4.011  2.6001  0.2120  0.5859
 2644SOL     OW19390   4.652   1.125   7.193  0.1344 -0.4206  0.4460
 2644SOL    HW119391   4.591   1.090   7.127  0.4694  1.6749 -0.9809
 2644SOL    HW219392   4.594   1.184   7.241 -1.4899  0.4177 -2.5126
 2645SOL     OW19393   0.994   4.648   9.177 -0.3490 -0.2426  0.1447
 2645SOL    HW119394   1.056   4.587   9.137  0.5359  1.1156 -0.5904
 2645SOL    HW219395   1.054   4.714   9.212 -0.7578  1.0217 -1.5359
 2646SOL     OW19396   3.913   4.663   8.848 -0.0949 -0.4088 -0.4844
 2646SOL    HW119397   3.896   4.661   8.754  0.8641 -2.7674 -0.5916
 2646SOL    HW219398   3.927   4.570   8.863  0.5503 -0.2588 -0.1747
 2647SOL     OW19399   3.132   3.060   8.053  0.1586 -0.0622  0.6024
 2647SOL    HW119400   3.184   3.133   8.089  3.3255 -1.2193 -1.5710
 2647SOL    HW219401   3.060   3.060   8.115  0.4601 -1.3085  0.9629
 2648SOL     OW19402   4.363   1.175   9.148  0.3985  0.0754 -0.6406
 2648SOL    HW119403   4.425   1.106   9.121  1.7820  1.1368 -0.1807
 2648SOL    HW219404   4.337   1.189   9.057  2.4423  1.7715 -0.9809
 2649SOL     OW19405   3.379   2.002   7.234 -0.0033 -0.0146 -0.7097
 2649SOL    HW119406   3.441   1.931   7.251 -0.3247 -0.4823 -1.5240
 2649SOL    HW219407   3.396   2.067   7.303 -0.5107 -0.2859 -0.3333
 2650SOL     OW19408   0.234   0.008   4.881  0.2832 -0.6640 -0.1810
 2650SOL    HW119409   0.316   4.682   4.882  0.7612  0.0600 -2.4893
 2650SOL    HW219410   0.267   0.093   4.850  1.1673 -1.5917 -1.8077
 2651SOL     OW19411   4.623   1.247   0.792 -0.1417 -0.0278 -0.3167
 2651SOL    HW119412   4.679   1.313   0.834 -1.1754  0.7966 -0.2500
 2651SOL    HW219413   4.542   1.262   0.841 -1.1220  0.3672 -2.0783
 2652SOL     OW19414   0.029   0.302   0.889 -0.0125 -0.2929  0.0636
 2652SOL    HW119415   4.714   0.380   0.849  1.4358  0.6005  0.3991
 2652SOL    HW219416   0.115   0.343   0.899  0.1788 -0.2161 -1.9899
 2653SOL     OW19417   0.539   3.409  14.657 -0.0871 -0.4930  0.1300
 2653SOL    HW119418   0.606   3.362  14.607  1.1128  1.0632  0.2857
 2653SOL    HW219419   0.477   3.336  14.661 -1.5053  0.6532 -1.1667
 2654SOL     OW19420   3.481   4.550  14.896 -0.1519 -0.1012  0.2186
 2654SOL    HW119421   3.386   4.548  14.904  0.0804  1.3524  3.1714
 2654SOL    HW219422   3.494   4.634  14.852  1.2154 -0.4762 -0.0852
 2655SOL     OW19423   3.743   1.291  11.874 -0.0414  0.1981  0.3036
 2655SOL    HW119424   3.763   1.382  11.893 -1.2467  0.8020 -1.3594
 2655SOL    HW219425   3.828   1.265  11.838  1.0048  2.5196  1.1295
 2656SOL     OW19426   3.216   4.705   9.734 -0.3283 -0.6146 -0.1205
 2656SOL    HW119427   3.244   0.070   9.756  1.7139 -1.4131  0.4922
 2656SOL    HW219428   3.177   4.672   9.815  0.9306 -0.3443  0.5953
 2657SOL     OW19429   3.745   0.339   8.187 -0.3386 -0.3455 -0.1988
 2657SOL    HW119430   3.677   0.372   8.246  0.4713  0.8753  0.0662
 2657SOL    HW219431   3.703   0.342   8.101  2.4492 -1.8053 -1.6174
 2658SOL     OW19432   3.231   3.375   9.121  0.2670  0.2091  0.7691
 2658SOL    HW119433   3.203   3.321   9.194  0.2312  1.0584  1.3867
 2658SOL    HW219434   3.292   3.316   9.077 -0.4395 -0.0785  0.1826
 2659SOL     OW19435   0.864   1.385   8.187 -0.5078 -0.7463  0.1580
 2659SOL    HW119436   0.815   1.440   8.126  0.2606  0.4936  0.6553
 2659SOL    HW219437   0.823   1.300   8.170 -0.3064 -0.5764 -1.1995
 2660SOL     OW19438   0.273   1.392   1.562 -0.6273  0.2158  0.0310
 2660SOL    HW119439   0.290   1.467   1.504 -0.1365  0.9873  1.1706
 2660SOL    HW219440   0.303   1.429   1.645 -2.0173 -0.3129  0.7702
 2661SOL     OW19441   3.968   3.942   1.605  0.1359  0.5963  0.7972
 2661SOL    HW119442   3.906   3.878   1.640  0.9717 -2.6274 -3.5211
 2661SOL    HW219443   3.979   4.004   1.677  0.0839  1.7385 -0.1724
 2662SOL     OW19444   4.377   0.840   3.433  0.0374  0.0020 -0.0308
 2662SOL    HW119445   4.428   0.921   3.420 -1.7374  1.3008  1.1652
 2662SOL    HW219446   4.442   0.785   3.388 -0.7614  1.2654 -2.7483
 2663SOL     OW19447   2.829   0.023   5.100  0.6440  0.3604  0.1492
 2663SOL    HW119448   2.765   4.714   5.036 -2.5096  1.8255  2.5258
 2663SOL    HW219449   2.898   0.052   5.041 -1.2680  0.5092 -2.0265
 2664SOL     OW19450   3.563   3.077   3.162  0.3696  0.7634  0.1490
 2664SOL    HW119451   3.553   3.164   3.124  0.6289  0.2475 -1.0901
 2664SOL    HW219452   3.650   3.081   3.200 -0.1852  3.8544  1.0890
 2665SOL     OW19453   4.498   3.163   3.849 -0.4729 -0.7435  0.2144
 2665SOL    HW119454   4.496   3.200   3.760 -0.1533  0.8929  0.8834
 2665SOL    HW219455   4.544   3.083   3.824  1.1069 -0.0733  0.9804
 2666SOL     OW19456   2.205   1.845   5.722  0.1350 -0.5470 -0.2850
 2666SOL    HW119457   2.222   1.790   5.646  0.6971 -4.8221  2.9190
 2666SOL    HW219458   2.248   1.797   5.793 -1.1779  0.9028  1.5213
 2667SOL     OW19459   0.761   4.034   8.247  0.3480  0.1899 -0.0822
 2667SOL    HW119460   0.670   4.061   8.232 -0.0018 -0.4170  0.9932
 2667SOL    HW219461   0.756   3.962   8.309 -0.4184  2.2828  2.2965
 2668SOL     OW19462   4.293   4.615   8.357 -0.1590  0.1135 -0.5786
 2668SOL    HW119463   4.207   4.657   8.356 -1.0309 -1.6721 -0.4931
 2668SOL    HW219464   4.337   4.644   8.437 -0.7097 -1.4237  0.2611
 2669SOL     OW19465   0.028   1.224  16.420  0.3092 -0.0571 -0.3319
 2669SOL    HW119466   0.009   1.210  16.327  1.2223 -2.6778 -0.1194
 2669SOL    HW219467   0.069   1.140  16.441 -1.5759 -0.9917 -0.4097
 2670SOL     OW19468   3.064   0.131   3.791  0.0004 -0.1183 -0.4461
 2670SOL    HW119469   3.041   0.154   3.702  0.9781 -0.0344 -0.6844
 2670SOL    HW219470   3.090   0.211   3.838 -1.3809  0.2746 -0.3683
 2671SOL     OW19471   0.761   4.035  12.678  0.2285 -0.3333 -0.0728
 2671SOL    HW119472   0.678   3.993  12.657 -1.2800  1.6101  2.1305
 2671SOL    HW219473   0.797   4.035  12.589 -1.4641 -0.8406 -0.7568
 2672SOL     OW19474   2.217   3.282   3.968  0.1854 -0.0231  1.2245
 2672SOL    HW119475   2.296   3.313   3.921 -0.0369 -0.9546  0.2382
 2672SOL    HW219476   2.208   3.195   3.929 -0.3489  1.2670 -1.6000
 2673SOL     OW19477   3.385   1.106   2.417  0.2589  0.1290 -0.2428
 2673SOL    HW119478   3.322   1.067   2.476 -0.4758  2.9457  0.8436
 2673SOL    HW219479   3.329   1.164   2.365  0.9144 -0.4269 -1.5617
 2674SOL     OW19480   3.024   3.903  12.767  0.0664  0.3074 -0.1102
 2674SOL    HW119481   3.017   3.966  12.696  1.6959 -0.2553 -0.7760
 2674SOL    HW219482   2.978   3.942  12.842 -2.1236 -1.0463 -0.7242
 2675SOL     OW19483   0.844   2.679  17.382 -0.4015  0.4477 -0.4578
 2675SOL    HW119484   0.853   2.620  17.457 -0.3323  0.8567 -0.1469
 2675SOL    HW219485   0.886   2.645  17.303  1.3617 -2.3235  1.6792
 2676SOL     OW19486   4.652   0.133   8.081 -0.2772  0.1367 -0.1584
 2676SOL    HW119487   4.667   0.226   8.098  2.4672 -0.4113  0.3757
 2676SOL    HW219488   0.015   0.114   8.044  0.1336 -0.1606  0.9291
 2677SOL     OW19489   2.880   0.946   6.628 -0.2322 -0.0789 -0.1443
 2677SOL    HW119490   2.858   1.027   6.582 -1.3450 -0.3773 -0.1446
 2677SOL    HW219491   2.968   0.969   6.657 -0.6896  1.8342 -0.2831
 2678SOL     OW19492   1.356   1.317  14.084  0.5406  0.3002 -0.1634
 2678SOL    HW119493   1.282   1.330  14.024 -0.2823  1.0592  0.9996
 2678SOL    HW219494   1.380   1.407  14.107  1.3268  0.2453 -0.7720
 2679SOL     OW19495   3.399   0.513  13.264 -0.3769 -0.2329  0.6733
 2679SOL    HW119496   3.379   0.607  13.258 -1.7356 -0.5528  0.0176
 2679SOL    HW219497   3.345   0.481  13.191  3.1543  0.1080 -2.1216
 2680SOL     OW19498   3.824   0.823   3.778  0.6288  0.1242 -0.4828
 2680SOL    HW119499   3.821   0.737   3.820 -1.0260  1.3487  1.8755
 2680SOL    HW219500   3.833   0.792   3.688 -2.1428 -2.9523  0.3084
 2681SOL     OW19501   4.680   3.686   3.050  0.6334 -0.7794  0.1341
 2681SOL    HW119502   4.602   3.679   3.105 -0.2189 -1.5815 -1.1714
 2681SOL    HW219503   0.017   3.712   3.119 -0.2678 -1.2404  1.0953
 2682SOL     OW19504   2.895   3.366   3.850  0.5613 -0.7393 -0.5435
 2682SOL    HW119505   2.971   3.418   3.824 -0.1848  0.8193  0.4246
 2682SOL    HW219506   2.836   3.430   3.889 -0.4053 -1.5523 -0.6761
 2683SOL     OW19507   0.550   2.134   2.749 -0.4913 -0.3569  0.4752
 2683SOL    HW119508   0.528   2.226   2.760  1.2735  0.0539  0.5361
 2683SOL    HW219509   0.475   2.108   2.694 -0.3493 -0.4767  0.3364
 2684SOL     OW19510   0.424   3.326   5.100 -0.2119  0.4767  0.3507
 2684SOL    HW119511   0.505   3.349   5.055 -0.8753  1.3922 -0.3737
 2684SOL    HW219512   0.456   3.267   5.168 -1.1336 -0.0066  0.3680
 2685SOL     OW19513   4.548   4.136   2.632 -0.2217 -0.5700 -0.7032
 2685SOL    HW119514   4.621   4.163   2.577 -0.1202 -0.8989 -0.7269
 2685SOL    HW219515   4.543   4.226   2.666  3.1272 -0.0351 -1.6526
 2686SOL     OW19516   2.247   1.196   9.983  0.1006 -0.2945  0.2039
 2686SOL    HW119517   2.313   1.171   9.919 -1.6567 -0.9548 -1.3566
 2686SOL    HW219518   2.192   1.257   9.933  0.2790 -1.4690 -1.4036
 2687SOL     OW19519   1.097   1.851   6.454 -0.2630 -0.3865  0.5257
 2687SOL    HW119520   1.112   1.782   6.520 -2.3759 -0.8670  0.4903
 2687SOL    HW219521   1.029   1.821   6.394  0.5964  2.5848 -1.9409
 2688SOL     OW19522   4.472   3.928  16.251 -0.4882 -0.9719  0.0865
 2688SOL    HW119523   4.531   3.901  16.180 -0.0381  1.2878 -0.3964
 2688SOL    HW219524   4.446   4.019  16.238  0.8076 -0.4960  0.8103
 2689SOL     OW19525   3.585   3.172   5.498 -0.0977  0.0014  0.4189
 2689SOL    HW119526   3.654   3.115   5.465  0.7356  0.0184  2.1155
 2689SOL    HW219527   3.546   3.117   5.565  0.0694 -2.8483 -1.8644
 2690SOL     OW19528   4.307   4.131  12.566  0.1859 -0.0811 -0.6095
 2690SOL    HW119529   4.278   4.200  12.626 -1.9332 -0.7319 -0.8856
 2690SOL    HW219530   4.314   4.175  12.481 -0.8651  1.6700  0.2018
 2691SOL     OW19531   0.903   3.832  16.746  0.1621 -0.1368 -0.0507
 2691SOL    HW119532   0.874   3.744  16.768 -0.1407  0.1211  0.5563
 2691SOL    HW219533   0.869   3.842  16.657 -1.4535  2.9817  0.9218
 2692SOL     OW19534   1.374   4.624   8.572  0.0328  0.0430 -0.1062
 2692SOL    HW119535   1.302   4.672   8.532  0.3633  1.2565  0.7558
 2692SOL    HW219536   1.408   4.683   8.640  1.4915 -1.5725  0.5727
 2693SOL     OW19537   1.420   1.231   2.246  0.0313 -0.6492  0.4168
 2693SOL    HW119538   1.472   1.297   2.199  2.2077 -2.1168  0.7898
 2693SOL    HW219539   1.347   1.222   2.184  0.5277 -0.2820 -0.2285
 2694SOL     OW19540   1.254   1.293  12.858 -0.2837 -0.1014 -0.6623
 2694SOL    HW119541   1.173   1.331  12.894 -0.6260 -0.8925 -0.6011
 2694SOL    HW219542   1.301   1.375  12.842  1.1234 -0.9923 -1.0012
 2695SOL     OW19543   1.054   4.026   8.684 -0.3840 -0.0949  0.0063
 2695SOL    HW119544   1.048   3.942   8.640  0.1867 -0.5479  0.7852
 2695SOL    HW219545   1.083   4.074   8.606 -0.1360  0.8726  0.6966
 2696SOL     OW19546   2.792   1.974   5.322  0.6816 -0.1841  0.2694
 2696SOL    HW119547   2.847   1.975   5.244  1.3037  2.0500  0.7279
 2696SOL    HW219548   2.713   2.024   5.299  0.7708 -0.9461 -1.7371
 2697SOL     OW19549   1.007   1.448  16.139 -0.0482 -0.3000  0.4788
 2697SOL    HW119550   1.004   1.424  16.046  0.4530 -1.1091  0.6673
 2697SOL    HW219551   0.936   1.393  16.173 -0.6321 -1.1186 -2.0749
 2698SOL     OW19552   2.137   3.347  15.931 -0.1275 -0.1648 -0.0892
 2698SOL    HW119553   2.139   3.439  15.959 -0.5204 -0.7483  1.8400
 2698SOL    HW219554   2.120   3.358  15.837 -0.0087 -1.5043 -0.2655
 2699SOL     OW19555   3.903   2.409   4.045 -0.2468  0.0037 -0.1514
 2699SOL    HW119556   3.971   2.403   3.978  1.3421 -2.2310  1.6406
 2699SOL    HW219557   3.833   2.448   3.992 -0.4011  1.0351  0.8191
 2700SOL     OW19558   2.242   3.373  13.853  0.5278  0.3542 -0.2918
 2700SOL    HW119559   2.236   3.281  13.829  2.2355 -0.1923  1.3392
 2700SOL    HW219560   2.290   3.412  13.780 -1.0655  1.8553 -0.5484
 2701SOL     OW19561   0.320   0.320  14.033  0.3665  0.2677 -0.3627
 2701SOL    HW119562   0.340   0.227  14.038 -2.3189 -0.5137 -3.9501
 2701SOL    HW219563   0.257   0.323  14.105  2.0031  2.6752  0.9745
 2702SOL     OW19564   0.757   1.635  12.018  0.0538  0.1727 -0.2873
 2702SOL    HW119565   0.715   1.583  12.086  0.6469  0.9477  0.6811
 2702SOL    HW219566   0.760   1.723  12.056  0.8821 -0.1377  0.3637
 2703SOL     OW19567   4.293   0.573   8.970 -0.9295 -0.7011 -0.3001
 2703SOL    HW119568   4.374   0.542   9.011  0.7875  3.4537 -0.4655
 2703SOL    HW219569   4.238   0.607   9.041 -1.7458 -1.5900 -0.5124
 2704SOL     OW19570   3.768   0.585   9.140  0.0686  0.1707 -0.0304
 2704SOL    HW119571   3.762   0.585   9.044 -0.8803 -3.9337  0.0246
 2704SOL    HW219572   3.689   0.539   9.169 -0.0107  1.4296  1.7510
 2705SOL     OW19573   2.990   2.490   7.362  0.7786 -0.0028  0.3338
 2705SOL    HW119574   3.074   2.535   7.353  0.6040  0.7371  2.4495
 2705SOL    HW219575   2.930   2.561   7.381 -0.0522 -0.3776 -0.9155
 2706SOL     OW19576   0.673   2.986   3.979  0.8136  0.0144 -0.0284
 2706SOL    HW119577   0.690   2.899   4.015 -0.8957 -1.0637 -1.8085
 2706SOL    HW219578   0.585   2.998   4.014  0.6976 -3.1581  0.7906
 2707SOL     OW19579   1.382   1.788   3.999  0.3311 -0.2257 -0.0015
 2707SOL    HW119580   1.310   1.769   3.938 -0.9435  2.2851  0.7063
 2707SOL    HW219581   1.443   1.826   3.936 -1.8614 -0.6498 -2.3844
 2708SOL     OW19582   4.123   2.177   6.039  0.2350  0.0751 -0.4546
 2708SOL    HW119583   4.198   2.226   6.008  0.3348 -0.6639 -1.3965
 2708SOL    HW219584   4.055   2.243   6.027 -0.7057 -0.8513 -0.2882
 2709SOL     OW19585   0.160   3.402  16.711  0.7301 -0.4720  0.3833
 2709SOL    HW119586   0.195   3.313  16.718  2.2385 -0.1816 -3.2025
 2709SOL    HW219587   0.152   3.425  16.804 -0.5999 -1.4979  0.5174
 2710SOL     OW19588   2.368   0.695   3.824  0.7187 -0.0523 -0.1490
 2710SOL    HW119589   2.441   0.683   3.763  0.9197  0.9743 -0.1024
 2710SOL    HW219590   2.328   0.775   3.790  0.0508 -0.2619  0.1381
 2711SOL     OW19591   1.816   3.900   5.766  0.3000 -0.4196 -0.3074
 2711SOL    HW119592   1.730   3.923   5.731  0.5971  1.5231  0.2327
 2711SOL    HW219593   1.866   3.900   5.684 -0.1749  1.6377 -0.5948
 2712SOL     OW19594   3.138   4.007   5.850  0.3461 -0.5662  0.4882
 2712SOL    HW119595   3.133   4.005   5.755  1.0191 -0.7102  0.4585
 2712SOL    HW219596   3.073   4.077   5.860  0.7047 -0.3120  1.0306
 2713SOL     OW19597   0.813   0.226   8.257  0.0905  0.3861  0.4329
 2713SOL    HW119598   0.825   0.287   8.330  1.6488  0.1994  0.3135
 2713SOL    HW219599   0.745   0.274   8.208  2.4112  2.4753 -0.7550
 2714SOL     OW19600   0.543   0.170  15.638 -0.8480  0.3339 -0.1022
 2714SOL    HW119601   0.536   0.265  15.632  2.2789  0.4768 -1.5072
 2714SOL    HW219602   0.452   0.143  15.647 -0.9077  1.1879  1.8370
 2715SOL     OW19603   2.931   0.907  11.438 -0.3633  0.0125 -0.2881
 2715SOL    HW119604   2.854   0.920  11.493 -1.6009  0.4530 -2.1296
 2715SOL    HW219605   2.974   0.831  11.478  0.6388 -0.2222 -1.8248
 2716SOL     OW19606   2.758   3.180   3.179 -0.5503 -0.2481  0.0154
 2716SOL    HW119607   2.775   3.246   3.112 -0.6091 -1.6258 -1.3691
 2716SOL    HW219608   2.665   3.194   3.195 -0.2088  0.8208  1.0766
 2717SOL     OW19609   1.917   2.939   0.883  0.1588  0.1605  0.0485
 2717SOL    HW119610   1.839   2.955   0.830 -0.0426 -1.9664 -0.2696
 2717SOL    HW219611   1.900   2.977   0.970  2.3020  2.1561 -0.3976
 2718SOL     OW19612   0.908   0.363   0.722  0.1461  0.6052  0.2569
 2718SOL    HW119613   0.911   0.350   0.627 -1.7394 -1.3924  0.4569
 2718SOL    HW219614   0.960   0.286   0.744 -0.7386  0.2327  1.0613
 2719SOL     OW19615   1.011   1.375   7.723 -0.0521 -0.3557  0.3812
 2719SOL    HW119616   0.941   1.416   7.672  1.2275 -1.0920 -1.9631
 2719SOL    HW219617   0.961   1.339   7.797 -0.2334 -2.0970 -0.5790
 2720SOL     OW19618   1.825   1.034   5.477  0.6267  0.2921 -0.1049
 2720SOL    HW119619   1.908   1.075   5.453  0.9293 -0.3359 -0.1132
 2720SOL    HW219620   1.846   1.001   5.565 -4.8637 -0.9478  0.7008
 2721SOL     OW19621   2.430   0.781   8.460 -0.2844 -0.0671  0.1126
 2721SOL    HW119622   2.363   0.812   8.399  0.7678 -0.8896 -1.4791
 2721SOL    HW219623   2.431   0.852   8.524 -2.9076  0.6567 -0.6430
 2722SOL     OW19624   1.413   3.017   7.806  0.7576  0.2507 -0.1686
 2722SOL    HW119625   1.358   2.962   7.861  0.1234 -1.6517 -2.7009
 2722SOL    HW219626   1.351   3.081   7.768 -0.5446 -1.8290 -1.5480
 2723SOL     OW19627   1.125   4.356  16.544 -0.2158 -0.8009 -0.0965
 2723SOL    HW119628   1.123   4.272  16.497 -1.3922 -0.1606 -1.2044
 2723SOL    HW219629   1.038   4.356  16.583 -0.8532 -1.7984 -1.5039
 2724SOL     OW19630   1.339   3.816   8.378 -0.0570  0.3013  0.0264
 2724SOL    HW119631   1.314   3.759   8.306 -0.1802  0.0028  0.3032
 2724SOL    HW219632   1.399   3.876   8.333  2.4596 -0.0143  2.8895
 2725SOL     OW19633   4.418   3.197   4.324  0.2406 -0.0820 -0.2481
 2725SOL    HW119634   4.379   3.232   4.243 -1.8336  0.9588  1.2021
 2725SOL    HW219635   4.342   3.152   4.361  0.7129 -1.0075 -0.3823
 2726SOL     OW19636   0.987   0.081   4.325  0.0052 -0.4521 -0.1007
 2726SOL    HW119637   1.017   0.121   4.244  1.1254 -0.8750  0.1120
 2726SOL    HW219638   0.955   0.002   4.282 -0.2041 -1.6043  2.1662
 2727SOL     OW19639   4.226   0.021   8.109 -0.3611  0.2257  0.1423
 2727SOL    HW119640   4.175   0.102   8.114 -1.7271 -0.6359  0.2099
 2727SOL    HW219641   4.245   4.715   8.198  0.1030  2.3413  0.7684
 2728SOL     OW19642   1.424   0.877   5.931 -0.6859  0.0314 -0.3649
 2728SOL    HW119643   1.397   0.826   5.854  1.6361 -2.6859  0.5976
 2728SOL    HW219644   1.333   0.886   5.958 -1.0080  0.9734 -1.7355
 2729SOL     OW19645   0.548   3.150  17.105 -0.2337  0.2065  0.8159
 2729SOL    HW119646   0.535   3.164  17.011 -1.3123 -1.1655  0.7545
 2729SOL    HW219647   0.518   3.060  17.112 -2.3921  0.7263 -1.6947
 2730SOL     OW19648   0.670   0.569   3.546 -0.2066 -0.2764 -0.6713
 2730SOL    HW119649   0.684   0.478   3.523  2.3878 -0.2219  0.6772
 2730SOL    HW219650   0.720   0.625   3.486 -0.4066 -0.0261 -0.6072
 2731SOL     OW19651   0.207   1.318   2.117 -0.6290 -0.6861  0.0330
 2731SOL    HW119652   0.186   1.254   2.049 -2.1824  0.1194 -0.2547
 2731SOL    HW219653   0.299   1.301   2.134 -1.0432 -1.8836  1.0837
 2732SOL     OW19654   3.339   2.525   6.917  0.6318 -0.1003 -0.1925
 2732SOL    HW119655   3.368   2.497   6.830 -2.4506  1.5869 -1.7710
 2732SOL    HW219656   3.265   2.583   6.899 -0.6169 -0.7235  2.9951
 2733SOL     OW19657   0.632   3.565   7.605 -0.2947 -0.3096  0.7012
 2733SOL    HW119658   0.653   3.600   7.692 -3.0055  0.4536  1.0475
 2733SOL    HW219659   0.611   3.642   7.552 -0.3319  0.6741  2.1163
 2734SOL     OW19660   4.661   4.463  15.478  0.5306 -0.1333 -0.1749
 2734SOL    HW119661   4.583   4.519  15.480  1.1665  0.6135  2.3060
 2734SOL    HW219662   4.691   4.460  15.568  0.2836  0.7606 -0.0641
 2735SOL     OW19663   0.849   2.519   1.961  0.1522  0.1465  0.3193
 2735SOL    HW119664   0.921   2.465   1.993 -0.0511 -0.3057  0.0310
 2735SOL    HW219665   0.865   2.511   1.867 -1.8175  1.3762 -0.1179
 2736SOL     OW19666   3.736   2.268   8.131 -0.1618 -0.3165  0.0025
 2736SOL    HW119667   3.817   2.226   8.160 -1.1852 -1.4830  1.2032
 2736SOL    HW219668   3.727   2.241   8.040  0.7957 -0.7013  0.0188
 2737SOL     OW19669   1.318   3.988   4.099  0.1827 -0.0103 -0.2683
 2737SOL    HW119670   1.248   3.948   4.048  0.2949  0.1705 -0.5600
 2737SOL    HW219671   1.324   3.925   4.172 -1.9580  0.0693 -0.0166
 2738SOL     OW19672   1.429   0.324   9.419  0.4915 -0.2428  0.2866
 2738SOL    HW119673   1.367   0.388   9.383  0.5191  0.5673  1.7042
 2738SOL    HW219674   1.487   0.305   9.345  2.2624 -1.5717  2.0141
 2739SOL     OW19675   2.285   1.570   7.379  0.2219 -0.1463  0.4439
 2739SOL    HW119676   2.294   1.504   7.311  1.5804  1.1136 -0.6163
 2739SOL    HW219677   2.371   1.612   7.388  1.0856 -2.0363  0.9694
 2740SOL     OW19678   3.833   3.504   5.260 -0.2010  0.2795  1.0143
 2740SOL    HW119679   3.837   3.413   5.289  1.9763  0.2963  0.7884
 2740SOL    HW219680   3.925   3.524   5.279 -0.2380  1.6291 -0.2426
 2741SOL     OW19681   0.815   2.147  17.336 -0.2071  0.5207  0.4097
 2741SOL    HW119682   0.731   2.110  17.311  0.5972  0.6224 -2.5060
 2741SOL    HW219683   0.838   2.215  17.273 -1.7057 -2.3257 -3.1830
 2742SOL     OW19684   4.693   4.490   8.740  0.0077  0.1184 -0.0607
 2742SOL    HW119685   4.622   4.428   8.725 -1.2361  1.9298 -1.6709
 2742SOL    HW219686   0.016   4.459   8.663 -1.3647 -0.7248 -0.5423
 2743SOL     OW19687   2.124   4.156   2.161  0.0448 -0.0134  0.0352
 2743SOL    HW119688   2.124   4.131   2.068  0.6705  2.4565 -0.6269
 2743SOL    HW219689   2.112   4.080   2.218 -1.0358  1.1859  1.4124
 2744SOL     OW19690   2.495   2.244   4.927  0.7104 -0.0853 -0.0033
 2744SOL    HW119691   2.554   2.316   4.949  0.0309  0.3769  0.3243
 2744SOL    HW219692   2.429   2.255   4.996  0.6778  0.5206 -0.1340
 2745SOL     OW19693   4.273   3.010  17.074 -0.0243 -0.3362 -0.7527
 2745SOL    HW119694   4.281   3.050  17.161 -1.2222 -0.6115 -0.5196
 2745SOL    HW219695   4.348   2.951  17.083 -0.9069 -1.1097  1.5397
 2746SOL     OW19696   1.463   1.659   1.029  0.0361 -0.1725  0.5290
 2746SOL    HW119697   1.547   1.614   1.026  0.1385  0.0511  0.1212
 2746SOL    HW219698   1.453   1.708   0.948 -0.1417  0.0297  0.6720
 2747SOL     OW19699   1.234   0.179   7.082  0.9096 -0.3784  0.0070
 2747SOL    HW119700   1.246   0.231   7.162  2.1609 -0.8400  0.1143
 2747SOL    HW219701   1.320   0.194   7.042  0.4249  1.7280 -0.2447
 2748SOL     OW19702   3.178   0.338   5.667 -0.6906 -0.1062 -0.3534
 2748SOL    HW119703   3.217   0.425   5.660  0.5560 -0.6443 -0.0939
 2748SOL    HW219704   3.148   0.331   5.576  0.1332 -1.9088 -0.4842
 2749SOL     OW19705   3.786   2.461   1.644  0.0569 -0.5984  0.1128
 2749SOL    HW119706   3.796   2.551   1.676  2.2023 -0.8538  0.1644
 2749SOL    HW219707   3.716   2.432   1.702 -0.6432 -2.5324 -1.7273
 2750SOL     OW19708   3.782   1.243  11.190 -0.0478 -0.2827  0.6904
 2750SOL    HW119709   3.773   1.334  11.162 -1.5459 -0.7385 -0.3221
 2750SOL    HW219710   3.868   1.235  11.149  0.3936 -1.1443  1.7750
 2751SOL     OW19711   2.157   1.391   6.363 -0.2354 -0.4471 -0.1997
 2751SOL    HW119712   2.195   1.322   6.417  0.3879  0.6219  0.7258
 2751SOL    HW219713   2.162   1.462   6.426  0.9909  0.8469 -1.7393
 2752SOL     OW19714   3.138   0.502  12.734  0.1103 -0.4729  0.1964
 2752SOL    HW119715   3.196   0.528  12.806  0.3782  1.5202 -0.7337
 2752SOL    HW219716   3.156   0.557  12.658  1.2413 -1.5536 -0.2951
 2753SOL     OW19717   3.349   1.691   8.331 -0.1365 -0.7406 -0.2774
 2753SOL    HW119718   3.335   1.679   8.425 -0.7669  2.2633  0.0306
 2753SOL    HW219719   3.371   1.784   8.326 -1.4489 -0.3634  0.7007
 2754SOL     OW19720   1.294   2.207  13.726  0.0618  0.0206 -0.0411
 2754SOL    HW119721   1.235   2.132  13.734  2.7832 -1.9615  1.2430
 2754SOL    HW219722   1.373   2.161  13.698 -1.5761 -1.5816 -2.0089
 2755SOL     OW19723   0.758   4.444   4.758  0.2985  0.1666  0.2715
 2755SOL    HW119724   0.689   4.420   4.696 -0.4679  0.1118  1.1229
 2755SOL    HW219725   0.818   4.370   4.752 -0.2274 -0.1742 -0.8266
 2756SOL     OW19726   4.549   1.725  10.004 -0.4125 -0.3240  0.1670
 2756SOL    HW119727   4.585   1.800  10.051 -1.0577  0.2981 -0.3302
 2756SOL    HW219728   4.552   1.661  10.075  0.8176  1.4825  1.7356
 2757SOL     OW19729   3.932   0.023   8.015  0.2253  0.5023  0.0924
 2757SOL    HW119730   3.891   0.091   8.069  1.3467  0.1712  1.3706
 2757SOL    HW219731   4.025   0.036   8.030 -0.2488  2.5161  1.3108
 2758SOL     OW19732   1.307   0.445   4.081 -0.2344 -0.1746  0.6832
 2758SOL    HW119733   1.381   0.411   4.031  0.6063  0.6200  1.3807
 2758SOL    HW219734   1.301   0.534   4.044 -0.7079  0.6631  2.7659
 2759SOL     OW19735   3.643   2.320   6.340  0.0503  0.1757 -0.3130
 2759SOL    HW119736   3.600   2.406   6.338 -5.2360 -2.5140 -1.5141
 2759SOL    HW219737   3.731   2.344   6.369 -0.3560  0.9621  0.2584
 2760SOL     OW19738   0.469   0.605   3.219 -0.3487 -0.3876  0.2850
 2760SOL    HW119739   0.382   0.573   3.243 -0.3114 -1.3897 -0.8779
 2760SOL    HW219740   0.480   0.671   3.287 -3.6620  0.5563 -0.1335
 2761SOL     OW19741   4.112   0.118   4.046  0.0361 -0.6280  0.6304
 2761SOL    HW119742   4.147   0.062   4.115  2.4863 -0.5191 -0.5112
 2761SOL    HW219743   4.179   0.186   4.036  1.0368 -1.7437 -0.2795
 2762SOL     OW19744   1.518   3.685   4.034  0.4172  0.0450 -0.4190
 2762SOL    HW119745   1.605   3.686   4.075 -0.1548  0.3250  0.7822
 2762SOL    HW219746   1.507   3.591   4.017 -2.6911  0.0270  1.7797
 2763SOL     OW19747   2.135   3.094   2.128  0.0605 -0.9362 -0.4841
 2763SOL    HW119748   2.084   3.106   2.048 -1.1669  1.2678  0.6261
 2763SOL    HW219749   2.225   3.091   2.096 -0.0706  1.2141 -1.0727
 2764SOL     OW19750   2.292   3.298   6.574  0.0230  0.3111  0.1090
 2764SOL    HW119751   2.386   3.280   6.569  0.1205  0.3826  1.7424
 2764SOL    HW219752   2.264   3.277   6.663 -0.2952 -1.7264 -0.4688
 2765SOL     OW19753   2.845   2.515   4.700  0.4728  0.1028  0.4168
 2765SOL    HW119754   2.875   2.606   4.699  2.2465 -0.4985 -1.3121
 2765SOL    HW219755   2.754   2.530   4.728 -0.0623  0.1231 -1.3413
 2766SOL     OW19756   3.145   2.086  11.175  0.4401 -0.5936  0.1468
 2766SOL    HW119757   3.211   2.069  11.109  0.8148  0.8448  0.1553
 2766SOL    HW219758   3.074   2.125  11.124  1.9937  1.1655 -0.6658
 2767SOL     OW19759   3.244   3.001   5.854 -0.3012  0.4399  0.6569
 2767SOL    HW119760   3.189   2.953   5.916  0.8686 -0.6521  0.8507
 2767SOL    HW219761   3.298   3.059   5.906  1.5473  0.9541 -1.8633
 2768SOL     OW19762   0.053   1.423   8.127  0.5411 -0.2660  0.4499
 2768SOL    HW119763   0.016   1.336   8.138 -0.8648  0.3965  1.0025
 2768SOL    HW219764   0.146   1.402   8.115  0.4250  0.4322 -1.6785
 2769SOL     OW19765   3.230   3.697  12.780 -0.2587  0.0195 -0.2440
 2769SOL    HW119766   3.161   3.764  12.787  1.1037  1.3586  0.2357
 2769SOL    HW219767   3.243   3.700  12.685 -1.2484 -0.4942 -0.4016
 2770SOL     OW19768   1.753   4.117   2.509 -0.5895  0.2785 -0.7670
 2770SOL    HW119769   1.805   4.147   2.584  0.0523  0.4349 -1.2728
 2770SOL    HW219770   1.797   4.172   2.444  0.9984 -0.9536 -0.7404
 2771SOL     OW19771   1.393   3.213   8.858 -0.1732 -0.8196  0.1430
 2771SOL    HW119772   1.414   3.257   8.940 -0.1489  1.1188 -0.9284
 2771SOL    HW219773   1.365   3.124   8.880  0.0772 -1.2572 -1.2926
 2772SOL     OW19774   0.105   0.779  10.097  0.8865 -0.2877 -0.5502
 2772SOL    HW119775   0.183   0.835  10.093  0.4213  0.3731 -0.1901
 2772SOL    HW219776   0.044   0.833  10.048 -0.3631 -1.0150  0.2218
 2773SOL     OW19777   3.206   3.576   5.848  0.1930 -0.4892  0.3476
 2773SOL    HW119778   3.289   3.617   5.821  0.6351 -1.6778 -0.0790
 2773SOL    HW219779   3.211   3.577   5.943  0.3134 -1.8206  0.3427
 2774SOL     OW19780   0.449   0.003   1.733  0.0987 -0.2452 -0.3928
 2774SOL    HW119781   0.523   4.667   1.722  0.7432  0.6422 -0.8846
 2774SOL    HW219782   0.438   0.020   1.826 -0.8509 -0.1407 -0.5215
 2775SOL     OW19783   4.380   2.314   5.517 -0.1805  0.5128 -0.2173
 2775SOL    HW119784   4.376   2.376   5.591  0.1409  0.8696 -0.4946
 2775SOL    HW219785   4.476   2.316   5.512 -0.2164 -0.6367 -1.1032
 2776SOL     OW19786   3.204   1.405   2.474 -0.3825 -0.5506 -0.1137
 2776SOL    HW119787   3.164   1.484   2.439  1.6113  1.4385  2.1216
 2776SOL    HW219788   3.228   1.361   2.392 -0.0870  1.6457 -1.1959
 2777SOL     OW19789   1.311   2.994   0.771  0.1923 -0.0599 -0.1461
 2777SOL    HW119790   1.363   3.073   0.763  2.2688 -1.5486 -1.2620
 2777SOL    HW219791   1.378   2.934   0.738 -0.1421 -1.1524  1.1860
 2778SOL     OW19792   1.508   1.027  15.180 -0.3895 -0.6847  0.0503
 2778SOL    HW119793   1.427   1.067  15.148 -0.6409 -0.8204  0.5242
 2778SOL    HW219794   1.523   0.969  15.105  0.3890  0.4557 -0.6884
 2779SOL     OW19795   3.840   4.264   9.879 -0.3546  0.2306 -0.8039
 2779SOL    HW119796   3.863   4.327   9.948  1.3705  1.6837 -2.7258
 2779SOL    HW219797   3.784   4.314   9.820 -0.1496 -1.6196 -2.5502
 2780SOL     OW19798   0.346   2.641  10.687  0.5887  0.5644  0.2743
 2780SOL    HW119799   0.285   2.714  10.674 -1.6362 -1.2103  0.9468
 2780SOL    HW219800   0.406   2.653  10.613 -0.4150 -0.0447 -0.6439
 2781SOL     OW19801   3.542   3.957   1.462 -0.5529  0.3009  0.0530
 2781SOL    HW119802   3.593   3.881   1.434  0.7826  0.6186  1.6332
 2781SOL    HW219803   3.604   4.029   1.472  0.6520 -0.7775  0.2435
 2782SOL     OW19804   2.769   2.674   4.098 -0.3265 -0.0994  0.0002
 2782SOL    HW119805   2.775   2.634   4.185 -2.9987  0.5770  0.4998
 2782SOL    HW219806   2.852   2.655   4.054  0.9252 -0.2107  2.4182
 2783SOL     OW19807   2.937   0.433  11.745  0.1509  0.7634 -0.3005
 2783SOL    HW119808   2.868   0.377  11.711  0.5460 -0.5988  1.1736
 2783SOL    HW219809   2.880   0.496  11.789  0.2903  0.0710  0.8431
 2784SOL     OW19810   2.125   0.604   2.565  0.3504  0.6131 -0.1071
 2784SOL    HW119811   2.164   0.517   2.568 -2.1233 -0.4594  0.6686
 2784SOL    HW219812   2.077   0.588   2.484 -2.1295  0.9473  1.2949
 2785SOL     OW19813   2.427   2.941   1.571 -0.1099  0.2523  0.0941
 2785SOL    HW119814   2.342   2.967   1.608 -0.1842 -0.1187  0.1857
 2785SOL    HW219815   2.450   2.872   1.633 -1.0825 -0.2924 -0.1530
 2786SOL     OW19816   0.740   3.063   7.005  0.3804 -0.1601  0.0927
 2786SOL    HW119817   0.797   3.045   7.080  2.4427  2.8885 -0.7369
 2786SOL    HW219818   0.687   2.983   7.000  1.2254 -0.7814  1.1137
 2787SOL     OW19819   3.248   2.776   2.042 -0.3945 -0.3333  0.1524
 2787SOL    HW119820   3.303   2.839   1.995 -0.0683 -0.6181  0.1525
 2787SOL    HW219821   3.285   2.688   2.041  0.3368 -0.0381  0.8320
 2788SOL     OW19822   1.854   0.740   8.836  0.1278  0.0479  0.0059
 2788SOL    HW119823   1.828   0.801   8.768  0.6540  0.5325  0.2440
 2788SOL    HW219824   1.768   0.728   8.876  0.5410  2.4774  1.5814
 2789SOL     OW19825   1.257   0.344   6.407  0.5344 -0.3323  0.0081
 2789SOL    HW119826   1.219   0.392   6.481  0.4872  1.2799 -1.0559
 2789SOL    HW219827   1.181   0.316   6.356 -0.4344 -0.4035  1.4871
 2790SOL     OW19828   4.043   1.659   3.990  0.1080 -0.6951 -0.1962
 2790SOL    HW119829   3.994   1.728   3.945  0.7146 -1.3470 -1.8491
 2790SOL    HW219830   4.110   1.639   3.924 -0.9093  0.0565 -1.4606
 2791SOL     OW19831   2.352   3.719   3.931 -0.1735 -0.0157 -0.6476
 2791SOL    HW119832   2.295   3.764   3.869 -1.2495  1.4372  1.4187
 2791SOL    HW219833   2.413   3.677   3.870 -1.2276 -1.2750 -0.8338
 2792SOL     OW19834   0.090   1.330   5.603  0.1282 -0.5756 -0.0977
 2792SOL    HW119835   0.098   1.240   5.573  1.3049 -0.1183 -1.1233
 2792SOL    HW219836   0.075   1.318   5.697  0.4238  0.8049  0.1205
 2793SOL     OW19837   0.231   1.705   4.911 -0.1528  0.3501  0.1813
 2793SOL    HW119838   0.208   1.685   5.002  1.3333  0.4887  0.5826
 2793SOL    HW219839   0.238   1.801   4.911 -1.6954  0.4555 -1.8513
 2794SOL     OW19840   0.372   1.416  13.471 -0.0489  0.4778 -0.4865
 2794SOL    HW119841   0.405   1.448  13.555 -2.8986 -2.2722  1.6879
 2794SOL    HW219842   0.285   1.457  13.464 -1.0265 -1.4856  0.2334
 2795SOL     OW19843   1.256   1.027  15.726  0.0422  0.6229  0.1301
 2795SOL    HW119844   1.228   1.065  15.643 -2.7447 -1.1660  0.2426
 2795SOL    HW219845   1.268   1.104  15.782  1.1116 -1.8398  3.2497
 2796SOL     OW19846   0.671   1.046  14.136  0.0994  0.5218 -0.8302
 2796SOL    HW119847   0.765   1.028  14.142 -0.2017 -1.4614 -2.3629
 2796SOL    HW219848   0.648   1.099  14.213  2.1139 -0.0149  0.1416
 2797SOL     OW19849   3.720   4.211   6.366  0.1086  0.2440  0.8111
 2797SOL    HW119850   3.637   4.256   6.347  0.5079  0.1004 -1.2288
 2797SOL    HW219851   3.778   4.284   6.344 -1.3631  1.0644 -0.3409
 2798SOL     OW19852   2.849   0.648   3.379 -0.4745  0.0287  0.0902
 2798SOL    HW119853   2.845   0.605   3.293 -0.3370  2.8422 -1.3472
 2798SOL    HW219854   2.934   0.638   3.420 -0.5645  0.1225  0.2995
 2799SOL     OW19855   0.927   0.746   2.183 -0.3873  0.2128 -0.5245
 2799SOL    HW119856   0.993   0.677   2.179 -0.2043  0.4299 -1.3028
 2799SOL    HW219857   0.958   0.795   2.107  0.5378  0.1187 -0.2039
 2800SOL     OW19858   3.950   1.553   6.836  0.0238 -0.4758  0.2677
 2800SOL    HW119859   4.015   1.482   6.832  0.6250  0.1700 -1.5074
 2800SOL    HW219860   3.869   1.508   6.812 -0.5600  0.2654  0.8363
 2801SOL     OW19861   3.892   2.104   8.277  0.7170 -0.7693 -0.0927
 2801SOL    HW119862   3.987   2.120   8.284  0.6447 -0.7287  0.8008
 2801SOL    HW219863   3.872   2.038   8.344 -0.7113  0.3473  0.5721
 2802SOL     OW19864   0.327   0.782   0.089  0.5424  0.0794 -0.0359
 2802SOL    HW119865   0.232   0.776   0.090  0.4079  2.5575  1.0893
 2802SOL    HW219866   0.363   0.693   0.096 -0.0237 -0.2662 -1.5580
 2803SOL     OW19867   0.183   1.883   6.530  0.0786  0.1743 -0.0723
 2803SOL    HW119868   0.138   1.893   6.446  1.4064  2.7668 -0.4921
 2803SOL    HW219869   0.276   1.874   6.514  0.4104  0.0245  1.9408
 2804SOL     OW19870   0.588   2.382  17.684 -0.3791 -0.3828 -0.7497
 2804SOL    HW119871   0.517   2.383   0.053 -0.7726  0.8093 -1.2017
 2804SOL    HW219872   0.659   2.398   0.050 -1.2853 -3.7727  1.1856
 2805SOL     OW19873   2.512   3.481   2.548  1.1066 -0.6717  0.0819
 2805SOL    HW119874   2.500   3.506   2.456  1.2066  0.5403  0.4053
 2805SOL    HW219875   2.516   3.386   2.537  2.9904 -0.7340  1.4766
 2806SOL     OW19876   0.652   3.686   0.468 -0.3548 -0.2677 -0.2512
 2806SOL    HW119877   0.596   3.682   0.546  0.7028 -0.2458  0.5046
 2806SOL    HW219878   0.703   3.766   0.483  0.2412 -0.4481 -1.3704
 2807SOL     OW19879   3.425   0.497   4.597 -0.3904  0.7976  0.2417
 2807SOL    HW119880   3.359   0.441   4.556 -0.3073  0.8406  0.0503
 2807SOL    HW219881   3.403   0.493   4.690 -0.5573  2.6788  0.2726
 2808SOL     OW19882   0.151   1.743   7.321  0.0895 -0.3324  0.1103
 2808SOL    HW119883   0.127   1.683   7.251 -2.9529 -0.6039  1.4240
 2808SOL    HW219884   0.114   1.701   7.398  1.3560 -3.9217 -1.2374
 2809SOL     OW19885   2.775   1.160  16.398  0.2399 -0.1941  0.3287
 2809SOL    HW119886   2.681   1.177  16.397  0.1985 -0.3608  1.1654
 2809SOL    HW219887   2.777   1.079  16.347 -1.6040 -0.1251  0.1437
 2810SOL     OW19888   2.411   1.986   8.961  0.1237  0.2079 -0.4526
 2810SOL    HW119889   2.505   1.975   8.971  0.3907  3.2638  0.1258
 2810SOL    HW219890   2.388   1.929   8.887  1.2891  0.6436 -1.1348
 2811SOL     OW19891   0.855   3.862   4.118 -0.0759 -0.7703  0.0127
 2811SOL    HW119892   0.776   3.911   4.094  0.5116 -0.9501 -2.3024
 2811SOL    HW219893   0.875   3.881   4.209 -0.2807 -3.0650  0.5333
 2812SOL     OW19894   3.756   3.865   2.327  1.0161 -0.3943  0.2470
 2812SOL    HW119895   3.689   3.812   2.371  0.1962 -0.4954 -1.1370
 2812SOL    HW219896   3.701   3.922   2.275  0.1025 -1.2623  0.2579
 2813SOL     OW19897   0.398   1.154   0.786 -0.1027 -0.3516  0.1362
 2813SOL    HW119898   0.422   1.102   0.710  1.9450  1.5194 -0.4827
 2813SOL    HW219899   0.399   1.240   0.744  1.4553 -0.4999 -0.1165
 2814SOL     OW19900   0.962   2.930   4.854  0.0905  0.0063  0.0293
 2814SOL    HW119901   0.871   2.904   4.870 -0.3295  0.7239 -1.1229
 2814SOL    HW219902   0.997   2.907   4.940  1.5974 -0.5585 -0.7352
 2815SOL     OW19903   1.571   3.042   4.805 -0.4016 -0.0699  0.0162
 2815SOL    HW119904   1.514   2.989   4.859 -1.3040  1.0489  0.1593
 2815SOL    HW219905   1.512   3.098   4.755  1.1992  0.6999 -1.0325
 2816SOL     OW19906   4.402   4.688  10.230  0.1529  0.0103 -0.0476
 2816SOL    HW119907   4.380   0.053  10.201  2.8395 -0.5935 -3.8599
 2816SOL    HW219908   4.465   4.655  10.166 -1.2206 -2.4148 -0.1563
 2817SOL     OW19909   0.379   0.082  12.788 -0.1003 -0.5051 -0.0818
 2817SOL    HW119910   0.398   0.141  12.715  0.1230  0.3268  0.6565
 2817SOL    HW219911   0.303   0.037  12.752 -0.4053  0.8889 -1.1872
 2818SOL     OW19912   3.059   0.033   5.541  0.3115 -0.4937  0.5848
 2818SOL    HW119913   3.019   4.684   5.493  1.1409 -1.0538  0.7408
 2818SOL    HW219914   2.988   0.093   5.565  0.2459 -0.0413 -0.7862
 2819SOL     OW19915   3.323   0.740   7.508  0.0629 -0.1481  0.5200
 2819SOL    HW119916   3.402   0.693   7.483  0.4345 -0.6495  2.5931
 2819SOL    HW219917   3.303   0.779   7.423 -0.4217 -1.9748 -0.2079
 2820SOL     OW19918   2.822   0.367   3.406  0.4935 -0.2863 -0.2566
 2820SOL    HW119919   2.732   0.339   3.427  0.6564 -0.1830  0.5686
 2820SOL    HW219920   2.813   0.455   3.369  0.0541 -0.0845  0.3202
 2821SOL     OW19921   1.651   1.428   6.165 -0.0168 -0.8308 -0.5261
 2821SOL    HW119922   1.560   1.417   6.191 -0.3266 -0.3825 -1.4320
 2821SOL    HW219923   1.649   1.481   6.086  2.6311  2.6915  1.7538
 2822SOL     OW19924   0.590   0.894  15.576 -0.1745 -0.0163  0.6383
 2822SOL    HW119925   0.534   0.921  15.503  1.8029  0.4543 -0.6866
 2822SOL    HW219926   0.655   0.964  15.582  1.1663 -1.0784 -1.3151
 2823SOL     OW19927   2.518   4.563   5.615  0.3421  0.2593 -0.6006
 2823SOL    HW119928   2.426   4.580   5.594 -0.0256  0.4608  1.1999
 2823SOL    HW219929   2.541   4.654   5.629  1.0123  0.2923 -1.8866
 2824SOL     OW19930   1.784   4.494  12.888 -0.2957 -0.3387 -0.1987
 2824SOL    HW119931   1.716   4.520  12.951  0.0342  2.2682 -0.9225
 2824SOL    HW219932   1.863   4.533  12.927 -0.7064 -0.7533  1.0451
 2825SOL     OW19933   1.148   3.293  11.896  0.1966  0.2646  1.0058
 2825SOL    HW119934   1.120   3.287  11.988 -0.4477  2.1141  0.9425
 2825SOL    HW219935   1.242   3.277  11.895  0.5945  2.7250 -1.2201
 2826SOL     OW19936   2.320   0.826  11.149  0.3749 -0.2146 -0.2229
 2826SOL    HW119937   2.331   0.912  11.108  2.5070 -0.3815 -0.0022
 2826SOL    HW219938   2.357   0.827  11.237 -1.7601 -2.7306  0.7249
 2827SOL     OW19939   1.676   2.846  11.042  0.3100 -0.2442  0.2317
 2827SOL    HW119940   1.705   2.788  11.112  1.2262 -0.9708 -0.7486
 2827SOL    HW219941   1.727   2.815  10.967  1.8049 -0.5542  1.3763
 2828SOL     OW19942   2.486   2.346   8.922  0.0152  0.3901  0.0687
 2828SOL    HW119943   2.429   2.320   8.850  0.2261 -1.0433  0.4067
 2828SOL    HW219944   2.474   2.278   8.988 -0.5692  0.8362  0.4192
 2829SOL     OW19945   4.523   4.720   8.934 -0.2630 -0.4800 -0.7691
 2829SOL    HW119946   4.489   0.008   8.845 -1.2756  0.4539 -0.2489
 2829SOL    HW219947   4.452   0.033   8.985  1.6476  1.2110  0.6671
 2830SOL     OW19948   1.977   2.599   3.042 -0.9938 -0.0592 -0.6716
 2830SOL    HW119949   1.999   2.555   2.960 -2.3201  0.2360 -1.1815
 2830SOL    HW219950   1.980   2.693   3.026 -0.2503  0.3166  1.7078
 2831SOL     OW19951   2.267   4.537   8.267 -0.1681  0.0800 -0.0581
 2831SOL    HW119952   2.299   4.626   8.255 -0.7044 -0.0060 -2.1170
 2831SOL    HW219953   2.327   4.486   8.212  0.5805 -0.6023  1.3940
 2832SOL     OW19954   0.684   1.986  11.858 -0.4886  0.3490  0.2846
 2832SOL    HW119955   0.680   1.937  11.941 -2.8846 -1.5169 -0.9271
 2832SOL    HW219956   0.702   2.067  11.905 -2.2461  0.4474  0.8013
 2833SOL     OW19957   3.680   4.427   9.707  0.0006  0.3590  0.2005
 2833SOL    HW119958   3.604   4.485   9.697 -0.5742 -0.0433  2.3191
 2833SOL    HW219959   3.670   4.351   9.650 -0.5474 -1.1816  2.3429
 2834SOL     OW19960   0.575   3.584   6.859  0.5370  0.5777  0.3087
 2834SOL    HW119961   0.564   3.505   6.912 -0.5424  0.7543  0.3471
 2834SOL    HW219962   0.509   3.634   6.906 -0.3351 -0.4116  0.1461
 2835SOL     OW19963   1.394   0.012   7.617 -0.0945  0.0008  0.0890
 2835SOL    HW119964   1.338   4.669   7.578  1.7217 -0.6893 -1.3458
 2835SOL    HW219965   1.335   0.055   7.679  0.5071  1.4672 -0.3586
 2836SOL     OW19966   2.154   2.203   5.516 -0.0480  0.0589  0.0830
 2836SOL    HW119967   2.217   2.134   5.496  1.3160  1.4090 -0.2505
 2836SOL    HW219968   2.072   2.153   5.515  1.0367 -1.7465  0.0269
 2837SOL     OW19969   1.292   1.607   2.802  0.1545  0.2236 -0.1290
 2837SOL    HW119970   1.276   1.660   2.881 -2.2668  1.5226 -1.4858
 2837SOL    HW219971   1.199   1.585   2.797  0.7217 -2.0342 -0.4638
 2838SOL     OW19972   0.304   0.039   8.218 -0.1067 -0.1646  0.6705
 2838SOL    HW119973   0.284   0.096   8.293 -0.1432  1.2491 -0.4235
 2838SOL    HW219974   0.285   4.675   8.253  0.3164 -0.2573  0.6709
 2839SOL     OW19975   2.775   0.278   4.062 -0.3418 -0.1104  0.0596
 2839SOL    HW119976   2.766   0.273   3.967  0.9061  0.7332 -0.1079
 2839SOL    HW219977   2.833   0.354   4.069  0.2894 -0.5307 -0.6018
 2840SOL     OW19978   3.731   3.087   6.128 -0.6129 -0.1630  0.0050
 2840SOL    HW119979   3.747   3.103   6.221 -1.0368  0.4786 -0.0320
 2840SOL    HW219980   3.702   3.173   6.098 -0.4266 -0.6623 -1.5794
 2841SOL     OW19981   2.445   1.202   4.376  0.2437 -0.1983  0.1235
 2841SOL    HW119982   2.428   1.261   4.449  2.3256  2.9929 -1.9509
 2841SOL    HW219983   2.358   1.176   4.344  0.2020 -0.9146  0.8493
 2842SOL     OW19984   4.462   0.602   4.427  0.2117 -0.3258  0.2602
 2842SOL    HW119985   4.378   0.648   4.436  0.0978  0.1122 -3.1663
 2842SOL    HW219986   4.514   0.683   4.424 -1.1381  0.5936  1.5497
 2843SOL     OW19987   0.062   1.379   8.962  0.5714  0.4900  0.0972
 2843SOL    HW119988   4.714   1.327   8.924 -0.0970  2.0234 -0.7386
 2843SOL    HW219989   0.131   1.313   8.952  2.2794  2.1777  0.8577
 2844SOL     OW19990   4.609   2.074   5.445  0.7913 -0.7123 -0.1296
 2844SOL    HW119991   4.627   2.155   5.492 -0.8583  0.1057 -0.9007
 2844SOL    HW219992   4.540   2.030   5.495  2.9078 -2.6656  1.0675
 2845SOL     OW19993   2.211   2.702   2.746  0.2566 -0.5613  0.5162
 2845SOL    HW119994   2.119   2.728   2.756 -0.1248 -1.3777 -0.7180
 2845SOL    HW219995   2.211   2.709   2.650  0.6792 -0.4905  0.5224
 2846SOL     OW19996   4.002   3.075   8.508 -0.0690 -0.2369  0.0799
 2846SOL    HW119997   3.930   3.046   8.565 -1.7007  1.0962 -1.3264
 2846SOL    HW219998   3.951   3.092   8.429 -0.7567 -0.3665  0.4882
 2847SOL     OW19999   0.244   2.082  11.275  0.0200 -0.0859 -0.4331
 2847SOL    HW120000   0.195   2.041  11.204 -0.6145  0.5793 -0.3741
 2847SOL    HW220001   0.290   2.153  11.232  1.1226 -1.0287 -0.8326
 2848SOL     OW20002   1.262   3.414   5.921 -0.5900  0.5050 -1.0716
 2848SOL    HW120003   1.331   3.473   5.889 -0.1191 -0.0922 -1.1677
 2848SOL    HW220004   1.289   3.335   5.875 -3.1667 -1.4184  0.7648
 2849SOL     OW20005   3.258   1.605   6.802 -0.6127  0.4183 -0.5085
 2849SOL    HW120006   3.283   1.585   6.712  0.0385  2.1787 -0.7154
 2849SOL    HW220007   3.341   1.590   6.847 -0.7739 -0.1287 -0.3899
 2850SOL     OW20008   3.119   0.566  11.958 -0.6289 -0.2864  0.8518
 2850SOL    HW120009   3.074   0.481  11.955 -1.0112 -0.1125  1.8164
 2850SOL    HW220010   3.046   0.611  12.001 -1.5205  0.6819 -1.6711
 2851SOL     OW20011   0.081   2.628  17.548  0.4258 -0.0879 -0.2786
 2851SOL    HW120012   0.165   2.668  17.570  0.2151  1.4621 -2.2470
 2851SOL    HW220013   0.085   2.545  17.595 -1.2817  0.8175  1.4342
 2852SOL     OW20014   3.089   2.113   9.004  0.2281  0.0981 -0.4683
 2852SOL    HW120015   3.006   2.161   9.006  1.5362  2.3486 -1.0575
 2852SOL    HW220016   3.145   2.190   9.001  0.7750 -0.2374  1.1162
 2853SOL     OW20017   3.442   4.043   3.130  0.1779 -0.0759  0.2031
 2853SOL    HW120018   3.382   3.985   3.083  0.4171  1.0532 -1.4850
 2853SOL    HW220019   3.473   3.985   3.200 -0.9251 -0.3417  0.4681
 2854SOL     OW20020   1.459   1.341   8.996  0.3672 -0.3421  0.1259
 2854SOL    HW120021   1.365   1.347   9.015 -0.3922 -0.5709 -3.6493
 2854SOL    HW220022   1.476   1.425   8.953  0.9227 -0.1815  0.6595
 2855SOL     OW20023   3.762   2.310  14.912  0.1479 -0.6736  0.3041
 2855SOL    HW120024   3.740   2.316  14.819  0.9808  0.3269  0.1705
 2855SOL    HW220025   3.761   2.216  14.930  3.9448 -1.0238 -1.1886
 2856SOL     OW20026   3.559   3.651   5.215 -0.0844  0.3029 -0.1907
 2856SOL    HW120027   3.536   3.647   5.308  0.8396 -1.9793 -0.0714
 2856SOL    HW220028   3.636   3.595   5.217  0.2026  0.7494  1.3341
 2857SOL     OW20029   2.422   4.086   2.228 -0.2455 -0.3954 -0.2497
 2857SOL    HW120030   2.346   4.139   2.203 -1.2782 -1.0189  1.5556
 2857SOL    HW220031   2.490   4.125   2.174  0.2685  0.8287  1.2844
 2858SOL     OW20032   2.762   1.770   7.420 -0.0504  0.2862  0.3732
 2858SOL    HW120033   2.723   1.840   7.367  0.8495  2.1622  2.1887
 2858SOL    HW220034   2.708   1.698   7.387  1.3032  0.8259 -3.0598
 2859SOL     OW20035   0.177   0.745  12.508  0.8456  0.6959  0.0964
 2859SOL    HW120036   0.256   0.760  12.560  1.9767  0.7037 -1.6055
 2859SOL    HW220037   0.222   0.708  12.432  3.0003  0.1622  1.6354
 2860SOL     OW20038   1.944   1.481   2.964 -0.2023  0.0846 -0.2301
 2860SOL    HW120039   1.894   1.536   2.904  0.6215  0.9388 -0.1475
 2860SOL    HW220040   1.897   1.399   2.955 -0.7839  0.1057  2.7928
 2861SOL     OW20041   1.461   2.417   7.493  0.6899 -0.0824  0.3926
 2861SOL    HW120042   1.427   2.459   7.414 -0.4126 -1.7467 -0.0091
 2861SOL    HW220043   1.490   2.334   7.453  1.3739 -0.2739  1.2864
 2862SOL     OW20044   1.624   1.521   3.046 -0.2042  0.1386  0.0867
 2862SOL    HW120045   1.626   1.503   3.140 -0.0418 -0.0893  0.0400
 2862SOL    HW220046   1.649   1.437   3.008  1.6724  1.1983 -1.0032
 2863SOL     OW20047   2.405   4.059   3.336 -0.2055 -0.2008 -0.3804
 2863SOL    HW120048   2.453   4.045   3.255  0.1089 -0.9021 -0.0757
 2863SOL    HW220049   2.461   4.116   3.388  0.9869 -2.9240  1.3318
 2864SOL     OW20050   3.276   1.009   0.105 -0.2625  0.2885  0.3068
 2864SOL    HW120051   3.361   1.015   0.149  0.5538  0.2527 -1.2757
 2864SOL    HW220052   3.229   1.072   0.160  2.2480  1.5294  1.0343
 2865SOL     OW20053   1.792   4.577  13.255  0.0973 -0.2467  0.2114
 2865SOL    HW120054   1.707   4.558  13.215  0.2307  0.4312 -0.4007
 2865SOL    HW220055   1.839   4.495  13.236 -0.8438 -0.7285 -0.0263
 2866SOL     OW20056   1.032   3.248   7.094 -0.1486 -0.6436  0.2045
 2866SOL    HW120057   1.118   3.251   7.136  0.2988 -0.6522 -0.7319
 2866SOL    HW220058   0.975   3.279   7.165  1.7030  2.0538  0.5227
 2867SOL     OW20059   0.961   4.016   6.457  0.3130 -0.1352  0.7639
 2867SOL    HW120060   0.901   4.089   6.471 -1.2150 -0.9567 -1.4081
 2867SOL    HW220061   0.915   3.950   6.405  1.6070  1.5204 -2.5210
 2868SOL     OW20062   1.994   2.450   6.719 -0.4750  0.1116 -0.2029
 2868SOL    HW120063   1.969   2.457   6.811 -0.8020  2.1072 -0.4299
 2868SOL    HW220064   2.086   2.472   6.730 -0.2468 -1.6181  1.2033
 2869SOL     OW20065   0.267   0.835   0.974 -0.5255  0.2111 -0.5239
 2869SOL    HW120066   0.208   0.909   0.963 -0.4802  0.1162 -1.3643
 2869SOL    HW220067   0.202   0.765   0.982  1.4488 -1.6970 -1.3302
 2870SOL     OW20068   4.256   2.287   6.564  0.2577 -0.4412 -0.2508
 2870SOL    HW120069   4.184   2.272   6.625 -1.5128  1.9145 -1.7623
 2870SOL    HW220070   4.231   2.365   6.514 -0.1136 -0.3690  0.0473
 2871SOL     OW20071   4.309   2.006   0.034  0.3651 -0.4660  0.3892
 2871SOL    HW120072   4.346   1.976   0.118  3.7243  1.4956 -0.4041
 2871SOL    HW220073   4.306   2.101   0.047  0.0330 -0.5433  0.9048
 2872SOL     OW20074   0.316   2.846   2.087  0.0216 -0.1531  0.5542
 2872SOL    HW120075   0.367   2.843   2.168  1.2600  0.2489 -0.1961
 2872SOL    HW220076   0.226   2.873   2.101 -0.1511 -0.7130  0.5435
 2873SOL     OW20077   0.140   2.688  16.815 -0.1685 -0.9678  0.4755
 2873SOL    HW120078   0.182   2.705  16.731 -2.6633  1.2945 -0.3115
 2873SOL    HW220079   0.058   2.737  16.804  1.2352  0.8503 -1.8661
 2874SOL     OW20080   0.580   0.901   2.756 -0.5512  0.5993 -0.2478
 2874SOL    HW120081   0.494   0.929   2.724  0.1343  0.2351 -2.4279
 2874SOL    HW220082   0.564   0.937   2.843  0.0452 -1.0222  0.5239
 2875SOL     OW20083   1.509   1.345   4.715 -0.2226  0.1029  0.3451
 2875SOL    HW120084   1.419   1.376   4.732 -0.2314 -0.7078  1.7284
 2875SOL    HW220085   1.526   1.403   4.641 -0.5553  0.6742  0.7102
 2876SOL     OW20086   0.027   4.131   7.010  0.2725  0.4529  0.1469
 2876SOL    HW120087   4.717   4.061   6.955  1.8871 -0.4755  0.3343
 2876SOL    HW220088   0.090   4.084   7.065 -0.9784 -0.3368  0.9132
 2877SOL     OW20089   3.022   1.878  10.161 -0.2839 -0.0533 -0.0159
 2877SOL    HW120090   2.932   1.853  10.139 -0.9798  2.4906 -0.0158
 2877SOL    HW220091   3.068   1.900  10.080  0.0170  1.4179  0.5626
 2878SOL     OW20092   1.862   3.082   5.432 -0.5925 -0.1744 -0.2359
 2878SOL    HW120093   1.951   3.053   5.413  0.2246  2.4237 -0.4080
 2878SOL    HW220094   1.843   3.118   5.346  1.6029 -0.9286 -1.0216
 2879SOL     OW20095   3.464   3.952   4.269 -0.8087 -0.8068  0.2447
 2879SOL    HW120096   3.405   3.876   4.278  1.9958 -2.8464  1.2712
 2879SOL    HW220097   3.403   4.018   4.236 -0.4747 -0.6696 -0.0951
 2880SOL     OW20098   0.961   4.568   0.102 -0.6354  0.8422 -0.4228
 2880SOL    HW120099   0.940   4.503   0.169 -1.8021  1.0944 -0.5364
 2880SOL    HW220100   0.963   4.654   0.144 -0.8001  1.0049 -0.7446
 2881SOL     OW20101   4.197   1.421   6.507 -0.3949  0.2977  0.2265
 2881SOL    HW120102   4.105   1.408   6.486 -0.3699 -0.0192  0.3203
 2881SOL    HW220103   4.173   1.511   6.530  3.4730  1.6490 -1.0307
 2882SOL     OW20104   3.305   4.331  10.484  0.4469 -0.2900 -0.0200
 2882SOL    HW120105   3.229   4.275  10.468 -0.6153  1.5167 -1.3076
 2882SOL    HW220106   3.263   4.416  10.474  2.0253  0.2975 -1.7674
 2883SOL     OW20107   2.028   4.025   8.827  0.4662  0.2347  0.3502
 2883SOL    HW120108   2.093   4.021   8.757  0.4226  1.5533  0.2340
 2883SOL    HW220109   1.990   4.111   8.810  0.2998 -0.2541 -1.7190
 2884SOL     OW20110   0.236   1.111   3.127  0.0416 -0.0436  0.2974
 2884SOL    HW120111   0.230   1.165   3.048 -0.7644 -0.1147  0.3099
 2884SOL    HW220112   0.189   1.158   3.195  1.1511 -0.1042  1.1032
 2885SOL     OW20113   3.727   1.438   7.650  0.3509 -0.5806 -0.2747
 2885SOL    HW120114   3.689   1.451   7.563  0.3945 -1.1532 -0.3792
 2885SOL    HW220115   3.803   1.381   7.635  1.3820  0.3827  1.2896
 2886SOL     OW20116   1.987   2.071   0.499 -0.1452 -0.3953  0.2872
 2886SOL    HW120117   1.900   2.106   0.517 -0.0098 -0.8739  1.9189
 2886SOL    HW220118   1.955   1.991   0.459  0.8322 -1.0918  0.8958
 2887SOL     OW20119   0.005   0.425   2.440 -0.3529 -0.0550 -0.4000
 2887SOL    HW120120   0.046   0.360   2.383 -0.8475  0.3055 -1.1736
 2887SOL    HW220121   0.063   0.501   2.439  0.9398 -1.0697 -1.4095
 2888SOL     OW20122   0.166   4.093   8.930  0.5246 -0.4827  0.0726
 2888SOL    HW120123   0.251   4.064   8.962  0.1687 -1.4485  0.1447
 2888SOL    HW220124   0.157   4.057   8.842  2.1209  0.3917 -0.4440
 2889SOL     OW20125   3.327   3.225   2.364 -0.0317  0.2589  0.0407
 2889SOL    HW120126   3.415   3.259   2.380 -0.1733  0.2303  0.8730
 2889SOL    HW220127   3.277   3.304   2.384 -0.6312  0.5786 -2.7370
 2890SOL     OW20128   3.998   2.834   5.882 -0.4261 -0.3079  0.1513
 2890SOL    HW120129   3.926   2.888   5.848  0.9181  0.0373 -2.2037
 2890SOL    HW220130   4.059   2.850   5.810 -1.4553  2.2912 -0.1684
 2891SOL     OW20131   2.870   3.525   6.368 -0.7242  0.2749  0.6495
 2891SOL    HW120132   2.908   3.547   6.453  0.6327  2.1718 -0.4627
 2891SOL    HW220133   2.802   3.465   6.399 -0.3039 -0.6411 -0.1826
 2892SOL     OW20134   0.859   0.791   4.379 -0.0656  0.0791 -0.3760
 2892SOL    HW120135   0.910   0.730   4.325 -1.8020 -1.2893 -0.4818
 2892SOL    HW220136   0.929   0.828   4.433 -3.0081  1.8777  2.1595
 2893SOL     OW20137   2.510   3.921   5.961  0.1051  0.2415  0.8805
 2893SOL    HW120138   2.548   3.843   5.920 -0.0234  0.8243 -0.3787
 2893SOL    HW220139   2.464   3.894   6.040 -1.2772  0.7985  0.2756
 2894SOL     OW20140   1.654   1.013   3.514  0.5523  0.3186  0.0954
 2894SOL    HW120141   1.590   0.958   3.470  1.7629  0.7906 -2.2760
 2894SOL    HW220142   1.727   1.009   3.452 -0.1255 -0.1855 -0.6655
 2895SOL     OW20143   3.200   3.751   1.691  0.2963  0.5515  0.0815
 2895SOL    HW120144   3.274   3.803   1.657 -0.1730 -0.3338 -2.2529
 2895SOL    HW220145   3.192   3.787   1.779  0.2494 -0.3389  0.4379
 2896SOL     OW20146   0.317   1.535   8.359 -0.7614 -0.3354  0.1857
 2896SOL    HW120147   0.401   1.490   8.345 -0.4355 -0.0106  1.0814
 2896SOL    HW220148   0.340   1.616   8.313 -1.0964 -0.4679 -0.2104
 2897SOL     OW20149   0.115   1.806  15.209 -0.1805  1.0062 -0.1338
 2897SOL    HW120150   0.036   1.768  15.248  0.3750  1.0331  1.0278
 2897SOL    HW220151   0.094   1.899  15.216 -1.2301  0.7232  0.4500
 2898SOL     OW20152   0.861   2.248  17.589  0.0851 -0.0606 -0.0118
 2898SOL    HW120153   0.840   2.341  17.590 -1.0809 -0.3396  1.6648
 2898SOL    HW220154   0.814   2.221  17.509  2.6494 -0.9866 -1.1849
 2899SOL     OW20155   3.554   0.674   8.098  0.2485 -0.3250  0.5097
 2899SOL    HW120156   3.587   0.746   8.045  0.0892 -0.3446  0.3843
 2899SOL    HW220157   3.563   0.604   8.034  0.9272  0.2347 -0.0074
 2900SOL     OW20158   3.341   1.484   6.391  0.0399 -0.5115 -0.2473
 2900SOL    HW120159   3.262   1.500   6.443  0.5893 -1.0711  0.7634
 2900SOL    HW220160   3.314   1.500   6.301  0.3443 -1.2193 -0.4669
 2901SOL     OW20161   1.755   3.775   2.994 -0.1671  0.1363  0.0552
 2901SOL    HW120162   1.805   3.694   3.005  0.3822  0.1821 -2.2837
 2901SOL    HW220163   1.802   3.820   2.924  0.2555  0.4125  0.5090
 2902SOL     OW20164   4.056   4.429   3.048 -0.0925 -0.2570 -0.2729
 2902SOL    HW120165   4.051   4.497   2.981  1.3539 -0.6215 -0.7510
 2902SOL    HW220166   4.108   4.470   3.117  1.2020 -3.1046  0.4232
 2903SOL     OW20167   2.972   3.238   6.167 -0.2632  0.0898 -0.1588
 2903SOL    HW120168   3.035   3.288   6.219 -1.7244 -0.0189  1.7167
 2903SOL    HW220169   2.979   3.151   6.206  0.0712 -0.1600 -0.7771
 2904SOL     OW20170   3.402   4.299  10.733  0.7461  0.3673 -0.1149
 2904SOL    HW120171   3.476   4.353  10.705  0.7874 -0.5792 -1.8290
 2904SOL    HW220172   3.355   4.288  10.650 -0.6375 -1.0111  0.8599
 2905SOL     OW20173   2.458   0.472   4.940  0.6872 -0.4824 -0.0430
 2905SOL    HW120174   2.511   0.429   5.007  3.4396  0.1087 -1.8334
 2905SOL    HW220175   2.512   0.551   4.930  1.7460 -1.0551  1.1551
 2906SOL     OW20176   1.578   4.061   7.507  0.0503 -0.2732  0.3562
 2906SOL    HW120177   1.657   4.064   7.560  0.0883 -1.3183  0.3566
 2906SOL    HW220178   1.522   4.086   7.581 -0.3538  0.8914 -0.3503
 2907SOL     OW20179   3.008   0.215   3.539 -0.5228 -0.0258  0.3062
 2907SOL    HW120180   2.934   0.263   3.503  0.4080  0.4528 -0.9629
 2907SOL    HW220181   2.988   0.142   3.480 -0.3986 -0.5490  0.9127
 2908SOL     OW20182   2.140   1.340   3.228 -0.1323  0.4821 -0.2136
 2908SOL    HW120183   2.229   1.312   3.207 -1.0365 -1.3993 -1.6147
 2908SOL    HW220184   2.096   1.255   3.232  0.1438  0.3275 -0.4896
 2909SOL     OW20185   0.994   2.230   1.198 -0.0429  0.2850  1.0841
 2909SOL    HW120186   1.048   2.164   1.241 -0.9784 -1.5547 -0.5612
 2909SOL    HW220187   0.918   2.182   1.165 -1.3230  2.2746  1.1677
 2910SOL     OW20188   1.202   1.380   6.318 -0.4158 -0.2927  0.2361
 2910SOL    HW120189   1.255   1.440   6.266  0.3632 -1.0872  0.1056
 2910SOL    HW220190   1.111   1.410   6.313 -0.3373  0.0092  0.6245
 2911SOL     OW20191   3.983   0.384   4.543  0.2160 -0.1287 -0.0101
 2911SOL    HW120192   3.924   0.437   4.596  0.9583  1.8894 -1.2225
 2911SOL    HW220193   4.022   0.443   4.479 -0.9372 -0.6530 -1.1834
 2912SOL     OW20194   1.615   0.354   9.206  0.2799  0.2077 -0.0966
 2912SOL    HW120195   1.596   0.448   9.199  0.1924  0.0259 -2.3728
 2912SOL    HW220196   1.710   0.354   9.192  0.3400  1.6431  0.2931
 2913SOL     OW20197   2.944   1.661  15.683  0.2372 -0.1817 -0.2406
 2913SOL    HW120198   3.038   1.674  15.697  0.2405 -0.3468 -0.1071
 2913SOL    HW220199   2.941   1.635  15.591  0.9976  2.4901 -1.0359
 2914SOL     OW20200   4.502   3.104   5.859 -0.0532 -0.0898  0.6461
 2914SOL    HW120201   4.568   3.091   5.791 -3.0147 -1.4367 -1.9818
 2914SOL    HW220202   4.509   3.019   5.902  0.5944  0.1152  0.9577
 2915SOL     OW20203   3.757   1.694   7.745  0.1415 -0.5785  0.2960
 2915SOL    HW120204   3.767   1.692   7.841 -1.1941  1.6701  0.5023
 2915SOL    HW220205   3.768   1.601   7.726 -3.2407 -1.0195  0.5460
 2916SOL     OW20206   0.774   1.144   8.218 -0.0515  0.0586 -0.1353
 2916SOL    HW120207   0.819   1.072   8.264  1.0617  0.4946 -0.5439
 2916SOL    HW220208   0.751   1.101   8.136 -1.7557  1.0063 -0.1653
 2917SOL     OW20209   2.339   0.769   5.860  0.1482 -0.5304 -0.3754
 2917SOL    HW120210   2.258   0.809   5.829 -0.3296 -0.7406  0.5810
 2917SOL    HW220211   2.399   0.844   5.864 -0.7416  0.0996  1.0124
 2918SOL     OW20212   1.174   0.270  15.467  0.0311 -0.2291 -0.1035
 2918SOL    HW120213   1.251   0.218  15.487 -1.3407 -1.5815  1.7866
 2918SOL    HW220214   1.202   0.337  15.405  2.4683  1.2204  2.5670
 2919SOL     OW20215   0.139   2.474   8.463 -0.1172  0.2855  1.4915
 2919SOL    HW120216   0.132   2.527   8.542 -0.7165  3.2266 -0.5259
 2919SOL    HW220217   0.232   2.471   8.442 -0.6110 -0.1410 -0.7416
 2920SOL     OW20218   3.068   4.050   8.605  0.4359 -0.0101  0.2868
 2920SOL    HW120219   3.023   4.039   8.689  0.3263  1.6540  0.4590
 2920SOL    HW220220   3.128   3.975   8.604 -1.4993 -1.5875  2.1243
 2921SOL     OW20221   2.064   1.465   0.740 -0.2428  0.0905  0.3244
 2921SOL    HW120222   2.116   1.540   0.769  1.9372 -0.5398 -1.9750
 2921SOL    HW220223   2.120   1.388   0.747 -1.6802 -0.9775  0.0959
 2922SOL     OW20224   1.876   4.625   5.744  0.3528  0.0460  0.4684
 2922SOL    HW120225   1.821   4.684   5.691 -0.2890 -0.3442  0.7011
 2922SOL    HW220226   1.937   4.692   5.775  0.2297 -0.2838  1.4321
 2923SOL     OW20227   0.831   3.174   2.449  0.1535  0.3450 -0.4268
 2923SOL    HW120228   0.786   3.095   2.419  2.2003 -0.8288 -0.4202
 2923SOL    HW220229   0.793   3.239   2.389 -0.9735 -1.0148 -1.1650
 2924SOL     OW20230   2.767   0.200   4.772  0.6706  0.1321  0.3996
 2924SOL    HW120231   2.777   0.264   4.701  3.6685 -1.5286 -0.6403
 2924SOL    HW220232   2.703   0.144   4.728 -1.0581  2.9387 -0.6893
 2925SOL     OW20233   1.022   0.352   4.607 -0.0953  0.0654 -0.1691
 2925SOL    HW120234   0.995   0.389   4.691 -1.5983 -1.1010 -0.1306
 2925SOL    HW220235   1.111   0.385   4.595 -0.6540  1.0218 -1.6640
 2926SOL     OW20236   3.179   0.843   2.110 -0.1647  0.1555 -0.0246
 2926SOL    HW120237   3.270   0.849   2.081  0.0993  5.4689  1.9511
 2926SOL    HW220238   3.159   0.754   2.080  0.0814  0.5234 -1.3058
 2927SOL     OW20239   2.978   2.475   8.207  0.3433 -0.0874  0.1668
 2927SOL    HW120240   3.029   2.553   8.227  1.2241 -0.5153 -0.4478
 2927SOL    HW220241   2.991   2.458   8.114 -1.6294 -0.7770  0.0174
 2928SOL     OW20242   3.928   2.048   8.716  0.4391  0.1617 -0.2162
 2928SOL    HW120243   3.845   2.003   8.732  0.4296  0.5846  0.9179
 2928SOL    HW220244   3.975   1.970   8.687 -0.2999 -1.1004  2.0067
 2929SOL     OW20245   0.814   2.616   2.792  0.0142  0.2108 -0.5533
 2929SOL    HW120246   0.899   2.638   2.830 -0.5526  0.4962  0.5588
 2929SOL    HW220247   0.783   2.701   2.762 -1.7949 -0.6370 -1.1361
 2930SOL     OW20248   0.853   2.833   0.048  0.4781  0.0877 -0.4837
 2930SOL    HW120249   0.948   2.826   0.038  0.4076  0.3234 -1.3236
 2930SOL    HW220250   0.851   2.926   0.071  3.0852  0.0210 -0.0176
 2931SOL     OW20251   1.804   1.085   0.318 -0.2399 -0.6663 -0.4639
 2931SOL    HW120252   1.873   1.079   0.253  1.0690 -1.2164  0.9907
 2931SOL    HW220253   1.788   0.993   0.339 -0.1442 -0.2817  1.2752
 2932SOL     OW20254   3.597   0.366   9.182 -0.0235  0.3599 -0.3664
 2932SOL    HW120255   3.551   0.340   9.103  1.1501 -0.8602 -0.6621
 2932SOL    HW220256   3.670   0.305   9.200 -1.7760 -1.0268  2.1467
 2933SOL     OW20257   3.225   3.561   6.599  0.4220  0.1339  0.0818
 2933SOL    HW120258   3.132   3.562   6.623  0.0156  0.2915 -1.4651
 2933SOL    HW220259   3.248   3.652   6.578  0.3642 -0.0250 -0.6567
 2934SOL     OW20260   2.022   2.526  10.725 -0.5847 -0.1527 -0.2084
 2934SOL    HW120261   1.993   2.565  10.642 -1.6382 -0.4848  0.0067
 2934SOL    HW220262   1.986   2.572  10.801  2.0429  0.7573  0.4926
 2935SOL     OW20263   4.064   4.663  11.131 -0.2771  0.7909 -0.5295
 2935SOL    HW120264   4.065   0.009  11.066 -2.4513  2.7049  1.4782
 2935SOL    HW220265   4.119   4.602  11.081 -1.5464 -0.4345 -0.4404
 2936SOL     OW20266   4.317   1.867  14.489 -0.2363 -0.0678 -0.1496
 2936SOL    HW120267   4.394   1.905  14.531 -1.2318  2.2046 -0.4194
 2936SOL    HW220268   4.282   1.949  14.455 -0.1021 -0.5270 -1.4251
 2937SOL     OW20269   4.398   0.937   6.294 -0.1270 -0.6211 -1.1002
 2937SOL    HW120270   4.315   0.984   6.301  1.3210  1.5430  1.5233
 2937SOL    HW220271   4.396   0.890   6.377  2.6349  0.6418 -0.3340
 2938SOL     OW20272   0.701   4.363  12.626 -0.5681 -0.3084  0.2334
 2938SOL    HW120273   0.652   4.282  12.614 -0.2557 -0.5507  0.5908
 2938SOL    HW220274   0.728   4.366  12.718 -0.4809 -0.5528  0.2153
 2939SOL     OW20275   3.563   0.818   6.411  0.6655  0.2271  0.3770
 2939SOL    HW120276   3.617   0.761   6.466  2.0098 -0.5318 -1.7315
 2939SOL    HW220277   3.577   0.789   6.321 -1.2144 -0.4987  0.3026
 2940SOL     OW20278   4.497   1.751   2.090 -0.4200 -0.1415 -0.9111
 2940SOL    HW120279   4.491   1.750   2.185 -1.1280 -1.6321 -0.9695
 2940SOL    HW220280   4.549   1.828   2.068 -0.6994 -0.4308 -2.6167
 2941SOL     OW20281   4.000   0.841  15.634 -0.0962 -0.0470  0.0067
 2941SOL    HW120282   4.063   0.776  15.664 -1.5654 -1.6711 -0.3956
 2941SOL    HW220283   3.960   0.783  15.569  1.4239 -2.0834  0.8796
 2942SOL     OW20284   1.869   2.321   0.466 -0.5345  0.2937  0.6012
 2942SOL    HW120285   1.940   2.331   0.403  0.8420 -4.1461  1.4689
 2942SOL    HW220286   1.812   2.396   0.449 -0.7928  0.1819  0.9858
 2943SOL     OW20287   1.157   1.534   1.903 -0.0120 -0.4491 -0.6021
 2943SOL    HW120288   1.168   1.511   1.811  2.4749  3.1766 -1.2082
 2943SOL    HW220289   1.241   1.576   1.921  1.0015 -3.0665  0.9415
 2944SOL     OW20290   3.011   0.067   7.142  0.3961 -0.1955 -1.3008
 2944SOL    HW120291   3.030   0.112   7.224  0.7527 -1.2085 -0.8201
 2944SOL    HW220292   2.924   0.094   7.113 -0.3167 -0.2497  0.8218
 2945SOL     OW20293   2.928   4.211   5.901 -0.2131  0.1289  0.5887
 2945SOL    HW120294   2.867   4.245   5.966 -0.3482 -0.6582  0.8731
 2945SOL    HW220295   2.944   4.287   5.844  0.5533 -0.0820  0.5224
 2946SOL     OW20296   2.229   3.464   5.821 -0.0718  0.4560 -0.2678
 2946SOL    HW120297   2.313   3.443   5.780  0.0906 -1.4381  1.0535
 2946SOL    HW220298   2.252   3.480   5.913  1.4040 -0.7299 -0.4301
 2947SOL     OW20299   3.269   3.834  17.022  0.0240 -0.0798  0.4259
 2947SOL    HW120300   3.227   3.874  16.946  1.2458  0.1890 -0.1078
 2947SOL    HW220301   3.228   3.880  17.096 -0.4001  0.5598 -0.2057
 2948SOL     OW20302   4.038   0.428   7.264  0.1708  0.1388 -0.4008
 2948SOL    HW120303   4.092   0.417   7.343  2.7716  0.1320 -2.1739
 2948SOL    HW220304   4.012   0.337   7.250  1.3669 -0.1702 -0.6555
 2949SOL     OW20305   0.532   2.636   1.298 -0.3545  0.0726  0.6926
 2949SOL    HW120306   0.539   2.725   1.265 -1.1883 -1.0569 -2.5757
 2949SOL    HW220307   0.560   2.650   1.388  1.4322 -0.2176  0.1706
 2950SOL     OW20308   4.226   4.305   3.737  0.1032  0.0332 -0.6900
 2950SOL    HW120309   4.317   4.328   3.757  0.0819  1.4768 -2.2720
 2950SOL    HW220310   4.190   4.316   3.825 -0.4884  0.0816 -0.9351
 2951SOL     OW20311   2.381   4.605  10.730  0.0602 -0.3377  0.1414
 2951SOL    HW120312   2.336   4.642  10.653  0.5503 -0.3712 -0.1583
 2951SOL    HW220313   2.313   4.620  10.796 -1.5619  1.4077 -1.9021
 2952SOL     OW20314   0.610   4.435   3.229  0.0549  0.0831 -0.3527
 2952SOL    HW120315   0.695   4.394   3.214 -0.1864 -0.5927  0.1381
 2952SOL    HW220316   0.550   4.377   3.181 -0.9798  1.8137 -1.1357
 2953SOL     OW20317   0.600   4.116  16.152  0.1618  0.1567  0.4358
 2953SOL    HW120318   0.561   4.101  16.238 -1.6027 -3.6653 -1.0163
 2953SOL    HW220319   0.679   4.066  16.171 -0.1372 -1.6683 -2.9908
 2954SOL     OW20320   0.462   1.366   2.677 -0.0285 -0.4248 -0.4630
 2954SOL    HW120321   0.416   1.301   2.730  2.2657 -1.8161 -0.1579
 2954SOL    HW220322   0.398   1.390   2.611 -0.4461  0.6604  0.3328
 2955SOL     OW20323   1.717   0.017   5.522  0.0998 -0.0785  0.8306
 2955SOL    HW120324   1.683   0.106   5.523  0.5091  0.1092 -2.2870
 2955SOL    HW220325   1.632   4.701   5.502  0.1384 -0.4287  1.3575
 2956SOL     OW20326   0.924   0.436   3.237 -0.2857 -0.0923 -0.1762
 2956SOL    HW120327   0.956   0.374   3.172  0.3802  1.6767 -1.5564
 2956SOL    HW220328   0.839   0.463   3.201 -2.0517 -0.9573  3.3660
 2957SOL     OW20329   3.306   1.681   9.169  0.3804  0.0499  0.2833
 2957SOL    HW120330   3.316   1.771   9.138 -0.8593  0.1782  0.2561
 2957SOL    HW220331   3.383   1.641   9.128 -0.1808 -0.6933 -0.0551
 2958SOL     OW20332   2.418   2.043   4.048 -0.1583  0.3061  0.3620
 2958SOL    HW120333   2.407   1.950   4.069 -1.1568 -0.5826 -4.0613
 2958SOL    HW220334   2.354   2.082   4.108 -0.7308  1.3888 -0.9519
 2959SOL     OW20335   2.114   0.688   7.951 -0.3928 -0.0514 -0.0263
 2959SOL    HW120336   2.168   0.682   7.873 -1.4185 -2.8988 -0.5102
 2959SOL    HW220337   2.131   0.777   7.983 -1.9766  0.6496 -1.1634
 2960SOL     OW20338   3.651   1.426  12.113 -0.2512  0.0036 -0.2766
 2960SOL    HW120339   3.697   1.504  12.080  0.9332 -0.7737 -0.4503
 2960SOL    HW220340   3.674   1.361  12.047 -1.0227 -1.7756  1.2213
 2961SOL     OW20341   3.701   4.673   9.407 -0.0125 -1.0126  0.3771
 2961SOL    HW120342   3.616   4.657   9.367 -0.3040  1.2259  0.0781
 2961SOL    HW220343   3.729   4.582   9.415 -4.0504 -1.9908  3.3098
 2962SOL     OW20344   2.067   4.324   7.282  0.1833 -0.1164 -0.0702
 2962SOL    HW120345   1.985   4.279   7.265  0.1499  0.2388 -0.8513
 2962SOL    HW220346   2.034   4.388   7.345  0.1034 -2.2391  2.0479
 2963SOL     OW20347   0.857   4.246   1.743  0.0254  0.2570  0.4854
 2963SOL    HW120348   0.827   4.156   1.761  0.0178 -0.0019 -0.7972
 2963SOL    HW220349   0.797   4.281   1.678  0.4027 -0.4894 -0.2630
 2964SOL     OW20350   2.209   1.436   1.729  0.5313 -0.3428  0.3424
 2964SOL    HW120351   2.150   1.484   1.671 -0.6578 -2.6368 -0.3459
 2964SOL    HW220352   2.148   1.365   1.749  2.2491 -2.0790 -0.5413
 2965SOL     OW20353   3.916   4.639   6.045 -0.7958  0.7293  0.4998
 2965SOL    HW120354   3.896   4.711   6.106 -0.5202  1.5551 -0.3758
 2965SOL    HW220355   3.827   4.638   6.009 -0.1353  0.4176 -1.0990
 2966SOL     OW20356   0.864   2.369  10.165 -0.5496 -0.8738 -0.1081
 2966SOL    HW120357   0.869   2.329  10.252 -2.9341 -1.1426 -0.0750
 2966SOL    HW220358   0.948   2.412  10.153 -0.4112 -0.6844  1.4539
 2967SOL     OW20359   0.757   4.327   8.149 -0.4607  0.0935 -0.0052
 2967SOL    HW120360   0.775   4.310   8.241 -0.6011  0.7326  0.1446
 2967SOL    HW220361   0.836   4.373   8.120 -0.9258 -0.1221 -1.5982
 2968SOL     OW20362   3.791   1.841  10.704 -0.3038  0.3904  0.2319
 2968SOL    HW120363   3.794   1.902  10.631 -0.5248  1.7181  1.3225
 2968SOL    HW220364   3.841   1.879  10.777 -0.5038  0.6298  0.2448
 2969SOL     OW20365   0.208   4.425   5.111  0.0531 -0.1253  0.4059
 2969SOL    HW120366   0.269   4.477   5.163 -0.1543  1.6074 -1.0884
 2969SOL    HW220367   0.211   4.345   5.164  0.6901  0.0069  0.5691
 2970SOL     OW20368   3.638   3.907  12.259  0.4696  0.1674 -0.2165
 2970SOL    HW120369   3.637   3.906  12.355  1.3392 -0.9122 -0.2152
 2970SOL    HW220370   3.559   3.854  12.249  2.3154 -2.6507  0.2923
 2971SOL     OW20371   3.944   4.004   0.938 -0.1504  0.1723 -0.0074
 2971SOL    HW120372   3.959   3.974   1.027  0.3916 -0.4971 -0.3269
 2971SOL    HW220373   4.030   4.035   0.911 -0.8274  0.3828 -1.9133
 2972SOL     OW20374   3.120   3.791   8.648  0.1385  0.9872  0.4834
 2972SOL    HW120375   3.173   3.824   8.722  0.3139  2.4806 -0.3003
 2972SOL    HW220376   3.040   3.778   8.698  0.3679 -0.6900  0.4171
 2973SOL     OW20377   2.061   3.712   5.701 -0.2355  0.0009 -0.5672
 2973SOL    HW120378   2.153   3.718   5.728  0.4880 -1.6662 -2.6247
 2973SOL    HW220379   2.069   3.702   5.606  1.5511 -0.2249 -0.3948
 2974SOL     OW20380   1.311   1.314   0.631 -0.5463  0.3527  0.2858
 2974SOL    HW120381   1.218   1.293   0.625 -1.0978  2.6188  0.9669
 2974SOL    HW220382   1.356   1.231   0.648  0.3890  0.9834  0.8784
 2975SOL     OW20383   0.749   3.690   2.296 -0.3738  0.3085  1.0183
 2975SOL    HW120384   0.784   3.705   2.384  0.8340  1.0464  0.3975
 2975SOL    HW220385   0.666   3.651   2.324 -1.4649  2.6750  1.0103
 2976SOL     OW20386   4.446   4.549   5.557 -0.3001 -0.4797 -0.7067
 2976SOL    HW120387   4.357   4.548   5.519  0.3563 -0.0308 -2.2668
 2976SOL    HW220388   4.420   4.611   5.625 -0.7426 -0.9128 -0.4860
 2977SOL     OW20389   3.329   0.430  11.328 -0.0225 -0.0839 -0.2199
 2977SOL    HW120390   3.387   0.441  11.254 -0.3455  0.1293 -0.4432
 2977SOL    HW220391   3.379   0.354  11.356  3.2515  2.3617  0.6229
 2978SOL     OW20392   1.627   1.151   8.889  0.1102  0.1276  0.2168
 2978SOL    HW120393   1.560   1.203   8.934 -2.0794  0.0651 -2.9866
 2978SOL    HW220394   1.678   1.126   8.966  2.0771 -2.8482 -2.0265
 2979SOL     OW20395   2.477   2.934   6.041 -0.0554  0.0178  0.2423
 2979SOL    HW120396   2.488   2.842   6.016 -0.8414  0.5044 -1.8780
 2979SOL    HW220397   2.383   2.943   6.031 -0.2716 -1.4291  0.8861
 2980SOL     OW20398   3.734   1.465  13.567  0.2781  0.0399  0.1558
 2980SOL    HW120399   3.700   1.474  13.478  4.3821  0.9934 -1.2702
 2980SOL    HW220400   3.683   1.396  13.610  0.6371 -0.9263 -0.9685
 2981SOL     OW20401   2.015   0.831  11.159 -0.2050 -0.0553  0.2266
 2981SOL    HW120402   2.002   0.813  11.066  3.2746 -1.1466 -0.0340
 2981SOL    HW220403   2.104   0.867  11.162 -0.4753  0.5594  0.8467
 2982SOL     OW20404   3.097   0.236  14.016  0.2814 -0.3363 -0.0468
 2982SOL    HW120405   3.044   0.177  13.963 -3.1033  0.2422  2.7249
 2982SOL    HW220406   3.070   0.225  14.107  1.5988 -0.8128  0.2911
 2983SOL     OW20407   0.954   2.184   8.313 -0.6778 -0.2927  0.7251
 2983SOL    HW120408   1.017   2.230   8.368 -0.3369  0.1701 -0.0582
 2983SOL    HW220409   0.894   2.142   8.375 -0.3223 -0.2260  1.1097
 2984SOL     OW20410   3.528   3.953   5.226 -0.0501  0.6934 -0.4893
 2984SOL    HW120411   3.592   3.961   5.296 -0.5223  0.2793 -0.0070
 2984SOL    HW220412   3.539   3.861   5.201  3.2545  0.3075  2.4247
 2985SOL     OW20413   1.831   0.715   0.230 -0.4592 -0.4506 -0.4815
 2985SOL    HW120414   1.756   0.656   0.244  0.1789 -0.8888  1.1516
 2985SOL    HW220415   1.850   0.743   0.320 -1.4514 -1.3866  0.0279
 2986SOL     OW20416   1.117   3.555  11.872  0.0474 -0.0178  0.2535
 2986SOL    HW120417   1.118   3.460  11.863 -2.0497  0.3190 -3.0540
 2986SOL    HW220418   1.137   3.560  11.966  2.4946 -3.4097 -0.0657
 2987SOL     OW20419   4.070   4.480   8.541  0.1896 -0.0200 -0.0534
 2987SOL    HW120420   4.085   4.451   8.631 -0.7011 -0.7497 -0.1417
 2987SOL    HW220421   4.136   4.445   8.481  0.9222  0.9610  0.1784
 2988SOL     OW20422   3.594   2.236   3.668  0.4374  0.4476  0.6867
 2988SOL    HW120423   3.524   2.246   3.603  2.1489 -1.1800 -1.4229
 2988SOL    HW220424   3.639   2.157   3.637 -2.2020 -0.4498 -0.8099
 2989SOL     OW20425   2.530   1.434   8.828  0.2898  0.2934  0.4332
 2989SOL    HW120426   2.525   1.349   8.871  1.2036  0.3545  0.6500
 2989SOL    HW220427   2.535   1.415   8.734  0.6318 -2.0007  0.9210
 2990SOL     OW20428   2.724   0.171   9.488  0.0349 -0.4449  0.1834
 2990SOL    HW120429   2.775   0.138   9.562 -2.2479 -0.7918  1.6072
 2990SOL    HW220430   2.787   0.174   9.416 -0.2918 -1.3635 -0.1340
 2991SOL     OW20431   3.399   2.162  14.938  0.1548  0.1166  0.1690
 2991SOL    HW120432   3.421   2.220  15.011 -1.0948 -0.2028  0.7968
 2991SOL    HW220433   3.341   2.101  14.983 -1.1099  1.8793  0.9049
 2992SOL     OW20434   0.254   0.178   8.435  0.1175  0.0681  0.4030
 2992SOL    HW120435   0.233   0.270   8.450  0.4970  0.1297  0.5515
 2992SOL    HW220436   0.171   0.140   8.465  1.9040 -3.2178  1.1470
 2993SOL     OW20437   1.841   3.622   6.672 -0.1937 -0.2049 -0.1882
 2993SOL    HW120438   1.907   3.686   6.647 -0.1818 -1.0079 -2.2312
 2993SOL    HW220439   1.780   3.628   6.598 -1.7794  0.0556  1.1279
 2994SOL     OW20440   1.732   1.600   4.493  0.1303  0.1874  0.6445
 2994SOL    HW120441   1.800   1.654   4.533 -0.6414  0.7800  1.1833
 2994SOL    HW220442   1.664   1.608   4.560 -0.6613  0.0811 -0.1479
 2995SOL     OW20443   2.008   1.125   5.960  0.0885  0.7661  0.2377
 2995SOL    HW120444   2.079   1.151   6.019 -0.1992 -0.6658  1.2146
 2995SOL    HW220445   1.938   1.124   6.024 -1.6604  0.4748 -1.6892
 2996SOL     OW20446   4.594   2.191  15.379  0.3912 -0.1373 -0.3041
 2996SOL    HW120447   4.518   2.211  15.434  1.0766 -1.5984  1.1891
 2996SOL    HW220448   4.660   2.226  15.440  0.1898  1.5279 -1.0520
 2997SOL     OW20449   1.090   4.313   3.586  0.1173 -0.2604 -0.6345
 2997SOL    HW120450   1.042   4.315   3.668  0.1741 -0.3658 -0.5985
 2997SOL    HW220451   1.167   4.364   3.609  0.8796 -1.0588 -1.3908
 2998SOL     OW20452   2.363   1.602  15.431  0.1399  0.5103 -0.1396
 2998SOL    HW120453   2.310   1.539  15.381 -0.3234  1.5418 -0.9390
 2998SOL    HW220454   2.378   1.671  15.367 -0.7320  0.2144 -0.6711
 2999SOL     OW20455   4.207   4.459   8.015  1.0948 -0.4217 -0.3341
 2999SOL    HW120456   4.247   4.521   8.076  0.7325 -0.8546  0.3347
 2999SOL    HW220457   4.178   4.518   7.945  0.1883 -0.5075 -0.0386
 3000SOL     OW20458   0.526   0.141   2.189 -0.1079  0.1699 -0.2050
 3000SOL    HW120459   0.620   0.126   2.196  0.1284  2.0678  0.5522
 3000SOL    HW220460   0.515   0.235   2.176 -0.1960  0.1796 -0.0701
 3001SOL     OW20461   3.868   3.228   4.988  0.3766  0.2195 -0.1372
 3001SOL    HW120462   3.776   3.232   4.961  0.9357 -0.1864 -2.0842
 3001SOL    HW220463   3.911   3.305   4.951 -1.5623  0.9809 -0.8007
 3002SOL     OW20464   3.510   4.610  16.576  0.3192 -0.0828 -0.5697
 3002SOL    HW120465   3.546   4.608  16.664  0.6297  0.1505 -0.6911
 3002SOL    HW220466   3.456   4.689  16.580 -0.4051 -0.6140  0.1965
 3003SOL     OW20467   1.788   0.909   1.037 -0.0042 -0.0645 -0.5551
 3003SOL    HW120468   1.859   0.846   1.050  0.6009  0.4720 -1.2711
 3003SOL    HW220469   1.728   0.852   0.989 -0.8314 -0.2893  0.7326
 3004SOL     OW20470   3.064   3.090   8.522  0.5216 -0.3968 -0.4714
 3004SOL    HW120471   3.085   3.042   8.443  1.0844 -1.2875  0.2153
 3004SOL    HW220472   3.020   3.030   8.583 -3.1681  1.4752 -1.2727
 3005SOL     OW20473   2.396   1.314   6.695 -1.0526 -0.1600 -0.0907
 3005SOL    HW120474   2.312   1.268   6.695 -0.4035 -1.3721 -0.8657
 3005SOL    HW220475   2.406   1.355   6.610 -0.0057  1.5274  0.8596
 3006SOL     OW20476   0.868   2.153  14.078 -0.4526  0.0244 -0.1139
 3006SOL    HW120477   0.960   2.179  14.088 -0.5332  0.3650 -0.2753
 3006SOL    HW220478   0.825   2.233  14.047 -0.6757 -0.1790 -0.3320
 3007SOL     OW20479   3.960   0.677   6.927 -0.2653  0.2700 -0.6827
 3007SOL    HW120480   3.922   0.592   6.949 -0.7681  0.2940 -1.4390
 3007SOL    HW220481   4.036   0.675   6.986 -0.3816 -3.2797 -0.6637
 3008SOL     OW20482   4.450   3.168  12.597  0.0786  0.1260 -0.7674
 3008SOL    HW120483   4.378   3.106  12.589  1.4179 -1.4431 -0.4767
 3008SOL    HW220484   4.494   3.159  12.513 -0.7914 -3.0539 -0.8861
 3009SOL     OW20485   3.320   2.204   6.641  0.6298  0.0391  0.8114
 3009SOL    HW120486   3.348   2.291   6.669  2.7143 -0.0444 -0.9958
 3009SOL    HW220487   3.402   2.168   6.606  0.3275  0.2462 -0.1286
 3010SOL     OW20488   1.725   2.480  17.299  0.2733 -0.4304 -0.3370
 3010SOL    HW120489   1.631   2.467  17.298  0.3829 -1.1716 -0.9991
 3010SOL    HW220490   1.742   2.499  17.207 -2.4964  0.2981 -0.6652
 3011SOL     OW20491   0.183   3.883  14.453  0.3837 -0.3210  0.3328
 3011SOL    HW120492   0.175   3.854  14.362  0.2123  2.1992 -0.4542
 3011SOL    HW220493   0.233   3.810  14.489  1.1239 -0.1673 -0.3652
 3012SOL     OW20494   0.659   0.423   8.165  0.3603  0.6100  0.9357
 3012SOL    HW120495   0.655   0.456   8.076  0.6420 -1.0332  0.3130
 3012SOL    HW220496   0.581   0.367   8.165 -0.7153  2.1071  2.6565
 3013SOL     OW20497   0.572   2.162   1.874 -0.1416 -0.1023  0.5619
 3013SOL    HW120498   0.551   2.222   1.802 -0.1687 -1.7627 -0.8070
 3013SOL    HW220499   0.668   2.171   1.878 -0.0309 -1.0033 -0.0581
 3014SOL     OW20500   2.396   3.642   4.417 -0.1705 -0.1490  0.0353
 3014SOL    HW120501   2.433   3.729   4.432  0.3546 -0.4386  0.4180
 3014SOL    HW220502   2.422   3.635   4.325 -1.3176  0.0509 -0.3069
 3015SOL     OW20503   0.647   1.862   8.786 -0.1034 -0.1492  0.4492
 3015SOL    HW120504   0.647   1.778   8.832  0.2111 -0.6197 -0.4109
 3015SOL    HW220505   0.554   1.856   8.765 -0.5316  1.4483  1.9026
 3016SOL     OW20506   2.482   0.173   3.675  0.6305 -0.0395 -0.5619
 3016SOL    HW120507   2.448   0.121   3.602  1.6330  0.4041 -1.3440
 3016SOL    HW220508   2.494   0.107   3.744  0.2940  0.1577 -0.3120
 3017SOL     OW20509   1.496   2.392   5.560  0.3358  0.0786  0.2022
 3017SOL    HW120510   1.463   2.390   5.650 -2.9678 -1.7372 -1.0251
 3017SOL    HW220511   1.539   2.478   5.560  0.9062 -0.2203 -3.5831
 3018SOL     OW20512   3.466   1.530  16.012 -0.3376  0.0362  0.4219
 3018SOL    HW120513   3.464   1.501  15.921 -1.7127  2.1192 -0.2049
 3018SOL    HW220514   3.409   1.607  16.012 -3.1691 -2.0946  0.0739
 3019SOL     OW20515   3.599   3.345   4.904 -0.5477 -0.4708 -0.0083
 3019SOL    HW120516   3.545   3.278   4.862  0.2835 -0.5713 -0.9083
 3019SOL    HW220517   3.521   3.382   4.946 -0.6454 -0.5939 -0.0805
 3020SOL     OW20518   3.928   0.796   0.476  0.0792 -0.2901 -0.2862
 3020SOL    HW120519   3.941   0.737   0.402  0.2958  1.4518 -1.6516
 3020SOL    HW220520   3.874   0.746   0.536  0.3560  0.4002  0.5340
 3021SOL     OW20521   3.011   0.609  15.086 -0.0225  0.0253 -0.3961
 3021SOL    HW120522   2.967   0.606  15.002 -2.0555 -0.6217  0.6896
 3021SOL    HW220523   2.998   0.702  15.106 -0.4333  0.7078 -3.9017
 3022SOL     OW20524   3.537   0.334   9.904 -0.7337  0.0858 -0.1792
 3022SOL    HW120525   3.573   0.401   9.846 -2.3195  1.6742  0.7143
 3022SOL    HW220526   3.591   0.352   9.981 -0.3132 -0.1430 -0.4195
 3023SOL     OW20527   0.901   4.615  16.767  0.6572  0.3369 -0.2029
 3023SOL    HW120528   0.853   4.695  16.748 -0.7885 -0.0863  1.7162
 3023SOL    HW220529   0.945   4.600  16.683  0.6041 -2.5250  0.2683
 3024SOL     OW20530   1.258   3.761   7.558  0.7348 -0.1833  0.8714
 3024SOL    HW120531   1.257   3.747   7.463 -2.0134 -1.8864  1.1473
 3024SOL    HW220532   1.265   3.856   7.563 -0.6669  0.0603 -1.5381
 3025SOL     OW20533   1.021   0.344   5.080  0.2354  0.4663  0.1692
 3025SOL    HW120534   1.048   0.404   5.149 -1.4201 -0.5384  1.7270
 3025SOL    HW220535   1.031   0.259   5.123  1.6367  0.4458 -0.2095
 3026SOL     OW20536   1.806   2.957   6.129  0.2191 -0.5925  0.0464
 3026SOL    HW120537   1.836   2.876   6.169 -0.2635 -1.1326 -0.6912
 3026SOL    HW220538   1.853   2.957   6.045  1.4460 -0.5758  0.7373
 3027SOL     OW20539   1.272   0.726   4.286  0.8048  0.2701  0.1672
 3027SOL    HW120540   1.245   0.720   4.378  1.6163  1.6369  0.5036
 3027SOL    HW220541   1.203   0.667   4.256 -0.1419  1.0728  0.7623
 3028SOL     OW20542   1.959   3.431   3.688  0.4225 -0.0376  0.6461
 3028SOL    HW120543   1.870   3.445   3.719 -0.9912 -1.1933 -2.9001
 3028SOL    HW220544   1.939   3.417   3.596  4.3936 -3.5756  0.2828
 3029SOL     OW20545   1.923   1.677   4.254 -0.2571 -0.0579  0.0643
 3029SOL    HW120546   1.997   1.630   4.216  0.8566  1.2609  0.5893
 3029SOL    HW220547   1.903   1.626   4.332  0.8209  1.6982  1.5042
 3030SOL     OW20548   1.141   2.004  10.551 -0.1973 -0.0356 -0.0648
 3030SOL    HW120549   1.223   1.990  10.598 -0.3914 -2.2687 -0.3748
 3030SOL    HW220550   1.089   1.930  10.585 -1.1198  0.2451 -0.8770
 3031SOL     OW20551   4.139   1.868   1.220 -0.1850 -0.6387 -0.5344
 3031SOL    HW120552   4.119   1.774   1.219 -0.3201 -0.6226  1.1972
 3031SOL    HW220553   4.052   1.897   1.192 -0.6448 -1.9669 -0.4622
 3032SOL     OW20554   0.474   2.847   4.505  0.3135  0.3076  0.5967
 3032SOL    HW120555   0.491   2.816   4.594 -0.8042  0.4640  0.8676
 3032SOL    HW220556   0.419   2.779   4.465  1.1518  0.4533 -0.7779
 3033SOL     OW20557   2.147   0.314   7.402  0.4958 -0.3263 -0.3591
 3033SOL    HW120558   2.203   0.244   7.369 -0.3496 -1.1133 -0.1151
 3033SOL    HW220559   2.168   0.385   7.341 -1.7149  0.4780 -0.1704
 3034SOL     OW20560   4.665   4.477   3.093  0.4133  0.8067 -0.3124
 3034SOL    HW120561   4.571   4.460   3.093  0.4177  0.7991  1.7459
 3034SOL    HW220562   4.695   4.390   3.066 -0.6957  0.5741 -0.8229
 3035SOL     OW20563   1.328   2.545  12.264 -0.0238  0.2784 -0.4691
 3035SOL    HW120564   1.383   2.485  12.215  2.0438  1.1019  0.8175
 3035SOL    HW220565   1.323   2.507  12.352 -2.0719  1.4874 -0.0594
 3036SOL     OW20566   1.478   1.871  17.103 -0.0071  0.7169 -0.2756
 3036SOL    HW120567   1.550   1.920  17.144 -1.1695  2.5635 -0.4789
 3036SOL    HW220568   1.400   1.897  17.151  0.1921  0.2157  0.3331
 3037SOL     OW20569   2.258   3.155   4.452  0.3436 -0.4261  0.3158
 3037SOL    HW120570   2.341   3.155   4.500  0.2137 -2.7866  0.5669
 3037SOL    HW220571   2.199   3.199   4.513  1.0955  2.8234 -1.3399
 3038SOL     OW20572   3.808   2.826   2.648 -0.4468 -0.7260 -0.1642
 3038SOL    HW120573   3.894   2.861   2.671 -1.4774 -0.2922  2.9988
 3038SOL    HW220574   3.761   2.847   2.729  0.1356 -0.4640  0.1087
 3039SOL     OW20575   4.079   1.396   5.833  0.2706 -0.2444 -0.6406
 3039SOL    HW120576   4.066   1.313   5.788  2.6112 -2.7997  3.3501
 3039SOL    HW220577   3.989   1.427   5.846  0.1781 -0.5513 -0.5330
 3040SOL     OW20578   0.257   3.319   8.141  0.0779  0.1583 -0.1694
 3040SOL    HW120579   0.284   3.372   8.066 -0.0614 -1.3302 -1.2550
 3040SOL    HW220580   0.174   3.354   8.174 -0.2720  1.5175 -2.5080
 3041SOL     OW20581   4.443   1.460   4.103 -0.0231 -0.2220  0.0072
 3041SOL    HW120582   4.501   1.465   4.027  0.6696  3.8680  0.7820
 3041SOL    HW220583   4.461   1.545   4.142  0.2404 -0.1281 -0.3176
 3042SOL     OW20584   0.339   2.986   8.286 -0.0354  0.2052  0.2291
 3042SOL    HW120585   0.371   3.048   8.352 -0.1129  0.9316 -0.4124
 3042SOL    HW220586   0.366   3.032   8.206  0.2964 -3.2418 -1.6319
 3043SOL     OW20587   4.351   4.415  13.577 -0.2718 -0.0030  0.6111
 3043SOL    HW120588   4.309   4.466  13.508 -0.6851  0.3928  1.1509
 3043SOL    HW220589   4.431   4.385  13.533 -0.4683 -0.0901  0.3138
 3044SOL     OW20590   4.679   1.999   8.256  0.2019  0.1953  0.3886
 3044SOL    HW120591   4.616   1.939   8.217  1.5028  0.0581 -1.5430
 3044SOL    HW220592   0.013   1.994   8.179 -2.1513 -0.2422 -1.3305
 3045SOL     OW20593   1.618   3.398   8.990  0.0738 -0.0551 -0.5970
 3045SOL    HW120594   1.605   3.382   8.897  1.7454 -0.5372 -0.7509
 3045SOL    HW220595   1.554   3.469   8.999 -1.4343 -1.5215  0.4017
 3046SOL     OW20596   0.451   0.151  15.054 -0.3310  0.5552 -0.3782
 3046SOL    HW120597   0.382   0.131  14.990  0.9420  2.9597 -2.4871
 3046SOL    HW220598   0.409   0.203  15.123 -0.8538 -0.2365 -0.0977
 3047SOL     OW20599   0.641   4.319   6.147  0.4510  0.6606 -0.0741
 3047SOL    HW120600   0.578   4.368   6.094 -3.5103 -2.5521  1.5962
 3047SOL    HW220601   0.655   4.389   6.210 -1.7183 -0.6727  1.9296
 3048SOL     OW20602   3.675   0.676  10.478  0.2796  0.1241 -0.3155
 3048SOL    HW120603   3.694   0.590  10.515 -0.3438 -0.1962 -0.7356
 3048SOL    HW220604   3.757   0.698  10.435  0.0314  0.9943 -0.3333
 3049SOL     OW20605   3.793   1.398   3.718  0.2355 -0.3375  0.0698
 3049SOL    HW120606   3.839   1.407   3.802 -2.9692 -0.2172  1.8193
 3049SOL    HW220607   3.855   1.410   3.646 -0.4333  1.7739 -0.1500
 3050SOL     OW20608   3.924   1.331   1.309 -0.1016 -0.1960  0.4837
 3050SOL    HW120609   3.889   1.260   1.254 -0.1090 -1.6328  2.3437
 3050SOL    HW220610   3.955   1.394   1.245  2.3200 -3.8257 -1.9208
 3051SOL     OW20611   1.936   3.927   8.302 -0.1918  0.3996 -0.2598
 3051SOL    HW120612   2.024   3.894   8.322  0.6518  1.7210 -1.7570
 3051SOL    HW220613   1.953   3.985   8.227 -0.1073  1.9155  0.9305
 3052SOL     OW20614   1.077   0.313  13.452 -0.1686  0.0219  0.1495
 3052SOL    HW120615   1.168   0.285  13.446  0.0205  0.2254  2.1410
 3052SOL    HW220616   1.047   0.234  13.498 -0.7099 -0.8994 -1.7970
 3053SOL     OW20617   2.882   4.068   2.888  0.0812 -0.5776  0.0544
 3053SOL    HW120618   2.972   4.099   2.875  0.6497 -2.6809 -1.0775
 3053SOL    HW220619   2.858   4.113   2.969  0.0266  0.5001 -0.5587
 3054SOL     OW20620   3.247   2.849   3.412 -0.1045 -0.3916  0.2132
 3054SOL    HW120621   3.220   2.912   3.345  0.3010  0.8999  1.2611
 3054SOL    HW220622   3.166   2.799   3.416  0.4030 -1.3016 -0.9328
 3055SOL     OW20623   2.411   1.940   4.913 -0.1108 -0.1097 -0.3111
 3055SOL    HW120624   2.376   1.961   4.826 -2.5279 -0.3984  0.5730
 3055SOL    HW220625   2.423   2.026   4.953 -1.1394  0.3739 -1.0200
 3056SOL     OW20626   2.567   3.233   4.185  0.3505 -0.3133 -0.2899
 3056SOL    HW120627   2.568   3.175   4.109 -0.3694  0.1793 -0.6794
 3056SOL    HW220628   2.473   3.239   4.202  0.3728  0.2155 -0.3502
 3057SOL     OW20629   0.343   1.064   4.580  0.2766  0.2051 -0.1357
 3057SOL    HW120630   0.258   1.099   4.610  0.6159  0.5007  0.4920
 3057SOL    HW220631   0.328   1.072   4.486  1.2754  1.0367 -0.2196
 3058SOL     OW20632   2.102   2.629   5.423  0.2179  0.0937 -0.2301
 3058SOL    HW120633   2.157   2.552   5.406  2.7978  1.7962  0.3587
 3058SOL    HW220634   2.089   2.666   5.336  0.9379  0.2156 -0.2863
 3059SOL     OW20635   3.628   3.856   6.036 -0.1415 -0.2621  0.3982
 3059SOL    HW120636   3.580   3.870   6.118  1.9559  1.4351  1.3125
 3059SOL    HW220637   3.700   3.795   6.052 -1.0207 -0.8827  1.9894
 3060SOL     OW20638   1.283   0.273   6.706  0.5345  0.0193  0.4720
 3060SOL    HW120639   1.325   0.328   6.640 -0.0479 -1.1952 -0.9146
 3060SOL    HW220640   1.259   0.333   6.777  1.6847  0.8923  0.1255
 3061SOL     OW20641   2.917   1.447   2.779  0.3522 -0.1718  0.0278
 3061SOL    HW120642   2.991   1.391   2.755  0.1397 -0.4945  0.1298
 3061SOL    HW220643   2.867   1.402   2.847 -0.0241  0.0994 -0.0711
 3062SOL     OW20644   1.404   1.866   8.113  0.0975  0.4697 -0.1664
 3062SOL    HW120645   1.330   1.922   8.134 -0.4939 -0.0936 -0.7489
 3062SOL    HW220646   1.373   1.787   8.158 -1.1032  0.2103 -1.4514
 3063SOL     OW20647   3.126   4.613   4.772  0.0700  0.2784 -0.4819
 3063SOL    HW120648   3.086   4.625   4.686 -1.4254 -1.0410  0.0458
 3063SOL    HW220649   3.055   4.659   4.816  0.6573  0.0541  0.6948
 3064SOL     OW20650   0.070   3.423  11.095  0.7264 -0.0665 -0.2805
 3064SOL    HW120651   0.113   3.408  11.180 -0.6498 -0.2306  0.3823
 3064SOL    HW220652   0.129   3.490  11.060  0.5544  1.6983  2.7065
 3065SOL     OW20653   0.514   2.210   1.210 -0.0245  0.5109  0.4770
 3065SOL    HW120654   0.602   2.173   1.201 -0.1944  0.8433 -2.8816
 3065SOL    HW220655   0.534   2.294   1.169  2.1850  0.9145  2.4281
 3066SOL     OW20656   3.861   0.366   1.909 -0.0739 -0.3256 -0.2446
 3066SOL    HW120657   3.956   0.372   1.923  0.2406 -0.4912 -2.3189
 3066SOL    HW220658   3.844   0.454   1.943  1.6239  0.6814 -2.0057
 3067SOL     OW20659   2.442   4.102  13.686 -0.8548 -0.2678  0.5858
 3067SOL    HW120660   2.524   4.110  13.638 -0.1528  0.5267  1.9154
 3067SOL    HW220661   2.384   4.165  13.642  0.3402  0.6781  0.3511
 3068SOL     OW20662   1.302   2.462   3.812 -0.1484  0.0679 -0.0152
 3068SOL    HW120663   1.237   2.421   3.870  0.9890 -0.5187  0.8690
 3068SOL    HW220664   1.242   2.488   3.743  1.2877 -1.3603 -1.8185
 3069SOL     OW20665   4.401   1.103   0.247 -0.9269  0.4530  0.4640
 3069SOL    HW120666   4.431   1.027   0.198 -0.9512 -0.4905  1.9398
 3069SOL    HW220667   4.306   1.091   0.241 -0.3825 -3.0231 -0.5985
 3070SOL     OW20668   0.017   3.448   0.727  0.3387  0.3611 -0.2582
 3070SOL    HW120669   0.002   3.503   0.651  0.5547  0.6128 -0.1169
 3070SOL    HW220670   4.685   3.480   0.798  2.5381  1.6538  0.8692
 3071SOL     OW20671   4.585   0.654  12.471  0.1409 -0.1685 -0.8025
 3071SOL    HW120672   4.649   0.699  12.527 -0.6091  0.9120 -0.7984
 3071SOL    HW220673   4.638   0.653  12.392 -0.8557  2.5591 -1.5163
 3072SOL     OW20674   0.017   3.690   4.788 -0.3962 -0.0580  0.2861
 3072SOL    HW120675   0.106   3.701   4.821 -0.1814  0.3570 -0.4347
 3072SOL    HW220676   4.702   3.619   4.839  0.3199 -1.5066 -1.1851
 3073SOL     OW20677   0.531   3.758   7.398  0.1892 -0.7179 -0.5341
 3073SOL    HW120678   0.452   3.803   7.427  0.5913  0.2197 -0.8915
 3073SOL    HW220679   0.585   3.834   7.377  0.1050  0.0459  2.0336
 3074SOL     OW20680   4.156   3.720   8.659 -0.2249  0.1225 -1.2700
 3074SOL    HW120681   4.122   3.789   8.716  0.4327 -0.8182  0.2611
 3074SOL    HW220682   4.245   3.749   8.641 -0.0074  0.1440 -0.1830
 3075SOL     OW20683   3.769   1.665  12.602  0.5969  0.0599  0.8906
 3075SOL    HW120684   3.731   1.594  12.550  1.8071 -1.5074  2.1343
 3075SOL    HW220685   3.816   1.622  12.674  1.7215 -0.3276 -0.0722
 3076SOL     OW20686   1.739   0.110   0.095 -0.0226 -1.1738  0.1322
 3076SOL    HW120687   1.713   0.128   0.186 -1.7689  2.1027 -1.0176
 3076SOL    HW220688   1.828   0.077   0.101  0.3537 -0.1247  0.3056
 3077SOL     OW20689   2.609   2.648  15.071  0.0639  0.0071  0.1308
 3077SOL    HW120690   2.646   2.726  15.112 -1.1444  0.5272  0.2501
 3077SOL    HW220691   2.663   2.642  14.992 -1.7039  0.8739 -1.1605
 3078SOL     OW20692   2.855   0.500   3.149 -0.2843 -0.0318  0.2020
 3078SOL    HW120693   2.791   0.440   3.110  0.4897  1.8715 -3.9596
 3078SOL    HW220694   2.925   0.434   3.150  0.0659  0.3309 -1.5148
 3079SOL     OW20695   1.733   1.301   2.933 -0.5580 -0.0509  0.5660
 3079SOL    HW120696   1.675   1.267   2.865  0.0746 -0.0636  0.0344
 3079SOL    HW220697   1.766   1.214   2.955 -0.0941  0.1105  0.5051
 3080SOL     OW20698   0.529   1.058   1.264 -0.2130  0.4617 -0.2541
 3080SOL    HW120699   0.615   1.017   1.263 -0.0197  0.9618 -3.2880
 3080SOL    HW220700   0.518   1.057   1.169  1.0430  1.5090 -0.4176
 3081SOL     OW20701   2.760   4.407  12.757  0.0124 -0.3232  0.3292
 3081SOL    HW120702   2.763   4.429  12.850  1.3029  1.5561 -0.1610
 3081SOL    HW220703   2.854   4.387  12.748  0.0053 -0.6224  0.9443
 3082SOL     OW20704   3.263   1.805  16.359  0.0414  0.0022 -1.0161
 3082SOL    HW120705   3.176   1.829  16.327 -0.7375  1.2663  2.0799
 3082SOL    HW220706   3.258   1.710  16.367  0.1178  0.0414 -0.4928
 3083SOL     OW20707   4.250   3.864   6.682 -0.5414 -0.3071  0.0151
 3083SOL    HW120708   4.181   3.842   6.619 -0.9188  1.9847 -0.4063
 3083SOL    HW220709   4.212   3.940   6.726  0.0006 -1.0340  1.7070
 3084SOL     OW20710   1.434   4.500   8.977 -0.0445 -0.0235  0.2710
 3084SOL    HW120711   1.491   4.522   9.051 -0.0627  1.9714 -0.3101
 3084SOL    HW220712   1.402   4.590   8.968  0.8277  0.2555 -0.0620
 3085SOL     OW20713   3.918   0.391   7.767  0.1673  0.2694 -0.3976
 3085SOL    HW120714   4.012   0.377   7.775 -0.1345 -0.8615  1.2785
 3085SOL    HW220715   3.894   0.475   7.805  3.3819  0.9645  0.0760
 3086SOL     OW20716   3.460   4.361   0.093 -0.1141 -0.0818  0.5239
 3086SOL    HW120717   3.410   4.381   0.172  1.1854  0.1626  1.2916
 3086SOL    HW220718   3.490   4.270   0.098  1.6772  0.5457  1.1330
 3087SOL     OW20719   1.485   3.469   7.282 -0.0328  0.8934  0.5882
 3087SOL    HW120720   1.507   3.428   7.365  3.7815  1.4366 -0.1279
 3087SOL    HW220721   1.459   3.555   7.315  0.3376  0.1601  2.7392
 3088SOL     OW20722   4.552   1.690   5.184  0.0699 -0.2057 -0.4311
 3088SOL    HW120723   4.605   1.688   5.104  0.7571  0.9668 -0.0120
 3088SOL    HW220724   4.576   1.610   5.229  0.2286  0.4275  0.6012
 3089SOL     OW20725   1.890   2.639   7.031 -0.0760  0.6259 -0.0057
 3089SOL    HW120726   1.918   2.557   6.993 -2.5998  0.8710 -2.4109
 3089SOL    HW220727   1.915   2.700   6.961 -0.1580  0.2711 -0.3395
 3090SOL     OW20728   0.679   3.048   5.753  0.2982 -0.7033 -0.0150
 3090SOL    HW120729   0.600   3.083   5.712 -1.1253 -0.0876  3.2488
 3090SOL    HW220730   0.660   3.065   5.845  1.4753 -3.3189  0.6964
 3091SOL     OW20731   4.192   3.303   4.804 -0.0111 -0.7655  0.7109
 3091SOL    HW120732   4.231   3.390   4.811 -0.0708 -0.7127  0.3933
 3091SOL    HW220733   4.113   3.325   4.852 -0.0700  0.5987  0.0038
 3092SOL     OW20734   3.093   4.656  16.478 -0.2619 -0.3507  0.1247
 3092SOL    HW120735   3.142   4.611  16.547  2.0694  0.7092 -0.8532
 3092SOL    HW220736   3.008   4.656  16.523  0.1043  0.8528  0.8372
 3093SOL     OW20737   2.797   2.783   1.028  0.5205 -0.2695 -0.4251
 3093SOL    HW120738   2.855   2.710   1.008  2.0609  1.0193 -0.7022
 3093SOL    HW220739   2.709   2.749   1.011  0.9984 -2.2650  1.0495
 3094SOL     OW20740   3.330   0.792   3.901  0.2057 -0.4407  1.2626
 3094SOL    HW120741   3.369   0.766   3.984 -0.8623 -2.5870  1.0852
 3094SOL    HW220742   3.242   0.760   3.917 -1.7274  3.4494 -1.6161
 3095SOL     OW20743   4.393   2.368  11.237  0.5364  0.0101  0.2102
 3095SOL    HW120744   4.478   2.344  11.200  0.4991  2.5802 -1.5549
 3095SOL    HW220745   4.378   2.451  11.191 -0.8004 -0.2550  0.1659
 3096SOL     OW20746   1.398   2.127   9.225 -0.9112 -0.3092 -0.0245
 3096SOL    HW120747   1.339   2.140   9.299 -0.5760  3.4372 -0.4165
 3096SOL    HW220748   1.342   2.096   9.153 -0.1700 -0.3979 -0.5660
 3097SOL     OW20749   1.715   2.146   6.024  0.5941 -0.0482 -1.0009
 3097SOL    HW120750   1.757   2.071   5.981 -0.8680  0.0484 -2.6046
 3097SOL    HW220751   1.621   2.130   6.016  0.2733  0.3601  1.9319
 3098SOL     OW20752   1.557   3.414  12.146 -0.1640 -0.1400 -0.5162
 3098SOL    HW120753   1.612   3.493  12.145  1.5141 -1.3074 -0.8487
 3098SOL    HW220754   1.628   3.350  12.146 -1.1644 -1.2323  0.4933
 3099SOL     OW20755   4.432   1.916   0.281  0.1052  0.4489  0.0911
 3099SOL    HW120756   4.494   1.890   0.349  1.1432 -0.2022 -1.0892
 3099SOL    HW220757   4.455   1.848   0.217 -0.4549  0.4319 -0.0978
 3100SOL     OW20758   1.369   1.311   9.667 -0.0658 -0.3634  0.2306
 3100SOL    HW120759   1.422   1.232   9.677 -1.8307 -1.5545  0.2251
 3100SOL    HW220760   1.283   1.282   9.698 -1.0487  0.1118 -2.0408
 3101SOL     OW20761   1.063   1.929   5.981 -0.0640  0.8606  0.0545
 3101SOL    HW120762   1.101   1.946   6.067 -1.9967 -0.0768  1.0993
 3101SOL    HW220763   1.135   1.875   5.948  0.4268  0.2805  2.0879
 3102SOL     OW20764   1.066   2.745   1.118 -0.2124 -0.0070 -0.4680
 3102SOL    HW120765   1.152   2.737   1.077  0.2173  1.0540  0.2088
 3102SOL    HW220766   1.016   2.686   1.062  0.7356 -0.5923 -0.7036
 3103SOL     OW20767   2.457   1.318  12.810  0.1248 -0.1516 -0.3696
 3103SOL    HW120768   2.544   1.279  12.820  0.1181  0.2118  1.0544
 3103SOL    HW220769   2.474   1.373  12.733 -2.5751  0.7318 -0.3126
 3104SOL     OW20770   2.139   3.911   1.277  0.5043 -0.6031  0.1037
 3104SOL    HW120771   2.172   3.969   1.346  0.0340 -3.2405  2.5699
 3104SOL    HW220772   2.154   3.824   1.314 -0.3136 -0.3480  1.0506
 3105SOL     OW20773   0.206   1.818   1.704 -0.1534  0.2693  0.1338
 3105SOL    HW120774   0.171   1.773   1.781  0.4378  0.5621  0.5701
 3105SOL    HW220775   0.228   1.900   1.748 -1.0795  0.4342  0.2960
 3106SOL     OW20776   1.703   0.032   7.311  0.6647  0.1576  0.6492
 3106SOL    HW120777   1.723   0.087   7.236 -0.6264 -1.0367 -0.5570
 3106SOL    HW220778   1.731   4.673   7.271 -2.0131  0.1230 -1.1207
 3107SOL     OW20779   2.968   4.007   6.088 -0.3083 -0.2547 -0.5295
 3107SOL    HW120780   2.891   4.002   6.145 -0.6620 -1.3119 -1.1085
 3107SOL    HW220781   2.957   4.088   6.038 -4.0211 -0.2008  0.3950
 3108SOL     OW20782   4.708   0.439   3.714 -0.0816  0.4961  0.0909
 3108SOL    HW120783   4.692   0.523   3.671  0.7730 -0.9430 -3.0175
 3108SOL    HW220784   0.022   0.465   3.798  0.6149  2.2298 -0.7637
 3109SOL     OW20785   3.872   0.096   4.227  0.1199 -0.8142 -0.2529
 3109SOL    HW120786   3.868   0.072   4.134  0.4559 -1.3540 -0.1292
 3109SOL    HW220787   3.937   0.035   4.263  0.8014  0.8103  1.2289
 3110SOL     OW20788   1.559   0.133  12.366  0.1219 -0.0081 -0.6993
 3110SOL    HW120789   1.550   0.192  12.441 -0.4319 -0.9523 -0.0142
 3110SOL    HW220790   1.529   0.193  12.298 -0.0807 -0.4859 -1.0304
 3111SOL     OW20791   2.708   2.476   7.691  0.6164  0.1197 -0.0335
 3111SOL    HW120792   2.726   2.383   7.673 -2.3589 -0.2431 -1.1186
 3111SOL    HW220793   2.779   2.499   7.751  0.4008 -1.7373  0.9358
 3112SOL     OW20794   4.492   2.837   5.189  0.1541 -0.0381  0.1995
 3112SOL    HW120795   4.516   2.917   5.141  0.6171 -0.5092 -0.3620
 3112SOL    HW220796   4.462   2.795   5.108 -1.1033  0.9765  0.1402
 3113SOL     OW20797   3.941   2.707  15.417 -0.7187  0.0261  0.6906
 3113SOL    HW120798   3.894   2.790  15.424 -3.2316 -1.2936 -0.8788
 3113SOL    HW220799   3.965   2.708  15.510  0.4948 -1.4086  0.3983
 3114SOL     OW20800   2.345   3.770   5.063  0.3200  0.0881 -0.1231
 3114SOL    HW120801   2.376   3.777   5.153 -1.6186 -1.8542  0.6942
 3114SOL    HW220802   2.406   3.716   5.013  0.2243  0.0308 -0.1786
 3115SOL     OW20803   2.247   0.370   7.768 -0.1349 -0.5840 -0.2325
 3115SOL    HW120804   2.163   0.409   7.743  0.5116  1.4641  0.7631
 3115SOL    HW220805   2.235   0.276   7.755 -1.4213 -0.0663 -2.8460
 3116SOL     OW20806   4.619   3.683   7.783 -0.2052  0.2205 -0.3291
 3116SOL    HW120807   4.694   3.677   7.724  1.2613 -2.2483  1.7932
 3116SOL    HW220808   4.553   3.618   7.759  0.8955 -0.8598 -0.3872
 3117SOL     OW20809   2.126   3.009   8.385  0.7474 -0.0617 -0.2651
 3117SOL    HW120810   2.136   3.060   8.465 -1.4084 -1.7377  1.0638
 3117SOL    HW220811   2.123   3.078   8.317  1.5719  0.8967  0.6804
 3118SOL     OW20812   3.969   0.634   4.395  0.3300  0.8844 -0.3904
 3118SOL    HW120813   3.979   0.692   4.319  0.6022 -0.1712 -1.1543
 3118SOL    HW220814   3.886   0.671   4.426  1.7235  2.6082  1.3017
 3119SOL     OW20815   0.945   1.638   0.527 -0.4163 -0.1604 -0.3140
 3119SOL    HW120816   0.889   1.565   0.553 -1.6744  1.7833  2.3959
 3119SOL    HW220817   1.025   1.600   0.490 -1.6451 -1.3105 -1.7711
 3120SOL     OW20818   1.551   4.524   6.690 -0.0149 -0.2193 -0.3787
 3120SOL    HW120819   1.570   4.484   6.775 -0.9115  0.1468 -0.0125
 3120SOL    HW220820   1.545   4.619   6.704 -0.8395 -0.1197 -1.3779
 3121SOL     OW20821   4.175   1.443   7.476  0.4218  0.4079 -0.6649
 3121SOL    HW120822   4.115   1.416   7.546  0.2624 -0.4238 -1.1211
 3121SOL    HW220823   4.184   1.361   7.428  1.0580  0.4639 -0.6392
 3122SOL     OW20824   3.665   3.522  16.029  0.0240  0.5524  0.0506
 3122SOL    HW120825   3.729   3.476  16.084 -0.1651  1.6668  1.1971
 3122SOL    HW220826   3.704   3.494  15.946  1.5737  1.6004  0.4239
 3123SOL     OW20827   0.032   2.467   6.162 -0.2098 -0.1483 -0.1075
 3123SOL    HW120828   0.095   2.522   6.209 -1.8588  1.7421 -0.1156
 3123SOL    HW220829   0.067   2.461   6.074  1.1804 -0.0779  0.4449
 3124SOL     OW20830   3.600   1.721  12.308 -0.7397  0.0697  0.0466
 3124SOL    HW120831   3.641   1.774  12.239  0.8112 -1.5658 -0.2926
 3124SOL    HW220832   3.648   1.753  12.384  0.4955 -1.5408 -0.0523
 3125SOL     OW20833   0.094   1.953  16.156 -0.1479  0.0294  0.5037
 3125SOL    HW120834   0.181   1.920  16.138  0.0629 -0.3470  2.1708
 3125SOL    HW220835   0.070   1.902  16.234 -1.1945  0.2425  0.3174
 3126SOL     OW20836   1.107   4.448   4.238  0.3157 -0.0114 -0.1128
 3126SOL    HW120837   1.131   4.426   4.148  1.9842  0.0283  0.3113
 3126SOL    HW220838   1.033   4.508   4.228 -1.0054 -1.7615 -0.7585
 3127SOL     OW20839   2.797   3.521   9.235 -0.0722  0.2748  0.1311
 3127SOL    HW120840   2.756   3.605   9.257  2.0495  1.5069 -0.5783
 3127SOL    HW220841   2.811   3.541   9.142 -1.3255  1.6355  0.2314
 3128SOL     OW20842   4.461   0.647  11.547  0.2727  0.3008  0.2951
 3128SOL    HW120843   4.368   0.627  11.550  0.6976 -1.0852  3.5655
 3128SOL    HW220844   4.499   0.570  11.589  0.4388 -1.6023 -3.3627
 3129SOL     OW20845   1.334   4.328   3.368 -0.1712 -0.3625 -0.0289
 3129SOL    HW120846   1.288   4.328   3.452  1.2352 -0.6408  0.7352
 3129SOL    HW220847   1.408   4.383   3.395 -0.5915 -0.5785  1.5500
 3130SOL     OW20848   0.862   1.809  16.495 -0.2430 -0.6488  0.0453
 3130SOL    HW120849   0.897   1.821  16.407 -0.6564  0.3034  0.0079
 3130SOL    HW220850   0.903   1.726  16.516  1.6751  0.6605  1.4225
 3131SOL     OW20851   0.066   0.239   1.162 -0.1221 -0.1447 -0.0987
 3131SOL    HW120852   4.715   0.179   1.171  0.4954 -0.6752  1.6108
 3131SOL    HW220853   0.092   0.210   1.075  2.6041 -0.0838  0.6841
 3132SOL     OW20854   4.602   1.496   5.363  0.3965  0.0868 -0.1628
 3132SOL    HW120855   4.538   1.552   5.407  0.4338 -0.2125  0.2688
 3132SOL    HW220856   4.684   1.510   5.410  1.0532 -0.1576 -1.2351
 3133SOL     OW20857   2.837   0.283  11.195  0.1952 -0.0021 -0.0845
 3133SOL    HW120858   2.793   0.214  11.145  2.0182 -2.3295  1.4899
 3133SOL    HW220859   2.786   0.287  11.276 -0.8547  0.5995 -0.7863
 3134SOL     OW20860   3.129   0.141  10.523 -0.1742 -0.4152  0.0517
 3134SOL    HW120861   3.113   0.101  10.438  0.7943  0.4463 -0.5254
 3134SOL    HW220862   3.041   0.163  10.553 -0.1159 -0.6411  0.3872
 3135SOL     OW20863   4.638   1.965   2.052 -0.0006 -0.0582 -0.1365
 3135SOL    HW120864   4.715   1.927   2.010  0.0179 -2.2260  1.8262
 3135SOL    HW220865   4.630   2.053   2.014 -2.9040 -0.5223 -0.6330
 3136SOL     OW20866   2.308   0.443   2.848  0.2051 -0.0091  0.0303
 3136SOL    HW120867   2.381   0.438   2.787  1.0209  3.5852  0.6664
 3136SOL    HW220868   2.284   0.351   2.851  0.5300 -0.1082 -0.5097
 3137SOL     OW20869   1.061   1.822   3.053  0.1649  0.3739  0.8101
 3137SOL    HW120870   1.145   1.824   3.100  1.2067  0.3833 -1.0302
 3137SOL    HW220871   1.063   1.729   3.031  0.7794  1.0087 -1.8043
 3138SOL     OW20872   0.054   1.403  16.678  0.7377 -0.1274  0.5076
 3138SOL    HW120873   0.118   1.473  16.661 -1.5151  1.5620 -0.9010
 3138SOL    HW220874   0.064   1.355  16.596  1.2506  1.8870 -0.6094
 3139SOL     OW20875   3.457   3.809  13.292 -0.0455 -0.3751 -0.3903
 3139SOL    HW120876   3.419   3.801  13.204 -1.3867  2.2706 -0.0477
 3139SOL    HW220877   3.435   3.900  13.311 -0.7497 -0.7363  0.4902
 3140SOL     OW20878   1.737   1.556   7.312 -0.2561 -0.4064  0.6363
 3140SOL    HW120879   1.813   1.518   7.355  0.7018  0.4854 -0.2716
 3140SOL    HW220880   1.710   1.626   7.372  2.6593  1.0268  0.2801
 3141SOL     OW20881   1.644   0.453   8.610  0.0891 -0.5781  0.4821
 3141SOL    HW120882   1.700   0.530   8.621  1.0848 -0.9252 -2.1146
 3141SOL    HW220883   1.688   0.401   8.543 -1.8460 -0.3027 -0.9970
 3142SOL     OW20884   1.557   2.292   9.471 -0.0521 -0.6378 -0.3300
 3142SOL    HW120885   1.461   2.291   9.463 -0.2591  2.0687  2.0566
 3142SOL    HW220886   1.576   2.199   9.453  1.8457 -0.3338  0.1293
 3143SOL     OW20887   3.223   2.908   3.722 -0.4586  0.6505 -0.2986
 3143SOL    HW120888   3.290   2.963   3.763  1.0097 -0.7798 -0.8011
 3143SOL    HW220889   3.272   2.827   3.711  0.1208  1.4030 -3.2771
 3144SOL     OW20890   0.808   3.494  10.502 -0.6153  0.1503 -0.0056
 3144SOL    HW120891   0.716   3.512  10.486 -0.4365  2.8870  2.0905
 3144SOL    HW220892   0.817   3.412  10.453 -1.4151  0.3620 -0.5049
 3145SOL     OW20893   4.370   4.128   9.807 -0.5586  0.2881 -0.0037
 3145SOL    HW120894   4.394   4.152   9.897 -2.4360 -1.5429  0.9896
 3145SOL    HW220895   4.386   4.034   9.815  3.3440  0.9918  0.3534
 3146SOL     OW20896   4.550   3.960  13.860 -0.0894 -0.4046  0.1061
 3146SOL    HW120897   4.489   3.904  13.909 -1.3609  1.5626  0.7827
 3146SOL    HW220898   4.489   4.027  13.829 -1.0133 -1.2597  0.0619
 3147SOL     OW20899   1.621   2.426   8.711  0.1115  0.5262 -0.1401
 3147SOL    HW120900   1.679   2.384   8.648  0.8568  0.7566  0.3956
 3147SOL    HW220901   1.652   2.396   8.796  0.2101  0.0904 -0.3293
 3148SOL     OW20902   4.557   4.085   4.535  0.2676 -0.0816  0.8715
 3148SOL    HW120903   4.528   3.995   4.518  0.2539  0.0641  0.1339
 3148SOL    HW220904   4.649   4.074   4.560  0.6507  2.4793  0.5995
 3149SOL     OW20905   2.672   1.460  16.065  0.7261 -0.0166  0.6824
 3149SOL    HW120906   2.737   1.456  15.995  0.6308  1.2868  0.5171
 3149SOL    HW220907   2.639   1.549  16.051  1.6244  0.1912 -0.1149
 3150SOL     OW20908   0.148   0.652   4.695 -0.3677 -0.3108 -0.1343
 3150SOL    HW120909   0.098   0.573   4.673 -1.9439  0.7222 -0.2934
 3150SOL    HW220910   0.086   0.720   4.668  0.3881  0.6325  0.5576
 3151SOL     OW20911   1.963   3.126   7.969  0.3835 -0.5350  0.3062
 3151SOL    HW120912   1.881   3.140   7.920  0.0422 -1.7805  0.5277
 3151SOL    HW220913   1.984   3.033   7.965  1.5876 -0.2791  0.7034
 3152SOL     OW20914   3.315   1.937   9.074  0.1497  0.5018 -0.2753
 3152SOL    HW120915   3.228   1.962   9.041 -0.5979 -1.8173 -0.0682
 3152SOL    HW220916   3.352   2.016   9.114  1.5739 -0.1545 -0.3236
 3153SOL     OW20917   4.574   4.015  14.857 -0.0970  0.1481  0.2651
 3153SOL    HW120918   4.625   3.948  14.811 -2.0712 -1.8138  0.9255
 3153SOL    HW220919   4.553   4.080  14.790 -0.5389  0.2436  0.4956
 3154SOL     OW20920   0.630   1.504  12.212  0.9151  0.0403 -0.7231
 3154SOL    HW120921   0.555   1.446  12.225 -0.2099  0.8468 -3.5440
 3154SOL    HW220922   0.693   1.473  12.277  0.0782  0.9174  0.4974
 3155SOL     OW20923   0.556   0.472   1.770 -0.1653  0.1915 -0.4523
 3155SOL    HW120924   0.530   0.501   1.683 -1.8054  2.3486  0.7367
 3155SOL    HW220925   0.643   0.508   1.791 -1.0332  1.4789  0.9662
 3156SOL     OW20926   0.557   0.304  11.324 -0.2248 -0.1878  0.0216
 3156SOL    HW120927   0.588   0.394  11.323 -0.7116 -0.0035  0.7674
 3156SOL    HW220928   0.570   0.277  11.415  1.5040 -1.5540 -0.6472
 3157SOL     OW20929   0.349   3.337   1.795 -0.0672  0.0927 -0.1680
 3157SOL    HW120930   0.260   3.345   1.762 -0.0930  2.1280  0.4273
 3157SOL    HW220931   0.372   3.424   1.826 -0.5005 -0.1724  0.9110
 3158SOL     OW20932   2.143   0.185  10.713 -0.1003 -0.2722 -0.4851
 3158SOL    HW120933   2.174   0.214  10.799 -1.3625 -0.7785  0.1412
 3158SOL    HW220934   2.132   0.094  10.738 -0.5858  0.0620  0.5378
 3159SOL     OW20935   2.508   2.762   6.394  0.3410  0.3889 -0.0276
 3159SOL    HW120936   2.431   2.715   6.363  1.2128 -0.2489 -1.2185
 3159SOL    HW220937   2.536   2.723   6.477  1.2293  3.3948  1.0803
 3160SOL     OW20938   4.672   3.288   5.554 -0.5191  0.3546 -0.3038
 3160SOL    HW120939   4.619   3.341   5.493 -0.8571 -3.4771 -3.3297
 3160SOL    HW220940   4.630   3.202   5.552 -0.8070  0.4346  2.7083
 3161SOL     OW20941   0.653   2.776   5.784 -0.1286 -0.3900 -0.0038
 3161SOL    HW120942   0.670   2.870   5.780 -0.0444 -0.4533 -1.0783
 3161SOL    HW220943   0.689   2.754   5.870  1.0880 -2.4281 -1.0372
 3162SOL     OW20944   1.115   1.746  11.919 -0.4821 -0.0807 -0.6550
 3162SOL    HW120945   1.091   1.653  11.921 -1.0623  0.0034 -2.9673
 3162SOL    HW220946   1.078   1.786  11.997  0.2889 -0.2707 -0.1973
 3163SOL     OW20947   1.750   4.682   6.927  0.1941  0.4491  0.1295
 3163SOL    HW120948   1.750   4.637   7.011  0.0197  0.2682  0.0335
 3163SOL    HW220949   1.787   0.040   6.961 -0.6677  0.6286  0.6346
 3164SOL     OW20950   4.105   4.425  12.098  0.3612  0.5642 -0.2210
 3164SOL    HW120951   4.200   4.411  12.103  0.1158 -1.2603 -0.6666
 3164SOL    HW220952   4.090   4.441  12.191  2.3064 -0.3949  0.2675
 3165SOL     OW20953   0.598   1.771   1.744 -0.1118 -0.1534 -0.7356
 3165SOL    HW120954   0.549   1.735   1.817  1.2581 -4.0068 -1.7253
 3165SOL    HW220955   0.654   1.829   1.796 -0.5771  0.8359 -1.3199
 3166SOL     OW20956   1.449   2.145   6.116 -0.2077  0.0576 -0.1213
 3166SOL    HW120957   1.424   2.236   6.131  2.8348  1.1920 -1.8200
 3166SOL    HW220958   1.372   2.119   6.066  1.9384 -0.3296 -3.2706
 3167SOL     OW20959   2.167   4.367   4.066 -0.2964 -0.0862 -0.4347
 3167SOL    HW120960   2.220   4.288   4.060 -0.1487  0.0470 -0.9569
 3167SOL    HW220961   2.097   4.335   4.122  0.2460 -1.4701 -0.5592
 3168SOL     OW20962   1.887   3.138   4.695 -0.3274  0.1030  0.4801
 3168SOL    HW120963   1.882   3.058   4.644  1.5278  0.5474 -0.3799
 3168SOL    HW220964   1.797   3.170   4.695 -0.3221  0.1179  0.8319
 3169SOL     OW20965   4.546   2.898  11.369  0.1096 -0.3765  0.5043
 3169SOL    HW120966   4.508   2.811  11.382  1.6838 -1.1434  0.0955
 3169SOL    HW220967   4.567   2.916  11.461 -1.2389  2.4831  0.2460
 3170SOL     OW20968   0.898   2.602  10.774  0.1379 -0.2668  0.7908
 3170SOL    HW120969   0.949   2.587  10.695  1.4222  2.0077  1.1822
 3170SOL    HW220970   0.814   2.563  10.747  2.1399 -2.9659 -1.5035
 3171SOL     OW20971   2.786   1.523   6.578 -0.1380  0.0552 -0.0384
 3171SOL    HW120972   2.787   1.619   6.583  0.8180  0.0831 -0.7415
 3171SOL    HW220973   2.810   1.499   6.667  2.9323  2.1584 -0.2768
 3172SOL     OW20974   2.697   0.411   3.783  0.0030 -0.1643  0.0034
 3172SOL    HW120975   2.713   0.369   3.698 -0.7506  0.3518 -0.3903
 3172SOL    HW220976   2.760   0.483   3.777  0.7430 -0.9035 -0.9900
 3173SOL     OW20977   4.403   0.624   7.612  0.4166 -0.5715 -0.3692
 3173SOL    HW120978   4.461   0.548   7.612  2.0464  0.6744 -1.4124
 3173SOL    HW220979   4.446   0.684   7.673  1.1210  0.3783 -1.8103
 3174SOL     OW20980   2.753   3.843   4.223 -0.1288 -0.3749  0.2777
 3174SOL    HW120981   2.664   3.833   4.189  0.1560 -1.6703 -0.1004
 3174SOL    HW220982   2.748   3.843   4.319  2.6307  1.6328  0.3961
 3175SOL     OW20983   4.126   3.465   8.756  0.1720 -0.2499 -0.2895
 3175SOL    HW120984   4.148   3.554   8.729 -1.9012  0.4429  0.3490
 3175SOL    HW220985   4.188   3.444   8.826 -0.2887  1.0159  0.4925
 3176SOL     OW20986   3.184   1.015   3.581  0.1482  0.3255 -0.0285
 3176SOL    HW120987   3.252   1.008   3.648  1.4767 -0.6461 -1.4985
 3176SOL    HW220988   3.213   1.090   3.530 -1.0677  1.1291  0.4528
 3177SOL     OW20989   4.060   3.876   7.700 -0.4297 -0.0098  0.0073
 3177SOL    HW120990   4.144   3.835   7.679 -0.4427 -0.2865  0.5091
 3177SOL    HW220991   4.092   3.966   7.700  0.1055 -0.1731 -3.7711
 3178SOL     OW20992   2.513   0.810   4.662  0.0529  0.5117 -0.2750
 3178SOL    HW120993   2.531   0.725   4.622 -0.1741 -0.0617  0.8482
 3178SOL    HW220994   2.554   0.800   4.748 -0.8260  0.9304  0.1883
 3179SOL     OW20995   3.255   1.973   6.741 -0.0380  0.3878  0.2043
 3179SOL    HW120996   3.302   1.993   6.823  0.5453 -0.2695  0.0304
 3179SOL    HW220997   3.267   2.053   6.690  1.7357  1.1132  1.7430
 3180SOL     OW20998   3.282   3.131   0.888  0.5026 -0.7171 -0.0760
 3180SOL    HW120999   3.204   3.181   0.860  0.4634 -0.4530  0.5044
 3180SOL    HW221000   3.355   3.162   0.835 -0.8724 -1.7734 -2.6037
 3181SOL     OW21001   0.944   1.187  10.692  0.0499 -0.0767 -0.0595
 3181SOL    HW121002   0.925   1.249  10.763  0.8755 -0.6645  0.6634
 3181SOL    HW221003   1.040   1.188  10.689  0.0906 -1.2969  0.6489
 3182SOL     OW21004   3.941   1.091   7.396 -0.2331  0.5083 -0.2222
 3182SOL    HW121005   3.848   1.081   7.376 -0.8979  0.2352  2.9113
 3182SOL    HW221006   3.969   1.000   7.400 -1.2765  0.2591  1.3785
 3183SOL     OW21007   0.869   3.626   7.800  0.5702  0.0786  0.0546
 3183SOL    HW121008   0.877   3.611   7.706 -1.4474  0.8414 -0.2309
 3183SOL    HW221009   0.930   3.699   7.816  0.1530  0.7352 -1.3195
 3184SOL     OW21010   1.265   1.506   4.563  0.6019 -0.2557 -0.4786
 3184SOL    HW121011   1.262   1.411   4.553  1.6443 -0.3978  0.6170
 3184SOL    HW221012   1.173   1.531   4.559  0.7689  0.4810  0.5003
 3185SOL     OW21013   2.419   1.880  10.970 -0.2744 -0.1739  0.6327
 3185SOL    HW121014   2.415   1.803  11.026  1.1803 -0.3178  0.5421
 3185SOL    HW221015   2.344   1.931  11.000 -1.8651 -0.1884 -3.3813
 3186SOL     OW21016   1.471   2.085   7.926 -0.4471  0.0085  0.2370
 3186SOL    HW121017   1.476   1.996   7.961  0.1158 -0.3984 -0.8790
 3186SOL    HW221018   1.436   2.071   7.838  3.9752 -0.9975 -1.3447
 3187SOL     OW21019   4.538   1.602   1.444  0.0618 -0.3814  0.8148
 3187SOL    HW121020   4.556   1.521   1.397 -0.5526  0.1176 -0.2907
 3187SOL    HW221021   4.558   1.658   1.369 -0.1422 -2.3819 -0.7324
 3188SOL     OW21022   0.891   2.268   0.464  0.3460  0.0339  0.1772
 3188SOL    HW121023   0.805   2.302   0.489  0.4323  1.0246 -0.8828
 3188SOL    HW221024   0.873   2.177   0.438  1.0015 -0.6079  2.0112
 3189SOL     OW21025   2.167   3.790   4.133  0.3043 -0.0745 -0.2848
 3189SOL    HW121026   2.236   3.745   4.085  1.1391 -0.8378  1.6571
 3189SOL    HW221027   2.084   3.779   4.086  0.7537  1.5542 -1.4428
 3190SOL     OW21028   2.652   3.238  16.191 -0.2691 -0.2074 -0.6480
 3190SOL    HW121029   2.561   3.253  16.164 -0.2513  2.2924  0.6843
 3190SOL    HW221030   2.651   3.286  16.274 -0.9125  2.5314 -2.2076
 3191SOL     OW21031   3.766   2.082   2.049 -0.1899  0.8722 -0.5653
 3191SOL    HW121032   3.713   2.152   2.010 -1.1958  0.8175  0.6976
 3191SOL    HW221033   3.747   2.104   2.140  2.0695 -1.0305  0.3774
 3192SOL     OW21034   3.847   4.147   4.866 -0.3254  0.1440 -0.5893
 3192SOL    HW121035   3.762   4.103   4.878  0.0873 -0.8102 -1.2041
 3192SOL    HW221036   3.849   4.162   4.772 -3.5122 -0.5070 -0.7815
 3193SOL     OW21037   3.722   0.258   2.951  0.1080  0.0447  0.0828
 3193SOL    HW121038   3.746   0.168   2.931  1.4698  1.0766 -2.9819
 3193SOL    HW221039   3.633   0.244   2.984 -0.4312  3.4821  0.0590
 3194SOL     OW21040   3.923   0.924   5.697 -0.2048 -0.2940  0.4839
 3194SOL    HW121041   3.983   0.850   5.689  0.0728  0.0159 -0.3010
 3194SOL    HW221042   3.844   0.873   5.683  0.4153 -1.8215  2.4771
 3195SOL     OW21043   4.420   4.214  17.161  0.1147  0.2900  0.1243
 3195SOL    HW121044   4.350   4.268  17.197 -0.1595 -0.0147  0.0403
 3195SOL    HW221045   4.384   4.129  17.186 -0.6020 -0.3299 -2.9993
 3196SOL     OW21046   2.363   1.201   2.493  0.2765  0.8132  0.5076
 3196SOL    HW121047   2.307   1.157   2.429  0.7236 -1.6838  1.8363
 3196SOL    HW221048   2.364   1.135   2.562  0.6951 -0.2819 -0.5527
 3197SOL     OW21049   0.094   1.698   0.661 -0.3272  0.4697  0.0149
 3197SOL    HW121050   0.130   1.777   0.702 -0.7684  0.4787  0.3874
 3197SOL    HW221051   0.100   1.640   0.737  0.9697  0.2004 -0.2954
 3198SOL     OW21052   3.560   2.462   1.408 -0.1733 -0.2515  0.0553
 3198SOL    HW121053   3.566   2.510   1.326 -1.0984  1.3483  0.9197
 3198SOL    HW221054   3.545   2.530   1.473  1.8442 -0.4195  0.6787
 3199SOL     OW21055   1.797   4.704   1.596  0.1083  0.6099  0.4124
 3199SOL    HW121056   1.887   0.005   1.572 -0.0837 -0.1481 -1.1522
 3199SOL    HW221057   1.801   4.608   1.591 -0.1779  0.7426 -2.3857
 3200SOL     OW21058   0.361   0.860   1.283  0.0565  0.5341 -0.1891
 3200SOL    HW121059   0.300   0.857   1.209  0.0864  0.0182 -0.1969
 3200SOL    HW221060   0.418   0.934   1.266  1.2588 -0.8867 -2.3239
 3201SOL     OW21061   0.736   3.069  14.368 -0.6656  0.1988  0.7305
 3201SOL    HW121062   0.680   3.130  14.416 -0.1936 -0.5739  2.2463
 3201SOL    HW221063   0.727   2.983  14.410  0.6545 -1.1889 -1.7842
 3202SOL     OW21064   4.712   1.939   1.081  0.4399  0.5351 -0.0933
 3202SOL    HW121065   0.055   1.883   1.123 -0.5769 -0.5843  0.0211
 3202SOL    HW221066   0.016   2.027   1.106 -1.4692  0.4441  2.3734
 3203SOL     OW21067   0.571   1.598   6.001 -0.2289 -0.1298  0.5956
 3203SOL    HW121068   0.529   1.658   5.939  0.8103  0.8534  0.8506
 3203SOL    HW221069   0.643   1.649   6.038  0.5212 -0.0863 -0.9377
 3204SOL     OW21070   3.539   0.026   2.594 -0.0342 -0.4120 -0.1390
 3204SOL    HW121071   3.456   0.028   2.545  0.4089 -2.0881 -0.9719
 3204SOL    HW221072   3.580   0.096   2.542 -1.1523  0.3251 -0.0329
 3205SOL     OW21073   4.152   1.855   7.156 -0.6365  0.2679 -0.3041
 3205SOL    HW121074   4.173   1.901   7.075  1.2401 -2.1504 -1.1998
 3205SOL    HW221075   4.072   1.815   7.122  1.0922 -1.4171 -2.4295
 3206SOL     OW21076   4.575   0.408   6.051  0.3538  0.6752  0.1275
 3206SOL    HW121077   4.596   0.365   5.968 -1.4103 -1.7304  0.9137
 3206SOL    HW221078   4.481   0.391   6.063 -0.1419  3.9194  0.8646
 3207SOL     OW21079   3.661   4.549  12.027  0.3031 -0.1847  0.1254
 3207SOL    HW121080   3.589   4.522  11.969  0.7459  1.6814 -1.3134
 3207SOL    HW221081   3.715   4.471  12.013  2.3891  1.1298  0.8370
 3208SOL     OW21082   1.967   0.319  17.166  0.0271 -0.7898 -0.3532
 3208SOL    HW121083   1.972   0.257  17.092 -0.8568 -1.2180 -0.0527
 3208SOL    HW221084   1.920   0.263  17.228 -3.2791  1.3949 -0.9105
 3209SOL     OW21085   3.058   2.697  11.697 -0.1687 -0.2835 -0.0810
 3209SOL    HW121086   2.987   2.646  11.657 -0.6023  0.0025  0.3331
 3209SOL    HW221087   3.030   2.787  11.710 -3.0230 -1.0133 -1.1214
 3210SOL     OW21088   0.136   4.337  11.747 -0.1713 -0.3865 -0.4124
 3210SOL    HW121089   0.204   4.271  11.765  0.7435  0.5955 -0.2937
 3210SOL    HW221090   0.055   4.287  11.758  0.3462 -1.3257 -0.7940
 3211SOL     OW21091   3.713   2.911   3.426  1.2010  0.1623 -0.3606
 3211SOL    HW121092   3.750   2.992   3.389  1.2896  0.4195  0.2996
 3211SOL    HW221093   3.751   2.908   3.514  1.1305 -1.5111 -0.3816
 3212SOL     OW21094   1.253   1.018   7.876 -0.4683  0.6001  0.0692
 3212SOL    HW121095   1.245   1.007   7.782  1.8291 -0.7527  0.0233
 3212SOL    HW221096   1.174   0.983   7.918 -1.3542  2.0116 -0.4109
 3213SOL     OW21097   0.721   1.314   4.155 -0.2706  0.1031  0.2194
 3213SOL    HW121098   0.775   1.388   4.128 -0.6005  1.5004  3.4624
 3213SOL    HW221099   0.651   1.314   4.089  0.1209  1.6905 -0.1832
 3214SOL     OW21100   1.889   0.496   8.717 -0.0608 -0.1614  0.0784
 3214SOL    HW121101   1.957   0.524   8.655 -0.8096 -2.3789 -1.7534
 3214SOL    HW221102   1.879   0.571   8.776  0.4408 -1.5697  1.9320
 3215SOL     OW21103   4.101   2.615  15.185  0.0033  0.1421 -0.1703
 3215SOL    HW121104   4.070   2.633  15.274  2.7495 -1.6278  1.1353
 3215SOL    HW221105   4.196   2.613  15.190 -0.0053  0.0014 -0.0534
 3216SOL     OW21106   3.534   4.086   0.113  0.7789  0.5381  0.0181
 3216SOL    HW121107   3.581   4.063   0.032  1.1424 -3.4381  1.3233
 3216SOL    HW221108   3.608   4.067   0.172  0.7262  0.7176  0.1417
 3217SOL     OW21109   2.603   3.412  11.980 -0.0237 -0.2858  0.3356
 3217SOL    HW121110   2.508   3.412  11.983 -0.0353  0.7640  0.1506
 3217SOL    HW221111   2.624   3.422  11.887 -2.0243 -0.7940 -0.1682
 3218SOL     OW21112   1.916   0.696   4.396 -0.4556 -0.0342 -0.4550
 3218SOL    HW121113   1.993   0.685   4.341 -0.5545  0.8278 -0.7704
 3218SOL    HW221114   1.880   0.778   4.361  1.6719  0.9198 -0.3949
 3219SOL     OW21115   3.402   0.865  11.265  0.6724 -0.3314 -0.7573
 3219SOL    HW121116   3.414   0.862  11.170  1.6233 -1.2123 -0.6031
 3219SOL    HW221117   3.428   0.953  11.292  1.0399 -0.5794 -0.2978
 3220SOL     OW21118   4.233   2.266   0.113 -0.2386 -0.0595  0.2076
 3220SOL    HW121119   4.257   2.278   0.205 -1.2326 -0.4083  0.5151
 3220SOL    HW221120   4.258   2.350   0.074 -0.1208 -0.0586  0.2851
 3221SOL     OW21121   1.166   0.544   6.594 -0.0019  0.3191  0.2456
 3221SOL    HW121122   1.143   0.522   6.684 -0.7679  2.7979  0.6476
 3221SOL    HW221123   1.083   0.579   6.560  1.4359  2.9636 -0.5080
 3222SOL     OW21124   2.645   2.934   1.822  0.2396 -0.1869 -0.2739
 3222SOL    HW121125   2.616   2.849   1.790 -1.4827 -0.1700  1.2047
 3222SOL    HW221126   2.630   2.915   1.915 -0.3801  1.1348 -0.1077
 3223SOL     OW21127   1.651   2.404  15.160  0.5595 -0.0211 -0.1881
 3223SOL    HW121128   1.629   2.391  15.067 -0.5635  3.7453 -0.4257
 3223SOL    HW221129   1.571   2.446  15.192  2.6124  2.9471  0.9973
 3224SOL     OW21130   3.173   2.005  12.279 -0.3489 -0.2004 -0.2277
 3224SOL    HW121131   3.184   2.096  12.250  1.5775 -0.5473 -0.5618
 3224SOL    HW221132   3.209   1.951  12.208 -0.7020 -1.1677  0.3372
 3225SOL     OW21133   0.050   1.561   2.115 -0.2070  0.3715 -0.1963
 3225SOL    HW121134   0.108   1.599   2.181  2.7101  0.7054 -2.9352
 3225SOL    HW221135   0.084   1.472   2.123  0.3220  0.4781 -1.2528
 3226SOL     OW21136   4.260   4.460  14.514  0.1352  0.0598  0.1889
 3226SOL    HW121137   4.225   4.532  14.565 -1.2621  0.2340 -1.0235
 3226SOL    HW221138   4.249   4.489  14.424  0.3078 -0.6010 -0.0476
 3227SOL     OW21139   1.686   0.540   2.243  0.6509 -0.6544 -0.5480
 3227SOL    HW121140   1.643   0.487   2.176 -0.5523 -0.6804  0.2536
 3227SOL    HW221141   1.646   0.623   2.218  2.5862  0.0366 -1.3564
 3228SOL     OW21142   3.399   3.398  12.637  0.0180 -0.2566 -0.0215
 3228SOL    HW121143   3.485   3.356  12.631  1.2693  2.3985 -0.5345
 3228SOL    HW221144   3.337   3.325  12.640 -1.7978  1.3035  0.1073
 3229SOL     OW21145   3.396   1.896   3.328 -0.1093  0.1829 -0.4873
 3229SOL    HW121146   3.309   1.915   3.363  0.4175 -0.4192  1.1503
 3229SOL    HW221147   3.393   1.801   3.332 -2.0896  0.2309 -1.2852
 3230SOL     OW21148   0.435   2.118   6.030  0.2734 -0.3687  0.0011
 3230SOL    HW121149   0.434   2.175   5.954  3.0961  1.4705  1.3622
 3230SOL    HW221150   0.529   2.122   6.048  0.2749 -2.0088  0.4362
 3231SOL     OW21151   2.990   1.055   9.118  0.4739 -0.1865  0.2037
 3231SOL    HW121152   3.009   1.122   9.052  3.3724 -2.3019 -1.1151
 3231SOL    HW221153   2.895   1.052   9.108  0.2685 -0.4692  2.2592
 3232SOL     OW21154   0.628   1.078   8.586 -0.1976  0.1803 -0.7324
 3232SOL    HW121155   0.569   1.153   8.594  0.0238  0.3004 -0.1889
 3232SOL    HW221156   0.639   1.069   8.681 -1.1536 -1.0646 -0.7529
 3233SOL     OW21157   1.867   4.501   2.074 -0.0412 -0.0241  0.3041
 3233SOL    HW121158   1.847   4.454   1.993  0.5496 -0.2877  0.3141
 3233SOL    HW221159   1.829   4.586   2.052 -1.3638 -0.8698 -0.6642
 3234SOL     OW21160   2.993   3.709   2.077  0.2028  0.4118  0.0384
 3234SOL    HW121161   3.005   3.801   2.054  2.4990  0.4067  1.1772
 3234SOL    HW221162   2.901   3.689   2.062 -0.0059  0.6311  0.9655
 3235SOL     OW21163   1.075   2.277   7.235  0.4989  0.1087  0.3519
 3235SOL    HW121164   1.089   2.301   7.327 -1.0457 -0.5474  0.7563
 3235SOL    HW221165   1.002   2.334   7.209  1.8177  1.0254 -1.3076
 3236SOL     OW21166   1.489   1.667   4.603  0.5443 -0.2721 -0.1688
 3236SOL    HW121167   1.488   1.663   4.699  0.8855 -0.4389 -0.1741
 3236SOL    HW221168   1.425   1.601   4.578  0.5100  0.2542 -1.4703
 3237SOL     OW21169   1.581   0.931   1.808  0.6920  0.0743 -0.2219
 3237SOL    HW121170   1.623   0.940   1.893  1.5979  0.1710 -0.6765
 3237SOL    HW221171   1.580   0.836   1.796  1.6005  0.2506 -1.7546
 3238SOL     OW21172   4.485   0.767   7.163  0.1973  0.2618 -0.0902
 3238SOL    HW121173   4.459   0.800   7.248  1.1087 -1.7288  0.9745
 3238SOL    HW221174   4.522   0.682   7.187 -0.0029  0.5928  1.3883
 3239SOL     OW21175   4.701   2.249   3.313 -0.3945  0.4483  0.1430
 3239SOL    HW121176   0.055   2.214   3.269  0.5737  1.7344  0.8240
 3239SOL    HW221177   4.709   2.222   3.405 -1.9379  2.3088  0.8172
 3240SOL     OW21178   0.829   0.688   8.200  0.0215  0.0595 -0.2093
 3240SOL    HW121179   0.857   0.715   8.112 -0.4359 -0.1870 -0.4302
 3240SOL    HW221180   0.876   0.605   8.204  0.2625  0.0335 -3.7718
 3241SOL     OW21181   1.746   2.180  16.991 -0.0115  0.0150 -0.4795
 3241SOL    HW121182   1.735   2.269  17.025 -2.5491  0.0940 -1.5025
 3241SOL    HW221183   1.704   2.188  16.905  1.4910 -1.9552 -1.3908
 3242SOL     OW21184   3.323   1.319   7.635 -0.5880  0.1207  0.3162
 3242SOL    HW121185   3.260   1.250   7.657  1.0981 -1.0094  1.5540
 3242SOL    HW221186   3.406   1.273   7.641  1.1431  3.1542 -0.5150
 3243SOL     OW21187   0.275   3.460   7.598  0.3451  0.3106 -0.4589
 3243SOL    HW121188   0.228   3.407   7.533 -0.8565  0.0505  0.6187
 3243SOL    HW221189   0.297   3.400   7.670 -1.1081 -1.4529 -1.4798
 3244SOL     OW21190   2.364   2.852   2.938  0.3821  0.0357  0.4031
 3244SOL    HW121191   2.323   2.817   2.859  0.5996  0.3264  0.1608
 3244SOL    HW221192   2.293   2.908   2.968 -0.0152  0.0207 -0.5048
 3245SOL     OW21193   0.786   1.182   9.203  0.1685  0.5273 -0.0674
 3245SOL    HW121194   0.730   1.241   9.253  2.2822  1.0576  1.7012
 3245SOL    HW221195   0.750   1.095   9.221  2.0760  0.0492  1.5056
 3246SOL     OW21196   0.108   2.125   2.599  0.0420  0.1040 -0.5386
 3246SOL    HW121197   0.171   2.167   2.542 -2.0404  0.6183 -2.4890
 3246SOL    HW221198   0.138   2.034   2.609 -0.3787 -0.1623 -1.7097
 3247SOL     OW21199   3.215   3.838   1.023  0.0407 -0.4220 -0.2042
 3247SOL    HW121200   3.238   3.800   1.108 -0.1059  0.0329  0.0350
 3247SOL    HW221201   3.205   3.931   1.040 -1.6355 -0.7040  0.2986
 3248SOL     OW21202   1.125   2.523   4.212  0.2952 -0.4323 -0.3979
 3248SOL    HW121203   1.036   2.557   4.197  0.4171  0.8601  1.8495
 3248SOL    HW221204   1.178   2.577   4.154 -0.4361  0.4137 -0.2830
 3249SOL     OW21205   3.689   2.142   2.623 -0.3576 -0.3098  0.7332
 3249SOL    HW121206   3.623   2.115   2.560  0.1459  0.9295 -0.3283
 3249SOL    HW221207   3.756   2.076   2.605  0.1414  0.2228  0.5983
 3250SOL     OW21208   1.718   1.891   6.991  0.1122  0.0099  0.2981
 3250SOL    HW121209   1.762   1.911   6.909  2.2097 -0.8366  1.1974
 3250SOL    HW221210   1.767   1.810   7.006 -0.3493 -0.2091  0.6131
 3251SOL     OW21211   0.598   0.775   2.516 -0.4344 -0.0225 -0.3458
 3251SOL    HW121212   0.572   0.812   2.600 -1.4257 -0.3759 -0.5022
 3251SOL    HW221213   0.647   0.848   2.478 -2.5075  1.8361  0.5788
 3252SOL     OW21214   2.367   0.811   9.037 -0.4205 -0.3281  0.1608
 3252SOL    HW121215   2.312   0.870   8.984 -1.3195 -0.8829  0.4665
 3252SOL    HW221216   2.392   0.878   9.101 -1.4258  2.0564 -1.9212
 3253SOL     OW21217   4.458   3.433  10.771 -0.6666  0.2591 -0.3668
 3253SOL    HW121218   4.520   3.499  10.803 -2.2083  0.3358  2.5214
 3253SOL    HW221219   4.464   3.359  10.832 -0.5798  2.0865  1.8685
 3254SOL     OW21220   1.644   1.206  14.137  0.1223 -0.6370  0.2345
 3254SOL    HW121221   1.613   1.133  14.083 -1.0140 -0.9357  1.2854
 3254SOL    HW221222   1.561   1.253  14.129  0.7164  0.4024  0.2800
 3255SOL     OW21223   0.017   0.819   1.542  0.0390  0.9333 -0.3615
 3255SOL    HW121224   0.027   0.803   1.448 -0.1613  0.2791 -0.2721
 3255SOL    HW221225   0.105   0.845   1.569  1.1867 -1.3359 -1.9600
 3256SOL     OW21226   3.659   3.277  14.510 -0.1071  0.2429  0.3436
 3256SOL    HW121227   3.602   3.353  14.521  1.9883  2.1775 -2.1146
 3256SOL    HW221228   3.729   3.305  14.569  0.1789 -0.5391  0.3718
 3257SOL     OW21229   3.479   0.008   2.110  0.6957 -0.2938  0.2801
 3257SOL    HW121230   3.497   4.639   2.094 -0.8896 -0.4420 -0.6547
 3257SOL    HW221231   3.540   0.040   2.044  1.0679  1.1267  1.3113
 3258SOL     OW21232   3.538   2.931   2.546 -0.2970 -0.3544 -0.0098
 3258SOL    HW121233   3.486   2.954   2.623  0.7209 -0.7545  0.8018
 3258SOL    HW221234   3.600   2.874   2.592 -0.0568  0.1734  0.3130
 3259SOL     OW21235   4.530   3.816   9.574  0.2482  0.1936  0.3356
 3259SOL    HW121236   4.439   3.789   9.589  0.4150 -0.8889 -0.5935
 3259SOL    HW221237   4.563   3.828   9.663  0.3513  0.5890  0.2432
 3260SOL     OW21238   2.097   1.394   6.833  0.2804  0.5963  0.6222
 3260SOL    HW121239   2.019   1.353   6.869 -0.7414  1.1734 -0.9172
 3260SOL    HW221240   2.104   1.470   6.891  0.2946 -1.0995  2.8520
 3261SOL     OW21241   1.238   1.022  12.394  0.0099 -0.5314  0.8186
 3261SOL    HW121242   1.238   0.969  12.474  1.6570  0.2285  1.3382
 3261SOL    HW221243   1.252   1.107  12.435 -1.3117  0.2088 -0.3031
 3262SOL     OW21244   3.809   2.965   0.421  0.0542 -0.1294 -0.2598
 3262SOL    HW121245   3.814   2.956   0.325 -1.8186 -3.1574 -0.0846
 3262SOL    HW221246   3.844   2.879   0.445 -0.7875  0.2846  2.3703
 3263SOL     OW21247   1.319   1.451   5.889 -0.3085  0.2723 -0.3919
 3263SOL    HW121248   1.285   1.480   5.804  0.1180  0.2947 -0.5601
 3263SOL    HW221249   1.345   1.360   5.872  0.3599  0.3277  0.3379
 3264SOL     OW21250   2.667   1.936   4.058  0.2627  0.0061  0.1471
 3264SOL    HW121251   2.638   1.865   4.001 -1.0546  0.1166  0.6724
 3264SOL    HW221252   2.588   1.989   4.049 -1.6016 -3.1274 -1.8608
 3265SOL     OW21253   4.663   4.367   6.900  0.4385  0.4339  0.1442
 3265SOL    HW121254   4.705   4.288   6.933 -0.0175  1.3485  2.9099
 3265SOL    HW221255   4.659   4.351   6.806  1.7402 -1.7651  0.4740
 3266SOL     OW21256   4.553   3.030   8.965  0.0078  0.3343 -0.1905
 3266SOL    HW121257   4.460   3.048   8.953 -0.1337 -1.3415 -1.5494
 3266SOL    HW221258   4.588   3.112   8.929  1.1058 -0.2867 -0.5260
 3267SOL     OW21259   2.234   0.473   3.688  0.1743 -0.2132  0.4375
 3267SOL    HW121260   2.292   0.496   3.761  1.4330 -0.3280 -0.5358
 3267SOL    HW221261   2.255   0.380   3.691  0.6972 -0.1148 -0.1768
 3268SOL     OW21262   3.477   4.009   6.367 -0.3464 -0.1593 -0.4734
 3268SOL    HW121263   3.549   4.066   6.394 -0.3236 -0.9234  1.0969
 3268SOL    HW221264   3.400   4.063   6.355 -1.1625 -1.3008 -0.3758
 3269SOL     OW21265   3.242   2.876   5.132 -0.1326 -0.2326  0.6254
 3269SOL    HW121266   3.300   2.851   5.205  1.0596  4.0280  1.1215
 3269SOL    HW221267   3.187   2.937   5.182 -1.1670 -1.5934  1.1631
 3270SOL     OW21268   1.736   2.459   3.443  0.8194  0.0144 -0.2241
 3270SOL    HW121269   1.750   2.380   3.495 -0.1068  1.1390  1.7064
 3270SOL    HW221270   1.785   2.435   3.364 -0.2276  0.2809 -0.9523
 3271SOL     OW21271   1.948   2.570   3.894 -0.1089 -0.0580 -0.4213
 3271SOL    HW121272   1.891   2.565   3.817 -2.1386  0.6988  1.0337
 3271SOL    HW221273   1.957   2.665   3.903  0.1826 -0.2328  1.1313
 3272SOL     OW21274   3.478   3.036   3.792  0.3572  0.0831 -0.2259
 3272SOL    HW121275   3.526   3.108   3.833  2.4904 -1.5274  0.0928
 3272SOL    HW221276   3.484   3.052   3.698  0.6376  1.2065 -0.0150
 3273SOL     OW21277   1.986   2.055  17.141  0.4279  0.7705 -0.1984
 3273SOL    HW121278   1.943   1.975  17.171  0.3788  1.0376  0.4565
 3273SOL    HW221279   1.908   2.109  17.126 -0.1371  0.5714  1.9128
 3274SOL     OW21280   4.186   2.808   2.023  0.2239  0.7323 -0.6331
 3274SOL    HW121281   4.127   2.883   2.036 -2.0797 -1.2479  0.3296
 3274SOL    HW221282   4.187   2.775   2.113 -1.4761  0.5505 -0.6879
 3275SOL     OW21283   1.409   4.569  14.620 -0.1496 -0.0022 -0.1503
 3275SOL    HW121284   1.504   4.578  14.612 -0.1074  0.0106  0.3340
 3275SOL    HW221285   1.404   4.474  14.614 -0.0748  0.1678 -2.7115
 3276SOL     OW21286   4.284   0.905   8.181  0.0890 -0.0625 -0.5726
 3276SOL    HW121287   4.358   0.898   8.243 -1.9600 -0.4483  1.8245
 3276SOL    HW221288   4.224   0.833   8.200  0.5398  0.1016  1.5066
 3277SOL     OW21289   0.048   3.689   5.519 -0.2910 -0.3937 -0.0806
 3277SOL    HW121290   0.080   3.745   5.449  1.2130 -0.6967  0.3676
 3277SOL    HW221291   0.026   3.610   5.469  2.0349  0.9167 -3.1922
 3278SOL     OW21292   4.118   2.560   2.707  1.0589  0.3203  0.3624
 3278SOL    HW121293   4.029   2.558   2.672  0.5058 -4.0314  1.9392
 3278SOL    HW221294   4.157   2.487   2.658  1.6138  0.7099  0.2228
 3279SOL     OW21295   0.475   2.695  10.426  0.6206  0.2167 -0.0707
 3279SOL    HW121296   0.554   2.653  10.391  0.8144 -2.2334  3.2471
 3279SOL    HW221297   0.456   2.768  10.367 -1.7894  0.2256  0.7177
 3280SOL     OW21298   2.296   3.999   6.611 -0.0347  0.0705 -0.2755
 3280SOL    HW121299   2.259   3.977   6.526 -2.0524 -0.5248  0.7465
 3280SOL    HW221300   2.240   4.075   6.628  1.8243  1.4438 -0.2886
 3281SOL     OW21301   2.675   2.700   6.606 -0.1142 -0.6527 -0.7789
 3281SOL    HW121302   2.759   2.669   6.642 -0.2644 -2.5082 -2.0169
 3281SOL    HW221303   2.620   2.707   6.684  0.2509  0.5361 -0.6292
 3282SOL     OW21304   4.713   3.870   5.717  0.1791  0.4017 -0.6983
 3282SOL    HW121305   4.694   3.949   5.668  1.3870  0.3242 -1.2965
 3282SOL    HW221306   0.011   3.814   5.642 -0.0453 -2.2689  1.2106
 3283SOL     OW21307   1.542   3.010  13.663 -0.0884  0.2427  0.1604
 3283SOL    HW121308   1.512   2.920  13.655 -2.9876  1.2026  0.3311
 3283SOL    HW221309   1.463   3.052  13.629 -0.1798 -2.4122 -2.9462
 3284SOL     OW21310   1.481   0.722  11.125  0.0587 -0.4094  0.0329
 3284SOL    HW121311   1.511   0.633  11.107  1.8976  0.3403 -0.5942
 3284SOL    HW221312   1.410   0.709  11.188  1.1608 -0.0562  1.3230
 3285SOL     OW21313   3.598   0.563   3.384 -0.6977  0.0016 -0.3147
 3285SOL    HW121314   3.629   0.587   3.297  0.2439  0.3853  0.1197
 3285SOL    HW221315   3.527   0.628   3.390 -1.1415 -0.5868  0.7482
 3286SOL     OW21316   1.620   2.752   5.049  0.7031  0.3735 -0.1042
 3286SOL    HW121317   1.530   2.724   5.035  0.9336 -0.6024  0.3776
 3286SOL    HW221318   1.659   2.720   4.968 -0.1881  0.8872 -0.7325
 3287SOL     OW21319   1.940   1.127   4.457  0.3314  0.1222  0.2693
 3287SOL    HW121320   1.908   1.050   4.410  0.8370 -1.2724  2.1785
 3287SOL    HW221321   1.859   1.178   4.464  0.2917 -0.0682  1.3195
 3288SOL     OW21322   4.124   3.254   8.261  1.0202 -0.0769 -0.5865
 3288SOL    HW121323   4.102   3.324   8.323 -0.2289 -0.0546 -1.0708
 3288SOL    HW221324   4.219   3.245   8.271  0.6030 -1.9877  1.6236
 3289SOL     OW21325   2.102   4.561  12.902  0.0187  0.4238 -0.4954
 3289SOL    HW121326   2.087   4.627  12.969  3.4212  1.1203 -0.4277
 3289SOL    HW221327   2.194   4.534  12.907  0.4298  1.8529 -0.5752
 3290SOL     OW21328   4.277   1.357  11.856 -0.4405 -0.1318  0.6120
 3290SOL    HW121329   4.181   1.365  11.854 -0.4083 -0.2244 -1.6063
 3290SOL    HW221330   4.292   1.441  11.900 -0.6273 -0.8249  2.0038
 3291SOL     OW21331   3.620   0.449   1.710  0.3174  0.2283  0.1247
 3291SOL    HW121332   3.577   0.527   1.674 -0.3335 -0.0449  0.3223
 3291SOL    HW221333   3.709   0.478   1.692  0.7135 -1.5281 -0.7593
 3292SOL     OW21334   1.780   1.709   4.831 -0.6981 -0.2822  0.1797
 3292SOL    HW121335   1.708   1.743   4.885 -0.6499 -0.5159  0.3903
 3292SOL    HW221336   1.789   1.622   4.872 -0.3582 -0.4570 -0.2697
 3293SOL     OW21337   4.330   2.867  13.718 -0.2534 -0.2097 -0.4632
 3293SOL    HW121338   4.407   2.846  13.666  1.4711  2.6074  0.9633
 3293SOL    HW221339   4.259   2.865  13.653 -1.1327 -0.4581  0.5113
 3294SOL     OW21340   1.015   2.720   6.726  0.3363  0.4280 -0.1041
 3294SOL    HW121341   0.957   2.790   6.695 -0.7964  0.2677  1.6529
 3294SOL    HW221342   0.946   2.659   6.753  0.0377  0.0486 -1.7402
 3295SOL     OW21343   4.597   2.288   4.327 -0.2214  0.1477  0.7984
 3295SOL    HW121344   4.605   2.211   4.384  1.3550 -0.0791  0.2781
 3295SOL    HW221345   4.626   2.355   4.388  0.6743  0.1317  0.3943
 3296SOL     OW21346   2.741   1.861  16.836  0.5055 -0.3660  0.0708
 3296SOL    HW121347   2.754   1.811  16.755  0.8274  0.4441 -0.3805
 3296SOL    HW221348   2.777   1.946  16.809 -1.7851  0.5199 -0.1901
 3297SOL     OW21349   2.302   2.289   7.664  0.2461 -0.2803  0.3682
 3297SOL    HW121350   2.295   2.381   7.689 -0.4250  0.2996 -1.9840
 3297SOL    HW221351   2.247   2.285   7.586 -1.6124 -0.6337  1.6855
 3298SOL     OW21352   0.040   3.522   3.961  0.5126  0.1480 -0.1351
 3298SOL    HW121353   0.004   3.563   4.040  0.2594  0.8418 -0.6186
 3298SOL    HW221354   4.686   3.536   3.908  0.7336 -0.8215 -0.7137
 3299SOL     OW21355   1.927   0.434   3.285 -0.0268  0.1977  0.0649
 3299SOL    HW121356   1.887   0.362   3.236  0.6868  0.1274 -0.4110
 3299SOL    HW221357   1.921   0.501   3.217  1.6806  2.0392  1.7441
 3300SOL     OW21358   1.909   4.081   3.793 -0.1728  0.1236 -0.1079
 3300SOL    HW121359   1.833   4.062   3.848  1.7438 -1.3097  2.0858
 3300SOL    HW221360   1.895   4.029   3.714 -1.8326  0.0676  0.2250
 3301SOL     OW21361   2.683   1.830   2.756  0.1045  0.0299  0.1201
 3301SOL    HW121362   2.694   1.836   2.661  0.1105 -1.5524  0.0251
 3301SOL    HW221363   2.773   1.811   2.781  0.2618 -1.0922 -1.2834
 3302SOL     OW21364   3.610   3.532  12.094 -0.2013 -0.4237 -0.1472
 3302SOL    HW121365   3.608   3.526  12.189 -0.3200 -1.1925 -0.2004
 3302SOL    HW221366   3.678   3.600  12.086 -0.3824 -0.1485  0.7124
 3303SOL     OW21367   3.924   2.542  17.056  0.5084  0.0862 -0.2501
 3303SOL    HW121368   3.929   2.517  16.964 -2.5604 -0.7057 -0.1786
 3303SOL    HW221369   4.012   2.564  17.088 -0.2707  2.3914  0.3303
 3304SOL     OW21370   2.193   3.664   2.835  0.2268 -0.3952 -0.1329
 3304SOL    HW121371   2.109   3.624   2.815  0.0723 -0.4433  0.6217
 3304SOL    HW221372   2.233   3.692   2.752 -1.8403 -0.1364 -1.0336
 3305SOL     OW21373   3.904   3.403   2.173 -0.4780 -0.4161 -0.9949
 3305SOL    HW121374   3.869   3.466   2.236 -1.0285 -1.2127 -0.4882
 3305SOL    HW221375   3.991   3.387   2.208 -0.7175  0.8361  0.1500
 3306SOL     OW21376   3.770   1.371   0.742 -0.0067  0.3783 -0.6110
 3306SOL    HW121377   3.732   1.381   0.829  1.9191  0.8005  0.1898
 3306SOL    HW221378   3.856   1.413   0.745  0.7380 -1.2558  1.1684
 3307SOL     OW21379   0.616   3.380  10.794  0.1075  0.5192 -0.0740
 3307SOL    HW121380   0.653   3.376  10.706 -0.6365  0.0958 -0.3584
 3307SOL    HW221381   0.648   3.463  10.828 -1.4078  0.2930  1.8926
 3308SOL     OW21382   0.702   2.694   4.147  0.0702  0.0276 -0.0761
 3308SOL    HW121383   0.743   2.678   4.232 -1.8989 -1.3264  0.6066
 3308SOL    HW221384   0.775   2.677   4.087 -0.0301  2.3934 -0.8923
 3309SOL     OW21385   2.114   2.624   7.848 -0.1157  0.3992  0.0591
 3309SOL    HW121386   2.076   2.590   7.767 -1.8515  1.5844  0.3723
 3309SOL    HW221387   2.201   2.585   7.842 -0.3672 -0.2394  0.5608
 3310SOL     OW21388   2.243   1.805   4.438  0.5090 -0.4024  0.2612
 3310SOL    HW121389   2.184   1.879   4.430  0.5422 -0.3055  0.8763
 3310SOL    HW221390   2.244   1.777   4.347  1.5412  2.9340 -0.7243
 3311SOL     OW21391   1.802   3.506   8.673 -0.0679 -0.3240  0.3656
 3311SOL    HW121392   1.726   3.447   8.675 -0.3724  0.0925  1.1427
 3311SOL    HW221393   1.764   3.591   8.648 -2.6532 -0.9457  2.1754
 3312SOL     OW21394   3.040   1.610   4.665  0.0478  0.1892  0.3202
 3312SOL    HW121395   3.096   1.536   4.641 -1.6463 -1.2879  0.9427
 3312SOL    HW221396   3.016   1.632   4.575 -0.8500  1.3969  0.8494
 3313SOL     OW21397   0.179   2.861   4.823 -0.3185 -0.0838  0.5705
 3313SOL    HW121398   0.256   2.909   4.793 -0.9366  0.9549  0.6594
 3313SOL    HW221399   0.136   2.842   4.739  1.2173  2.4805 -0.7940
 3314SOL     OW21400   1.033   3.047   6.663  0.8749  0.7166  0.1199
 3314SOL    HW121401   1.065   3.030   6.751  1.2930 -0.2528 -0.2151
 3314SOL    HW221402   1.037   2.955   6.636  2.9228  0.9263 -0.3628
 3315SOL     OW21403   1.075   4.149   5.512  0.0716 -0.8036  0.0464
 3315SOL    HW121404   1.010   4.099   5.562  1.1724  0.2460  2.5829
 3315SOL    HW221405   1.077   4.111   5.425 -0.8258 -0.7718  0.0067
 3316SOL     OW21406   2.878   1.734   6.332 -0.2075  0.2528 -0.5728
 3316SOL    HW121407   2.785   1.743   6.354 -0.9174 -1.2592 -2.8344
 3316SOL    HW221408   2.875   1.742   6.236 -2.4525  2.1325 -0.3321
 3317SOL     OW21409   1.198   2.223  16.514 -0.7346  0.1535 -0.1066
 3317SOL    HW121410   1.120   2.272  16.541  0.2186  1.6208 -0.0294
 3317SOL    HW221411   1.193   2.220  16.418  0.6156 -0.5356 -0.1434
 3318SOL     OW21412   0.604   1.985  17.197  0.5513 -0.4951  0.5422
 3318SOL    HW121413   0.577   1.971  17.106  0.7106 -0.3503  0.4739
 3318SOL    HW221414   0.637   1.902  17.230  2.3142 -0.9177 -2.2953
 3319SOL     OW21415   1.878   4.131   7.328  0.5463 -0.1555 -0.0185
 3319SOL    HW121416   1.878   4.036   7.339 -0.7456 -0.0491  1.0310
 3319SOL    HW221417   1.920   4.160   7.409  0.7494  0.8087 -0.4759
 3320SOL     OW21418   2.625   3.157  11.427 -0.4575  0.1735  0.0212
 3320SOL    HW121419   2.647   3.065  11.412 -2.4580 -0.2755 -0.2338
 3320SOL    HW221420   2.661   3.172  11.514  0.7339 -0.6988 -0.3300
 3321SOL     OW21421   0.967   3.292  15.522  0.5216 -0.5179  0.1523
 3321SOL    HW121422   0.872   3.298  15.531  0.5330  0.4021 -0.3315
 3321SOL    HW221423   0.996   3.332  15.604 -0.2703  1.4411 -0.5319
 3322SOL     OW21424   2.882   2.428   3.776  0.6024 -0.1684 -0.2099
 3322SOL    HW121425   2.900   2.458   3.866  1.0658  3.0353 -1.3643
 3322SOL    HW221426   2.855   2.504   3.725 -2.6355 -1.9334 -1.1181
 3323SOL     OW21427   3.842   4.689   1.511 -0.0855  0.8617 -0.0980
 3323SOL    HW121428   3.839   0.056   1.543  0.4411  0.5794  0.7537
 3323SOL    HW221429   3.754   4.691   1.474 -1.7835 -0.0157  3.9277
 3324SOL     OW21430   0.307   2.271  14.578 -0.2385  0.6164 -0.0868
 3324SOL    HW121431   0.309   2.274  14.482  2.3855  0.7475 -0.0136
 3324SOL    HW221432   0.358   2.348  14.601 -0.5731  0.3952  1.3591
 3325SOL     OW21433   0.382   2.532   7.847  0.1249  0.3577 -0.5306
 3325SOL    HW121434   0.357   2.547   7.938 -2.3170 -2.5378 -0.7376
 3325SOL    HW221435   0.454   2.595   7.838  2.3790 -1.9465  1.0608
 3326SOL     OW21436   0.648   1.816   4.707  0.1241  0.2265 -0.1755
 3326SOL    HW121437   0.704   1.871   4.652 -1.6349 -0.6895 -2.9048
 3326SOL    HW221438   0.712   1.809   4.777  0.3226 -2.4981 -0.6343
 3327SOL     OW21439   0.314   3.437   4.895  0.7246 -0.0587  0.3555
 3327SOL    HW121440   0.358   3.398   4.970  2.8794 -0.1578 -0.9590
 3327SOL    HW221441   0.356   3.390   4.823 -1.7536  2.9091 -3.0525
 3328SOL     OW21442   0.740   2.581  10.991  0.2822 -0.6105 -0.3151
 3328SOL    HW121443   0.809   2.551  10.932 -0.9893 -1.1772 -1.5026
 3328SOL    HW221444   0.777   2.642  11.056  0.6719 -2.9143  1.6195
 3329SOL     OW21445   0.533   2.774   4.762  0.4333 -0.2318 -0.9098
 3329SOL    HW121446   0.589   2.720   4.818  1.4492  0.8354 -0.8896
 3329SOL    HW221447   0.503   2.837   4.827  1.6201 -0.6214  0.0183
 3330SOL     OW21448   4.533   2.655  12.555  0.4575  0.2232 -0.0085
 3330SOL    HW121449   4.534   2.618  12.467  0.6713  0.6895 -0.1968
 3330SOL    HW221450   4.620   2.693  12.556 -0.1478  1.5855  1.4518
 3331SOL     OW21451   0.579   1.415   3.125  0.4078 -0.2898  0.2535
 3331SOL    HW121452   0.535   1.405   3.040  0.9308  1.6040 -0.2373
 3331SOL    HW221453   0.565   1.334   3.175  0.5510 -0.9606 -0.7808
 3332SOL     OW21454   4.460   3.614  13.995  0.0004 -0.4297  0.0203
 3332SOL    HW121455   4.435   3.693  14.044 -0.3943 -0.0336 -0.8204
 3332SOL    HW221456   4.546   3.640  13.962 -1.4941  1.4475 -2.4677
 3333SOL     OW21457   2.959   1.323  13.396  0.5251  0.0293  0.8155
 3333SOL    HW121458   2.966   1.307  13.302  1.1235  0.3983  0.7972
 3333SOL    HW221459   2.892   1.260  13.424  0.1745 -0.2810 -0.7032
 3334SOL     OW21460   3.108   2.600   8.624 -0.2708  0.1043  0.2746
 3334SOL    HW121461   3.042   2.638   8.565 -0.7414 -0.0180  0.7246
 3334SOL    HW221462   3.170   2.669   8.598  0.4287 -0.9178 -0.7475
 3335SOL     OW21463   2.829   4.589  10.138 -0.0996 -0.1567 -0.1108
 3335SOL    HW121464   2.795   4.628  10.057 -0.0023  0.9312  0.3729
 3335SOL    HW221465   2.787   4.503  10.139  0.8978 -0.6215  1.1870
 3336SOL     OW21466   0.457   3.244   6.641 -0.3180 -0.7302 -0.2499
 3336SOL    HW121467   0.487   3.235   6.731  0.2173 -2.0673 -0.5464
 3336SOL    HW221468   0.493   3.161   6.609  1.7126  0.4286 -0.9605
 3337SOL     OW21469   1.649   0.930   6.511  0.0249 -0.2992  0.4653
 3337SOL    HW121470   1.690   0.961   6.591  0.0241  1.1572 -0.0979
 3337SOL    HW221471   1.690   0.845   6.496 -0.6802 -0.5201 -0.2235
 3338SOL     OW21472   4.267   3.795   3.107 -0.2083 -0.2944 -0.2217
 3338SOL    HW121473   4.298   3.842   3.184  0.1854 -0.3913 -0.3204
 3338SOL    HW221474   4.279   3.856   3.035 -2.5129  0.3729 -0.0403
 3339SOL     OW21475   3.762   4.113   0.752 -0.0075 -0.0285  0.1220
 3339SOL    HW121476   3.829   4.061   0.797 -0.7808 -3.1201 -2.3064
 3339SOL    HW221477   3.687   4.120   0.811 -0.8068  1.1723 -1.0637
 3340SOL     OW21478   3.785   0.973   4.509  0.7331 -0.4415 -0.5249
 3340SOL    HW121479   3.755   1.044   4.565  2.0321 -0.0444 -0.3203
 3340SOL    HW221480   3.709   0.944   4.459 -0.0851  0.3504  0.2763
 3341SOL     OW21481   1.976   1.441   7.399 -0.8961 -0.0210 -0.1006
 3341SOL    HW121482   2.048   1.502   7.381 -0.8846  0.4231  1.4571
 3341SOL    HW221483   2.027   1.373   7.445  1.8975  2.1187 -0.0286
 3342SOL     OW21484   2.690   0.745   7.834 -0.9792  0.1413 -0.1445
 3342SOL    HW121485   2.622   0.763   7.899  0.0331 -0.6787  1.1494
 3342SOL    HW221486   2.768   0.776   7.881  1.9394 -3.7052 -2.4204
 3343SOL     OW21487   4.264   4.610   6.340 -0.0382  0.5943  0.1057
 3343SOL    HW121488   4.288   4.606   6.432 -1.6421  1.2866  0.5620
 3343SOL    HW221489   4.221   4.696   6.338 -0.8602  0.1734 -0.1135
 3344SOL     OW21490   2.890   4.179   7.873 -0.1232  0.3496  0.1302
 3344SOL    HW121491   2.810   4.226   7.894  0.5293  0.9895  1.1742
 3344SOL    HW221492   2.931   4.243   7.815  0.1553 -0.0703 -0.1370
 3345SOL     OW21493   4.535   1.981   7.688  0.7762 -0.0871  0.4041
 3345SOL    HW121494   4.455   1.945   7.648  0.7278  0.2228  0.2181
 3345SOL    HW221495   4.497   2.004   7.773  0.7372 -2.3303  0.9762
 3346SOL     OW21496   3.305   0.302   6.818 -0.0894 -0.3057 -0.6390
 3346SOL    HW121497   3.296   0.214   6.856  0.5642 -0.0437  0.1115
 3346SOL    HW221498   3.212   0.321   6.807 -0.2321  0.5719  2.0359
 3347SOL     OW21499   1.795   3.489   6.074  0.0260  0.3825 -0.0991
 3347SOL    HW121500   1.855   3.551   6.033 -2.1300  2.6891  0.2078
 3347SOL    HW221501   1.856   3.436   6.124 -0.3441 -0.8803 -0.9604
 3348SOL     OW21502   0.125   2.443   7.400 -0.2644 -0.4125 -0.6390
 3348SOL    HW121503   0.168   2.454   7.485  1.1148 -0.6270 -1.3075
 3348SOL    HW221504   0.078   2.363   7.422 -1.3408  0.5465  0.5430
 3349SOL     OW21505   3.377   1.817   2.995  0.6296 -0.8088  0.0134
 3349SOL    HW121506   3.327   1.888   3.036  1.3891 -1.0978  1.4374
 3349SOL    HW221507   3.342   1.830   2.907 -1.2628  1.1405  1.0458
 3350SOL     OW21508   0.503   4.695   2.457  0.3220  0.5809 -0.0175
 3350SOL    HW121509   0.536   4.710   2.369  1.1906 -2.6172 -0.2555
 3350SOL    HW221510   0.564   4.630   2.494 -0.3385  0.3656  0.6946
 3351SOL     OW21511   0.853   2.518   2.489 -0.3655 -0.4117  0.1645
 3351SOL    HW121512   0.831   2.425   2.501  1.8423 -1.1871 -1.6572
 3351SOL    HW221513   0.849   2.548   2.579  4.4530 -1.0082  0.5829
 3352SOL     OW21514   3.696   2.084   6.137 -0.8095 -0.1031 -0.2270
 3352SOL    HW121515   3.691   2.176   6.162 -2.8126  0.2534 -1.9103
 3352SOL    HW221516   3.758   2.088   6.064  1.3502 -0.8177  1.5866
 3353SOL     OW21517   0.242   1.060  10.077 -0.0115 -0.5898  0.2569
 3353SOL    HW121518   0.179   1.124  10.045  0.2694  0.0110  0.8950
 3353SOL    HW221519   0.266   1.110  10.155 -0.4022  1.4959 -0.9423
 3354SOL     OW21520   2.774   2.446   6.772  0.2745 -0.1954 -0.5237
 3354SOL    HW121521   2.794   2.479   6.860  1.0982  0.2954 -0.9007
 3354SOL    HW221522   2.849   2.479   6.724  0.8095 -1.3988 -0.5002
 3355SOL     OW21523   1.030   2.377  14.301 -0.5344  0.5907  0.1234
 3355SOL    HW121524   1.010   2.353  14.210 -1.6438  2.6075 -0.1591
 3355SOL    HW221525   1.100   2.443  14.299 -1.0533  1.1212 -0.4235
 3356SOL     OW21526   4.351   4.108  13.729  0.2547 -0.2079 -0.4615
 3356SOL    HW121527   4.262   4.128  13.760  0.5793 -1.7275  1.4808
 3356SOL    HW221528   4.347   4.122  13.634  0.2870 -1.2106 -0.6120
 3357SOL     OW21529   0.979   2.204   4.646  0.1132  0.0704  0.6212
 3357SOL    HW121530   0.914   2.249   4.699  0.1639  0.5322  0.2908
 3357SOL    HW221531   0.961   2.225   4.555  2.0141  0.6702  0.3764
 3358SOL     OW21532   4.583   1.757   4.594  0.0207 -0.2250  0.4402
 3358SOL    HW121533   4.515   1.718   4.540 -1.6257  2.2884  0.6799
 3358SOL    HW221534   4.541   1.830   4.641 -2.2690 -0.2611 -1.5150
 3359SOL     OW21535   1.393   1.054   7.192 -0.1586 -0.4664  0.2215
 3359SOL    HW121536   1.412   1.123   7.256 -1.3028  1.5604 -1.6093
 3359SOL    HW221537   1.455   0.986   7.219  0.2127 -0.4137 -0.4819
 3360SOL     OW21538   3.318   3.053  10.676  0.0503  0.2513 -0.2187
 3360SOL    HW121539   3.409   3.058  10.705  0.3368  0.4381 -1.1475
 3360SOL    HW221540   3.330   3.114  10.603  1.3238 -0.4089 -0.5640
 3361SOL     OW21541   0.174   1.689   2.315 -0.0371  0.2745  0.4000
 3361SOL    HW121542   0.231   1.760   2.348  0.4721  1.1364 -2.3345
 3361SOL    HW221543   0.158   1.644   2.398  3.0540 -1.8025 -0.1425
 3362SOL     OW21544   1.684   0.800   5.932 -0.1881  0.3446 -0.1944
 3362SOL    HW121545   1.591   0.810   5.952 -0.8009 -2.1330 -1.8286
 3362SOL    HW221546   1.713   0.751   6.009  0.3393  2.0654  0.7049
 3363SOL     OW21547   0.830   4.666   5.847  0.0776 -0.0298 -0.0382
 3363SOL    HW121548   0.794   0.003   5.782  0.0722  1.3744  1.2974
 3363SOL    HW221549   0.844   4.720   5.924  2.2244  0.2861 -0.6414
 3364SOL     OW21550   1.433   0.223   9.041 -0.3223  1.0881  0.1878
 3364SOL    HW121551   1.417   0.303   8.991 -1.7778  0.8624  0.3079
 3364SOL    HW221552   1.509   0.256   9.091  1.4398 -0.3290 -1.5523
 3365SOL     OW21553   0.993   4.454   5.771 -0.0914 -0.0926  0.1812
 3365SOL    HW121554   0.937   4.528   5.796 -2.3639 -1.5065 -0.7601
 3365SOL    HW221555   0.997   4.420   5.860 -0.1691 -1.4388 -0.3398
 3366SOL     OW21556   2.445   4.109   1.870 -0.6968 -0.1028  0.0721
 3366SOL    HW121557   2.454   4.020   1.903  1.1054  0.3387  0.7476
 3366SOL    HW221558   2.491   4.166   1.931 -0.5871  0.5240 -0.5994
 3367SOL     OW21559   4.307   0.826   1.396  0.9558 -0.7427 -0.1393
 3367SOL    HW121560   4.242   0.772   1.442 -1.2564  1.7273 -0.3439
 3367SOL    HW221561   4.335   0.885   1.466  2.8635  0.0250 -1.5567
 3368SOL     OW21562   3.487   0.269   2.189  0.2448 -0.1427  0.6263
 3368SOL    HW121563   3.437   0.196   2.224 -0.2109  0.4161  1.1321
 3368SOL    HW221564   3.519   0.235   2.105 -0.3700  2.0384 -0.5115
 3369SOL     OW21565   1.718   4.381   8.952 -0.0339  0.0662 -0.0460
 3369SOL    HW121566   1.713   4.286   8.961  0.6084  0.1528  1.1964
 3369SOL    HW221567   1.634   4.403   8.912 -1.7812 -1.0933  2.9869
 3370SOL     OW21568   2.027   0.748  11.484 -0.2504  0.0521  0.0764
 3370SOL    HW121569   2.058   0.661  11.461 -0.8700 -0.1499  0.0209
 3370SOL    HW221570   2.016   0.794  11.401  0.8480 -0.1984 -0.2107
 3371SOL     OW21571   4.565   1.272   1.760  0.1002 -0.1233  0.1285
 3371SOL    HW121572   4.640   1.329   1.740 -0.6966  0.9988  0.3240
 3371SOL    HW221573   4.493   1.334   1.746  1.7578  1.8429  0.2382
 3372SOL     OW21574   1.724   3.681   4.549  0.4405  0.4575 -0.6538
 3372SOL    HW121575   1.692   3.609   4.603  1.2540 -0.3985 -1.2925
 3372SOL    HW221576   1.812   3.684   4.586 -0.3132 -2.3747  1.4241
 3373SOL     OW21577   2.661   0.174   4.398  0.4889  0.2112  0.0069
 3373SOL    HW121578   2.577   0.129   4.389  1.2666 -1.2295 -0.1953
 3373SOL    HW221579   2.705   0.152   4.316 -0.6374  0.5165 -0.6753
 3374SOL     OW21580   1.182   4.444  12.221  0.2794 -0.6772 -0.1461
 3374SOL    HW121581   1.188   4.354  12.188  1.4832 -0.5080 -0.3835
 3374SOL    HW221582   1.141   4.480  12.142 -1.7246 -0.7362  0.8610
 3375SOL     OW21583   0.960   2.034   3.247  0.6565 -0.0490  0.0960
 3375SOL    HW121584   1.050   2.036   3.280  0.3389  0.5148  0.9003
 3375SOL    HW221585   0.966   1.948   3.204  1.3164  0.1651 -0.2325
 3376SOL     OW21586   3.737   3.390  14.843 -0.2345  0.0543  0.1448
 3376SOL    HW121587   3.829   3.407  14.863  0.2932 -1.8833 -0.6107
 3376SOL    HW221588   3.742   3.296  14.858 -0.4472 -0.1157 -0.8166
 3377SOL     OW21589   3.574   1.611   8.186  0.1636  0.0847  0.1320
 3377SOL    HW121590   3.643   1.611   8.252 -1.2329 -3.2269  1.5938
 3377SOL    HW221591   3.496   1.627   8.240  0.5633  1.5508  0.2798
 3378SOL     OW21592   1.288   0.395   3.382 -0.0365 -0.2294 -0.0845
 3378SOL    HW121593   1.316   0.395   3.290 -0.6293  1.7163 -0.2676
 3378SOL    HW221594   1.362   0.442   3.421  1.7258 -0.6380 -2.8742
 3379SOL     OW21595   0.188   3.241   1.215  0.5304  0.3458 -0.0071
 3379SOL    HW121596   0.133   3.174   1.257  1.9888 -0.6476  0.3035
 3379SOL    HW221597   0.144   3.251   1.131  0.0537 -2.6994 -0.1103
 3380SOL     OW21598   3.462   0.202  12.827 -0.4991  0.0583 -0.3468
 3380SOL    HW121599   3.438   0.293  12.841 -1.1519 -0.4082  1.5140
 3380SOL    HW221600   3.388   0.144  12.843 -0.2658 -0.2583 -0.3904
 3381SOL     OW21601   0.990   1.210  11.352 -0.0164  1.1896  0.5049
 3381SOL    HW121602   1.063   1.258  11.391  0.4876  0.9740 -0.1645
 3381SOL    HW221603   1.038   1.135  11.316  1.5819  2.3937  0.1381
 3382SOL     OW21604   4.129   4.701   4.866 -0.4227 -0.2811  0.1043
 3382SOL    HW121605   4.208   4.675   4.820  0.8136  2.8792  0.4241
 3382SOL    HW221606   4.132   0.073   4.862 -0.4138 -0.2892 -0.0737
 3383SOL     OW21607   0.488   2.614   0.385  0.3702  0.1812 -0.3644
 3383SOL    HW121608   0.564   2.661   0.349 -1.1467  0.7680 -2.7814
 3383SOL    HW221609   0.421   2.643   0.324  1.2569  0.6286 -1.1331
 3384SOL     OW21610   0.607   0.680  16.027 -0.3204 -0.4023  0.1303
 3384SOL    HW121611   0.635   0.662  15.938 -1.7134  1.4558 -0.6884
 3384SOL    HW221612   0.612   0.592  16.065 -0.5571 -0.9104 -1.0106
 3385SOL     OW21613   1.198   1.155   1.351 -0.1872 -0.1149 -0.1461
 3385SOL    HW121614   1.215   1.159   1.445  0.4838 -2.6370 -0.1544
 3385SOL    HW221615   1.129   1.089   1.352  0.8928 -1.2479 -0.3409
 3386SOL     OW21616   1.523   1.834   5.788  0.6996  0.2418  0.2300
 3386SOL    HW121617   1.566   1.749   5.800  1.1855  0.7181  1.9377
 3386SOL    HW221618   1.431   1.815   5.809  1.5362 -1.0738  2.7561
 3387SOL     OW21619   2.999   4.712   1.927 -0.4371 -0.1023 -0.0950
 3387SOL    HW121620   3.086   0.009   1.892 -0.7280 -0.2831 -0.9355
 3387SOL    HW221621   2.939   0.038   1.871  1.7301  1.1396 -1.3372
 3388SOL     OW21622   1.104   3.096   6.298 -0.6805 -0.0982  0.1506
 3388SOL    HW121623   1.069   3.143   6.223 -0.2950  0.2138  0.1655
 3388SOL    HW221624   1.110   3.166   6.362 -1.0325 -1.3250  1.5122
 3389SOL     OW21625   2.836   1.296   3.345  0.0834  0.2556  0.0356
 3389SOL    HW121626   2.805   1.362   3.282  0.3661  0.3304 -0.0271
 3389SOL    HW221627   2.894   1.243   3.291 -0.2222  0.3640 -0.4054
 3390SOL     OW21628   0.879   2.259   0.865  0.2236  0.7361 -0.8191
 3390SOL    HW121629   0.885   2.249   0.770 -0.6902 -2.3214 -0.5545
 3390SOL    HW221630   0.873   2.163   0.874  1.5625  0.5415 -2.0651
 3391SOL     OW21631   0.947   4.120   0.887 -0.5873 -0.1308  0.1315
 3391SOL    HW121632   0.872   4.152   0.837  0.1418 -0.4435 -1.1424
 3391SOL    HW221633   0.933   4.026   0.882  0.5449 -0.1938 -1.7524
 3392SOL     OW21634   0.298   2.062   1.829  0.1409  0.4706  0.0587
 3392SOL    HW121635   0.388   2.083   1.854 -0.4091 -0.7567  2.9840
 3392SOL    HW221636   0.292   2.131   1.762 -3.3291 -1.2512 -1.4256
 3393SOL     OW21637   3.720   4.002   9.971 -0.1638 -0.0063 -0.4909
 3393SOL    HW121638   3.643   4.049  10.003  0.2655  0.2254  0.1826
 3393SOL    HW221639   3.756   4.066   9.909 -0.2650  1.2367  0.7516
 3394SOL     OW21640   3.674   0.874   7.934 -0.2917  0.0411 -0.4106
 3394SOL    HW121641   3.583   0.875   7.906  0.1094 -0.0462 -1.6983
 3394SOL    HW221642   3.717   0.916   7.859  1.8254 -1.5853 -0.0884
 3395SOL     OW21643   3.358   0.377  15.315 -0.6233  0.2734  0.1268
 3395SOL    HW121644   3.330   0.445  15.253 -1.3465  0.3019  0.4792
 3395SOL    HW221645   3.430   0.338  15.267  0.0828  1.0749  0.5295
 3396SOL     OW21646   1.742   0.953   7.575  0.1424 -0.5916  0.4163
 3396SOL    HW121647   1.732   0.975   7.668 -1.3982 -1.8027  0.5307
 3396SOL    HW221648   1.746   1.038   7.531 -1.8711 -1.0255 -0.5941
 3397SOL     OW21649   0.081   3.959   5.971  0.2590 -0.1167 -0.2650
 3397SOL    HW121650   0.037   3.947   5.887 -1.8019  1.7405  0.5279
 3397SOL    HW221651   0.076   3.868   6.001 -0.8135 -0.3428 -1.1339
 3398SOL     OW21652   3.263   0.250  15.548 -0.3518 -0.7692  0.2748
 3398SOL    HW121653   3.254   0.326  15.606  0.3405 -0.5733  0.1255
 3398SOL    HW221654   3.294   0.295  15.469 -1.2235 -0.6275  0.0121
 3399SOL     OW21655   0.052   0.794   0.726  0.5197  0.4017 -0.1973
 3399SOL    HW121656   0.097   0.874   0.754  0.5297 -0.3780  2.0125
 3399SOL    HW221657   4.714   0.770   0.795  0.2986  1.4517 -0.0313
 3400SOL     OW21658   1.849   4.211  14.578 -0.0116  0.2776  0.0339
 3400SOL    HW121659   1.815   4.222  14.490 -0.4507 -0.1955  0.1440
 3400SOL    HW221660   1.896   4.293  14.594 -1.8909  1.3421 -0.0252
 3401SOL     OW21661   2.432   3.385   4.506  0.1179 -0.2290 -0.2051
 3401SOL    HW121662   2.384   3.371   4.424 -1.7653  2.0259  0.4840
 3401SOL    HW221663   2.441   3.478   4.484 -0.5317  0.7681  3.6198
 3402SOL     OW21664   0.735   0.875  16.894  0.1018 -0.3908 -0.1322
 3402SOL    HW121665   0.659   0.932  16.899  1.2890  1.2727 -1.0476
 3402SOL    HW221666   0.807   0.938  16.891  0.1777 -0.4840 -0.2780
 3403SOL     OW21667   3.313   0.799  10.309  0.4878 -0.1888  0.0409
 3403SOL    HW121668   3.331   0.714  10.269 -2.0885 -0.7486  0.1173
 3403SOL    HW221669   3.361   0.848  10.243  0.7907  2.2988  2.1112
 3404SOL     OW21670   4.540   2.720   2.259  0.0629 -0.2186  0.3098
 3404SOL    HW121671   4.458   2.673   2.244  0.8084 -1.0471 -1.2110
 3404SOL    HW221672   4.549   2.698   2.351  2.0667  1.6036  0.5510
 3405SOL     OW21673   2.885   1.873   5.552  0.3386  0.0167 -0.1552
 3405SOL    HW121674   2.843   1.908   5.474 -1.4427 -0.7950  0.4399
 3405SOL    HW221675   2.977   1.900   5.547  0.1247  0.8203  0.3267
 3406SOL     OW21676   0.314   4.599   5.367  0.6094 -0.0251 -0.2812
 3406SOL    HW121677   0.313   4.562   5.456 -2.8772  0.6151 -0.0732
 3406SOL    HW221678   0.395   4.649   5.377  0.9963 -0.9130  1.0845
 3407SOL     OW21679   0.952   3.105   1.366  0.3290  0.5174 -0.0343
 3407SOL    HW121680   0.983   3.141   1.449 -1.0035  1.4375  0.0651
 3407SOL    HW221681   1.018   3.044   1.333  0.0298 -0.6752  1.6347
 3408SOL     OW21682   2.606   3.148  13.541  0.0804  0.2209  0.0111
 3408SOL    HW121683   2.586   3.087  13.612  1.0931 -2.1788 -1.7944
 3408SOL    HW221684   2.697   3.169  13.559  0.1147 -1.1854  1.4170
 3409SOL     OW21685   0.401   1.363   9.556  0.2417 -0.2352 -0.1584
 3409SOL    HW121686   0.448   1.441   9.587 -1.7751  0.5563  0.8767
 3409SOL    HW221687   0.347   1.416   9.497 -1.2821 -0.5267  0.9920
 3410SOL     OW21688   4.553   1.012  12.532  0.2944 -0.4236  0.2898
 3410SOL    HW121689   4.639   0.983  12.565  0.4547 -2.6792 -2.1405
 3410SOL    HW221690   4.512   1.023  12.618  0.2241  3.9802 -0.2976
 3411SOL     OW21691   0.337   4.463  10.015 -0.5667  0.4044 -0.5764
 3411SOL    HW121692   0.379   4.544  10.045 -0.0284  0.5759 -1.8142
 3411SOL    HW221693   0.399   4.431   9.950 -0.8721 -1.9013  0.2625
 3412SOL     OW21694   2.334   1.574  10.847 -0.1523  0.1977  0.5906
 3412SOL    HW121695   2.313   1.580  10.940  1.6013 -1.0726  1.0630
 3412SOL    HW221696   2.268   1.632  10.807 -1.1215 -0.1009  1.7703
 3413SOL     OW21697   1.026   1.284  15.873  0.0403 -0.6780 -0.0416
 3413SOL    HW121698   1.108   1.253  15.836 -0.2026 -2.0274  0.5735
 3413SOL    HW221699   1.010   1.356  15.813  2.2956  0.6880  0.9922
 3414SOL     OW21700   1.500   1.141  14.428  0.6069  0.0531  0.0789
 3414SOL    HW121701   1.545   1.224  14.412 -3.7162  2.3564 -0.2859
 3414SOL    HW221702   1.498   1.132  14.524  0.6557  0.9876  0.1700
 3415SOL     OW21703   4.546   2.529   5.314  0.1510  0.2245  0.3474
 3415SOL    HW121704   4.579   2.479   5.240 -1.9918 -2.3609  1.1362
 3415SOL    HW221705   4.591   2.614   5.303 -1.6110  0.8342 -2.0440
 3416SOL     OW21706   3.472   3.179   2.883  0.2336  0.4292  0.4943
 3416SOL    HW121707   3.542   3.184   2.818  0.3972  3.3759  0.9129
 3416SOL    HW221708   3.416   3.111   2.846  0.7493  1.1393 -1.6244
 3417SOL     OW21709   3.910   4.398  15.946  0.5169 -0.1280  0.0070
 3417SOL    HW121710   3.841   4.425  16.007  0.2873  1.2937 -0.8685
 3417SOL    HW221711   3.913   4.305  15.967  0.5281 -0.2155 -0.3905
 3418SOL     OW21712   1.888   0.672   7.798 -0.0232  0.0329  0.2699
 3418SOL    HW121713   1.922   0.702   7.714  1.2676 -1.5954  0.2042
 3418SOL    HW221714   1.962   0.701   7.851  2.2978 -1.4356 -2.1792
 3419SOL     OW21715   2.897   0.040   3.361 -0.2801  0.4627 -1.0419
 3419SOL    HW121716   2.815   0.009   3.323 -0.7202  1.0864 -0.6021
 3419SOL    HW221717   2.930   0.102   3.295 -0.5306 -0.7837 -2.3317
 3420SOL     OW21718   0.820   1.746   4.402  0.7028 -0.8385 -0.5922
 3420SOL    HW121719   0.787   1.669   4.449 -3.8629  1.0673 -0.6631
 3420SOL    HW221720   0.914   1.729   4.396  0.5325 -1.8908 -0.3598
 3421SOL     OW21721   1.918   1.402  15.000 -0.7327 -0.0904  0.5475
 3421SOL    HW121722   1.889   1.434  15.085 -1.1225 -0.2579  0.4785
 3421SOL    HW221723   1.898   1.309  15.006 -0.2209 -0.4276 -3.1602
 3422SOL     OW21724   4.302   1.996   2.297  0.4665  0.1061 -0.2879
 3422SOL    HW121725   4.349   1.962   2.373 -1.7930 -1.1095  0.5599
 3422SOL    HW221726   4.218   1.951   2.294 -1.5842  3.9182 -0.3550
 3423SOL     OW21727   1.285   1.252   9.323  0.3195  0.1378 -0.1592
 3423SOL    HW121728   1.378   1.255   9.299 -0.1274  3.0641 -1.5666
 3423SOL    HW221729   1.251   1.320   9.264 -0.0298 -0.2122 -0.3619
 3424SOL     OW21730   4.510   3.489  11.167 -0.2055  0.3262  0.1450
 3424SOL    HW121731   4.450   3.431  11.120  1.0540 -1.0117  0.1885
 3424SOL    HW221732   4.593   3.442  11.168  0.4425  1.4440 -0.6224
 3425SOL     OW21733   1.947   2.004  17.590 -0.2253  0.2071 -0.0040
 3425SOL    HW121734   2.027   1.987  17.540  0.2477 -0.4411  0.9528
 3425SOL    HW221735   1.921   2.089  17.553  0.5992  0.0478 -0.9493
 3426SOL     OW21736   3.476   1.583   5.646  0.2718  0.1735 -0.6930
 3426SOL    HW121737   3.542   1.515   5.626  0.4671  0.2304 -0.2221
 3426SOL    HW221738   3.492   1.638   5.569 -1.9180  0.5091 -0.8867
 3427SOL     OW21739   0.009   1.199   5.228  0.1563  0.0251 -0.0102
 3427SOL    HW121740   4.642   1.174   5.209  0.5823 -0.2089 -1.7230
 3427SOL    HW221741   0.039   1.270   5.171 -0.6610 -0.8997 -1.5812
 3428SOL     OW21742   2.550   4.471   8.434  0.1070  0.0431 -0.5093
 3428SOL    HW121743   2.582   4.468   8.524  2.6042 -0.3664 -1.4155
 3428SOL    HW221744   2.540   4.376   8.428 -0.8539  0.1856 -1.4036
 3429SOL     OW21745   4.418   0.983   5.260 -0.2154  0.2654  0.3176
 3429SOL    HW121746   4.419   1.079   5.261 -0.2966  0.2558  1.4362
 3429SOL    HW221747   4.429   0.971   5.166 -1.2706  0.9203  0.0993
 3430SOL     OW21748   0.298   4.264  16.471  0.1284  0.3582 -0.0337
 3430SOL    HW121749   0.331   4.313  16.396  1.7045 -0.7939 -0.0872
 3430SOL    HW221750   0.275   4.328  16.539  1.2809  0.9393 -0.1896
 3431SOL     OW21751   2.088   1.835   6.315  0.8067  0.2113  0.1205
 3431SOL    HW121752   2.075   1.893   6.390 -1.3136 -1.3044  0.9171
 3431SOL    HW221753   2.011   1.779   6.323 -0.2055  1.6354  0.4769
 3432SOL     OW21754   1.437   0.886  17.242  0.6786 -0.1982  0.1743
 3432SOL    HW121755   1.365   0.853  17.296  0.6359  0.2203  0.3680
 3432SOL    HW221756   1.493   0.924  17.309 -0.9166  1.5989  0.4756
 3433SOL     OW21757   0.497   3.607  17.548 -0.5686  0.3303  0.2465
 3433SOL    HW121758   0.531   3.572  17.631 -0.0326  0.3662  0.0367
 3433SOL    HW221759   0.459   3.531  17.503  0.3964  0.9908 -1.6745
 3434SOL     OW21760   1.732   1.286  12.845  0.7037 -0.0332 -0.4701
 3434SOL    HW121761   1.714   1.192  12.844  1.4682 -0.2169  2.0220
 3434SOL    HW221762   1.697   1.301  12.758  0.3516  0.0896 -0.3084
 3435SOL     OW21763   0.991   3.971   7.602 -0.8202 -0.1646 -0.0264
 3435SOL    HW121764   0.907   3.952   7.643 -1.1948 -0.7128 -1.0462
 3435SOL    HW221765   0.966   3.955   7.511  1.3539 -1.6508 -0.3564
 3436SOL     OW21766   3.644   3.587  12.360 -0.2573 -0.1761 -0.5943
 3436SOL    HW121767   3.620   3.670  12.402  3.4746  0.7340 -0.2742
 3436SOL    HW221768   3.699   3.545  12.426 -0.2755  0.7631  0.0158
 3437SOL     OW21769   1.615   2.538   6.796  0.1108  0.2628  0.4640
 3437SOL    HW121770   1.696   2.589   6.791 -0.2071  0.5808 -1.4533
 3437SOL    HW221771   1.598   2.524   6.703  0.7721  0.0627  0.3675
 3438SOL     OW21772   3.105   1.081  17.291  0.0806  0.0204  0.0865
 3438SOL    HW121773   3.050   1.003  17.282  0.1896 -0.1117  0.5978
 3438SOL    HW221774   3.045   1.145  17.330  1.6702 -0.3689  3.1758
 3439SOL     OW21775   2.553   1.635   9.301  0.2919 -0.3008 -0.2632
 3439SOL    HW121776   2.605   1.650   9.380  1.2036 -0.6202 -0.8017
 3439SOL    HW221777   2.476   1.601   9.347  0.0732 -0.6917 -0.9141
 3440SOL     OW21778   3.225   0.647  10.803 -0.2788  0.3499 -0.5776
 3440SOL    HW121779   3.252   0.662  10.894 -3.4247 -2.4268  0.8151
 3440SOL    HW221780   3.312   0.645  10.763 -0.6248 -2.3489 -1.1947
 3441SOL     OW21781   1.238   4.713   2.854  0.1619 -0.1104 -0.5365
 3441SOL    HW121782   1.165   4.678   2.801  2.2001 -0.4513 -3.1122
 3441SOL    HW221783   1.227   0.078   2.818  1.7725 -0.3956 -1.7080
 3442SOL     OW21784   3.893   3.340   0.628  0.4115  0.4286  0.4290
 3442SOL    HW121785   3.874   3.348   0.721  1.1596 -0.2739  0.6297
 3442SOL    HW221786   3.924   3.429   0.610 -0.1309  0.5382  0.0237
 3443SOL     OW21787   1.311   4.482  13.524 -0.0597  0.4933  0.1754
 3443SOL    HW121788   1.325   4.540  13.450  1.9398 -0.4959 -0.2220
 3443SOL    HW221789   1.303   4.395  13.484  0.4724 -0.5365  2.2979
 3444SOL     OW21790   0.030   4.175   3.498 -0.5068  0.2606  0.5446
 3444SOL    HW121791   0.044   4.104   3.562 -0.1423 -1.0021 -0.9264
 3444SOL    HW221792   0.090   4.237   3.539  0.8643  0.0409 -1.1003
 3445SOL     OW21793   1.698   4.096   4.315 -0.0158  0.6148 -0.0662
 3445SOL    HW121794   1.670   4.016   4.359 -1.7608  1.5684  0.6060
 3445SOL    HW221795   1.732   4.144   4.391 -0.4762  1.7341 -0.5591
 3446SOL     OW21796   3.454   1.216   7.124  0.3968  0.2380 -0.1587
 3446SOL    HW121797   3.503   1.134   7.124  0.2096  0.1383  1.5527
 3446SOL    HW221798   3.441   1.246   7.214  0.5307 -0.4281  0.0826
 3447SOL     OW21799   1.637   3.277   6.670  0.1348 -0.6045 -0.4774
 3447SOL    HW121800   1.604   3.208   6.612  1.5560  1.0347 -3.2126
 3447SOL    HW221801   1.686   3.334   6.610  0.9199 -0.2127  0.5378
 3448SOL     OW21802   1.614   2.143  12.014  0.4008  0.5764 -0.2757
 3448SOL    HW121803   1.593   2.230  11.980 -1.8601 -0.1291 -0.6806
 3448SOL    HW221804   1.546   2.084  11.983  0.9868 -0.6375  0.7551
 3449SOL     OW21805   2.184   4.291  11.056 -0.3994  0.6363 -0.1290
 3449SOL    HW121806   2.130   4.362  11.091 -1.2116 -1.2506  2.4032
 3449SOL    HW221807   2.151   4.276  10.967 -2.6432 -0.8184  0.9529
 3450SOL     OW21808   0.910   4.376   0.287 -0.9251  0.1392  0.1800
 3450SOL    HW121809   0.888   4.389   0.379  3.2597  0.7292  1.0798
 3450SOL    HW221810   0.851   4.302   0.270  0.6293 -1.5574  2.1179
 3451SOL     OW21811   4.496   3.940  15.103  0.0410 -0.0289 -0.1429
 3451SOL    HW121812   4.440   4.017  15.112  0.7024  0.3197  1.0388
 3451SOL    HW221813   4.545   3.963  15.024  2.6583  0.5361  1.6570
 3452SOL     OW21814   3.838   0.469   7.037  0.6650  0.8836 -0.0775
 3452SOL    HW121815   3.772   0.429   6.980 -0.2120  2.3674 -0.1143
 3452SOL    HW221816   3.830   0.415   7.115  0.0604 -2.9625 -2.7990
 3453SOL     OW21817   2.071   3.140  17.666  0.0984 -0.0533  0.8447
 3453SOL    HW121818   2.113   3.209  17.614  1.1028 -0.8693  0.5753
 3453SOL    HW221819   2.146   3.115   0.023  1.0693  2.7939  0.8501
 3454SOL     OW21820   4.270   4.391  16.947 -0.3729 -0.7054 -0.2413
 3454SOL    HW121821   4.241   4.482  16.945 -4.9965 -2.1575  0.3568
 3454SOL    HW221822   4.188   4.350  16.976 -0.5137  0.1389  0.5522
 3455SOL     OW21823   3.348   3.841   9.948  0.4281 -0.1366 -0.4599
 3455SOL    HW121824   3.349   3.820  10.041  1.4161  0.1380 -0.4109
 3455SOL    HW221825   3.429   3.803   9.916 -0.5397 -2.6155  0.0818
 3456SOL     OW21826   2.179   1.572   6.611  0.0213 -0.3205  0.1819
 3456SOL    HW121827   2.159   1.499   6.670 -2.6711  0.0048 -0.3219
 3456SOL    HW221828   2.095   1.618   6.606  1.0498  1.3392 -1.9879
 3457SOL     OW21829   4.200   0.794   3.958 -0.4405 -0.6089  0.2287
 3457SOL    HW121830   4.286   0.804   3.917 -0.0183  0.8287  1.4562
 3457SOL    HW221831   4.151   0.857   3.906  1.3234  1.2846  0.8894
 3458SOL     OW21832   3.742   4.081   9.146 -0.7315 -0.0735  0.6848
 3458SOL    HW121833   3.670   4.040   9.194 -1.4289 -1.5132 -1.5547
 3458SOL    HW221834   3.816   4.046   9.196 -0.1607 -0.0826 -0.1732
 3459SOL     OW21835   2.698   0.015  14.948 -0.8124  0.1523  0.4739
 3459SOL    HW121836   2.636   0.019  15.021  0.2009 -2.0896  1.4701
 3459SOL    HW221837   2.772   4.690  14.984  2.1079  2.8808 -1.9668
 3460SOL     OW21838   2.290   3.580  17.432  0.4148  0.1322  0.0383
 3460SOL    HW121839   2.310   3.609  17.343  0.5423 -1.5500 -0.4837
 3460SOL    HW221840   2.373   3.593  17.478  0.6495 -1.2028 -0.0250
 3461SOL     OW21841   4.431   3.056   0.716  0.1109 -0.1249  0.2529
 3461SOL    HW121842   4.363   3.023   0.776  0.8707  1.6343  2.0930
 3461SOL    HW221843   4.416   3.006   0.636  2.9339  0.4106 -0.5873
 3462SOL     OW21844   0.418   3.876  17.590 -0.1991  0.5949 -0.6961
 3462SOL    HW121845   0.488   3.912  17.644 -2.1612  4.6781 -0.8478
 3462SOL    HW221846   0.428   3.782  17.607 -0.2461  0.7335  0.1279
 3463SOL     OW21847   1.990   4.352   6.751 -0.0681  0.2781 -0.5321
 3463SOL    HW121848   1.978   4.440   6.786  0.2670  0.3548 -0.6188
 3463SOL    HW221849   2.030   4.299   6.819 -1.5439  0.1335  0.2406
 3464SOL     OW21850   4.565   1.021   1.135  0.5036  0.0524 -0.1640
 3464SOL    HW121851   4.483   1.038   1.088 -0.1670 -1.3117  0.4922
 3464SOL    HW221852   4.609   1.106   1.129  2.9231 -1.1724  0.5502
 3465SOL     OW21853   1.079   2.317   2.396  0.0369 -0.8948 -0.0275
 3465SOL    HW121854   1.118   2.309   2.483 -0.5916 -1.9334  0.1663
 3465SOL    HW221855   1.024   2.238   2.391 -0.9322 -0.2383  0.2053
 3466SOL     OW21856   4.137   2.165   0.908  0.7489  0.2495 -0.2695
 3466SOL    HW121857   4.201   2.123   0.965  0.2032 -0.9413 -0.5479
 3466SOL    HW221858   4.178   2.137   0.826 -1.0836 -3.5070  0.1032
 3467SOL     OW21859   4.197   4.513   3.527  0.0421  0.4564  0.6328
 3467SOL    HW121860   4.278   4.563   3.543  0.4423  0.4442 -1.3588
 3467SOL    HW221861   4.193   4.463   3.609  2.8631  1.9739  1.7087
 3468SOL     OW21862   0.700   2.299   8.865  0.1734  0.0181 -0.0205
 3468SOL    HW121863   0.717   2.389   8.894  0.2397 -0.3488  1.0795
 3468SOL    HW221864   0.620   2.310   8.812  0.5279  0.9176 -0.3698
 3469SOL     OW21865   3.741   3.106   2.436 -0.1097  0.0250  0.2026
 3469SOL    HW121866   3.717   3.033   2.494  0.1822 -0.3193 -0.1087
 3469SOL    HW221867   3.680   3.173   2.468 -1.7315 -1.5081  0.3114
 3470SOL     OW21868   0.333   4.207   0.729 -0.1168 -0.0487 -0.8756
 3470SOL    HW121869   0.284   4.131   0.760 -1.3036  0.9204 -0.3694
 3470SOL    HW221870   0.424   4.178   0.731 -0.6672 -1.5974  1.8043
 3471SOL     OW21871   2.306   4.372   6.184 -0.2894  0.5152  0.2433
 3471SOL    HW121872   2.294   4.279   6.166 -0.5189  1.0747 -2.5240
 3471SOL    HW221873   2.222   4.413   6.166 -2.4171 -3.1854  1.7715
 3472SOL     OW21874   4.505   2.639   0.539 -0.3084  0.0319 -0.4511
 3472SOL    HW121875   4.434   2.703   0.536  2.2610  2.8747  0.4420
 3472SOL    HW221876   4.505   2.623   0.633 -1.9174  2.6311 -0.0181
 3473SOL     OW21877   1.533   2.482   4.397  0.0438  0.1547  0.4268
 3473SOL    HW121878   1.454   2.531   4.376 -0.1220  0.0450  0.7822
 3473SOL    HW221879   1.596   2.534   4.348  1.3684 -0.3233  1.6066
 3474SOL     OW21880   3.921   0.267   9.472 -0.4643  0.0054 -0.3039
 3474SOL    HW121881   3.971   0.330   9.421 -0.0378  0.2689  0.4386
 3474SOL    HW221882   3.962   0.264   9.558 -0.0703 -1.3909 -0.5413
 3475SOL     OW21883   2.113   0.187   6.660  1.0100 -0.0254 -0.0582
 3475SOL    HW121884   2.143   0.270   6.624 -0.3626  0.8497  0.8001
 3475SOL    HW221885   2.056   0.208   6.735 -0.7649 -2.5085 -0.7346
 3476SOL     OW21886   0.370   1.378   6.330  0.3103 -0.2878 -0.0531
 3476SOL    HW121887   0.419   1.313   6.379  1.2169  2.2447  2.3912
 3476SOL    HW221888   0.423   1.456   6.316 -0.0173  0.2437  1.7163
 3477SOL     OW21889   4.247   4.658   8.746 -0.0453 -0.5825 -0.3112
 3477SOL    HW121890   4.208   4.575   8.772  2.2901 -1.2002  1.2268
 3477SOL    HW221891   4.191   4.713   8.802  2.6769  1.6000  0.2559
 3478SOL     OW21892   2.532   3.643   3.759  0.4746  0.6267  0.0546
 3478SOL    HW121893   2.576   3.589   3.695  0.7878 -0.5334  1.2598
 3478SOL    HW221894   2.598   3.662   3.826 -0.7808 -0.1169  1.4990
 3479SOL     OW21895   1.814   1.948   1.980  0.3314  0.9371 -0.2333
 3479SOL    HW121896   1.754   1.952   1.905 -1.4014 -2.5254  0.9377
 3479SOL    HW221897   1.820   1.854   1.998  0.2331  2.0173  5.3629
 3480SOL     OW21898   3.328   3.519   2.800  0.4589 -0.2282 -0.2121
 3480SOL    HW121899   3.296   3.543   2.887 -2.2370 -1.7383 -0.7743
 3480SOL    HW221900   3.311   3.596   2.746  1.3509 -0.7823 -1.2814
 3481SOL     OW21901   4.349   1.023   0.976 -0.0021  0.2419  0.6372
 3481SOL    HW121902   4.268   1.000   1.021  1.1964 -1.4662  1.9623
 3481SOL    HW221903   4.341   0.982   0.890  0.0918 -0.0088  0.7467
 3482SOL     OW21904   1.854   2.308  10.208  0.0442 -0.9631 -0.7252
 3482SOL    HW121905   1.834   2.334  10.118  0.2094 -2.6872 -1.2549
 3482SOL    HW221906   1.884   2.218  10.210  1.5609 -0.4212  1.1146
 3483SOL     OW21907   0.735   0.550   2.825  0.4817 -0.4483  0.4251
 3483SOL    HW121908   0.682   0.516   2.897  1.3008 -0.0706  1.2055
 3483SOL    HW221909   0.823   0.537   2.860  0.8512 -0.6541 -0.5696
 3484SOL     OW21910   2.198   3.535  11.048 -0.9174 -0.2502 -0.0236
 3484SOL    HW121911   2.123   3.589  11.023 -1.7274 -0.9212  0.9668
 3484SOL    HW221912   2.164   3.498  11.130 -2.5368  0.4742 -0.3750
 3485SOL     OW21913   1.281   1.829  16.713 -0.2310 -0.1119  0.6370
 3485SOL    HW121914   1.194   1.806  16.745 -0.1736 -0.0890  0.8099
 3485SOL    HW221915   1.332   1.783  16.779  0.1840  1.3159  1.3194
 3486SOL     OW21916   3.038   2.382   0.441  0.6043  0.7737  0.4011
 3486SOL    HW121917   3.049   2.437   0.364  0.1022 -0.6987 -0.7101
 3486SOL    HW221918   3.123   2.358   0.478  0.7223  0.4402 -0.0935
 3487SOL     OW21919   4.157   2.747   5.521  0.1660  0.1880  0.2699
 3487SOL    HW121920   4.168   2.701   5.438  0.6327  2.9650 -1.2008
 3487SOL    HW221921   4.227   2.812   5.512  2.3797 -2.0513  1.6598
 3488SOL     OW21922   2.402   3.969  13.911  0.1043  0.1617 -0.0102
 3488SOL    HW121923   2.311   3.938  13.912 -0.5880  2.2170 -0.5292
 3488SOL    HW221924   2.401   4.037  13.844  1.9647  0.9124  0.7238
 3489SOL     OW21925   2.080   2.919   6.672 -0.0433 -0.4046  0.2085
 3489SOL    HW121926   2.163   2.961   6.692  0.9162 -1.8570 -0.7080
 3489SOL    HW221927   2.070   2.888   6.762 -0.0606  1.0129  0.6897
 3490SOL     OW21928   3.123   4.243   8.095 -0.1050  0.1912  0.1123
 3490SOL    HW121929   3.132   4.150   8.115  1.3431  0.3368  0.1552
 3490SOL    HW221930   3.214   4.266   8.076  0.9599 -2.5200  1.9875
 3491SOL     OW21931   0.568   2.439   6.037 -0.0574  0.4454  0.4400
 3491SOL    HW121932   0.609   2.389   5.967  1.4329  2.4499 -0.1051
 3491SOL    HW221933   0.625   2.516   6.038 -1.2039  1.3022 -1.2912
 3492SOL     OW21934   2.950   4.082   7.142 -0.4632 -0.1591  0.1998
 3492SOL    HW121935   2.893   4.006   7.145 -0.1771 -0.4169 -0.9507
 3492SOL    HW221936   2.926   4.125   7.060 -1.0467 -4.5626 -1.8893
 3493SOL     OW21937   2.738   2.723  11.333  0.1842  0.6749  0.1630
 3493SOL    HW121938   2.728   2.765  11.247 -2.1463 -0.3406 -0.0594
 3493SOL    HW221939   2.743   2.631  11.306  1.8867  1.4027 -2.0709
 3494SOL     OW21940   0.416   2.313   6.202  0.3170  0.0021  0.1544
 3494SOL    HW121941   0.478   2.355   6.143  0.9047 -0.9014  0.1143
 3494SOL    HW221942   0.395   2.234   6.151  2.6308  0.0405 -0.8846
 3495SOL     OW21943   2.018   3.626   5.427  0.4037  0.0228 -0.1442
 3495SOL    HW121944   2.070   3.662   5.356  0.6456 -2.2548 -1.1077
 3495SOL    HW221945   1.951   3.693   5.438  0.5707 -0.2835  2.8340
 3496SOL     OW21946   1.921   2.636  16.591 -0.3194 -0.5182 -0.4421
 3496SOL    HW121947   1.905   2.577  16.665  0.4085  1.9610  1.6767
 3496SOL    HW221948   1.898   2.724  16.620  0.7062 -0.4643  0.2396
 3497SOL     OW21949   3.449   0.225   5.617  0.0138  0.7976 -0.4386
 3497SOL    HW121950   3.370   0.219   5.671 -0.0049  1.7406 -0.3597
 3497SOL    HW221951   3.428   0.157   5.554 -0.1484  0.8444 -0.4348
 3498SOL     OW21952   3.424   4.635   9.392 -0.4776 -0.2213  0.5181
 3498SOL    HW121953   3.406   4.710   9.448  0.0915  1.6132 -1.7307
 3498SOL    HW221954   3.369   4.566   9.429  0.5300 -0.5898  1.3203
 3499SOL     OW21955   2.400   4.481  16.695 -0.0014 -0.2744 -0.2332
 3499SOL    HW121956   2.357   4.441  16.771  1.7896 -0.5814  0.5985
 3499SOL    HW221957   2.438   4.561  16.732  0.1994 -0.2815 -0.4292
 3500SOL     OW21958   3.532   4.533   2.747  0.3751 -0.2327 -0.4293
 3500SOL    HW121959   3.531   4.611   2.692 -1.6037  0.1058  0.0790
 3500SOL    HW221960   3.499   4.574   2.827  0.6497 -0.7887 -0.0266
 3501SOL     OW21961   3.804   1.860   9.577 -0.0924  0.3128 -0.0831
 3501SOL    HW121962   3.857   1.888   9.652 -0.8675  2.2307 -0.2525
 3501SOL    HW221963   3.779   1.940   9.531  0.5200  0.3943 -0.2718
 3502SOL     OW21964   1.970   1.842   8.089  0.0287  0.0196  0.6440
 3502SOL    HW121965   1.994   1.832   8.181  1.3147  0.1977  0.3335
 3502SOL    HW221966   1.991   1.751   8.066  0.3430  0.7333 -1.8507
 3503SOL     OW21967   1.065   1.062  16.303 -0.2571 -0.4860  0.2186
 3503SOL    HW121968   1.054   1.045  16.209 -1.3782  2.2844 -0.1441
 3503SOL    HW221969   1.002   0.997  16.334 -0.0956 -0.2332  1.0825
 3504SOL     OW21970   4.139   2.536   1.362 -0.3623  0.1803  0.1560
 3504SOL    HW121971   4.163   2.622   1.326 -0.5093 -0.0116 -0.3985
 3504SOL    HW221972   4.211   2.474   1.351  0.8046  1.4164  0.8817
 3505SOL     OW21973   3.565   3.637   1.535  0.2771  0.8516 -0.2093
 3505SOL    HW121974   3.628   3.566   1.544  1.1400  1.1376 -3.9835
 3505SOL    HW221975   3.500   3.597   1.593 -0.8834  0.8126 -1.5389
 3506SOL     OW21976   1.875   2.757  10.797 -0.2473  0.5236  0.3548
 3506SOL    HW121977   1.880   2.821  10.727 -0.0315 -0.7333 -0.7763
 3506SOL    HW221978   1.826   2.683  10.761  0.7035  0.4212 -0.7325
 3507SOL     OW21979   1.746   2.267   6.312 -0.1838 -0.0519 -0.0000
 3507SOL    HW121980   1.840   2.260   6.291  0.0063 -3.3198  1.9411
 3507SOL    HW221981   1.713   2.239   6.227 -2.1172 -0.9886  1.0534
 3508SOL     OW21982   1.462   0.083   3.866  0.6243  0.5214  0.6823
 3508SOL    HW121983   1.504   0.078   3.780  0.6230  0.9389  0.6610
 3508SOL    HW221984   1.481   0.170   3.900 -0.7090  0.5856  1.2685
 3509SOL     OW21985   4.717   3.021   1.549  0.6663  0.2768  0.1360
 3509SOL    HW121986   4.713   3.046   1.456 -1.3170 -1.9727 -0.4106
 3509SOL    HW221987   4.624   2.997   1.560  1.4952 -2.8130  0.4044
 3510SOL     OW21988   0.703   2.522   0.717 -0.4324  0.2288  0.2298
 3510SOL    HW121989   0.645   2.534   0.792  0.2210 -2.7184  1.2132
 3510SOL    HW221990   0.769   2.586   0.743  0.9890 -0.7027 -1.1561
 3511SOL     OW21991   2.780   2.269   0.461  0.9288 -0.3634  0.4883
 3511SOL    HW121992   2.837   2.346   0.456 -0.7615  0.8621  0.3383
 3511SOL    HW221993   2.847   2.201   0.474  1.8905  0.3905 -0.5499
 3512SOL     OW21994   2.232   2.147   0.458  0.3780 -0.3606 -0.1096
 3512SOL    HW121995   2.139   2.127   0.465  0.7464 -2.2380 -0.7576
 3512SOL    HW221996   2.228   2.232   0.413 -1.0312 -0.3645  0.0256
 3513SOL     OW21997   0.759   1.374   6.224 -0.0023  0.1433  0.1799
 3513SOL    HW121998   0.779   1.395   6.133 -1.3296 -0.8559 -0.3420
 3513SOL    HW221999   0.833   1.411   6.273  0.1269 -1.4104  1.1717
 3514SOL     OW22000   4.139   2.723   5.231 -0.0360  0.7979  0.1540
 3514SOL    HW122001   4.188   2.649   5.195 -2.3004  0.2906 -1.8982
 3514SOL    HW222002   4.189   2.795   5.194 -2.6760  0.8396 -3.2859
 3515SOL     OW22003   2.362   2.437  13.622 -0.3076  0.8104 -0.6084
 3515SOL    HW122004   2.449   2.433  13.662  0.0301  1.6286 -1.2541
 3515SOL    HW222005   2.368   2.357  13.569 -2.1251 -0.8254  1.6383
 3516SOL     OW22006   1.127   4.423   9.070  0.0132  0.1098  0.2594
 3516SOL    HW122007   1.158   4.436   8.980  0.1492  1.0618  0.4437
 3516SOL    HW222008   1.152   4.333   9.089  0.9410  0.5706  1.1978
 3517SOL     OW22009   4.112   1.828   4.218  0.2907 -0.0269 -0.0274
 3517SOL    HW122010   4.093   1.922   4.216  2.8361  0.4780 -0.5228
 3517SOL    HW222011   4.068   1.790   4.142  0.7014  0.5437 -0.5421
 3518SOL     OW22012   0.735   0.327   4.078  0.6745 -0.2208 -0.5357
 3518SOL    HW122013   0.760   0.351   3.989  2.2355 -0.5795 -0.2009
 3518SOL    HW222014   0.769   0.237   4.077  0.0652 -0.4574 -0.1178
 3519SOL     OW22015   2.595   4.440   8.714 -0.3453  0.2399 -0.4041
 3519SOL    HW122016   2.686   4.418   8.734  0.3948  0.5719 -3.3023
 3519SOL    HW222017   2.556   4.442   8.801 -2.0811 -1.9687 -1.1174
 3520SOL     OW22018   1.178   1.605   6.929 -0.2849 -0.0428 -0.5068
 3520SOL    HW122019   1.188   1.646   7.015  0.6618 -0.0043 -0.6352
 3520SOL    HW222020   1.087   1.578   6.936 -0.0670 -0.2177  1.7110
 3521SOL     OW22021   3.965   1.319  10.354  0.4327  0.4405 -0.2369
 3521SOL    HW122022   3.974   1.257  10.427 -1.8702  0.8457  0.3782
 3521SOL    HW222023   3.910   1.383  10.399  0.1312 -0.8155  1.1880
 3522SOL     OW22024   0.466   3.116   8.469 -0.2815 -0.5860  0.1677
 3522SOL    HW122025   0.450   3.127   8.563  0.3026 -0.8344  0.2940
 3522SOL    HW222026   0.460   3.207   8.442 -0.1523 -0.5976  0.0984
 3523SOL     OW22027   4.172   4.188   2.652 -0.4897 -0.3586  0.4611
 3523SOL    HW122028   4.163   4.282   2.664 -2.0704 -0.2367 -1.8010
 3523SOL    HW222029   4.188   4.181   2.558  2.1766  1.0693  0.8082
 3524SOL     OW22030   0.308   3.684   3.582  0.5342  0.2186  0.7768
 3524SOL    HW122031   0.341   3.636   3.659 -2.5700 -2.1702  0.6293
 3524SOL    HW222032   0.384   3.743   3.582 -0.4447  1.4149 -3.4350
 3525SOL     OW22033   4.497   2.416   0.773  0.5433  0.5594  0.6211
 3525SOL    HW122034   4.588   2.446   0.774  1.1943 -1.4004  0.2797
 3525SOL    HW222035   4.443   2.492   0.797  1.0398  1.3091 -0.6339
 3526SOL     OW22036   0.110   0.801  17.102  0.0727 -0.6790  0.1525
 3526SOL    HW122037   0.145   0.769  17.019 -0.7348 -0.6627 -0.2012
 3526SOL    HW222038   0.116   0.894  17.083 -2.5189 -0.0720  2.2581
 3527SOL     OW22039   4.720   3.655   6.981  0.2335 -0.0549 -0.4475
 3527SOL    HW122040   0.038   3.571   6.961  0.5507 -0.1765  0.7593
 3527SOL    HW222041   4.638   3.646   6.933 -0.8289  0.7012  1.2353
 3528SOL     OW22042   0.718   2.716   0.288 -0.0690 -0.0244  0.0562
 3528SOL    HW122043   0.762   2.751   0.210  1.3120 -0.4931  0.6322
 3528SOL    HW222044   0.747   2.764   0.365 -0.1893  1.1062 -0.6051
 3529SOL     OW22045   1.202   0.750   7.093  0.0157 -0.3638 -0.0017
 3529SOL    HW122046   1.245   0.817   7.145  0.7581 -0.5082 -0.4163
 3529SOL    HW222047   1.243   0.751   7.006  0.7807 -1.1529  0.3430
 3530SOL     OW22048   2.241   4.647  10.955 -0.3395 -0.0067 -0.6436
 3530SOL    HW122049   2.194   4.579  11.002 -0.7503 -0.0548 -1.1179
 3530SOL    HW222050   2.210   4.720  11.008  0.7669  0.5312 -0.7312
 3531SOL     OW22051   2.334   4.034   9.118  0.0453 -0.0783 -0.2052
 3531SOL    HW122052   2.275   4.092   9.168  1.5796  0.6839  0.7213
 3531SOL    HW222053   2.275   3.961   9.102  1.4811 -1.1403 -0.6013
 3532SOL     OW22054   4.550   1.638  12.148  0.5217  0.0361  0.1248
 3532SOL    HW122055   4.633   1.596  12.125  0.4954  0.4595 -0.7267
 3532SOL    HW222056   4.535   1.598  12.234 -0.3587 -1.5008 -0.7591
 3533SOL     OW22057   4.222   0.192   8.588 -0.3971  0.3733  0.4224
 3533SOL    HW122058   4.154   0.125   8.586  1.3769 -1.4667  2.0858
 3533SOL    HW222059   4.263   0.180   8.673  1.1089  0.7395 -0.2552
 3534SOL     OW22060   2.143   3.925   5.925  0.2917  0.1708  0.1296
 3534SOL    HW122061   2.186   3.945   5.841  1.5281 -0.3904  0.6227
 3534SOL    HW222062   2.053   3.918   5.893 -0.2983 -1.7923  2.2662
 3535SOL     OW22063   1.758   4.242   7.094  0.3260 -0.0067  0.1759
 3535SOL    HW122064   1.739   4.163   7.044  2.0177 -0.0394 -0.4288
 3535SOL    HW222065   1.792   4.204   7.175  1.2695 -0.0011 -0.2204
 3536SOL     OW22066   1.960   3.776   3.322  0.3975 -0.1494  0.0771
 3536SOL    HW122067   2.008   3.807   3.245  0.1658 -0.1104 -0.0518
 3536SOL    HW222068   2.017   3.712   3.366 -0.8369 -1.4915 -0.2524
 3537SOL     OW22069   3.576   1.681   2.588 -0.2236 -0.2887 -0.4811
 3537SOL    HW122070   3.542   1.770   2.574  0.7800  0.1285 -0.2744
 3537SOL    HW222071   3.494   1.635   2.606 -0.1546  0.7288  2.4058
 3538SOL     OW22072   1.707   2.162   8.820  0.0550  0.7556 -0.1972
 3538SOL    HW122073   1.675   2.197   8.903  1.1593  0.5076  0.3389
 3538SOL    HW222074   1.623   2.153   8.775 -0.6295  0.3069  1.1572
 3539SOL     OW22075   0.954   2.533   6.114  0.6081  0.4963  0.0165
 3539SOL    HW122076   0.937   2.441   6.130  0.5768  0.3476 -0.8488
 3539SOL    HW222077   1.001   2.559   6.193  1.9717 -2.1561  0.0429
 3540SOL     OW22078   2.799   1.082  13.432  0.2013 -0.7325 -0.5996
 3540SOL    HW122079   2.729   1.079  13.497 -0.8531  1.2133 -1.6788
 3540SOL    HW222080   2.744   1.102  13.356 -1.2813  0.9930  0.9420
 3541SOL     OW22081   2.221   2.652   9.114  0.0639 -0.0141 -0.2740
 3541SOL    HW122082   2.141   2.679   9.068 -0.8227 -2.4169 -0.1851
 3541SOL    HW222083   2.180   2.638   9.199 -0.7074 -0.1878 -0.6761
 3542SOL     OW22084   4.622   0.816   7.497 -0.7892 -0.2783 -0.3027
 3542SOL    HW122085   4.704   0.818   7.447  0.2279 -0.7282  1.3380
 3542SOL    HW222086   4.657   0.776   7.577 -0.7615  2.8091  1.2569
 3543SOL     OW22087   2.392   2.353  16.705 -0.0903  0.8297  0.1627
 3543SOL    HW122088   2.346   2.269  16.693 -0.6162  0.9729  1.1843
 3543SOL    HW222089   2.477   2.343  16.662 -0.8033 -1.0068 -0.8161
 3544SOL     OW22090   2.243   3.974   8.645 -0.3190  0.2564  0.3195
 3544SOL    HW122091   2.320   3.920   8.625 -0.5374  0.4863 -1.1362
 3544SOL    HW222092   2.287   4.048   8.688 -1.9118  0.7473  1.0863
 3545SOL     OW22093   2.659   3.725   6.558 -0.0567  0.1510 -0.1208
 3545SOL    HW122094   2.621   3.639   6.540 -0.6439  0.4077 -0.0896
 3545SOL    HW222095   2.750   3.704   6.535  0.2747  2.4145 -0.8848
 3546SOL     OW22096   4.127   0.283  11.140 -0.2112 -0.3426  0.0621
 3546SOL    HW122097   4.069   0.289  11.216  0.1697 -1.0693  0.4128
 3546SOL    HW222098   4.093   0.224  11.073  0.5488 -0.6253 -0.0800
 3547SOL     OW22099   1.235   3.069  11.443 -0.5248  0.9319  0.5491
 3547SOL    HW122100   1.311   3.106  11.488  0.3940 -1.0287  0.5909
 3547SOL    HW222101   1.238   3.117  11.360 -0.3127  0.6038  0.3684
 3548SOL     OW22102   4.251   0.397  15.901  0.6249  0.0234 -0.1794
 3548SOL    HW122103   4.342   0.380  15.923  0.1629 -1.0735  0.8538
 3548SOL    HW222104   4.203   0.355  15.972 -1.5162  1.0838 -0.9966
 3549SOL     OW22105   0.030   1.627   7.105 -0.1181  0.1553 -0.8778
 3549SOL    HW122106   0.016   1.560   7.038 -1.0699 -0.4652 -0.0626
 3549SOL    HW222107   4.677   1.598   7.155 -1.2325  1.9756 -1.5658
 3550SOL     OW22108   0.889   3.011  11.253  0.2733  0.6000 -0.2591
 3550SOL    HW122109   0.838   3.089  11.232 -0.4088 -0.1727 -1.4696
 3550SOL    HW222110   0.860   2.995  11.343 -1.4227  4.0353 -0.1838
 3551SOL     OW22111   1.538   0.709   4.200 -0.2496  0.3332 -0.1222
 3551SOL    HW122112   1.443   0.708   4.204 -0.2454  1.3074  0.0673
 3551SOL    HW222113   1.548   0.785   4.256  1.1896  0.2850 -0.3161
 3552SOL     OW22114   3.957   0.854   2.471  0.0405 -0.1560 -0.2475
 3552SOL    HW122115   4.018   0.784   2.494 -0.0144  0.4140  1.5962
 3552SOL    HW222116   3.882   0.808   2.432 -0.5115  1.1684 -0.7547
 3553SOL     OW22117   1.768   1.893  12.268 -0.0147 -0.3864  0.3945
 3553SOL    HW122118   1.839   1.868  12.208  0.7107  2.3259  0.1420
 3553SOL    HW222119   1.755   1.985  12.247 -1.8140 -0.3837  1.6209
 3554SOL     OW22120   3.284   3.102   4.269  0.2544 -0.5491  0.1015
 3554SOL    HW122121   3.320   3.013   4.263 -2.0243 -1.4515 -0.2657
 3554SOL    HW222122   3.238   3.094   4.353  0.3144 -1.4205  0.0537
 3555SOL     OW22123   3.641   3.205  15.569  0.4147 -0.5783  0.2118
 3555SOL    HW122124   3.597   3.193  15.484  0.0367 -0.5614  0.4066
 3555SOL    HW222125   3.587   3.140  15.614 -1.3617  1.5111  1.1134
 3556SOL     OW22126   3.096   2.714   4.534 -0.6413 -0.1055 -0.2486
 3556SOL    HW122127   3.078   2.757   4.451  1.1753  2.2912  0.5555
 3556SOL    HW222128   3.048   2.774   4.592 -0.8426 -1.3375  0.8610
 3557SOL     OW22129   3.850   1.758   0.761 -0.3358  0.0159 -0.0832
 3557SOL    HW122130   3.836   1.843   0.803  3.4161 -0.0544  1.2411
 3557SOL    HW222131   3.920   1.774   0.698  0.2223 -0.9855  0.2858
 3558SOL     OW22132   3.167   3.438   7.512  0.3610 -0.4822 -0.3565
 3558SOL    HW122133   3.145   3.352   7.478 -2.7317  0.2426 -0.1788
 3558SOL    HW222134   3.258   3.452   7.487  1.0409 -2.4304  0.9890
 3559SOL     OW22135   3.949   1.185   2.177 -0.3123  0.1847 -0.8379
 3559SOL    HW122136   3.867   1.225   2.207 -1.2174 -1.9150 -0.4692
 3559SOL    HW222137   3.945   1.196   2.082  0.5413  0.8362 -0.7933
 3560SOL     OW22138   0.462   0.187   5.868 -0.6737  0.4474 -0.0474
 3560SOL    HW122139   0.480   0.136   5.947  0.8355 -1.5836 -1.7270
 3560SOL    HW222140   0.407   0.126   5.820 -1.2979  0.9723 -0.0033
 3561SOL     OW22141   3.389   3.488   1.104  0.3278 -0.1757  0.3779
 3561SOL    HW122142   3.338   3.447   1.174  1.0406  0.4053  1.2207
 3561SOL    HW222143   3.470   3.500   1.153  0.1266 -1.5265  1.0399
 3562SOL     OW22144   2.168   3.559   4.576  0.4635  0.0621  0.2999
 3562SOL    HW122145   2.119   3.477   4.565  1.7967 -0.4532 -1.6100
 3562SOL    HW222146   2.243   3.558   4.517  2.3618  0.5406  2.7127
 3563SOL     OW22147   2.161   2.362  12.105  0.1707 -0.0921  0.1191
 3563SOL    HW122148   2.220   2.300  12.061  0.1120  0.7819 -1.1901
 3563SOL    HW222149   2.214   2.385  12.182 -1.1840  0.8423  0.7578
 3564SOL     OW22150   3.934   3.746   9.075 -0.1116 -0.2341 -0.0853
 3564SOL    HW122151   3.929   3.830   9.121 -0.7469  0.1486 -0.8548
 3564SOL    HW222152   3.848   3.711   9.095 -1.3236  2.5816 -0.3501
 3565SOL     OW22153   4.529   1.150   8.471 -0.1257  0.1209 -0.2172
 3565SOL    HW122154   4.572   1.208   8.532 -0.6070  0.3592 -0.1000
 3565SOL    HW222155   4.447   1.121   8.511  1.9905 -2.1933  2.3487
 3566SOL     OW22156   1.323   3.320   6.604  0.4297  0.1011 -0.0914
 3566SOL    HW122157   1.269   3.258   6.653  0.9783  0.2657  0.7221
 3566SOL    HW222158   1.397   3.266   6.577 -0.7197 -2.1439  1.2216
 3567SOL     OW22159   4.048   1.354   2.587 -0.4872  0.0060  0.7009
 3567SOL    HW122160   4.021   1.288   2.524  3.1471 -1.9241  1.1560
 3567SOL    HW222161   3.962   1.385   2.616 -1.3571 -0.5851 -1.2898
 3568SOL     OW22162   0.356   4.610   1.469  0.6399  0.5237  0.0587
 3568SOL    HW122163   0.347   4.689   1.416  0.2224  1.5691  1.6767
 3568SOL    HW222164   0.322   4.634   1.556  1.7501  0.0033  0.6364
 3569SOL     OW22165   4.451   2.037   3.047 -0.2825 -0.6295  0.3531
 3569SOL    HW122166   4.507   2.111   3.026 -1.0908 -0.0039  0.4007
 3569SOL    HW222167   4.359   2.061   3.036  0.0133 -0.8991 -2.7152
 3570SOL     OW22168   1.588   1.886  11.172 -0.1694 -0.0507 -0.2988
 3570SOL    HW122169   1.675   1.887  11.133 -0.0973 -0.8395 -0.1555
 3570SOL    HW222170   1.604   1.828  11.247 -1.0380 -0.1161 -0.1671
 3571SOL     OW22171   1.517   2.053  16.556 -0.1935  0.1338 -0.1958
 3571SOL    HW122172   1.546   2.111  16.627 -0.2927 -0.1835  0.1067
 3571SOL    HW222173   1.599   2.012  16.529  1.0884  3.5162 -1.4006
 3572SOL     OW22174   1.149   0.763  15.031  0.0182  0.2998 -0.1932
 3572SOL    HW122175   1.092   0.826  14.987 -1.9356 -0.6194  1.0230
 3572SOL    HW222176   1.111   0.685  14.989 -0.5864  0.4431  0.0931
 3573SOL     OW22177   0.466   3.536  16.607  0.4275  0.0103 -0.7148
 3573SOL    HW122178   0.449   3.497  16.521 -1.6050 -2.1915  0.7151
 3573SOL    HW222179   0.559   3.515  16.618 -0.2108 -4.2648 -3.2509
 3574SOL     OW22180   1.358   1.078   1.824 -0.0527  0.1571  0.3037
 3574SOL    HW122181   1.451   1.097   1.835  0.4947 -2.0051 -0.5821
 3574SOL    HW222182   1.373   0.986   1.802  0.5293  0.0267  1.2603
 3575SOL     OW22183   1.321   1.204   6.722 -0.4191  0.9019  0.2472
 3575SOL    HW122184   1.340   1.275   6.661  0.2397  0.9889  0.5613
 3575SOL    HW222185   1.234   1.230   6.754 -0.2257  0.9160  0.7550
 3576SOL     OW22186   4.538   3.092  11.930 -0.4753 -1.1453 -0.4907
 3576SOL    HW122187   4.609   3.028  11.919  1.2009  0.4397  1.0737
 3576SOL    HW222188   4.588   3.174  11.933 -1.6911 -0.4109 -0.2093
 3577SOL     OW22189   0.303   2.704   0.190 -0.2668 -0.4113  0.4585
 3577SOL    HW122190   0.333   2.793   0.205  1.6560 -0.7169 -1.3784
 3577SOL    HW222191   0.209   2.713   0.182 -0.5005 -3.3236 -0.1736
 3578SOL     OW22192   3.769   1.340   8.384  0.2696  0.0139 -0.5094
 3578SOL    HW122193   3.804   1.424   8.354  1.9014 -1.0577 -1.5855
 3578SOL    HW222194   3.679   1.345   8.351  0.4206  0.7742 -0.8093
 3579SOL     OW22195   2.616   4.669  16.769  1.0235 -0.5429  1.0740
 3579SOL    HW122196   2.710   4.683  16.775  1.2719 -1.0980 -1.8269
 3579SOL    HW222197   2.619   4.603  16.700  1.4922  1.3055 -0.6661
 3580SOL     OW22198   3.816   3.633   3.640  0.0104 -0.1363 -0.4099
 3580SOL    HW122199   3.809   3.654   3.547 -2.1302  1.1414  0.0513
 3580SOL    HW222200   3.747   3.680   3.686  1.7297 -0.0880  2.1214
 3581SOL     OW22201   0.635   4.209   5.217  0.0812  0.3807  0.0410
 3581SOL    HW122202   0.658   4.243   5.304 -2.0545 -0.3502  0.8901
 3581SOL    HW222203   0.676   4.272   5.157 -0.0210  1.8535  1.4971
 3582SOL     OW22204   1.105   1.999   5.284  0.2913 -0.7886 -0.6240
 3582SOL    HW122205   1.193   2.036   5.274  0.0123  0.1834  0.5287
 3582SOL    HW222206   1.093   1.950   5.203 -0.9970  2.7897 -2.6498
 3583SOL     OW22207   1.532   2.886   9.049 -0.1426 -0.2773  0.3659
 3583SOL    HW122208   1.527   2.885   8.953 -0.3470 -1.6323  0.3964
 3583SOL    HW222209   1.566   2.973   9.067  1.1833 -0.4330 -1.4092
 3584SOL     OW22210   2.888   4.595  14.227  0.1138 -0.0834 -0.2895
 3584SOL    HW122211   2.969   4.546  14.237 -0.0076 -0.2381 -0.0642
 3584SOL    HW222212   2.844   4.579  14.143 -0.6817 -0.5925  0.2288
 3585SOL     OW22213   1.256   3.370   4.776 -0.2551  0.0214  0.2453
 3585SOL    HW122214   1.177   3.421   4.792 -0.3059 -0.0566  0.2404
 3585SOL    HW222215   1.326   3.420   4.819 -2.2618  0.0541  3.4952
 3586SOL     OW22216   0.618   0.889   7.409 -0.0180  0.2362 -0.1709
 3586SOL    HW122217   0.525   0.884   7.385  0.0142 -1.3227  0.0377
 3586SOL    HW222218   0.638   0.953   7.341 -2.4938  0.4970 -0.6781
 3587SOL     OW22219   1.202   1.845  15.138 -0.1171 -0.0800 -0.5865
 3587SOL    HW122220   1.163   1.798  15.211  1.2775 -0.8000 -0.2898
 3587SOL    HW222221   1.264   1.784  15.097 -1.0272 -1.9641  0.8426
 3588SOL     OW22222   0.021   4.701   4.302 -0.0688  0.5994 -0.2913
 3588SOL    HW122223   4.665   0.024   4.276 -1.0324 -0.4126  0.7925
 3588SOL    HW222224   0.036   0.030   4.380  0.3727  1.6712 -1.1052
 3589SOL     OW22225   4.707   2.590   8.095  0.3556  0.1778  0.6515
 3589SOL    HW122226   4.663   2.557   8.173  2.4208  1.0516  2.2064
 3589SOL    HW222227   0.040   2.515   8.077 -0.1527 -0.1458  0.4391
 3590SOL     OW22228   2.770   0.879   3.172  0.5035  0.3293 -0.3636
 3590SOL    HW122229   2.744   0.829   3.095 -0.4315  2.3893 -1.3818
 3590SOL    HW222230   2.813   0.809   3.222  2.3139  1.1425 -0.7827
 3591SOL     OW22231   2.406   1.072   6.314  0.1417  0.7391  0.6816
 3591SOL    HW122232   2.415   1.037   6.402 -0.2170 -0.2673  0.3181
 3591SOL    HW222233   2.494   1.104   6.296  0.6948  0.3853  2.8020
 3592SOL     OW22234   3.446   1.713   4.141 -0.2372  0.1257  0.4032
 3592SOL    HW122235   3.467   1.806   4.140 -0.1366  0.0962 -0.1021
 3592SOL    HW222236   3.413   1.698   4.230 -0.7550 -2.5952 -0.2501
 3593SOL     OW22237   2.803   2.181  11.383 -0.0724 -0.4543  1.0057
 3593SOL    HW122238   2.766   2.165  11.469  1.1774  2.2134  2.0321
 3593SOL    HW222239   2.895   2.161  11.396 -0.2211 -1.5172  0.4597
 3594SOL     OW22240   2.940   1.125   3.155  0.1515 -0.5979  0.7360
 3594SOL    HW122241   2.881   1.059   3.191  1.2718 -0.8740  2.0302
 3594SOL    HW222242   2.887   1.160   3.083  2.6002  2.4924  0.4214
 3595SOL     OW22243   2.318   1.116   7.639  0.1186 -0.0805 -0.2886
 3595SOL    HW122244   2.376   1.192   7.650  1.3829 -1.0672 -0.1057
 3595SOL    HW222245   2.377   1.041   7.631  1.9639  1.0460  2.6002
 3596SOL     OW22246   3.623   1.746  12.806 -0.0600  0.4698  0.1310
 3596SOL    HW122247   3.677   1.741  12.726  1.1726 -0.9627  1.0445
 3596SOL    HW222248   3.597   1.654  12.808 -0.2537  0.5404  0.7270
 3597SOL     OW22249   2.940   3.486   9.501  0.4992 -0.4762  0.0242
 3597SOL    HW122250   2.914   3.494   9.409 -0.9788 -0.2368  0.4602
 3597SOL    HW222251   3.024   3.532   9.509 -1.4590  2.4152  4.1107
 3598SOL     OW22252   3.160   1.502  13.784 -0.6651  0.4392  0.1668
 3598SOL    HW122253   3.116   1.511  13.868 -2.8936  1.7149 -1.1545
 3598SOL    HW222254   3.093   1.521  13.719 -0.6473  0.7382  0.2395
 3599SOL     OW22255   3.765   1.658   8.009  0.7338  0.0377  0.1012
 3599SOL    HW122256   3.708   1.645   8.085  3.0067 -3.4212  1.2182
 3599SOL    HW222257   3.799   1.569   8.018 -1.1316 -0.7711 -0.8931
 3600SOL     OW22258   2.148   3.761  16.975  0.9112 -0.5247 -0.2443
 3600SOL    HW122259   2.066   3.796  17.011  1.4075  1.1436 -0.7535
 3600SOL    HW222260   2.114   3.727  16.893  0.5160 -0.5364 -0.0759
 3601SOL     OW22261   1.589   0.213   6.589 -0.6835 -1.2438  0.3021
 3601SOL    HW122262   1.565   0.173   6.672 -2.5473  0.5160  0.6145
 3601SOL    HW222263   1.542   0.160   6.524  0.3785 -0.5454 -1.0377
 3602SOL     OW22264   4.624   1.395   9.610 -0.0433 -0.1910  0.2227
 3602SOL    HW122265   4.599   1.476   9.655  0.2686 -0.3446  0.6630
 3602SOL    HW222266   4.660   1.338   9.677  0.5153  0.2189  0.2742
 3603SOL     OW22267   2.988   0.392   5.043  0.3305  0.0052  0.3122
 3603SOL    HW122268   3.040   0.355   4.971  0.7193 -0.2417  0.7244
 3603SOL    HW222269   3.042   0.364   5.116  0.0381  0.4862  0.7135
 3604SOL     OW22270   3.340   3.435  12.353  0.2941 -0.2549  0.2291
 3604SOL    HW122271   3.371   3.437  12.444 -1.3713 -0.8738  0.8109
 3604SOL    HW222272   3.387   3.358  12.321 -0.7116 -0.7336 -0.0961
 3605SOL     OW22273   0.801   0.310   7.590  0.3909 -0.2916 -0.4676
 3605SOL    HW122274   0.760   0.226   7.566  0.3073 -0.1386 -0.8693
 3605SOL    HW222275   0.887   0.286   7.624 -0.1373 -2.7467 -0.8487
 3606SOL     OW22276   2.607   3.058   7.708 -0.0034 -0.1675  0.3103
 3606SOL    HW122277   2.664   2.988   7.739  0.0582 -0.2338  0.0444
 3606SOL    HW222278   2.563   3.012   7.636  4.0332  2.1841 -3.6544
 3607SOL     OW22279   0.394   0.158  17.145  0.1699 -0.4794 -0.3108
 3607SOL    HW122280   0.385   0.213  17.223 -0.8771 -1.0563 -0.0368
 3607SOL    HW222281   0.466   0.098  17.167 -1.4245 -1.1412  3.1137
 3608SOL     OW22282   2.449   3.316  15.815  0.2542  0.1664  0.5425
 3608SOL    HW122283   2.478   3.257  15.885  0.8287 -1.8603 -1.4269
 3608SOL    HW222284   2.388   3.365  15.870  0.2135  0.8364 -0.0966
 3609SOL     OW22285   0.624   2.575   8.137  0.1880  0.2830  0.2378
 3609SOL    HW122286   0.664   2.658   8.162 -0.3551  0.1005  1.7338
 3609SOL    HW222287   0.680   2.511   8.181  1.0153  0.5295 -0.4502
 3610SOL     OW22288   4.419   1.058   6.624 -0.6166  0.0109  0.4893
 3610SOL    HW122289   4.450   0.971   6.600  2.0814  1.6334 -2.0091
 3610SOL    HW222290   4.324   1.049   6.627 -0.4671 -2.0152 -0.6553
 3611SOL     OW22291   0.195   3.253   2.390 -0.1383 -0.2863  0.0135
 3611SOL    HW122292   0.274   3.292   2.428  0.0541  0.3856 -1.0769
 3611SOL    HW222293   0.230   3.208   2.313  3.2459  0.0213  1.3595
 3612SOL     OW22294   3.607   1.696   3.904  0.0620 -0.1101  0.6265
 3612SOL    HW122295   3.536   1.714   3.842 -0.4203 -0.0180  1.2084
 3612SOL    HW222296   3.565   1.724   3.985  0.4634  0.2619  0.7040
 3613SOL     OW22297   0.745   2.470   7.881  0.6216  0.0371 -0.4662
 3613SOL    HW122298   0.702   2.464   7.967  0.1631  4.2013 -0.3761
 3613SOL    HW222299   0.752   2.380   7.849  2.2553  0.6319 -1.7417
 3614SOL     OW22300   3.856   4.478   4.030 -0.5986  0.4222 -0.2253
 3614SOL    HW122301   3.880   4.551   3.975 -0.0812  0.0258 -0.5267
 3614SOL    HW222302   3.767   4.478   3.995 -1.6157  3.4596  2.3801
 3615SOL     OW22303   2.644   2.046   2.485 -0.1980  0.2617 -0.7210
 3615SOL    HW122304   2.719   2.070   2.540 -1.3909  0.2725  0.8986
 3615SOL    HW222305   2.661   1.958   2.452  0.0927  0.5895 -1.4344
 3616SOL     OW22306   1.807   0.876   5.264  0.5047 -0.0968  0.9581
 3616SOL    HW122307   1.814   0.935   5.339  1.6119  0.6478  0.2658
 3616SOL    HW222308   1.897   0.849   5.246  0.8171  1.4104  0.1982
 3617SOL     OW22309   2.305   1.639   1.386  0.1419  0.2556  0.0164
 3617SOL    HW122310   2.252   1.568   1.421 -0.3211  0.6505  0.1185
 3617SOL    HW222311   2.273   1.723   1.420  0.8938  0.2350  0.7804
 3618SOL     OW22312   0.111   3.144   3.604 -0.2952 -0.5042 -0.4657
 3618SOL    HW122313   0.175   3.187   3.548  0.3291 -0.7641  0.0493
 3618SOL    HW222314   0.058   3.220   3.630  1.4378  0.5248  0.0209
 3619SOL     OW22315   2.947   3.908   7.854  0.0671 -0.3689  0.2883
 3619SOL    HW122316   2.914   3.996   7.868  5.5431  1.6492  0.5291
 3619SOL    HW222317   3.026   3.913   7.908  1.4409 -0.8561 -1.6657
 3620SOL     OW22318   1.197   1.923   7.448 -0.4747 -0.4164  0.1983
 3620SOL    HW122319   1.159   2.010   7.459 -0.3285 -0.7323  3.1356
 3620SOL    HW222320   1.142   1.865   7.500  1.7385 -3.0865 -0.4725
 3621SOL     OW22321   4.203   3.348   0.505 -0.5004 -0.3181  0.0281
 3621SOL    HW122322   4.292   3.356   0.540 -0.0144 -0.2593 -1.2184
 3621SOL    HW222323   4.161   3.358   0.591  2.5146  1.1176  1.3524
 3622SOL     OW22324   4.518   2.560   8.579  0.4297  0.3146  0.1297
 3622SOL    HW122325   4.589   2.603   8.626  0.1870  1.0662 -0.1949
 3622SOL    HW222326   4.491   2.503   8.652  1.7835  0.0284  0.4028
 3623SOL     OW22327   4.373   0.558   2.827 -0.3195 -0.1414  0.0559
 3623SOL    HW122328   4.462   0.522   2.827  0.0087  0.6653 -0.7026
 3623SOL    HW222329   4.395   0.649   2.844  0.2071 -0.6868  2.2949
 3624SOL     OW22330   3.148   3.754   4.776  0.1901 -0.2705 -0.3021
 3624SOL    HW122331   3.119   3.752   4.867  0.5287 -0.8686 -0.2020
 3624SOL    HW222332   3.166   3.848   4.773 -0.0770 -0.1057  3.3231
 3625SOL     OW22333   3.928   4.486  10.030  0.1010  0.3949 -0.2722
 3625SOL    HW122334   3.875   4.516  10.104  1.8599 -0.2376  1.2475
 3625SOL    HW222335   4.015   4.477  10.069 -0.5741 -0.4849  1.0499
 3626SOL     OW22336   2.103   2.900   3.141  0.3865  0.5208  0.1085
 3626SOL    HW122337   2.170   2.958   3.105  1.8049 -1.7565 -0.9960
 3626SOL    HW222338   2.020   2.931   3.105  1.5006  1.1582 -1.9057
 3627SOL     OW22339   3.845   3.747  12.957  0.1120  0.7720  0.2740
 3627SOL    HW122340   3.920   3.767  13.014  1.2882 -0.9658 -0.6622
 3627SOL    HW222341   3.849   3.652  12.969  0.9840  0.5225 -2.0159
 3628SOL     OW22342   3.344   1.287  11.178  0.5267 -0.0459  0.8437
 3628SOL    HW122343   3.285   1.344  11.129 -3.1342 -4.0428  0.6072
 3628SOL    HW222344   3.285   1.235  11.232  2.5078 -0.8388  2.2452
 3629SOL     OW22345   1.497   1.525   0.586  0.7935 -0.0008  0.6683
 3629SOL    HW122346   1.414   1.554   0.547 -0.2720 -0.7184  2.3911
 3629SOL    HW222347   1.458   1.490   0.666 -0.7311  0.6426  0.2116
 3630SOL     OW22348   1.195   2.037   2.748 -0.1995  0.5972  0.1120
 3630SOL    HW122349   1.290   2.038   2.744 -0.2111 -1.8089 -1.0076
 3630SOL    HW222350   1.182   2.062   2.840 -0.8146  0.7884 -0.0230
 3631SOL     OW22351   0.589   1.001   9.570 -0.4462 -0.0497  0.3959
 3631SOL    HW122352   0.563   1.017   9.661 -0.9931  1.0071  0.0472
 3631SOL    HW222353   0.651   1.073   9.558 -1.3756  0.1685 -2.8941
 3632SOL     OW22354   1.244   0.255   6.072 -0.1016  0.2873  0.0064
 3632SOL    HW122355   1.210   0.191   6.134 -2.2251  0.8908 -0.5274
 3632SOL    HW222356   1.303   0.198   6.022  0.1609 -0.1929  0.8598
 3633SOL     OW22357   3.387   0.741   9.512  0.6110  0.0276  0.4562
 3633SOL    HW122358   3.443   0.746   9.434 -0.3731 -0.5809 -0.2988
 3633SOL    HW222359   3.302   0.736   9.468 -0.5362 -0.9705  2.8086
 3634SOL     OW22360   0.474   0.348  13.827  0.0952 -0.0765  0.1229
 3634SOL    HW122361   0.436   0.333  13.914  1.4235  1.7179  1.0049
 3634SOL    HW222362   0.417   0.421  13.803 -0.1993 -1.5830 -3.7649
 3635SOL     OW22363   4.318   0.603  10.181  0.0152 -0.0792  0.2920
 3635SOL    HW122364   4.359   0.662  10.118 -0.8832 -0.0050 -0.2255
 3635SOL    HW222365   4.289   0.654  10.257  0.8286  2.3783 -1.0696
 3636SOL     OW22366   2.697   0.048   5.760 -0.0555 -0.5266  0.5737
 3636SOL    HW122367   2.737   0.089   5.683  1.1534 -1.1264  0.8833
 3636SOL    HW222368   2.669   0.128   5.805 -0.1002 -0.9393  1.2733
 3637SOL     OW22369   4.462   2.859   1.029 -0.4903 -0.0822 -0.1285
 3637SOL    HW122370   4.499   2.789   1.082 -0.5670  1.3530  1.7900
 3637SOL    HW222371   4.516   2.935   1.048  0.1573 -0.5643 -0.0427
 3638SOL     OW22372   2.068   2.030   1.396 -0.3512 -0.2241  0.2047
 3638SOL    HW122373   2.053   2.103   1.335  1.0348 -0.9741 -1.0470
 3638SOL    HW222374   1.995   2.041   1.457 -0.2172 -0.7759  0.4591
 3639SOL     OW22375   2.018   3.613  17.293  0.0033  0.2990  0.2452
 3639SOL    HW122376   2.070   3.635  17.370  1.0700 -0.1855 -0.3382
 3639SOL    HW222377   1.934   3.656  17.312 -0.7175  0.3185 -2.9595
 3640SOL     OW22378   3.889   0.658   7.307 -0.0873  0.2209  0.1696
 3640SOL    HW122379   3.915   0.572   7.274 -1.6752  0.7703 -2.5550
 3640SOL    HW222380   3.833   0.693   7.238 -1.6248 -0.4189  1.1003
 3641SOL     OW22381   4.353   0.965  12.773  0.0528  0.2018 -0.3213
 3641SOL    HW122382   4.334   0.899  12.706  2.1827 -0.6255 -0.1103
 3641SOL    HW222383   4.439   0.934  12.802 -0.3352 -1.9149 -1.4373
 3642SOL     OW22384   3.079   0.719   3.933  0.2139  0.4002  0.0084
 3642SOL    HW122385   3.045   0.800   3.972 -0.3491  0.9690 -1.6505
 3642SOL    HW222386   3.012   0.698   3.868 -0.8786  1.3712  0.8058
 3643SOL     OW22387   4.484   3.867   8.679 -0.2752 -0.2988 -0.3289
 3643SOL    HW122388   4.446   3.856   8.766  0.6272 -0.3150  0.0600
 3643SOL    HW222389   4.549   3.937   8.691 -1.9805  1.4914 -1.5044
 3644SOL     OW22390   3.937   1.134  14.224  0.2529 -0.8600  0.5819
 3644SOL    HW122391   3.969   1.071  14.290  1.5717 -0.4080  0.3588
 3644SOL    HW222392   4.013   1.144  14.167 -0.2312 -0.5618 -0.0079
 3645SOL     OW22393   2.646   2.728   2.500 -0.2738  0.3507  0.1092
 3645SOL    HW122394   2.691   2.669   2.560  1.1131  1.4743  0.1708
 3645SOL    HW222395   2.723   2.762   2.454 -1.3572 -1.4437 -3.0858
 3646SOL     OW22396   4.037   1.430   1.055 -0.1362 -0.5550 -0.1425
 3646SOL    HW122397   4.052   1.499   0.991  1.0798 -0.7368 -0.0440
 3646SOL    HW222398   4.119   1.421   1.102 -0.0225 -0.0429 -0.2419
 3647SOL     OW22399   4.177   1.765   5.819 -0.1511  0.0258 -0.4841
 3647SOL    HW122400   4.104   1.799   5.870 -2.1215 -1.7246 -2.1742
 3647SOL    HW222401   4.246   1.766   5.885 -0.3001 -3.0172 -0.2848
 3648SOL     OW22402   2.254   4.464   3.823 -0.4004 -0.0250 -0.0018
 3648SOL    HW122403   2.208   4.414   3.891 -0.9957  1.6252  0.7959
 3648SOL    HW222404   2.235   4.409   3.747 -1.1819 -2.1815  1.7619
 3649SOL     OW22405   3.156   4.452   3.701  0.8324  0.3336  0.0041
 3649SOL    HW122406   3.115   4.489   3.779 -2.8996 -3.3191 -0.2076
 3649SOL    HW222407   3.121   4.501   3.626 -1.2996  0.7608  1.2740
 3650SOL     OW22408   1.409   0.067   5.972 -0.1962 -0.3980  0.5834
 3650SOL    HW122409   1.365   4.717   5.930 -0.7876 -0.1219  0.7273
 3650SOL    HW222410   1.496   0.028   5.979  1.1268  2.3844 -0.4990
 3651SOL     OW22411   3.444   1.169   9.822  0.4405 -0.1150 -1.0079
 3651SOL    HW122412   3.457   1.258   9.853  1.0869 -0.2522 -0.8878
 3651SOL    HW222413   3.525   1.152   9.774  0.8900  1.5493 -0.8227
 3652SOL     OW22414   4.722   0.701   7.730 -1.1041 -0.9392 -0.1609
 3652SOL    HW122415   4.719   0.605   7.725 -0.4224 -0.8292 -2.4354
 3652SOL    HW222416   0.094   0.705   7.730 -1.2055  1.7467  1.4040
 3653SOL     OW22417   0.284   3.195   2.109 -0.1363  0.1432 -0.2803
 3653SOL    HW122418   0.219   3.136   2.070 -0.6481  1.5185 -1.5043
 3653SOL    HW222419   0.339   3.219   2.035  1.1166  0.8011  0.8643
 3654SOL     OW22420   2.709   0.457   8.745  0.3005  0.2048 -0.1759
 3654SOL    HW122421   2.725   0.368   8.776  0.3683  0.7784  1.4018
 3654SOL    HW222422   2.778   0.463   8.678  1.5164 -0.2659  1.0401
 3655SOL     OW22423   1.566   3.019   1.018 -0.1171  0.5185  0.3246
 3655SOL    HW122424   1.638   2.961   1.044 -0.6133 -0.5198 -0.6612
 3655SOL    HW222425   1.606   3.106   1.027 -1.8106  1.1312  1.9153
 3656SOL     OW22426   4.212   1.294   4.073 -0.0775 -0.1822  0.0082
 3656SOL    HW122427   4.287   1.352   4.082  0.3634 -0.6692 -0.6116
 3656SOL    HW222428   4.245   1.241   4.000 -1.6620 -0.5241 -0.4617
 3657SOL     OW22429   2.719   4.184   6.374  0.6705 -0.1945 -0.4572
 3657SOL    HW122430   2.667   4.126   6.430  1.9791 -0.1987  0.7456
 3657SOL    HW222431   2.657   4.254   6.395  0.1926 -1.1542  1.3148
 3658SOL     OW22432   0.743   2.426   0.219 -0.4026  0.3869 -0.5396
 3658SOL    HW122433   0.769   2.510   0.258  1.5309 -0.1528 -0.6439
 3658SOL    HW222434   0.705   2.384   0.296 -0.1491 -0.1603 -0.7115
 3659SOL     OW22435   1.572   1.410   1.509  0.3127  0.1603  0.0257
 3659SOL    HW122436   1.607   1.321   1.507 -0.4612 -0.1167 -1.5734
 3659SOL    HW222437   1.613   1.457   1.436  0.9325  0.1422  0.3639
 3660SOL     OW22438   1.648   4.689   6.347  0.1216 -0.0616 -0.2356
 3660SOL    HW122439   1.704   0.040   6.324 -0.6599  0.7185  0.4252
 3660SOL    HW222440   1.569   0.015   6.369  1.3319  1.6066  0.4101
 3661SOL     OW22441   0.703   4.433   8.481  0.0361 -0.6807 -0.2533
 3661SOL    HW122442   0.685   4.404   8.571 -0.2073  1.7710  0.4937
 3661SOL    HW222443   0.769   4.369   8.455 -0.2283 -2.4311  3.3083
 3662SOL     OW22444   2.706   2.205   3.388 -0.2324 -0.2693  0.2234
 3662SOL    HW122445   2.643   2.163   3.446 -0.7077  1.5955  1.0690
 3662SOL    HW222446   2.685   2.172   3.300  1.0427 -0.8471  0.1397
 3663SOL     OW22447   1.194   0.092   1.142  0.4255 -0.1511  0.0131
 3663SOL    HW122448   1.284   0.122   1.151  0.2297  0.6697 -0.8103
 3663SOL    HW222449   1.192   0.045   1.059 -0.2460  2.0509 -1.2064
 3664SOL     OW22450   2.370   1.119   4.988 -0.1275  0.4022  0.0646
 3664SOL    HW122451   2.333   1.171   5.059  2.2084  1.1638  0.7183
 3664SOL    HW222452   2.344   1.168   4.909 -1.0393 -0.1810  0.0017
 3665SOL     OW22453   2.806   0.814   9.338  0.3555  0.1852  0.0276
 3665SOL    HW122454   2.867   0.873   9.382 -0.4032 -0.8465  2.4937
 3665SOL    HW222455   2.787   0.872   9.263 -0.0334 -1.0815 -0.8471
 3666SOL     OW22456   1.261   3.639   5.645  0.4797  0.0546  0.1063
 3666SOL    HW122457   1.202   3.603   5.711  0.9541 -1.2467 -0.1868
 3666SOL    HW222458   1.240   3.733   5.647 -2.4294 -0.6174  1.1429
 3667SOL     OW22459   1.405   3.753   4.717 -0.5401 -0.4435 -0.0253
 3667SOL    HW122460   1.431   3.843   4.697  0.9977 -0.4838  1.7747
 3667SOL    HW222461   1.310   3.759   4.716 -0.5093  0.0774  0.0601
 3668SOL     OW22462   2.195   1.800  14.384 -0.0366  0.1653  0.1050
 3668SOL    HW122463   2.145   1.731  14.429 -1.3703  0.5042 -0.8795
 3668SOL    HW222464   2.281   1.786  14.424 -0.8477 -0.5979  1.6087
 3669SOL     OW22465   2.587   2.070   5.621  0.0285  0.2633  0.3920
 3669SOL    HW122466   2.634   2.052   5.702 -0.1803  1.3405  0.7459
 3669SOL    HW222467   2.657   2.114   5.573  0.3836  1.0824  1.6613
 3670SOL     OW22468   1.121   2.691  16.222 -0.2047 -0.0045  0.3028
 3670SOL    HW122469   1.092   2.779  16.198 -0.6519 -0.5988 -1.2909
 3670SOL    HW222470   1.054   2.632  16.188  0.9414 -0.8899 -0.4585
 3671SOL     OW22471   3.953   4.102  16.012 -0.1446 -0.0648  0.2989
 3671SOL    HW122472   3.988   4.024  16.055  1.4289 -0.0456 -0.9490
 3671SOL    HW222473   3.890   4.120  16.082  1.4325  0.5489  1.5627
 3672SOL     OW22474   2.782   0.546  17.183 -0.1963  0.5322 -0.2319
 3672SOL    HW122475   2.751   0.628  17.222  2.1423  0.9035  0.8241
 3672SOL    HW222476   2.740   0.541  17.097  1.4712 -0.7572 -0.9679
 3673SOL     OW22477   4.146   0.810   9.533 -0.2079  0.2714 -0.1603
 3673SOL    HW122478   4.051   0.808   9.518 -0.3939  0.9369  0.9332
 3673SOL    HW222479   4.148   0.803   9.628 -1.5126 -1.0852 -0.2203
 3674SOL     OW22480   2.973   3.126  11.447 -0.2858  0.2066  0.5046
 3674SOL    HW122481   3.004   3.214  11.470  0.6096 -0.2422  1.0076
 3674SOL    HW222482   2.935   3.132  11.359  1.1490  0.6132 -0.0939
 3675SOL     OW22483   0.075   1.444  12.488 -0.3929 -0.2981 -0.2406
 3675SOL    HW122484   0.009   1.425  12.555 -0.7950  0.0820 -0.5365
 3675SOL    HW222485   0.132   1.367  12.494 -0.3836 -0.1475  1.6203
 3676SOL     OW22486   1.841   2.598   3.630  0.0704  0.2330 -0.2471
 3676SOL    HW122487   1.913   2.635   3.579  2.2572 -1.5785  1.5182
 3676SOL    HW222488   1.794   2.549   3.563  2.7424 -0.9235 -1.2411
 3677SOL     OW22489   4.176   1.216   5.168 -0.6913 -0.0271  0.0485
 3677SOL    HW122490   4.152   1.188   5.256 -2.2697  1.1506 -0.0155
 3677SOL    HW222491   4.268   1.238   5.183 -0.8656  1.3147 -0.8256
 3678SOL     OW22492   3.881   2.733   3.331 -0.3669  0.3017  0.7169
 3678SOL    HW122493   3.823   2.680   3.277 -0.3553  0.3138  0.6927
 3678SOL    HW222494   3.820   2.803   3.354 -1.7714 -1.0578  1.0909
 3679SOL     OW22495   0.745   1.510   7.884  0.1786 -0.0751  0.4418
 3679SOL    HW122496   0.650   1.511   7.896  0.2183 -0.1029  0.7654
 3679SOL    HW222497   0.754   1.601   7.856  0.2389 -0.7080 -1.5612
 3680SOL     OW22498   4.442   2.557  13.646 -0.2249 -0.2620  0.0951
 3680SOL    HW122499   4.378   2.502  13.602  0.5074  0.9891 -2.5647
 3680SOL    HW222500   4.445   2.511  13.729  1.7331 -0.9694 -0.3737
 3681SOL     OW22501   2.710   0.968   8.268 -0.1542 -0.2225 -0.0471
 3681SOL    HW122502   2.691   0.924   8.185 -1.0701 -0.8696  0.4986
 3681SOL    HW222503   2.762   0.900   8.312 -0.5211 -1.4964 -1.5567
 3682SOL     OW22504   0.438   0.633  11.168 -0.2147  0.3476  0.7009
 3682SOL    HW122505   0.532   0.618  11.159 -0.6937 -0.2478 -3.6041
 3682SOL    HW222506   0.417   0.587  11.087 -0.4392  1.3842  0.1742
 3683SOL     OW22507   3.621   3.782   9.829  0.3531  0.2304  0.1660
 3683SOL    HW122508   3.639   3.848   9.896 -1.3609  2.4448 -1.5269
 3683SOL    HW222509   3.676   3.820   9.760 -0.7991  1.4702 -0.0878
 3684SOL     OW22510   0.737   0.992  10.276  0.4228  0.5012 -0.4607
 3684SOL    HW122511   0.763   1.020  10.364 -3.9035  0.1676  0.9215
 3684SOL    HW222512   0.787   0.911  10.265  2.1929  1.6756 -0.9257
 3685SOL     OW22513   0.751   2.095   1.182 -0.7162  0.0967  0.0425
 3685SOL    HW122514   0.746   2.045   1.101  0.0641 -2.5447  1.6500
 3685SOL    HW222515   0.750   2.024   1.246  3.2200 -0.1521 -0.1756
 3686SOL     OW22516   1.104   3.834   7.030 -0.2221 -0.9715 -0.6583
 3686SOL    HW122517   1.075   3.870   6.946  0.4981  1.8974  0.3189
 3686SOL    HW222518   1.111   3.908   7.091 -0.7077 -1.6627  0.2287
 3687SOL     OW22519   2.124   0.391   8.976 -0.4211 -0.2077 -0.2900
 3687SOL    HW122520   2.131   0.480   8.942  0.4086  0.9194  2.9115
 3687SOL    HW222521   2.214   0.360   8.972 -0.4693 -0.3452 -0.3275
 3688SOL     OW22522   1.484   0.421  11.965  0.2189  0.1867 -0.0359
 3688SOL    HW122523   1.550   0.420  11.896 -0.4258 -0.1696 -0.6515
 3688SOL    HW222524   1.439   0.504  11.945 -1.8688 -0.4907  1.7600
 3689SOL     OW22525   2.549   4.314   0.163  0.1605 -0.1943  0.1068
 3689SOL    HW122526   2.600   4.382   0.120 -0.0796 -0.6913 -0.9656
 3689SOL    HW222527   2.617   4.258   0.200  0.5081 -0.2939 -0.6734
 3690SOL     OW22528   2.773   0.193   5.546  0.5402  0.0044  0.0845
 3690SOL    HW122529   2.746   0.188   5.454 -1.9614 -2.1389  0.9243
 3690SOL    HW222530   2.802   0.283   5.554  1.3127 -0.3681  1.4169
 3691SOL     OW22531   1.540   4.319   7.414 -0.5202 -0.0095  0.3083
 3691SOL    HW122532   1.607   4.253   7.396 -0.1960 -0.2173  2.2514
 3691SOL    HW222533   1.551   4.327   7.509  0.9480  3.6722 -0.1637
 3692SOL     OW22534   0.813   1.478   7.608 -0.3261 -0.0093  0.0138
 3692SOL    HW122535   0.721   1.502   7.594  0.3592  1.8785 -1.2344
 3692SOL    HW222536   0.831   1.462   7.516 -2.5724  0.7080 -0.5729
 3693SOL     OW22537   3.972   3.682   8.458 -0.1639 -0.3077 -0.0680
 3693SOL    HW122538   4.050   3.697   8.512 -0.4182 -0.0758  0.2352
 3693SOL    HW222539   3.963   3.586   8.459 -2.2314 -0.1143 -0.1730
 3694SOL     OW22540   3.190   1.596   7.841  0.2976 -0.6307 -0.1038
 3694SOL    HW122541   3.216   1.669   7.897  0.7278 -1.5594  0.9087
 3694SOL    HW222542   3.096   1.588   7.858 -0.4584  1.2584 -3.4557
 3695SOL     OW22543   4.019   1.029  17.343 -0.3920 -0.0119 -0.0238
 3695SOL    HW122544   4.024   1.050  17.250  1.1470  0.5834  0.2067
 3695SOL    HW222545   3.937   0.979  17.348 -0.8872  0.7940 -0.1037
 3696SOL     OW22546   3.938   4.027  15.765  0.1949  0.4402  0.1671
 3696SOL    HW122547   3.928   4.112  15.722  0.8612  1.4056  1.8867
 3696SOL    HW222548   3.927   4.048  15.858 -0.4438 -2.9699  0.8478
 3697SOL     OW22549   1.351   0.304   5.016  0.2293 -0.4254 -0.0194
 3697SOL    HW122550   1.314   0.237   4.958  0.4019  1.4904 -2.3327
 3697SOL    HW222551   1.341   0.262   5.101  0.8653 -0.3564  0.0890
 3698SOL     OW22552   3.896   2.721   4.210 -0.2643  0.3348  0.1220
 3698SOL    HW122553   3.975   2.727   4.156  0.0372 -0.4555  0.4788
 3698SOL    HW222554   3.884   2.629   4.231  1.1388 -0.0897 -0.9101
 3699SOL     OW22555   3.268   0.360   8.364  0.3764 -0.5278 -0.3257
 3699SOL    HW122556   3.266   0.370   8.459  1.5704 -2.3901 -0.1187
 3699SOL    HW222557   3.183   0.322   8.342 -0.1216 -0.0127  0.7263
 3700SOL     OW22558   3.342   2.970   2.759 -0.1547  0.1056  0.8305
 3700SOL    HW122559   3.282   2.998   2.690  1.2221 -2.1694 -1.3430
 3700SOL    HW222560   3.291   2.915   2.818 -0.4435  0.9011  1.3061
 3701SOL     OW22561   0.209   0.178   6.502 -0.1663 -0.4307  0.3114
 3701SOL    HW122562   0.288   0.137   6.468  0.9983  0.0320  2.4623
 3701SOL    HW222563   0.225   0.268   6.473 -3.0732  0.4235  1.3268
 3702SOL     OW22564   1.921   1.030   9.446 -0.4971  0.5327  0.6583
 3702SOL    HW122565   1.904   0.940   9.418  3.9959 -0.7348  1.9614
 3702SOL    HW222566   1.833   1.068   9.453  0.9046  3.6728  1.1906
 3703SOL     OW22567   0.462   2.074   7.032  0.3978 -0.0796 -0.5249
 3703SOL    HW122568   0.410   2.006   7.076  0.7487 -0.7006 -1.0658
 3703SOL    HW222569   0.472   2.031   6.947 -0.6940 -0.7101 -0.3429
 3704SOL     OW22570   1.529   2.531  13.776  0.7071 -0.4279  0.3996
 3704SOL    HW122571   1.560   2.511  13.864  2.4182  0.0803 -0.0807
 3704SOL    HW222572   1.609   2.494  13.738  0.0637 -1.5281  0.0997
 3705SOL     OW22573   2.275   4.243   8.710  0.5002 -0.3226  0.2180
 3705SOL    HW122574   2.234   4.285   8.634 -0.6253 -0.2330  0.8780
 3705SOL    HW222575   2.259   4.306   8.780  0.2869  2.7797 -2.5798
 3706SOL     OW22576   1.820   2.235   1.776 -0.0827  0.0392  0.5690
 3706SOL    HW122577   1.773   2.317   1.763  1.8171  0.8657 -0.9655
 3706SOL    HW222578   1.746   2.179   1.800 -1.6628  1.6820 -0.4829
 3707SOL     OW22579   0.528   2.975  15.380  0.0466  0.4938  0.2610
 3707SOL    HW122580   0.601   2.964  15.319 -0.7030 -1.4533 -0.2913
 3707SOL    HW222581   0.509   2.886  15.409  1.2434 -0.1237 -0.8214
 3708SOL     OW22582   3.526   3.489   7.597 -0.5826  0.1622  0.2345
 3708SOL    HW122583   3.537   3.567   7.543 -0.4953  0.7840  1.1531
 3708SOL    HW222584   3.480   3.522   7.674 -1.6451  0.0409 -0.3482
 3709SOL     OW22585   0.448   3.359   9.307  0.4523  0.2593  0.0201
 3709SOL    HW122586   0.452   3.454   9.321  0.7397  0.4682 -1.5304
 3709SOL    HW222587   0.385   3.339   9.238  2.2086  1.2665 -1.8463
 3710SOL     OW22588   2.120   3.477  14.831  0.2923 -0.3267  0.1874
 3710SOL    HW122589   2.203   3.516  14.805 -0.6506  0.5201 -1.5382
 3710SOL    HW222590   2.159   3.418  14.895  1.1622 -0.0718 -0.1095
 3711SOL     OW22591   2.538   3.395   1.385  0.2649  0.2363  0.6485
 3711SOL    HW122592   2.613   3.335   1.385  1.4700  1.7556  0.9460
 3711SOL    HW222593   2.472   3.325   1.382  2.9681 -2.2559 -0.1859
 3712SOL     OW22594   3.413   0.137   9.531  0.2558 -0.6576  0.1912
 3712SOL    HW122595   3.460   0.210   9.490 -1.6021  0.3363 -0.1877
 3712SOL    HW222596   3.402   0.183   9.614  0.6560  2.0532 -1.2456
 3713SOL     OW22597   3.741   4.217  15.337  0.7886 -0.3252 -0.0048
 3713SOL    HW122598   3.700   4.146  15.287 -1.4574  2.5891 -2.2568
 3713SOL    HW222599   3.812   4.248  15.280  1.1279  0.2635  0.7426
 3714SOL     OW22600   1.382   2.386   8.254  0.3658  0.3716 -1.0113
 3714SOL    HW122601   1.439   2.310   8.268 -0.9860 -0.7232 -1.4739
 3714SOL    HW222602   1.431   2.433   8.187  0.2150 -0.1354 -1.4799
 3715SOL     OW22603   0.708   2.235   2.508 -0.4064 -0.3250  0.0383
 3715SOL    HW122604   0.677   2.256   2.596  0.9565  0.0942  0.4303
 3715SOL    HW222605   0.789   2.185   2.517 -1.3795 -1.5410  1.8704
 3716SOL     OW22606   1.823   0.180  12.123 -0.6855 -0.1500 -0.1870
 3716SOL    HW122607   1.736   0.211  12.148  0.2822  2.8912 -0.6283
 3716SOL    HW222608   1.880   0.256  12.126 -0.3606 -0.4237  0.6253
 3717SOL     OW22609   3.625   0.596  12.405  0.1063 -0.2578 -0.2159
 3717SOL    HW122610   3.718   0.620  12.413  0.3677 -1.9977  2.2569
 3717SOL    HW222611   3.591   0.667  12.352 -0.5811 -0.6297 -0.2709
 3718SOL     OW22612   2.549   3.942  14.487 -0.2807  0.4562 -0.1098
 3718SOL    HW122613   2.526   3.849  14.479  0.4195  0.1614  1.2833
 3718SOL    HW222614   2.642   3.934  14.509 -0.7408 -1.0780  1.3359
 3719SOL     OW22615   4.499   0.127  11.232 -0.3414 -0.1756 -0.2858
 3719SOL    HW122616   4.593   0.110  11.223 -0.1029  1.7094 -1.3821
 3719SOL    HW222617   4.474   0.125  11.140  0.4868 -1.6170 -0.4713
 3720SOL     OW22618   2.146   3.713   1.056  0.7278 -0.1350 -0.2136
 3720SOL    HW122619   2.147   3.795   1.104  0.1933  1.1385 -2.3907
 3720SOL    HW222620   2.147   3.644   1.122 -2.4328  1.1039  1.1252
 3721SOL     OW22621   0.490   0.372   2.544 -0.2358 -0.7252  0.3090
 3721SOL    HW122622   0.542   0.379   2.464 -1.3663 -1.8979 -0.5164
 3721SOL    HW222623   0.567   0.348   2.596 -1.6827  2.8154  4.1457
 3722SOL     OW22624   0.548   1.474   3.583  0.2142  0.2730 -0.6033
 3722SOL    HW122625   0.549   1.406   3.650 -2.6228  0.8316  0.0389
 3722SOL    HW222626   0.596   1.550   3.616  1.0186 -0.3276 -0.4032
 3723SOL     OW22627   2.667   0.795  11.189  0.4023 -0.5459 -0.2432
 3723SOL    HW122628   2.713   0.716  11.159 -0.0510 -0.7649 -0.3558
 3723SOL    HW222629   2.627   0.829  11.109  0.5450 -0.4742 -0.2856
 3724SOL     OW22630   4.580   1.287   0.325  0.2175 -0.0637  0.6208
 3724SOL    HW122631   4.515   1.219   0.308  1.1460 -0.6868 -0.4308
 3724SOL    HW222632   4.637   1.285   0.248  0.7037 -2.0841  1.0277
 3725SOL     OW22633   3.144   4.060   5.238 -0.1382  0.0807  0.0308
 3725SOL    HW122634   3.140   3.981   5.292  0.4805  1.8012  2.5956
 3725SOL    HW222635   3.055   4.095   5.248  0.5377  2.3511 -2.0732
 3726SOL     OW22636   3.238   4.556  13.235 -0.5161 -0.1007  0.1919
 3726SOL    HW122637   3.202   4.485  13.287  1.7141 -1.1586  0.3173
 3726SOL    HW222638   3.192   4.540  13.153  0.8220  0.5394 -0.7075
 3727SOL     OW22639   3.068   0.377   8.942 -0.2611 -0.4654 -0.1722
 3727SOL    HW122640   3.025   0.403   9.022 -1.2976 -1.0128 -0.5556
 3727SOL    HW222641   3.161   0.375   8.965 -0.6371  0.4424  1.3839
 3728SOL     OW22642   1.682   2.647   5.539  0.2431  0.2458  0.7024
 3728SOL    HW122643   1.681   2.629   5.445  1.2943 -0.5119  0.8353
 3728SOL    HW222644   1.697   2.741   5.532 -1.7020  0.4403 -0.9473
 3729SOL     OW22645   1.815   0.588   7.267 -0.8354  0.1204  0.8864
 3729SOL    HW122646   1.908   0.570   7.277 -0.6089  1.6852  1.4601
 3729SOL    HW222647   1.815   0.614   7.175 -0.7129  1.0672  1.1581
 3730SOL     OW22648   1.973   4.260   1.329  0.2196 -0.1982  0.0776
 3730SOL    HW122649   1.969   4.168   1.303  0.7914 -0.1700 -0.1153
 3730SOL    HW222650   1.950   4.314   1.253  1.7479  0.2245 -0.0862
 3731SOL     OW22651   2.359   4.294   3.140 -0.0465 -0.6136  0.0559
 3731SOL    HW122652   2.411   4.219   3.111 -0.5843 -1.9012  2.4227
 3731SOL    HW222653   2.271   4.272   3.111 -0.1318  0.9497 -0.8888
 3732SOL     OW22654   4.473   1.009   7.019 -0.6568 -0.1299  0.1006
 3732SOL    HW122655   4.487   0.922   7.057 -0.4684 -0.2726 -0.2945
 3732SOL    HW222656   4.504   0.981   6.933  0.1554  0.2860  0.2579
 3733SOL     OW22657   3.118   2.718   7.360 -0.1935  0.2000  0.0230
 3733SOL    HW122658   3.089   2.749   7.446 -0.3595 -3.4952  1.3032
 3733SOL    HW222659   3.197   2.771   7.352  1.7203 -2.6218  0.5556
 3734SOL     OW22660   2.595   0.052   7.959  0.0821 -0.4899  0.0629
 3734SOL    HW122661   2.614   4.710   8.025  0.5380 -1.5899 -1.1717
 3734SOL    HW222662   2.598   0.013   7.872  2.3909  1.7453 -0.8328
 3735SOL     OW22663   4.604   2.921   7.061 -0.0370  0.3055  0.4795
 3735SOL    HW122664   4.633   2.884   6.977 -1.8218 -0.0805  0.0269
 3735SOL    HW222665   4.687   2.920   7.108  0.8939 -1.7733 -1.1837
 3736SOL     OW22666   0.738   2.448   4.410 -0.0565 -0.2526  0.0475
 3736SOL    HW122667   0.654   2.439   4.454  1.0347 -2.6144  1.6955
 3736SOL    HW222668   0.731   2.543   4.401  1.7984 -0.1877 -0.7700
 3737SOL     OW22669   1.413   3.916   2.564 -1.0041 -0.0610  0.5497
 3737SOL    HW122670   1.453   3.856   2.627 -0.9233 -0.4823  0.0951
 3737SOL    HW222671   1.396   3.985   2.628 -0.7762  0.5908 -0.0862
 3738SOL     OW22672   3.762   3.176  10.455 -0.1733  0.0003  0.3671
 3738SOL    HW122673   3.830   3.110  10.446  0.4511  0.8135 -0.9492
 3738SOL    HW222674   3.680   3.127  10.464 -0.8622  0.8049 -1.5939
 3739SOL     OW22675   3.152   2.707   4.936  0.3967 -0.3582 -0.2024
 3739SOL    HW122676   3.090   2.672   5.000 -1.1603  0.3882 -1.2868
 3739SOL    HW222677   3.180   2.782   4.987  0.4012  1.0819 -2.3264
 3740SOL     OW22678   3.084   1.958   8.599  0.7037  0.1546  0.2475
 3740SOL    HW122679   3.116   2.035   8.646 -1.1439  0.5818  0.8151
 3740SOL    HW222680   3.024   1.924   8.665 -1.0073 -0.3296 -1.5630
 3741SOL     OW22681   4.139   4.128   7.771 -0.1812  0.1479  0.0269
 3741SOL    HW122682   4.128   4.141   7.865  2.1018  2.3683 -0.0242
 3741SOL    HW222683   4.230   4.146   7.750  0.6046 -1.7948  1.7552
 3742SOL     OW22684   1.608   1.707   6.684 -0.3538  0.7497 -0.0062
 3742SOL    HW122685   1.567   1.785   6.646  0.7276 -0.0405 -2.7817
 3742SOL    HW222686   1.556   1.685   6.760 -0.7720  0.3122 -0.4241
 3743SOL     OW22687   1.861   0.798   9.346  0.2152  0.3199  0.6695
 3743SOL    HW122688   1.846   0.706   9.366  1.9730 -0.0500  0.2837
 3743SOL    HW222689   1.814   0.803   9.263  0.7602  0.1190  0.3443
 3744SOL     OW22690   3.324   0.236   9.782  0.1104 -0.4417  0.0366
 3744SOL    HW122691   3.405   0.261   9.828 -1.5260  2.4059  1.3799
 3744SOL    HW222692   3.264   0.301   9.817  1.3898 -0.5446  2.4358
 3745SOL     OW22693   4.480   0.210  16.150  0.3189 -0.6810 -0.2427
 3745SOL    HW122694   4.395   0.194  16.190  1.2498 -1.7870  1.2599
 3745SOL    HW222695   4.527   0.259  16.217  2.6637  0.8942 -3.0680
 3746SOL     OW22696   0.868   0.489   1.998  0.3118 -0.1635  0.0518
 3746SOL    HW122697   0.919   0.483   1.917  0.5150 -0.3448  0.1954
 3746SOL    HW222698   0.914   0.423   2.049  0.8517 -0.0145 -0.2440
 3747SOL     OW22699   4.445   3.391   7.073 -0.0051 -0.1596 -0.2160
 3747SOL    HW122700   4.457   3.443   6.993  0.5397  0.4776  0.2709
 3747SOL    HW222701   4.418   3.451   7.143 -1.4376  1.2766 -2.0116
 3748SOL     OW22702   3.810   2.458   7.262  0.3595 -0.2596 -0.0938
 3748SOL    HW122703   3.875   2.521   7.291 -0.5794  0.5476  0.2595
 3748SOL    HW222704   3.857   2.410   7.193  0.7060  0.4356 -0.3480
 3749SOL     OW22705   1.988   2.365   6.983 -0.3286 -0.0402  0.3880
 3749SOL    HW122706   1.938   2.285   6.968 -0.9113  0.0158  2.0335
 3749SOL    HW222707   2.061   2.321   7.026 -0.1876  0.9104  1.1482
 3750SOL     OW22708   3.901   1.580  12.843 -0.3784  0.0027  0.1280
 3750SOL    HW122709   3.828   1.591  12.905 -0.3825 -2.1639  0.5204
 3750SOL    HW222710   3.981   1.578  12.895  0.4558  1.0735 -1.1346
 3751SOL     OW22711   2.201   1.599  17.311 -0.2503  0.2581 -0.5662
 3751SOL    HW122712   2.226   1.690  17.293 -1.0562  0.5984  0.0034
 3751SOL    HW222713   2.282   1.562  17.346  0.6485  0.3866 -2.5090
 3752SOL     OW22714   1.128   4.529   7.822 -0.5188 -0.0594 -0.1873
 3752SOL    HW122715   1.212   4.486   7.812  1.0367  2.8489  0.3762
 3752SOL    HW222716   1.089   4.504   7.738  2.0534  1.1513 -1.7535
 3753SOL     OW22717   1.081   4.498  13.701 -0.3070 -0.1090 -0.3815
 3753SOL    HW122718   1.102   4.414  13.741 -0.8935 -0.7310 -1.3873
 3753SOL    HW222719   1.156   4.512  13.643 -1.6941  0.2644 -2.0881
 3754SOL     OW22720   4.652   1.444   8.552 -0.2108  0.3705 -0.1358
 3754SOL    HW122721   4.716   1.508   8.585  0.6010 -0.1426 -0.6947
 3754SOL    HW222722   4.573   1.464   8.601  1.9170  1.6088  2.7885
 3755SOL     OW22723   2.225   1.998   2.306 -0.3420 -0.5112  0.2904
 3755SOL    HW122724   2.217   1.921   2.362 -0.7537 -0.1111  0.7894
 3755SOL    HW222725   2.296   1.973   2.247  0.1429 -0.1128  0.6894
 3756SOL     OW22726   1.969   4.675   4.019 -0.5044 -0.2628  0.4212
 3756SOL    HW122727   2.063   4.695   4.017 -0.4063 -0.6021  1.4336
 3756SOL    HW222728   1.929   0.007   3.952  1.1103 -1.8904 -1.9073
 3757SOL     OW22729   2.333   0.089   7.628 -0.3228  0.5067  0.3535
 3757SOL    HW122730   2.323   0.024   7.558 -1.5745  1.1606 -0.0664
 3757SOL    HW222731   2.421   0.123   7.612 -1.0052  2.0679 -0.0803
 3758SOL     OW22732   2.387   0.380   1.203  0.5594 -0.0144  0.4018
 3758SOL    HW122733   2.445   0.307   1.223  1.2189  0.6280  0.8660
 3758SOL    HW222734   2.311   0.327   1.178  0.6776 -0.2203  0.4849
 3759SOL     OW22735   2.716   2.857  11.097 -0.2690  0.0372  0.2490
 3759SOL    HW122736   2.706   2.949  11.070 -2.0267  0.1867  1.4416
 3759SOL    HW222737   2.686   2.820  11.014  0.3654  0.3998 -0.1443
 3760SOL     OW22738   0.081   2.548   6.971  0.0474  0.2923 -0.5841
 3760SOL    HW122739   0.118   2.460   6.962  1.5761  0.8619  0.1398
 3760SOL    HW222740   0.020   2.547   6.897 -1.1773  0.1321  0.4331
 3761SOL     OW22741   1.154   0.105  14.780  0.2793  0.0742 -0.3380
 3761SOL    HW122742   1.083   0.049  14.751 -0.8637  0.0218  2.5840
 3761SOL    HW222743   1.110   0.130  14.862 -0.7584 -2.8547 -0.0177
 3762SOL     OW22744   3.893   2.839   5.229  0.1883 -0.4943 -0.2394
 3762SOL    HW122745   3.860   2.856   5.141 -0.6833 -2.7676 -0.3573
 3762SOL    HW222746   3.980   2.804   5.208  0.5885  0.4355 -0.0969
 3763SOL     OW22747   1.287   2.728   4.004  0.0858 -0.7468  0.4245
 3763SOL    HW122748   1.251   2.810   3.970  1.3511 -0.7343 -0.9408
 3763SOL    HW222749   1.342   2.694   3.932 -0.7231  1.5631 -1.2854
 3764SOL     OW22750   1.459   4.683   9.294  0.0783 -0.4779 -0.2547
 3764SOL    HW122751   1.550   4.681   9.265  0.2669 -1.8470  0.4491
 3764SOL    HW222752   1.445   4.604   9.346  1.8661 -1.0282 -0.6280
 3765SOL     OW22753   0.966   4.226  13.582 -0.1641 -0.6070  0.0103
 3765SOL    HW122754   1.040   4.200  13.637 -1.3315 -2.7108  0.5776
 3765SOL    HW222755   0.909   4.267  13.648 -1.6613  0.0202 -1.6834
 3766SOL     OW22756   0.562   1.738  15.237  0.8034  0.2712 -0.3031
 3766SOL    HW122757   0.649   1.719  15.202  0.8272 -3.0963  1.5579
 3766SOL    HW222758   0.566   1.697  15.324 -1.4205  1.4282  0.3447
 3767SOL     OW22759   4.606   0.416   7.605  0.0224 -0.4086 -0.1327
 3767SOL    HW122760   4.607   0.373   7.690  2.7706 -2.1211 -1.0104
 3767SOL    HW222761   4.692   0.387   7.573  0.6952  1.3438  0.0774
 3768SOL     OW22762   0.783   1.316   5.525 -0.2994 -0.1341 -0.1003
 3768SOL    HW122763   0.813   1.225   5.525  2.4564  0.7695 -0.0327
 3768SOL    HW222764   0.758   1.317   5.433  0.1344 -2.0171 -0.2367
 3769SOL     OW22765   3.902   1.486  15.725  0.0798  0.1442  0.5256
 3769SOL    HW122766   3.948   1.488  15.640 -1.9623 -1.1140 -0.6057
 3769SOL    HW222767   3.864   1.573  15.734 -0.5926 -0.0765 -0.1396
 3770SOL     OW22768   1.745   2.776   6.527  0.7733  0.2315  0.7903
 3770SOL    HW122769   1.686   2.852   6.521  0.3436 -0.0051  2.1292
 3770SOL    HW222770   1.746   2.738   6.439  0.6186 -1.3595  1.4777
 3771SOL     OW22771   0.249   0.360   9.365 -0.4895 -0.0058 -0.0804
 3771SOL    HW122772   0.334   0.358   9.410 -0.8823  1.0588  0.7159
 3771SOL    HW222773   0.191   0.361   9.441  0.2777  1.8083  0.4834
 3772SOL     OW22774   1.339   0.099   5.609  0.2688 -0.2231 -0.1715
 3772SOL    HW122775   1.258   0.103   5.660  1.4520 -0.8031  1.7656
 3772SOL    HW222776   1.345   0.194   5.595  2.8662 -0.0587  1.9809
 3773SOL     OW22777   1.075   1.336   5.551  0.1252  0.4633  0.3404
 3773SOL    HW122778   0.980   1.343   5.544  0.0148  1.0002  2.6918
 3773SOL    HW222779   1.085   1.303   5.461  3.2241 -0.9177  1.1872
 3774SOL     OW22780   4.302   0.083  15.973  0.3977  0.6176 -0.3021
 3774SOL    HW122781   4.382   0.135  15.983  0.6902 -0.0362  0.7093
 3774SOL    HW222782   4.245   0.131  16.033  0.6718 -0.1206  0.5572
 3775SOL     OW22783   2.417   1.537   4.270  0.1676  0.0875 -0.6252
 3775SOL    HW122784   2.351   1.604   4.255 -0.0807  0.6039  2.8688
 3775SOL    HW222785   2.375   1.470   4.324  0.0197 -0.2784 -1.1980
 3776SOL     OW22786   2.676   4.317   7.609 -0.3229 -0.4922 -0.0959
 3776SOL    HW122787   2.699   4.352   7.695  0.0760  0.3715 -0.5591
 3776SOL    HW222788   2.764   4.320   7.573  0.3026  2.7348  1.7394
 3777SOL     OW22789   2.856   0.806   0.162 -0.0543  0.1673  0.1259
 3777SOL    HW122790   2.814   0.743   0.220 -0.8308  0.0436 -0.5688
 3777SOL    HW222791   2.875   0.750   0.087  2.4650  1.8255 -0.4815
 3778SOL     OW22792   2.075   3.816   3.076  0.0273  0.1681 -0.4328
 3778SOL    HW122793   2.170   3.831   3.076  0.0540 -0.0240  0.7232
 3778SOL    HW222794   2.061   3.760   3.000  0.9439 -3.1298  1.8197
 3779SOL     OW22795   1.417   4.272   5.567  0.1255  0.3063  0.9244
 3779SOL    HW122796   1.379   4.272   5.479  1.0608 -2.6062  0.4992
 3779SOL    HW222797   1.355   4.283   5.639 -3.6966 -0.7583 -2.1973
 3780SOL     OW22798   2.431   4.253   5.661 -0.1846 -0.3020  0.3507
 3780SOL    HW122799   2.443   4.348   5.665  0.5480 -0.2517 -3.2263
 3780SOL    HW222800   2.476   4.225   5.740  2.4837 -1.7642 -1.6754
 3781SOL     OW22801   0.492   2.205   7.276 -0.5095  0.1167  0.1700
 3781SOL    HW122802   0.495   2.157   7.194  1.4885  2.7551 -1.2904
 3781SOL    HW222803   0.494   2.130   7.336  2.5206 -0.5864 -0.8084
 3782SOL     OW22804   2.468   2.295   3.939 -0.3580 -0.2416 -0.1475
 3782SOL    HW122805   2.477   2.293   3.844  0.6500 -2.2783  0.0105
 3782SOL    HW222806   2.444   2.204   3.955  0.4043 -0.5261 -0.6359
 3783SOL     OW22807   0.309   2.299   5.054  0.1568  0.0214  0.0681
 3783SOL    HW122808   0.382   2.303   5.115 -0.4704 -0.4789  0.8442
 3783SOL    HW222809   0.237   2.272   5.111 -0.4281  1.3409 -0.0477
 3784SOL     OW22810   4.589   4.488   4.657 -0.0738  0.3504  0.2673
 3784SOL    HW122811   4.640   4.468   4.736 -2.6652 -0.3150  1.7638
 3784SOL    HW222812   4.580   4.584   4.659  2.0326  0.5554  0.1858
 3785SOL     OW22813   2.359   4.631   8.703  1.1558  0.1160  0.1317
 3785SOL    HW122814   2.325   4.674   8.625 -3.3135 -2.1471  0.8216
 3785SOL    HW222815   2.434   4.587   8.663 -0.4395 -2.7916  0.3488
 3786SOL     OW22816   1.356   3.978   6.759  0.0638  0.3199  0.6949
 3786SOL    HW122817   1.425   3.914   6.745 -0.4917 -0.1429  0.0950
 3786SOL    HW222818   1.327   3.991   6.669  0.0786 -2.2226  0.3272
 3787SOL     OW22819   1.823   2.695  11.728  0.1847  0.9814  0.3703
 3787SOL    HW122820   1.782   2.682  11.814 -1.0852 -0.0524 -0.3889
 3787SOL    HW222821   1.744   2.721  11.680  0.5847  2.1468  0.3574
 3788SOL     OW22822   4.100   2.752   4.582 -0.1752 -0.4707 -0.5238
 3788SOL    HW122823   4.007   2.769   4.602  0.5644 -0.0948  2.5908
 3788SOL    HW222824   4.124   2.689   4.650 -1.0667 -1.3359 -0.9985
 3789SOL     OW22825   4.019   2.100   1.951 -0.3844 -0.0977  0.3375
 3789SOL    HW122826   4.021   2.172   1.888 -0.9216 -2.2487 -2.1418
 3789SOL    HW222827   3.927   2.095   1.979 -0.4288  0.7835  0.3506
 3790SOL     OW22828   3.774   2.338   3.063  0.0636 -0.0949  0.0301
 3790SOL    HW122829   3.792   2.348   2.969 -1.1965  0.9715 -0.1041
 3790SOL    HW222830   3.856   2.362   3.107 -1.0220  0.3615  1.7914
 3791SOL     OW22831   4.310   0.563   8.229  0.0587 -0.0748  0.5724
 3791SOL    HW122832   4.230   0.613   8.246 -1.0884 -1.4766 -0.6511
 3791SOL    HW222833   4.293   0.494   8.293  0.4054 -0.7605 -0.0786
 3792SOL     OW22834   3.641   2.068  14.011 -0.0944  0.0168 -0.2468
 3792SOL    HW122835   3.635   1.975  14.032 -2.7920 -0.1701 -1.8418
 3792SOL    HW222836   3.549   2.092  14.019 -0.4089 -1.0785 -0.5305
 3793SOL     OW22837   4.053   3.396   8.492 -0.0955 -0.3592 -0.3734
 3793SOL    HW122838   4.080   3.424   8.579  1.6842  0.8265 -1.3058
 3793SOL    HW222839   4.026   3.304   8.500  2.4942 -1.1847 -1.0513
 3794SOL     OW22840   1.075   3.315   3.897 -0.0175  0.1886 -0.3515
 3794SOL    HW122841   1.011   3.322   3.825 -1.1512  1.0733  0.7474
 3794SOL    HW222842   1.024   3.258   3.955  1.4563 -3.5213 -2.7025
 3795SOL     OW22843   2.859   1.922  10.423 -0.0124  0.2312  0.3772
 3795SOL    HW122844   2.951   1.925  10.451  0.1737 -1.5438 -0.0010
 3795SOL    HW222845   2.824   1.869  10.495  1.3076  0.6568  1.3458
 3796SOL     OW22846   1.808   1.759   6.343 -0.3000  0.1882 -0.2930
 3796SOL    HW122847   1.785   1.835   6.290 -0.9056  1.4988  1.8700
 3796SOL    HW222848   1.731   1.703   6.354 -0.3321  0.5779  1.4341
 3797SOL     OW22849   3.512   1.117   7.608  0.0558 -0.0206 -0.0880
 3797SOL    HW122850   3.585   1.117   7.670 -0.7721  0.5338  0.8908
 3797SOL    HW222851   3.474   1.040   7.650  0.4321  0.1265  0.5234
 3798SOL     OW22852   3.984   4.670   3.417 -0.1691 -0.4509  0.1416
 3798SOL    HW122853   4.059   4.610   3.420 -0.9388 -1.4593 -0.9945
 3798SOL    HW222854   3.940   4.649   3.499  0.9825  1.6186  1.2935
 3799SOL     OW22855   2.258   4.400   9.767 -0.0513 -0.1973  0.3235
 3799SOL    HW122856   2.199   4.474   9.780 -3.6839 -2.8654 -1.1189
 3799SOL    HW222857   2.203   4.339   9.719 -0.0814  0.5271 -0.5787
 3800SOL     OW22858   1.903   3.256   8.764 -0.8585  0.5511  0.3097
 3800SOL    HW122859   1.928   3.293   8.849 -0.4742  1.9949 -0.4348
 3800SOL    HW222860   1.866   3.337   8.729 -1.2883  0.3074  0.2051
 3801SOL     OW22861   2.473   4.230   3.892 -0.4742 -0.1684 -0.3406
 3801SOL    HW122862   2.420   4.211   3.970 -0.0448  1.3120  0.3121
 3801SOL    HW222863   2.505   4.141   3.883  1.2981  0.4327  0.0118
 3802SOL     OW22864   1.598   4.441   0.887 -0.0963  0.1607  1.0231
 3802SOL    HW122865   1.666   4.473   0.947  1.4001 -3.5724  1.3280
 3802SOL    HW222866   1.637   4.358   0.862  0.0725  1.0135 -1.5661
 3803SOL     OW22867   1.229   2.650  16.648 -0.0621 -0.0768 -0.2685
 3803SOL    HW122868   1.160   2.656  16.713 -0.6310 -1.0361 -0.7677
 3803SOL    HW222869   1.300   2.702  16.686 -0.7288  1.8156 -1.6268
 3804SOL     OW22870   0.669   2.397  17.411  0.3735 -0.7045 -0.8296
 3804SOL    HW122871   0.636   2.390  17.501  1.1155 -2.1432 -0.6646
 3804SOL    HW222872   0.630   2.317  17.376 -0.7019 -0.7788  0.5154
 3805SOL     OW22873   3.252   2.737   6.637  0.7845  0.7205  0.1576
 3805SOL    HW122874   3.344   2.714   6.630 -0.0998 -1.7822 -2.8802
 3805SOL    HW222875   3.213   2.703   6.718  1.1299 -1.1114 -0.4486
 3806SOL     OW22876   3.606   4.137  16.284 -0.2983 -0.0383  0.3311
 3806SOL    HW122877   3.697   4.150  16.258 -0.3900 -2.1299 -1.0498
 3806SOL    HW222878   3.579   4.079  16.213 -1.0006  0.3795  0.2517
 3807SOL     OW22879   0.686   1.496  11.218  0.2037 -0.6030  0.5055
 3807SOL    HW122880   0.773   1.526  11.192 -0.4082  2.2142  1.7319
 3807SOL    HW222881   0.648   1.444  11.147 -0.1456 -1.6988  1.5126
 3808SOL     OW22882   3.569   1.541   1.186 -0.6560 -0.5230 -0.0326
 3808SOL    HW122883   3.479   1.512   1.178 -0.3269 -0.8870 -2.3553
 3808SOL    HW222884   3.561   1.598   1.262  1.4702  1.7707 -1.5338
 3809SOL     OW22885   3.156   4.011   4.430  0.0941  0.2075 -0.2612
 3809SOL    HW122886   3.121   4.041   4.514  2.0721 -0.8469  0.9615
 3809SOL    HW222887   3.156   3.917   4.444  1.1466  0.3073  0.4593
 3810SOL     OW22888   0.105   1.799   4.434  0.3560 -0.3691 -0.1393
 3810SOL    HW122889   0.173   1.735   4.458  0.2124 -1.2955 -2.2789
 3810SOL    HW222890   0.038   1.776   4.498  3.1158 -0.9204  2.5873
 3811SOL     OW22891   1.137   3.522   2.722 -0.1510  0.2904 -0.1752
 3811SOL    HW122892   1.065   3.537   2.784  0.1598 -1.1289  0.5362
 3811SOL    HW222893   1.082   3.476   2.658  0.6901  0.8785 -1.3243
 3812SOL     OW22894   3.398   4.641  16.029 -0.2924 -0.2520  0.0447
 3812SOL    HW122895   3.328   4.670  16.087  0.4065 -0.5595  1.0358
 3812SOL    HW222896   3.442   4.580  16.087  0.2462 -1.3150 -1.4768
 3813SOL     OW22897   1.546   0.305   5.823 -0.5007  0.3184  0.3879
 3813SOL    HW122898   1.489   0.371   5.861  0.3514  1.3055 -0.0639
 3813SOL    HW222899   1.495   0.227   5.844  0.4860 -0.5101 -0.2882
 3814SOL     OW22900   3.548   1.653   3.116 -0.1139 -0.4615 -0.2428
 3814SOL    HW122901   3.493   1.732   3.112 -0.7518 -0.9255 -0.6707
 3814SOL    HW222902   3.494   1.584   3.077  0.2594  0.0494 -1.6711
 3815SOL     OW22903   0.690   4.568   2.132  0.5759  0.3235 -0.3098
 3815SOL    HW122904   0.719   4.556   2.041  1.0974 -0.4388 -0.0419
 3815SOL    HW222905   0.722   4.657   2.151  0.9394 -0.0083  0.6221
 3816SOL     OW22906   1.817   1.048  15.750  0.2758  0.0047  0.1190
 3816SOL    HW122907   1.803   0.965  15.705 -2.2308 -1.4955  3.6830
 3816SOL    HW222908   1.820   1.030  15.844  2.2289  0.9069  0.2152
 3817SOL     OW22909   3.071   4.301  11.137 -0.2275 -0.0939  0.0557
 3817SOL    HW122910   3.049   4.353  11.215 -1.0179 -1.6911  0.8813
 3817SOL    HW222911   3.030   4.357  11.071 -2.6616 -0.3851  1.3321
 3818SOL     OW22912   1.276   1.127  11.551  0.5359  0.6062 -0.6904
 3818SOL    HW122913   1.253   1.096  11.463 -0.4484 -2.6714  0.7332
 3818SOL    HW222914   1.215   1.200  11.566 -0.6046 -0.1434 -1.6328
 3819SOL     OW22915   0.783   3.389   6.640 -0.1845 -0.1974 -0.0561
 3819SOL    HW122916   0.713   3.450   6.617 -0.8155 -0.7346  0.4311
 3819SOL    HW222917   0.809   3.418   6.727 -0.2477  1.4056 -0.5735
 3820SOL     OW22918   4.655   0.820   4.530  0.3464 -0.2191 -0.5405
 3820SOL    HW122919   4.691   0.900   4.568  2.7801 -2.8642  2.7402
 3820SOL    HW222920   4.606   0.787   4.605 -0.8159  3.1827  0.1789
 3821SOL     OW22921   1.399   3.182   4.645  0.1664 -0.2193 -0.0086
 3821SOL    HW122922   1.349   3.258   4.675  0.1141  0.4105 -1.6968
 3821SOL    HW222923   1.341   3.151   4.577 -0.2525 -3.4774  1.8554
 3822SOL     OW22924   3.014   0.863  14.985  0.0682 -0.4637 -0.0314
 3822SOL    HW122925   3.096   0.892  14.944 -0.1586 -0.5092 -0.5230
 3822SOL    HW222926   2.979   0.803  14.919  1.5887  0.1099 -1.3642
 3823SOL     OW22927   2.125   3.658   6.832 -0.5561  0.0527 -0.2793
 3823SOL    HW122928   2.116   3.681   6.739 -0.3124 -0.4492 -0.4243
 3823SOL    HW222929   2.113   3.563   6.828  1.1837 -0.2510  1.4774
 3824SOL     OW22930   1.315   4.498   7.385  0.7186 -0.0616  0.3569
 3824SOL    HW122931   1.282   4.454   7.307 -1.2390  1.6157  0.2732
 3824SOL    HW222932   1.377   4.427   7.407  0.7637  0.1505  0.9191
 3825SOL     OW22933   2.737   3.391   5.000  0.4353  0.1431  0.2203
 3825SOL    HW122934   2.818   3.407   5.047  0.1175  1.3878  0.3474
 3825SOL    HW222935   2.696   3.472   5.032 -0.7906 -0.2948 -0.2133
 3826SOL     OW22936   3.479   4.553  17.516 -0.8215  0.2880 -0.2514
 3826SOL    HW122937   3.496   4.638  17.557 -0.5445 -0.9224  2.1247
 3826SOL    HW222938   3.449   4.503  17.592  1.8062 -3.6460 -1.7951
 3827SOL     OW22939   2.315   2.999   3.575  0.1505 -0.5413  0.0340
 3827SOL    HW122940   2.381   2.964   3.635 -1.6295 -1.5477  1.4049
 3827SOL    HW222941   2.345   3.089   3.559  1.2431 -0.2804  3.5026
 3828SOL     OW22942   4.501   2.372  12.129  0.0731 -0.1879  0.4086
 3828SOL    HW122943   4.495   2.425  12.049  2.7787  1.4975  1.3117
 3828SOL    HW222944   4.410   2.347  12.139 -1.4373  4.2164 -2.2178
 3829SOL     OW22945   4.399   0.252   6.671  0.0831  0.2996  0.2750
 3829SOL    HW122946   4.480   0.246   6.619 -1.1398 -2.0146 -1.3719
 3829SOL    HW222947   4.438   0.232   6.757  0.1952  1.1458  0.4173
 3830SOL     OW22948   2.390   1.723   6.632 -0.0066 -0.6749  0.4760
 3830SOL    HW122949   2.316   1.662   6.626 -1.5346  1.2386 -0.2248
 3830SOL    HW222950   2.345   1.803   6.659  0.7934 -0.4706  1.2014
 3831SOL     OW22951   4.310   3.512   8.397 -0.1655  0.7011 -0.4830
 3831SOL    HW122952   4.349   3.588   8.440 -1.8669  0.3512  1.7073
 3831SOL    HW222953   4.228   3.487   8.440 -0.5430  0.0005 -1.6069
 3832SOL     OW22954   0.664   2.596  15.451 -0.2308 -0.0765  0.0838
 3832SOL    HW122955   0.692   2.531  15.515  1.5738  0.1784 -0.4400
 3832SOL    HW222956   0.605   2.643  15.510  0.1300  0.3209  0.1277
 3833SOL     OW22957   0.143   2.534   5.238  0.3696  0.1155  0.3790
 3833SOL    HW122958   0.147   2.483   5.157 -0.7466  1.8584 -0.7620
 3833SOL    HW222959   0.124   2.617   5.196  3.1237  0.7506  0.3913
 3834SOL     OW22960   1.205   0.955   4.942  0.0564  0.3444 -0.0515
 3834SOL    HW122961   1.184   1.047   4.963 -0.9170  0.4313 -1.3627
 3834SOL    HW222962   1.292   0.948   4.979  0.3875  1.1950 -0.6549
 3835SOL     OW22963   2.296   3.173  13.282 -0.2967  0.2843  0.0686
 3835SOL    HW122964   2.382   3.160  13.241 -1.1226 -1.5974 -1.0592
 3835SOL    HW222965   2.308   3.252  13.335  1.3531  0.4936 -0.6060
 3836SOL     OW22966   1.281   2.126   9.684  0.3838  0.5086 -0.1646
 3836SOL    HW122967   1.226   2.175   9.744  3.5659  1.2576  2.1281
 3836SOL    HW222968   1.259   2.156   9.595 -0.6536 -0.1007 -0.1125
 3837SOL     OW22969   3.310   3.489  12.093 -0.0649  0.5623  0.2909
 3837SOL    HW122970   3.316   3.472  12.187 -2.3295 -0.6752  0.2233
 3837SOL    HW222971   3.396   3.522  12.070  0.4998 -0.0724  1.4825
 3838SOL     OW22972   4.519   3.511   6.853  0.0545  0.5747 -0.2048
 3838SOL    HW122973   4.526   3.444   6.785  0.0684 -0.2395  0.6045
 3838SOL    HW222974   4.485   3.581   6.798  0.5941  1.3178  0.4038
 3839SOL     OW22975   1.038   2.633   1.548  0.3291 -0.6513 -0.0421
 3839SOL    HW122976   1.052   2.703   1.612  2.8898 -0.4730 -0.7923
 3839SOL    HW222977   1.132   2.616   1.540  0.0868 -1.4715 -1.1056
 3840SOL     OW22978   3.703   4.379   9.368  0.2758  0.0159  0.1629
 3840SOL    HW122979   3.618   4.338   9.382  0.6897 -0.8911 -0.0165
 3840SOL    HW222980   3.713   4.362   9.274 -0.2998 -0.9459  0.2817
 3841SOL     OW22981   0.737   4.457   6.966 -0.9519 -0.0123  0.1547
 3841SOL    HW122982   0.698   4.492   6.886  0.8308  1.7423  0.0488
 3841SOL    HW222983   0.660   4.406   6.991 -0.8144 -0.2927  0.0089
 3842SOL     OW22984   2.271   4.584   7.398 -0.2172 -0.1837 -0.1272
 3842SOL    HW122985   2.264   4.543   7.311  2.6276  0.7394 -0.7867
 3842SOL    HW222986   2.287   4.505   7.449  1.3270  0.6052  0.6038
 3843SOL     OW22987   3.895   3.677   7.778 -0.3277 -0.1522  0.1571
 3843SOL    HW122988   3.885   3.618   7.703  2.0403  0.9952 -1.0804
 3843SOL    HW222989   3.965   3.733   7.745  0.9616 -1.8684 -0.0306
 3844SOL     OW22990   2.446   1.912   5.190  0.2483 -0.0108 -0.3234
 3844SOL    HW122991   2.463   1.889   5.099  1.2405  0.1915 -0.1845
 3844SOL    HW222992   2.505   1.985   5.205 -0.8702  1.3022 -2.3126
 3845SOL     OW22993   3.704   1.422   8.962 -0.3210 -0.4412 -0.1000
 3845SOL    HW122994   3.741   1.353   9.017  3.2465  1.7515  0.2613
 3845SOL    HW222995   3.658   1.374   8.894  0.3842 -0.0219 -0.8722
 3846SOL     OW22996   0.052   1.012   8.379 -0.4181  0.0328 -0.1143
 3846SOL    HW122997   4.686   1.005   8.413 -0.5899 -1.1838 -0.8517
 3846SOL    HW222998   0.080   1.099   8.410 -2.1475  0.4731  0.2625
 3847SOL     OW22999   2.602   3.969   9.133 -0.2693  0.3610 -0.4035
 3847SOL    HW123000   2.516   4.010   9.120 -0.9732 -1.3225 -1.0827
 3847SOL    HW223001   2.584   3.884   9.092  0.0707  0.0578  0.0731
 3848SOL     OW23002   2.972   0.264   6.537 -0.2242  0.0469 -0.1824
 3848SOL    HW123003   2.936   0.237   6.621 -1.1768  0.3995 -0.4741
 3848SOL    HW223004   2.917   0.221   6.471 -2.4400  1.3219  0.8258
 3849SOL     OW23005   3.019   3.912  15.672  0.8699 -0.1789  0.2235
 3849SOL    HW123006   2.952   3.938  15.736  0.1043 -0.5790 -0.4252
 3849SOL    HW223007   3.072   3.849  15.721  0.8144  1.1567  2.0311
 3850SOL     OW23008   0.488   1.298   8.658  0.2098 -0.0123 -0.5813
 3850SOL    HW123009   0.545   1.364   8.616  0.7250  0.6799  1.2144
 3850SOL    HW223010   0.423   1.362   8.687 -0.8510 -1.0187 -0.7489
 3851SOL     OW23011   0.110   4.118   2.814  0.1156 -0.2379 -0.4226
 3851SOL    HW123012   0.045   4.158   2.871  0.2269 -3.1171  1.7407
 3851SOL    HW223013   0.077   4.150   2.730 -2.6184  1.8919  1.4517
 3852SOL     OW23014   4.643   4.111   3.861 -0.7873  0.3386  0.8768
 3852SOL    HW123015   4.652   4.071   3.947 -0.0087  1.4908  1.3163
 3852SOL    HW223016   0.012   4.111   3.837 -0.9803 -0.5907  0.0645
 3853SOL     OW23017   4.266   4.432  11.272 -0.2488  0.1849  0.4061
 3853SOL    HW123018   4.226   4.519  11.277 -0.5422  0.1605 -1.4074
 3853SOL    HW223019   4.200   4.367  11.295  1.1549 -1.1020  0.7905
 3854SOL     OW23020   1.628   0.237   3.383  0.0185 -0.1303 -0.0812
 3854SOL    HW123021   1.631   0.141   3.385  4.6872 -0.0235 -2.2287
 3854SOL    HW223022   1.587   0.233   3.296 -1.0549 -1.3931  0.4829
 3855SOL     OW23023   1.567   4.441  17.084 -0.4574 -0.6369  0.1051
 3855SOL    HW123024   1.554   4.355  17.124  0.5271 -1.3204 -1.0358
 3855SOL    HW223025   1.486   4.455  17.035  0.6097  1.4666 -1.0705
 3856SOL     OW23026   0.330   1.486   1.823  0.2174 -0.2852 -0.6209
 3856SOL    HW123027   0.354   1.394   1.834 -1.4210 -0.6634 -0.1704
 3856SOL    HW223028   0.401   1.535   1.865 -2.2868  2.5614  0.2778
 3857SOL     OW23029   2.198   1.709  16.721 -0.0666  0.2667  0.5781
 3857SOL    HW123030   2.162   1.621  16.717  0.2061  0.2735 -2.4638
 3857SOL    HW223031   2.148   1.753  16.652  2.0644  1.1473 -0.4153
 3858SOL     OW23032   2.023   4.040   9.364 -0.2871 -0.0260 -0.2071
 3858SOL    HW123033   1.956   4.005   9.307 -2.7013  0.3626  2.3844
 3858SOL    HW223034   2.048   3.959   9.409  3.0458  0.6506 -0.7889
 3859SOL     OW23035   2.135   0.134  15.282  0.0349  0.0852 -0.0649
 3859SOL    HW123036   2.135   0.175  15.196 -0.3088 -1.3904 -0.7555
 3859SOL    HW223037   2.043   0.127  15.307 -0.2810 -0.7745 -1.4725
 3860SOL     OW23038   0.792   4.044   6.682  0.1366 -0.1176  0.3005
 3860SOL    HW123039   0.878   4.002   6.682  1.4324  2.5376 -0.1849
 3860SOL    HW223040   0.772   4.050   6.776 -1.7904  0.7183 -0.1466
 3861SOL     OW23041   0.565   3.392   6.270 -0.3256 -0.7038 -0.1397
 3861SOL    HW123042   0.594   3.473   6.311 -0.1579 -0.6015 -0.4583
 3861SOL    HW223043   0.599   3.418   6.184  0.3609 -1.7037 -0.1721
 3862SOL     OW23044   1.684   0.782   9.134 -0.0817  0.3430  0.1092
 3862SOL    HW123045   1.655   0.707   9.081  0.0797  0.9474 -0.8318
 3862SOL    HW223046   1.607   0.781   9.191 -0.7648 -0.1693 -0.8147
 3863SOL     OW23047   0.596   3.702   0.736 -1.0080  0.1231 -0.0876
 3863SOL    HW123048   0.544   3.628   0.766  2.4832 -1.2646  2.5459
 3863SOL    HW223049   0.683   3.669   0.762 -1.1303 -0.4266 -0.3653
 3864SOL     OW23050   2.939   0.205   9.691  0.4202 -0.3365  0.2547
 3864SOL    HW123051   3.016   0.263   9.693 -1.9445  2.8880 -1.9801
 3864SOL    HW223052   2.943   0.185   9.784 -1.4664 -2.4439 -0.1337
 3865SOL     OW23053   3.438   2.947  12.384 -0.0182 -0.0511 -0.0406
 3865SOL    HW123054   3.477   2.947  12.296  0.7511  1.4422  0.2966
 3865SOL    HW223055   3.349   2.978  12.364  0.0997 -1.2674 -2.4991
 3866SOL     OW23056   3.449   3.028   5.676 -0.4549 -0.2545  0.0380
 3866SOL    HW123057   3.444   2.960   5.744  3.2198 -1.6489 -1.0909
 3866SOL    HW223058   3.403   3.100   5.721  1.6794 -1.4087  4.0702
 3867SOL     OW23059   0.996   3.222   5.455 -0.1489 -0.0149  0.3172
 3867SOL    HW123060   0.968   3.184   5.538  0.8517  1.9885  1.5325
 3867SOL    HW223061   1.080   3.175   5.458 -0.1353  0.0317  0.5855
 3868SOL     OW23062   2.311   4.120   7.127 -0.3626 -0.3807  0.1834
 3868SOL    HW123063   2.230   4.070   7.135 -1.2703  1.0544 -0.0067
 3868SOL    HW223064   2.362   4.047   7.092  0.3308 -0.0706  0.5521
 3869SOL     OW23065   2.222   3.051   5.561 -0.1983  0.2043 -0.0826
 3869SOL    HW123066   2.271   3.085   5.636 -1.1553 -0.0469  0.6550
 3869SOL    HW223067   2.184   3.129   5.520  1.7743  1.2317  0.0434
 3870SOL     OW23068   2.083   3.086   4.150  0.4150  0.2125 -0.0432
 3870SOL    HW123069   2.101   3.171   4.111  3.4605 -1.0643 -1.3738
 3870SOL    HW223070   2.012   3.053   4.094  0.2970 -1.4717  1.0809
 3871SOL     OW23071   2.396   1.231   3.213 -0.4822  0.6501 -0.1300
 3871SOL    HW123072   2.406   1.185   3.130 -1.8910  0.0377  0.0271
 3871SOL    HW223073   2.427   1.155   3.262  1.0301  1.9607  0.9239
 3872SOL     OW23074   1.237   1.181   1.618  0.3371 -0.0991 -0.6928
 3872SOL    HW123075   1.263   1.267   1.650  0.2419  0.0032 -0.8859
 3872SOL    HW223076   1.258   1.134   1.699 -0.5896  2.4088  0.9992
 3873SOL     OW23077   3.031   1.356   8.983  0.1358  0.0663 -0.5915
 3873SOL    HW123078   2.950   1.385   9.026  0.3457  0.2940 -0.3474
 3873SOL    HW223079   2.992   1.366   8.896 -2.5477 -0.9227  0.5032
 3874SOL     OW23080   1.267   1.037   3.702  0.0796 -0.4823 -0.5812
 3874SOL    HW123081   1.220   1.078   3.629 -1.6863 -0.7407  0.4392
 3874SOL    HW223082   1.287   1.109   3.762 -1.5493  0.1804 -0.8430
 3875SOL     OW23083   3.762   3.325   7.581 -0.6260 -0.2859 -1.1011
 3875SOL    HW123084   3.763   3.264   7.655  1.4433  0.9836 -0.0678
 3875SOL    HW223085   3.678   3.368   7.592 -0.6696 -0.4517 -0.7917
 3876SOL     OW23086   4.081   1.081   0.182 -0.1600 -0.0419  0.3266
 3876SOL    HW123087   4.019   1.009   0.170 -0.9007  0.4075  1.4123
 3876SOL    HW223088   4.046   1.149   0.124 -2.2868 -1.6226 -0.2650
 3877SOL     OW23089   1.363   2.966   4.951  0.1067 -0.5207 -0.1045
 3877SOL    HW123090   1.279   3.009   4.933  0.6462  0.6067  0.0428
 3877SOL    HW223091   1.323   2.883   4.977  0.5859 -0.1434  1.7932
 3878SOL     OW23092   0.589   0.660  15.412 -0.0932 -0.6787 -0.2242
 3878SOL    HW123093   0.672   0.701  15.386  0.7399 -1.5097  1.1505
 3878SOL    HW223094   0.560   0.727  15.473 -0.9674 -2.3529  1.1923
 3879SOL     OW23095   1.500   4.080   2.949  1.2753 -0.3858 -0.0632
 3879SOL    HW123096   1.486   4.070   3.044 -1.1373 -4.0911 -0.8019
 3879SOL    HW223097   1.560   4.153   2.945  1.0431 -0.1798  0.1834
 3880SOL     OW23098   0.095   0.976  16.257  0.3109  0.2218 -0.1243
 3880SOL    HW123099   0.069   1.043  16.194 -0.1585  0.0142 -0.1466
 3880SOL    HW223100   0.019   0.919  16.248  0.0418  0.4704  0.5866
 3881SOL     OW23101   3.184   0.521   9.305  0.0159 -0.3254  0.0503
 3881SOL    HW123102   3.141   0.604   9.327  0.5806  0.3300 -1.2737
 3881SOL    HW223103   3.234   0.509   9.385 -0.3900 -1.2391  0.1642
 3882SOL     OW23104   2.329   3.880   3.084  0.3507  0.0173 -0.6197
 3882SOL    HW123105   2.373   3.825   3.020  1.2398  0.3267 -0.2730
 3882SOL    HW223106   2.377   3.957   3.052  0.9034 -0.4936 -1.0119
 3883SOL     OW23107   2.186   0.652   8.622  0.0589  0.1767 -0.2720
 3883SOL    HW123108   2.222   0.563   8.635 -0.4984  0.0167  0.1507
 3883SOL    HW223109   2.142   0.636   8.538 -1.3040 -0.3006  0.5425
 3884SOL     OW23110   3.272   1.473  15.002 -0.4674  0.4432  0.4836
 3884SOL    HW123111   3.262   1.411  15.073 -0.8863 -0.4139 -0.3187
 3884SOL    HW223112   3.352   1.437  14.963 -0.2750 -0.8888  2.1527
 3885SOL     OW23113   4.174   2.696  12.226 -0.4392 -0.5016  0.4215
 3885SOL    HW123114   4.164   2.790  12.234  1.1519 -0.5441  2.7027
 3885SOL    HW223115   4.227   2.687  12.305 -0.4735 -2.2725  0.2577
 3886SOL     OW23116   4.021   3.243   0.327 -0.6263  0.1452 -0.4552
 3886SOL    HW123117   4.074   3.279   0.398 -1.3398  1.1704 -0.4395
 3886SOL    HW223118   3.944   3.298   0.338  0.4130  1.6568 -0.6645
 3887SOL     OW23119   3.574   2.754   3.863  0.6942  0.1239  0.3099
 3887SOL    HW123120   3.557   2.842   3.830  0.3909  1.2486  3.5131
 3887SOL    HW223121   3.491   2.714   3.839 -0.0906 -0.2981  3.7410
 3888SOL     OW23122   2.348   0.689   6.820 -0.2847  0.3135  0.2009
 3888SOL    HW123123   2.430   0.739   6.822  0.4306 -0.7731 -2.3939
 3888SOL    HW223124   2.375   0.601   6.793 -1.5574  0.1579 -0.5352
 3889SOL     OW23125   3.068   3.170   7.390  0.4618  0.7333 -0.4419
 3889SOL    HW123126   3.099   3.201   7.305  1.9439 -0.4283 -0.3145
 3889SOL    HW223127   2.983   3.145   7.353  0.7715  1.1016 -1.4251
 3890SOL     OW23128   4.354   4.178  16.214 -0.1800 -0.2961 -0.6776
 3890SOL    HW123129   4.269   4.204  16.178 -0.4554 -1.0636 -0.5854
 3890SOL    HW223130   4.335   4.202  16.305 -0.9594 -0.5307 -0.7755
 3891SOL     OW23131   0.059   2.822   0.157 -0.1665 -0.1415 -0.1020
 3891SOL    HW123132   0.058   2.823   0.253  2.2537 -0.5239 -0.0834
 3891SOL    HW223133   4.687   2.820   0.148 -0.2631  1.2458  0.5310
 3892SOL     OW23134   2.162   3.937   6.361  0.0204  0.3567  0.1707
 3892SOL    HW123135   2.197   3.943   6.272  0.3114  1.2589  0.3429
 3892SOL    HW223136   2.080   3.987   6.364  0.1488  0.5943 -0.3163
 3893SOL     OW23137   4.707   2.163   0.192  0.1957  0.3348 -0.0990
 3893SOL    HW123138   4.628   2.212   0.171 -0.7275 -0.3719  1.7644
 3893SOL    HW223139   4.717   2.198   0.280  0.1253  0.7885 -0.2726
 3894SOL     OW23140   3.303   0.485   9.579  0.4919 -0.4713  0.5269
 3894SOL    HW123141   3.388   0.445   9.564  0.7676 -0.0221  0.8875
 3894SOL    HW223142   3.341   0.570   9.600  3.4872 -1.9065  0.8690
 3895SOL     OW23143   0.163   4.061   3.733  0.1124  0.2191 -0.3452
 3895SOL    HW123144   0.197   3.996   3.794 -0.2989 -0.6662 -1.0586
 3895SOL    HW223145   0.239   4.118   3.725 -0.1223  0.4060 -1.2479
 3896SOL     OW23146   0.764   1.968   2.602  0.4621  0.0185 -0.1140
 3896SOL    HW123147   0.823   1.909   2.649  2.5582  1.4480 -0.9233
 3896SOL    HW223148   0.724   2.017   2.674 -2.0192  1.3069 -2.3705
 3897SOL     OW23149   1.349   2.219  14.343  0.0732  0.1228  0.2929
 3897SOL    HW123150   1.320   2.305  14.311  0.0873  0.1606  0.3806
 3897SOL    HW223151   1.347   2.169  14.261  0.6894  0.2314  0.2115
 3898SOL     OW23152   2.790   2.295   5.132 -0.1361 -0.1073  0.1472
 3898SOL    HW123153   2.759   2.375   5.089 -0.1560  0.1118  0.5643
 3898SOL    HW223154   2.829   2.330   5.212  1.2069 -0.7770 -0.2234
 3899SOL     OW23155   0.830   0.100   0.608 -0.4113  0.1286 -0.1656
 3899SOL    HW123156   0.856   0.165   0.543 -0.8819 -0.4054 -0.8811
 3899SOL    HW223157   0.914   0.096   0.653 -0.0850  1.6200 -0.6382
 3900SOL     OW23158   1.440   1.094   0.690 -0.3172  0.0846 -0.1709
 3900SOL    HW123159   1.429   1.030   0.761  0.0356  0.5890  0.3386
 3900SOL    HW223160   1.527   1.131   0.708 -0.3342  0.3236 -0.6018
 3901SOL     OW23161   2.440   0.776   5.549  0.3349  0.1037  0.0030
 3901SOL    HW123162   2.395   0.694   5.565  1.9664 -1.0127 -1.0924
 3901SOL    HW223163   2.508   0.770   5.615  0.6374  2.5449 -0.0797
 3902SOL     OW23164   1.478   2.797   0.669 -0.8736 -0.5653  0.5747
 3902SOL    HW123165   1.503   2.706   0.685  1.6545  0.0055 -0.0383
 3902SOL    HW223166   1.492   2.818   0.576 -1.3143  2.9788  1.3071
 3903SOL     OW23167   4.167   1.098   8.004  0.4956 -0.1267  0.0542
 3903SOL    HW123168   4.129   1.157   8.069 -1.4177 -1.6003  0.2452
 3903SOL    HW223169   4.201   1.027   8.059  1.0671  0.6446  0.7050
 3904SOL     OW23170   3.594   1.668   9.681  0.0245  0.0568 -0.7170
 3904SOL    HW123171   3.520   1.682   9.622 -1.2262 -1.3370  0.5315
 3904SOL    HW223172   3.647   1.746   9.663 -0.1437  0.2286 -0.4748
 3905SOL     OW23173   1.469   2.011  13.668  0.4671  0.0880 -0.4633
 3905SOL    HW123174   1.537   2.070  13.702  0.8002 -0.7862  0.3967
 3905SOL    HW223175   1.517   1.933  13.639 -2.5741 -1.4337 -1.3726
 3906SOL     OW23176   4.007   2.656   1.591 -0.3410 -0.4895 -0.1536
 3906SOL    HW123177   4.067   2.631   1.521 -1.5610 -0.6751 -1.1318
 3906SOL    HW223178   4.075   2.661   1.659  0.6187 -0.3311 -1.1214
 3907SOL     OW23179   4.170   2.590   7.824 -0.7611  0.7841 -0.0997
 3907SOL    HW123180   4.169   2.644   7.904  1.1403 -0.2761  0.6312
 3907SOL    HW223181   4.201   2.509   7.863  1.6120  0.6295 -2.3449
 3908SOL     OW23182   2.644   4.633   7.712  0.2334 -0.0680  0.3429
 3908SOL    HW123183   2.733   4.655   7.741  0.9044 -0.6260 -1.3141
 3908SOL    HW223184   2.659   4.603   7.623  2.2793  0.2863  0.5543
 3909SOL     OW23185   0.077   2.858  11.899  0.4608 -0.3082  0.0354
 3909SOL    HW123186   0.081   2.861  11.803 -2.5340 -1.8227 -0.1240
 3909SOL    HW223187   0.167   2.889  11.912  0.3559 -0.3537  0.8551
 3910SOL     OW23188   1.807   2.464  12.084  0.2284 -0.0514 -0.3927
 3910SOL    HW123189   1.713   2.449  12.095 -0.4290  2.7527 -2.1544
 3910SOL    HW223190   1.835   2.465  12.175  1.0079 -0.8721 -0.6272
 3911SOL     OW23191   3.342   2.536   3.843 -0.1538  0.1379  0.0421
 3911SOL    HW123192   3.298   2.462   3.885  0.5808 -0.3290 -0.0222
 3911SOL    HW223193   3.315   2.544   3.752  0.3303  1.1519 -0.0167
 3912SOL     OW23194   0.466   2.481  14.655 -0.0383  0.1267  0.2943
 3912SOL    HW123195   0.515   2.491  14.737 -0.7990  0.9328  0.6484
 3912SOL    HW223196   0.444   2.569  14.625 -1.3073 -0.5965 -0.8705
 3913SOL     OW23197   0.198   3.073   0.153  0.4273 -0.1594  0.3622
 3913SOL    HW123198   0.204   3.090   0.059  0.4048 -3.9867 -0.3106
 3913SOL    HW223199   0.152   2.991   0.167  2.2728 -1.0001  1.5832
 3914SOL     OW23200   4.299   1.821  17.486 -0.2780  0.3046 -0.0979
 3914SOL    HW123201   4.331   1.902  17.525  0.9509 -0.3191  0.1795
 3914SOL    HW223202   4.250   1.858  17.413 -1.6920  0.5072  0.9485
 3915SOL     OW23203   2.377   0.362  11.879 -0.1878 -0.3168 -0.3174
 3915SOL    HW123204   2.454   0.305  11.887 -0.2789 -0.2955  0.6895
 3915SOL    HW223205   2.414   0.450  11.871 -2.6368  0.7625  0.4784
 3916SOL     OW23206   0.928   2.523  17.584 -0.2418 -0.4599  0.1056
 3916SOL    HW123207   0.893   2.562  17.664  0.7687 -2.3900  1.4805
 3916SOL    HW223208   1.016   2.558  17.597 -0.2186 -0.2745 -0.5684
 3917SOL     OW23209   1.816   0.422   6.625  0.1116 -0.4653 -0.1273
 3917SOL    HW123210   1.861   0.426   6.710 -1.8359 -0.9708  0.9292
 3917SOL    HW223211   1.766   0.340   6.632  0.5022 -0.7897 -1.1452
 3918SOL     OW23212   3.231   1.335   5.513 -0.0827 -0.0563  0.1299
 3918SOL    HW123213   3.274   1.351   5.597  0.9311 -1.9589 -0.0274
 3918SOL    HW223214   3.294   1.284   5.461 -0.2610  0.3784 -0.5117
 3919SOL     OW23215   2.166   3.304   2.566  0.6091 -0.2018 -0.1101
 3919SOL    HW123216   2.161   3.320   2.472 -0.4665  0.7820  0.1190
 3919SOL    HW223217   2.085   3.348   2.593  1.0574  0.4774  0.1433
 3920SOL     OW23218   0.280   2.763   0.990  0.0890 -0.2325  0.2945
 3920SOL    HW123219   0.357   2.809   1.024 -0.4763  0.3534  0.7825
 3920SOL    HW223220   0.214   2.831   0.972 -0.1173 -0.1958  1.1846
 3921SOL     OW23221   4.063   0.922  15.108 -0.0780  0.0261  0.2088
 3921SOL    HW123222   4.101   0.863  15.173  1.9479  1.1714  0.0757
 3921SOL    HW223223   4.099   0.874  15.032 -1.2284  1.0907 -0.9981
 3922SOL     OW23224   0.007   1.314   9.351 -0.1201 -0.6038 -0.1390
 3922SOL    HW123225   4.656   1.332   9.294  0.5505 -0.9848 -1.1405
 3922SOL    HW223226   4.698   1.330   9.439  0.2242  0.1686 -0.1535
 3923SOL     OW23227   3.192   3.608  11.686 -0.0883 -0.1119  0.3143
 3923SOL    HW123228   3.163   3.615  11.777 -1.8433 -1.1109 -0.1741
 3923SOL    HW223229   3.184   3.695  11.647 -1.0842 -0.0416  0.6801
 3924SOL     OW23230   0.607   3.779  17.346  0.5469  0.0694 -0.1087
 3924SOL    HW123231   0.515   3.757  17.334  0.5778 -0.4079  0.5148
 3924SOL    HW223232   0.613   3.772  17.442  2.0450 -3.3149 -0.4594
 3925SOL     OW23233   2.362   4.369   7.539  0.2577 -0.2122  0.3308
 3925SOL    HW123234   2.352   4.274   7.540  1.1776 -0.3158 -0.7139
 3925SOL    HW223235   2.457   4.365   7.551  0.1846 -0.5429  0.7843
 3926SOL     OW23236   0.232   3.897   6.963  0.7299  0.5465  0.1878
 3926SOL    HW123237   0.227   3.882   6.868  2.4304 -0.6356  0.2997
 3926SOL    HW223238   0.263   3.810   6.988  0.1141  0.3559  0.2958
 3927SOL     OW23239   1.405   1.152   3.977 -0.1093 -0.1407  0.2722
 3927SOL    HW123240   1.400   1.074   4.032 -0.9750  0.1875  0.6729
 3927SOL    HW223241   1.498   1.171   3.975 -0.6385  2.7842  2.6928
 3928SOL     OW23242   2.092   1.969   6.074  0.0809  0.1704 -0.8374
 3928SOL    HW123243   2.181   2.005   6.073  0.0544  0.2703  0.3666
 3928SOL    HW223244   2.092   1.928   6.161  0.0153 -0.1276 -0.9764
 3929SOL     OW23245   0.929   2.239  16.175 -0.1142  0.5341  0.5275
 3929SOL    HW123246   0.950   2.226  16.083 -0.6967 -0.5987  0.5571
 3929SOL    HW223247   1.020   2.251  16.201 -0.5586  1.6683  1.6025
 3930SOL     OW23248   2.560   4.451  11.979 -0.2879  0.0683 -0.0961
 3930SOL    HW123249   2.529   4.379  11.923 -0.0960  0.5840 -0.8601
 3930SOL    HW223250   2.565   4.394  12.056 -2.7435 -1.1025 -0.7790
 3931SOL     OW23251   4.333   0.834  10.360  0.0840 -0.6811 -0.1041
 3931SOL    HW123252   4.346   0.920  10.319 -2.3957  0.8996  2.4342
 3931SOL    HW223253   4.307   0.841  10.452  0.8804 -2.3865  0.2551
 3932SOL     OW23254   1.453   4.624   5.470 -0.0875  0.0557 -0.4189
 3932SOL    HW123255   1.399   4.551   5.500  0.3881  0.2425  0.8624
 3932SOL    HW223256   1.405   4.698   5.507  2.3815  0.2005  2.4431
 3933SOL     OW23257   2.942   0.146   9.289 -0.2243 -0.5663 -0.4489
 3933SOL    HW123258   3.013   0.091   9.321  1.0248 -0.0139 -2.3066
 3933SOL    HW223259   2.907   0.081   9.228 -0.9550 -1.6420  1.0950
 3934SOL     OW23260   0.395   4.659  13.886 -0.1344  0.6871 -0.3695
 3934SOL    HW123261   0.309   4.697  13.868 -1.6744 -2.2260  0.6776
 3934SOL    HW223262   0.403   4.588  13.822  2.1083  0.4125  0.2041
 3935SOL     OW23263   3.064   2.091  11.438  0.1937  0.4929  0.0762
 3935SOL    HW123264   3.104   2.095  11.351 -1.2132 -1.3137 -0.6567
 3935SOL    HW223265   3.130   2.059  11.500  1.9996  2.1799 -0.9752
 3936SOL     OW23266   3.815   2.507   8.479 -0.3791 -0.0474  0.4120
 3936SOL    HW123267   3.881   2.575   8.473 -0.9716  0.5794  0.9807
 3936SOL    HW223268   3.792   2.488   8.388 -2.1563 -0.4051  0.9200
 3937SOL     OW23269   0.408   2.056  12.794  0.0023 -0.3046  0.1272
 3937SOL    HW123270   0.459   2.132  12.823  0.4001 -0.6597  0.3604
 3937SOL    HW223271   0.417   2.079  12.702 -0.3991 -2.7053 -0.5093
 3938SOL     OW23272   2.071   1.809   3.320  0.4289 -0.6817 -0.4044
 3938SOL    HW123273   2.161   1.799   3.350  0.2162 -2.1909 -0.2386
 3938SOL    HW223274   2.051   1.717   3.301 -1.7468 -0.1189 -0.8040
 3939SOL     OW23275   3.712   0.241   7.943 -0.3896 -0.3080 -0.0440
 3939SOL    HW123276   3.670   0.195   7.870  1.4931 -2.1728  0.0458
 3939SOL    HW223277   3.792   0.284   7.913 -0.4823 -0.9613 -1.2519
 3940SOL     OW23278   3.540   2.596   2.255 -0.1746  0.5120 -0.5576
 3940SOL    HW123279   3.539   2.505   2.284  1.8855  0.6973  0.0796
 3940SOL    HW223280   3.523   2.581   2.162  0.1658  0.0359 -0.5415
 3941SOL     OW23281   3.178   0.843   3.115 -0.2199  0.1843 -0.0212
 3941SOL    HW123282   3.148   0.846   3.206  1.1998  0.3724  0.4373
 3941SOL    HW223283   3.181   0.933   3.083  0.5620  0.8226  1.8434
 3942SOL     OW23284   2.090   3.497   1.277  0.4811  0.1277  0.3491
 3942SOL    HW123285   2.079   3.467   1.187 -0.6408 -0.3871  0.6584
 3942SOL    HW223286   2.007   3.543   1.286 -0.6539 -1.5661 -1.5033
 3943SOL     OW23287   2.171   1.701   4.823  0.2632 -0.0847  0.3271
 3943SOL    HW123288   2.213   1.732   4.903  1.6120 -0.6654 -0.1511
 3943SOL    HW223289   2.130   1.781   4.791  1.5507 -0.3242 -1.9524
 3944SOL     OW23290   4.332   2.327   7.938 -0.2258  0.2884  0.5586
 3944SOL    HW123291   4.348   2.233   7.934  0.6905  0.5763 -2.8257
 3944SOL    HW223292   4.333   2.352   8.030  1.0833 -0.5830  0.7905
 3945SOL     OW23293   3.575   0.857   5.843  0.2736 -0.1073 -0.1200
 3945SOL    HW123294   3.656   0.883   5.887 -0.0849  1.2115 -0.2209
 3945SOL    HW223295   3.618   0.853   5.758  0.0248  0.2164 -0.2654
 3946SOL     OW23296   1.538   4.191   3.595  0.3699 -0.1757 -0.5673
 3946SOL    HW123297   1.563   4.117   3.540 -0.1927 -0.3238 -0.6166
 3946SOL    HW223298   1.562   4.263   3.536  0.4394 -0.8921 -1.4265
 3947SOL     OW23299   0.695   4.296   7.656  0.0009  0.3369 -0.0125
 3947SOL    HW123300   0.631   4.366   7.671 -0.5436 -0.5280  1.7166
 3947SOL    HW223301   0.718   4.271   7.745 -0.2865  1.1729  0.2949
 3948SOL     OW23302   0.275   4.373   7.253 -0.0222  0.2095  0.1979
 3948SOL    HW123303   0.341   4.337   7.194 -0.5108 -0.6895  0.1992
 3948SOL    HW223304   0.224   4.416   7.184  1.0827  0.8655 -0.2056
 3949SOL     OW23305   4.283   4.395   4.185  1.0361  0.7231 -0.5112
 3949SOL    HW123306   4.351   4.330   4.170  0.9352  0.5356 -0.1513
 3949SOL    HW223307   4.238   4.364   4.264 -1.1841  1.6058 -1.4181
 3950SOL     OW23308   2.476   3.450   6.743  0.2755 -0.0946  0.0350
 3950SOL    HW123309   2.402   3.450   6.683  0.7368  0.0003 -0.5283
 3950SOL    HW223310   2.448   3.472   6.833  1.0542 -1.8353  0.7030
 3951SOL     OW23311   3.286   0.464   8.089 -0.5932 -0.0017 -0.2650
 3951SOL    HW123312   3.266   0.442   8.181 -0.4331 -0.5190 -0.3551
 3951SOL    HW223313   3.280   0.559   8.099 -0.3500 -0.0389  0.2727
 3952SOL     OW23314   3.961   3.620  15.827  0.1384  0.4359 -0.2037
 3952SOL    HW123315   3.912   3.539  15.815  0.5521  0.4297 -1.7576
 3952SOL    HW223316   3.917   3.671  15.760  1.3473  1.7376 -0.0155
 3953SOL     OW23317   0.954   1.340   2.311  0.1115 -0.8642  0.0512
 3953SOL    HW123318   0.870   1.385   2.309  0.1679 -0.7212  0.7993
 3953SOL    HW223319   1.016   1.399   2.267 -0.5160 -1.0254 -1.0446
 3954SOL     OW23320   1.947   1.951   4.105 -0.4317 -0.2825 -0.3654
 3954SOL    HW123321   1.927   1.880   4.166  0.9059  0.2952  0.7482
 3954SOL    HW223322   1.897   1.932   4.025  0.1938 -0.0288 -0.8175
 3955SOL     OW23323   3.047   2.263   6.528 -0.0629  0.2242  0.3451
 3955SOL    HW123324   3.128   2.217   6.548 -0.9837 -1.4172  0.2781
 3955SOL    HW223325   3.033   2.235   6.438  0.6376 -0.3158  0.4071
 3956SOL     OW23326   2.170   2.615   7.488 -0.4907 -0.1554  0.0428
 3956SOL    HW123327   2.151   2.680   7.420  2.0722 -0.0905 -0.5958
 3956SOL    HW223328   2.216   2.547   7.439 -2.0963 -0.7784 -0.5908
 3957SOL     OW23329   4.274   1.200   8.873 -0.0556 -0.4153 -0.0954
 3957SOL    HW123330   4.235   1.115   8.851 -0.5106 -0.6664  1.6897
 3957SOL    HW223331   4.196   1.255   8.869 -0.7934 -1.2792  2.4257
 3958SOL     OW23332   1.217   1.959   3.551 -0.7211 -0.1264 -0.0729
 3958SOL    HW123333   1.160   1.887   3.577  0.0797 -0.5061  0.6326
 3958SOL    HW223334   1.297   1.948   3.603  0.0202 -0.3481 -1.2368
 3959SOL     OW23335   2.185   2.576   3.763  0.5756 -0.2077  0.3986
 3959SOL    HW123336   2.100   2.547   3.798  0.1279  0.0052 -0.5112
 3959SOL    HW223337   2.169   2.658   3.718  0.1094 -0.0891  0.7769
 3960SOL     OW23338   0.412   2.062   4.273  0.0569 -0.0243 -0.1531
 3960SOL    HW123339   0.381   2.116   4.346 -1.3668  0.5899 -1.1859
 3960SOL    HW223340   0.504   2.063   4.299 -0.0959  1.4361  0.3668
 3961SOL     OW23341   1.256   4.008   9.525 -0.2398  0.1039 -0.0933
 3961SOL    HW123342   1.177   3.994   9.473 -0.0964 -2.4074  0.3994
 3961SOL    HW223343   1.241   3.952   9.601  0.5820 -0.4856 -0.3648
 3962SOL     OW23344   2.998   2.887   4.336  0.2390 -0.0173 -0.0913
 3962SOL    HW123345   3.036   2.968   4.371 -1.0699  0.4883  0.1772
 3962SOL    HW223346   2.928   2.923   4.281 -1.4959 -2.2212  0.6463
 3963SOL     OW23347   2.112   1.697  10.702 -0.0238 -0.6235  0.5297
 3963SOL    HW123348   2.102   1.781  10.657  3.6211  0.1436  1.1730
 3963SOL    HW223349   2.029   1.690  10.749 -0.0894  1.7219  0.7861
 3964SOL     OW23350   4.358   1.655   2.673 -0.8523 -0.1221 -0.2423
 3964SOL    HW123351   4.379   1.717   2.743 -0.3312 -0.5289 -0.0357
 3964SOL    HW223352   4.287   1.692   2.621 -2.7080  0.3967  2.6179
 3965SOL     OW23353   2.834   3.719   4.635 -1.0815  0.3227 -0.1493
 3965SOL    HW123354   2.917   3.722   4.588 -1.3978  1.2050 -0.6578
 3965SOL    HW223355   2.853   3.739   4.727  1.2788  3.3290 -1.2708
 3966SOL     OW23356   4.169   1.771   8.324  0.1593 -0.3463 -0.2265
 3966SOL    HW123357   4.122   1.824   8.388  2.1423  0.7069  0.3596
 3966SOL    HW223358   4.253   1.782   8.369  1.0841  0.6521 -2.1674
 3967SOL     OW23359   3.046   1.539  12.138 -0.3682  0.4521 -0.6544
 3967SOL    HW123360   3.058   1.488  12.218 -1.4851  1.9821  0.4801
 3967SOL    HW223361   3.132   1.581  12.131 -1.4828  2.9967  1.0609
 3968SOL     OW23362   0.911   4.561   9.551 -0.6331 -0.0802 -0.3443
 3968SOL    HW123363   0.858   4.573   9.472  0.7403  2.1880 -0.9226
 3968SOL    HW223364   0.989   4.530   9.505  0.9671  2.3809  0.7139
 3969SOL     OW23365   1.583   4.306   6.870  0.0142 -0.0309  0.1632
 3969SOL    HW123366   1.645   4.298   6.943 -0.2939  1.4820  0.6064
 3969SOL    HW223367   1.502   4.265   6.899 -1.4561  0.5468 -3.2013
 3970SOL     OW23368   0.181   1.454   5.931  0.3785  0.0132 -0.3600
 3970SOL    HW123369   0.255   1.396   5.911  0.5944 -0.6246  2.2395
 3970SOL    HW223370   0.118   1.443   5.860  0.6308  0.9020 -0.7215
 3971SOL     OW23371   0.665   2.268   1.513  0.3596 -0.1525 -0.9041
 3971SOL    HW123372   0.753   2.276   1.477  1.0895 -4.3263 -0.0923
 3971SOL    HW223373   0.613   2.289   1.435 -0.0731  2.0317 -0.0223
 3972SOL     OW23374   4.453   4.609   4.095 -0.2761  0.4562 -0.0310
 3972SOL    HW123375   4.422   4.519   4.107  1.5413 -0.3292 -1.2280
 3972SOL    HW223376   4.413   4.660   4.166 -1.6830 -3.3320  1.8852
 3973SOL     OW23377   3.958   2.440   9.947  0.5849  0.4532 -0.8512
 3973SOL    HW123378   4.045   2.401   9.946 -0.7076 -2.4878 -0.5162
 3973SOL    HW223379   3.937   2.406  10.034  0.3764  0.6642 -0.8191
 3974SOL     OW23380   0.386   2.416  13.555  0.6502 -0.1069  0.0182
 3974SOL    HW123381   0.368   2.323  13.541 -0.9868  0.1211  0.6045
 3974SOL    HW223382   0.458   2.432  13.495 -1.7579  1.0830 -2.5217
 3975SOL     OW23383   1.242   1.635   0.676  0.1056 -0.2346 -0.1440
 3975SOL    HW123384   1.171   1.589   0.721 -2.3441  1.3671 -2.4173
 3975SOL    HW223385   1.210   1.629   0.587  1.4195  0.9662 -0.7092
 3976SOL     OW23386   0.092   3.102   5.821  0.0525 -0.3910  0.5233
 3976SOL    HW123387   0.082   3.162   5.747 -0.1907 -1.7690 -0.5638
 3976SOL    HW223388   0.093   3.011   5.791  0.3990 -0.0581 -0.4610
 3977SOL     OW23389   0.455   3.440   9.722 -0.2468  0.3059 -0.0892
 3977SOL    HW123390   0.488   3.369   9.776 -1.0133  0.1410  0.1504
 3977SOL    HW223391   0.377   3.401   9.684 -0.3645 -0.7048  1.2018
 3978SOL     OW23392   0.363   1.689   3.912  1.0283 -0.0465 -0.4824
 3978SOL    HW123393   0.312   1.726   3.983  0.1124 -0.6883 -0.8115
 3978SOL    HW223394   0.347   1.749   3.839  0.1314 -1.2938 -1.3161
 3979SOL     OW23395   1.427   0.711   8.465  0.2123  0.0906 -0.3562
 3979SOL    HW123396   1.344   0.757   8.455 -0.2937 -0.6469  0.4745
 3979SOL    HW223397   1.421   0.638   8.403  1.8550 -1.1403  0.9281
 3980SOL     OW23398   3.669   1.049   7.356  0.2287 -0.0698 -0.0895
 3980SOL    HW123399   3.610   1.041   7.431  0.9560 -0.0181  0.4964
 3980SOL    HW223400   3.622   1.015   7.280  1.5738 -0.3345 -0.8154
 3981SOL     OW23401   2.995   2.748   7.086 -0.1886  0.1190  0.0732
 3981SOL    HW123402   3.035   2.833   7.068  0.0704  0.1083  0.6094
 3981SOL    HW223403   3.048   2.717   7.160  1.2175  1.1001 -0.5055
 3982SOL     OW23404   3.922   0.292   5.263  0.0771 -0.2761  0.0925
 3982SOL    HW123405   4.017   0.302   5.262  0.1651 -1.1238 -5.0595
 3982SOL    HW223406   3.907   0.282   5.169 -0.0418 -0.7961  0.1662
 3983SOL     OW23407   4.440   2.847  10.806 -0.3521  0.0912  0.1871
 3983SOL    HW123408   4.372   2.906  10.839 -1.4962 -2.9363  3.2528
 3983SOL    HW223409   4.388   2.786  10.754 -2.2467  0.4108  1.6728
 3984SOL     OW23410   1.652   2.747   0.084 -0.1911  0.7265  0.3091
 3984SOL    HW123411   1.686   2.683   0.146  1.1796 -0.0593 -1.2541
 3984SOL    HW223412   1.641   2.832   0.128  1.1865  0.1500  1.7639
 3985SOL     OW23413   0.293   3.249   3.393  0.1011 -0.4467 -0.2872
 3985SOL    HW123414   0.285   3.201   3.310 -1.7993  0.3048 -0.5491
 3985SOL    HW223415   0.351   3.323   3.373 -0.7645  0.3003 -0.0383
 3986SOL     OW23416   3.552   3.573   5.911 -0.1153 -0.4024  0.4429
 3986SOL    HW123417   3.590   3.591   5.997  4.0183 -0.4015 -1.3674
 3986SOL    HW223418   3.584   3.485   5.889  0.1316  0.2368 -1.8055
 3987SOL     OW23419   2.547   4.219   1.463  0.1505  0.0430 -0.0240
 3987SOL    HW123420   2.467   4.271   1.461 -0.2884 -0.6137  0.1955
 3987SOL    HW223421   2.558   4.216   1.558 -0.3122  0.9662  0.0526
 3988SOL     OW23422   3.877   2.558  14.977  0.6978 -0.5374 -0.0799
 3988SOL    HW123423   3.820   2.481  14.978 -1.4071  1.0584 -0.5130
 3988SOL    HW223424   3.962   2.519  15.001  0.5065 -1.3541 -0.7424
 3989SOL     OW23425   3.632   0.546   5.356  0.2487 -0.4781 -0.5176
 3989SOL    HW123426   3.632   0.532   5.261  3.0773 -1.0862 -0.4262
 3989SOL    HW223427   3.710   0.599   5.374 -0.1055 -0.2121  0.1922
 3990SOL     OW23428   3.296   0.152  10.145  0.1649  0.3915 -0.3175
 3990SOL    HW123429   3.207   0.161  10.110 -0.5276 -1.7147  0.8482
 3990SOL    HW223430   3.293   0.056  10.142 -2.2293  0.4414  0.1307
 3991SOL     OW23431   1.154   4.420   0.385  0.3719 -0.0313  0.1410
 3991SOL    HW123432   1.086   4.420   0.319 -0.1932 -1.7049  0.7312
 3991SOL    HW223433   1.129   4.353   0.449  0.8762 -0.8723 -0.5459
 3992SOL     OW23434   1.445   1.408   7.819  0.1308 -0.1668 -0.0171
 3992SOL    HW123435   1.418   1.318   7.839  1.5689 -0.5659  0.1023
 3992SOL    HW223436   1.445   1.442   7.909 -0.4992 -1.2316  0.3826
 3993SOL     OW23437   3.777   1.569  11.901  0.2670  0.4899 -0.2550
 3993SOL    HW123438   3.858   1.619  11.906 -1.1275  2.6186  0.9796
 3993SOL    HW223439   3.753   1.590  11.811  0.2622 -1.0204 -0.6036
 3994SOL     OW23440   1.709   1.578  11.847 -0.3344  0.3815  0.2082
 3994SOL    HW123441   1.682   1.626  11.925  1.7495  0.7747  0.6884
 3994SOL    HW223442   1.726   1.487  11.874 -3.3601 -0.0691  0.6100
 3995SOL     OW23443   3.194   3.733   8.095  0.0864 -0.2458  0.0415
 3995SOL    HW123444   3.213   3.696   8.181  2.4570 -0.9517 -0.7761
 3995SOL    HW223445   3.120   3.678   8.070 -0.7364  0.2497  1.3801
 3996SOL     OW23446   2.681   2.541  13.456  0.2740 -0.1785  0.0771
 3996SOL    HW123447   2.680   2.608  13.388  1.6372 -0.7983 -0.5312
 3996SOL    HW223448   2.646   2.474  13.398  0.1342 -1.8049  2.0379
 3997SOL     OW23449   4.542   0.505   7.302  0.8193  0.2311 -0.1781
 3997SOL    HW123450   4.567   0.469   7.387  0.2407 -0.3757 -0.2654
 3997SOL    HW223451   4.615   0.476   7.246 -1.3620 -1.9996 -1.8974
 3998SOL     OW23452   0.873   0.025  15.433  0.5180 -0.6259  0.1964
 3998SOL    HW123453   0.786   4.710  15.444  1.0259 -2.0712 -0.8586
 3998SOL    HW223454   0.934   4.675  15.444  1.1830  0.1334  1.6424
 3999SOL     OW23455   0.546   3.525   6.602 -0.1085 -0.2378 -0.3617
 3999SOL    HW123456   0.505   3.442   6.625  2.0958 -1.1687  0.2124
 3999SOL    HW223457   0.567   3.569   6.684 -1.1021 -1.5739  0.5990
 4000SOL     OW23458   4.245   2.928   0.866 -0.1252  0.1473 -0.0098
 4000SOL    HW123459   4.329   2.900   0.905  0.0631 -0.4790 -0.8588
 4000SOL    HW223460   4.209   2.975   0.941 -0.9895 -0.3708 -0.1057
 4001SOL     OW23461   1.414   0.848  14.986 -0.5368  0.0175  0.1672
 4001SOL    HW123462   1.457   0.781  14.933 -2.1244 -0.6097 -0.3237
 4001SOL    HW223463   1.324   0.815  14.984 -0.2948 -0.6333  0.0363
 4002SOL     OW23464   0.126   2.657   7.220  0.3457 -0.6380 -0.0290
 4002SOL    HW123465   0.133   2.639   7.126 -1.2593  1.6553 -0.5897
 4002SOL    HW223466   0.114   2.570   7.258 -2.9454  0.2398  0.9475
 4003SOL     OW23467   1.944   2.029   7.379  0.0011  0.3356  0.0138
 4003SOL    HW123468   1.980   1.951   7.421  1.6795  0.6572 -0.8296
 4003SOL    HW223469   1.871   2.045   7.439 -0.3617 -2.3692  0.2978
 4004SOL     OW23470   4.198   0.367   8.372 -0.3261  0.0661  0.2731
 4004SOL    HW123471   4.189   0.295   8.310  0.9768  0.5021 -0.4273
 4004SOL    HW223472   4.213   0.320   8.454 -0.6073  0.4126  0.5286
 4005SOL     OW23473   4.479   1.443   5.029  0.3054  0.1437  0.5802
 4005SOL    HW123474   4.481   1.363   4.975  0.6047 -0.1504  1.0300
 4005SOL    HW223475   4.514   1.515   4.976  2.2335 -0.7995  0.5863
 4006SOL     OW23476   3.264   2.740   6.152  0.3749  0.5845  0.7289
 4006SOL    HW123477   3.288   2.673   6.088 -0.9271  0.8940 -0.1007
 4006SOL    HW223478   3.195   2.789   6.107  2.1253  1.7138 -0.7147
 4007SOL     OW23479   2.556   2.835   8.205 -0.3146  0.3326  0.3258
 4007SOL    HW123480   2.461   2.839   8.208 -0.3157 -0.3495  1.0386
 4007SOL    HW223481   2.582   2.808   8.293  1.2640 -2.3240 -0.9757
 4008SOL     OW23482   4.436   4.119   4.150  0.2072  0.3653  0.2655
 4008SOL    HW123483   4.459   4.027   4.148 -0.4274  0.1970  0.8499
 4008SOL    HW223484   4.474   4.140   4.235  1.4165  0.4339 -0.2956
 4009SOL     OW23485   3.810   0.668   3.565 -0.0259  0.1988  0.3161
 4009SOL    HW123486   3.866   0.621   3.503  0.6360 -1.1120  1.8918
 4009SOL    HW223487   3.726   0.631   3.539 -0.6656  2.1323 -0.3824
 4010SOL     OW23488   0.846   0.685   2.624 -0.6326  0.0419  0.3951
 4010SOL    HW123489   0.794   0.631   2.684 -2.2633  1.6870  0.4375
 4010SOL    HW223490   0.789   0.693   2.548 -0.2570  1.4255  0.2634
 4011SOL     OW23491   3.340   2.355   2.802 -0.0931  0.0568 -0.1544
 4011SOL    HW123492   3.428   2.321   2.818 -0.6917 -1.4436 -0.0754
 4011SOL    HW223493   3.331   2.356   2.707 -1.0558  1.6915 -0.0537
 4012SOL     OW23494   2.868   0.147   7.638 -0.2568 -0.2428 -0.0499
 4012SOL    HW123495   2.773   0.150   7.649 -0.2728  1.3979 -0.6017
 4012SOL    HW223496   2.898   0.074   7.692 -1.4029 -0.6093  0.1033
 4013SOL     OW23497   2.041   3.351   1.014  0.0617  0.6984  0.0490
 4013SOL    HW123498   1.963   3.312   1.053  1.4797 -2.0321  0.0791
 4013SOL    HW223499   2.042   3.297   0.935 -0.4332  1.0532 -0.2007
 4014SOL     OW23500   3.829   0.440   2.779  0.7410  0.0872 -0.2234
 4014SOL    HW123501   3.811   0.363   2.833  1.7926 -0.4141 -0.5774
 4014SOL    HW223502   3.758   0.501   2.800  1.4922  0.3988  1.4061
 4015SOL     OW23503   2.854   4.413  12.495  0.6931 -0.5580 -0.7169
 4015SOL    HW123504   2.849   4.381  12.405  0.6791 -1.2293 -0.4792
 4015SOL    HW223505   2.779   4.369  12.535 -0.6898  1.0897 -1.5191
 4016SOL     OW23506   4.139   2.359   6.805  0.0438 -0.6536  0.3636
 4016SOL    HW123507   4.150   2.454   6.804  3.4940 -1.0254  2.6553
 4016SOL    HW223508   4.144   2.331   6.896  0.4521  0.8971  0.8265
 4017SOL     OW23509   1.409   0.135  15.486 -0.3663  0.6008 -0.5990
 4017SOL    HW123510   1.483   0.087  15.449 -0.2925  0.0826  0.2200
 4017SOL    HW223511   1.448   0.222  15.497 -1.3207  1.0501 -0.7286
 4018SOL     OW23512   2.597   2.728   8.429 -0.2712  0.5797 -0.0577
 4018SOL    HW123513   2.603   2.775   8.512 -1.6765  1.2800 -0.3468
 4018SOL    HW223514   2.508   2.697   8.442 -0.9034  1.8539 -1.2911
 4019SOL     OW23515   4.613   2.895   7.421 -0.1863 -0.2694  0.1120
 4019SOL    HW123516   4.705   2.903   7.396 -0.2288  0.5924  0.2290
 4019SOL    HW223517   4.619   2.810   7.465  1.0120 -0.9214 -1.3400
 4020SOL     OW23518   0.359   1.393   5.201  0.1414  0.3477  0.1990
 4020SOL    HW123519   0.356   1.297   5.202  2.6620  0.2646  2.2041
 4020SOL    HW223520   0.274   1.395   5.158  0.5671 -0.5961 -0.6744
 4021SOL     OW23521   4.359   3.937   5.160  0.2773 -0.3637  0.1492
 4021SOL    HW123522   4.339   3.959   5.069 -0.1324  0.9520  0.5521
 4021SOL    HW223523   4.453   3.955   5.163 -0.0795  1.8583 -1.5333
 4022SOL     OW23524   3.297   3.765   2.704 -0.2930  0.5338  0.1020
 4022SOL    HW123525   3.218   3.819   2.701 -1.0077 -0.5140  0.1680
 4022SOL    HW223526   3.367   3.824   2.732 -0.2185  0.4029  0.1954
 4023SOL     OW23527   1.144   3.615   4.628 -0.2263 -0.3210 -0.1751
 4023SOL    HW123528   1.086   3.547   4.663  0.1782 -0.6285 -0.1141
 4023SOL    HW223529   1.184   3.572   4.553 -0.3115 -0.7644  0.0376
 4024SOL     OW23530   3.639   3.856   4.050  0.4434 -0.1582  0.3082
 4024SOL    HW123531   3.588   3.900   4.118  0.8022  0.0004  0.4810
 4024SOL    HW223532   3.572   3.798   4.014  1.1360 -1.8863  1.8335
 4025SOL     OW23533   3.071   1.397  12.381  0.4549  0.5040  0.3890
 4025SOL    HW123534   3.026   1.338  12.442  0.6815 -1.1851 -1.0682
 4025SOL    HW223535   3.154   1.416  12.424 -0.3089  0.9163  1.7050
 4026SOL     OW23536   4.139   4.366   4.437 -0.5454  0.0118  0.0188
 4026SOL    HW123537   4.132   4.283   4.486 -0.7196  0.7210  1.2019
 4026SOL    HW223538   4.080   4.347   4.365 -0.4920 -0.1688  0.0208
 4027SOL     OW23539   2.508   0.578  11.830 -0.1036 -0.3834 -0.0824
 4027SOL    HW123540   2.498   0.669  11.858 -0.2249 -0.7877  1.1981
 4027SOL    HW223541   2.585   0.561  11.885  0.6391  2.0512 -0.3514
 4028SOL     OW23542   0.186   3.378   9.592  0.5950  0.3705  0.3251
 4028SOL    HW123543   0.231   3.302   9.631 -0.9778 -0.7954 -0.1602
 4028SOL    HW223544   0.184   3.363   9.498 -0.3484  1.2654  0.2094
 4029SOL     OW23545   0.427   3.715   9.020 -0.0853  0.8421 -0.0121
 4029SOL    HW123546   0.455   3.624   9.007  3.0290  1.6372  1.3073
 4029SOL    HW223547   0.338   3.689   9.045  0.3504  0.8599  1.5063
 4030SOL     OW23548   3.601   4.390   6.559 -0.4861  0.3893  0.5988
 4030SOL    HW123549   3.577   4.422   6.646 -0.4228 -1.9663  1.4896
 4030SOL    HW223550   3.686   4.433   6.555 -0.7355  1.0610  2.4684
 4031SOL     OW23551   4.145   0.317  15.108 -0.1181 -0.1129  0.2136
 4031SOL    HW123552   4.181   0.404  15.122 -0.5696 -0.0252  0.8430
 4031SOL    HW223553   4.161   0.268  15.189 -0.0730  2.0888  1.5264
 4032SOL     OW23554   2.751   1.307   5.739 -0.1276  0.2456 -0.3040
 4032SOL    HW123555   2.786   1.391   5.712 -0.3318  0.6485  0.6833
 4032SOL    HW223556   2.822   1.272   5.792 -1.0378  0.2629  0.9463
 4033SOL     OW23557   1.559   1.138   2.777 -0.5547 -0.8273 -0.4791
 4033SOL    HW123558   1.511   1.129   2.695  1.0525  0.4671 -1.5568
 4033SOL    HW223559   1.545   1.052   2.817  0.0019 -0.9485 -0.5454
 4034SOL     OW23560   4.694   1.900   4.847  0.1415 -0.1363  0.2801
 4034SOL    HW123561   4.653   1.984   4.868  1.6882  0.8647 -0.7045
 4034SOL    HW223562   0.034   1.918   4.777  1.7058 -0.4021  1.6284
 4035SOL     OW23563   3.019   2.941  13.615 -0.1383  0.6853 -0.4650
 4035SOL    HW123564   3.045   2.911  13.702  0.3304  1.5281 -0.3110
 4035SOL    HW223565   3.102   2.919  13.573  0.9087  0.6101  1.6256
 4036SOL     OW23566   0.800   0.814   2.973 -0.6957 -0.0687  0.2418
 4036SOL    HW123567   0.757   0.791   2.890  0.0313  1.7340 -0.6381
 4036SOL    HW223568   0.729   0.851   3.025  0.7008 -0.1792  2.2317
 4037SOL     OW23569   1.628   3.578   8.428 -0.4479 -0.3701  0.5789
 4037SOL    HW123570   1.625   3.618   8.515 -1.2788 -0.8392  0.7633
 4037SOL    HW223571   1.641   3.659   8.378 -0.6643  0.1653  1.3832
 4038SOL     OW23572   0.402   3.638   8.630 -0.3095 -0.3213  0.2982
 4038SOL    HW123573   0.469   3.645   8.561 -0.0794 -0.5211  0.5025
 4038SOL    HW223574   0.396   3.543   8.634 -2.1377 -0.1586  1.1691
 4039SOL     OW23575   0.426   2.213   5.291  0.1039 -0.2634  0.0441
 4039SOL    HW123576   0.396   2.122   5.285  2.8143 -1.1746  0.0615
 4039SOL    HW223577   0.392   2.252   5.371 -2.4398 -3.4233  0.4707
 4040SOL     OW23578   1.140   1.988   4.457 -0.4756  0.0459 -0.4187
 4040SOL    HW123579   1.178   2.056   4.401  1.2517 -0.6028 -0.0206
 4040SOL    HW223580   1.191   1.998   4.537  0.1239  0.8786 -0.9148
 4041SOL     OW23581   3.242   1.097   3.095 -0.1996  0.1699 -0.2814
 4041SOL    HW123582   3.264   1.135   3.010  0.8551  1.8882  0.7725
 4041SOL    HW223583   3.151   1.123   3.110  0.7899  3.1508  0.4993
 4042SOL     OW23584   1.826   0.222   5.936  0.3640  0.7286  0.4918
 4042SOL    HW123585   1.739   0.261   5.923 -0.2924 -1.1249 -0.5607
 4042SOL    HW223586   1.859   0.251   5.851 -0.5885 -0.8537 -0.4145
 4043SOL     OW23587   3.894   3.047   7.302 -0.2045 -0.3976 -0.1957
 4043SOL    HW123588   3.933   3.040   7.388 -2.6759  3.2549  1.2508
 4043SOL    HW223589   3.858   3.136   7.309  1.3230  0.2102 -0.1616
 4044SOL     OW23590   0.325   2.261  11.465  0.0235 -0.1918 -0.3858
 4044SOL    HW123591   0.368   2.318  11.401 -1.2866  1.7447  0.4612
 4044SOL    HW223592   0.257   2.210  11.421 -0.2939  2.1308 -2.5769
 4045SOL     OW23593   3.970   2.156   2.326  0.0240  0.4458  0.5190
 4045SOL    HW123594   3.977   2.077   2.380  0.3408  1.3396  1.7859
 4045SOL    HW223595   3.874   2.164   2.326  0.0319  0.5741  2.9874
 4046SOL     OW23596   3.058   3.930   1.291  0.1065  0.1540  0.3184
 4046SOL    HW123597   3.107   3.961   1.214 -0.9216 -2.0395 -1.2284
 4046SOL    HW223598   3.096   3.842   1.289 -1.1334 -0.3998  1.5273
 4047SOL     OW23599   0.148   3.183   6.080 -0.2434 -0.4061  0.5375
 4047SOL    HW123600   0.119   3.157   5.993 -0.8201  0.6449  0.4211
 4047SOL    HW223601   0.094   3.125   6.134 -1.9287  1.3077  0.7078
 4048SOL     OW23602   3.926   2.360  12.146  0.4656  0.3422  0.1842
 4048SOL    HW123603   4.018   2.387  12.154  0.1019  1.3829  0.7179
 4048SOL    HW223604   3.875   2.437  12.170 -2.4845 -1.1506 -1.2456
 4049SOL     OW23605   3.163   0.840   8.974  0.6050 -0.5037  0.9738
 4049SOL    HW123606   3.133   0.891   9.049 -0.9670  0.0356 -0.0262
 4049SOL    HW223607   3.218   0.775   9.019  0.8757  0.6583  2.2986
 4050SOL     OW23608   0.064   3.863  17.405 -0.1021  0.2784  1.0640
 4050SOL    HW123609   0.027   3.901  17.325 -2.7132 -3.1137  0.6876
 4050SOL    HW223610   0.006   3.902  17.470 -2.5559 -2.7259  0.6993
 4051SOL     OW23611   1.422   2.774  13.652  0.0456  0.0639 -0.0787
 4051SOL    HW123612   1.448   2.684  13.673 -0.1028 -0.0460 -0.3530
 4051SOL    HW223613   1.355   2.785  13.720  1.3713 -0.6425  1.3399
 4052SOL     OW23614   0.568   3.189  16.373 -0.5827 -0.5210  0.7358
 4052SOL    HW123615   0.618   3.174  16.453 -0.8693  0.2136  1.0508
 4052SOL    HW223616   0.486   3.157  16.411 -0.7653  0.2919  1.0393
 4053SOL     OW23617   4.038   1.919   5.168  0.0616  0.4294 -0.0002
 4053SOL    HW123618   4.129   1.924   5.141  0.2680  0.7423  0.7450
 4053SOL    HW223619   4.033   1.830   5.201 -0.5434 -0.6016 -2.8542
 4054SOL     OW23620   4.412   4.678   3.442 -0.1063  0.2390  0.4557
 4054SOL    HW123621   4.491   4.650   3.396  0.3063  3.3508 -0.7250
 4054SOL    HW223622   4.446   0.010   3.513 -0.8339  1.7988 -0.4212
 4055SOL     OW23623   1.644   1.540  14.590 -0.3178  0.2794  0.1693
 4055SOL    HW123624   1.681   1.487  14.661 -0.1041  0.3194  0.0888
 4055SOL    HW223625   1.611   1.472  14.532  0.0713 -1.4112  1.9367
 4056SOL     OW23626   0.317   0.413   0.489 -0.2745  0.4737  0.3665
 4056SOL    HW123627   0.314   0.322   0.518  0.8675  0.5509  0.7415
 4056SOL    HW223628   0.304   0.464   0.569 -2.5619  0.5611 -0.0663
 4057SOL     OW23629   3.171   3.300   8.256 -0.0384 -0.8520  0.2522
 4057SOL    HW123630   3.183   3.378   8.202 -0.2872 -0.6503  0.4841
 4057SOL    HW223631   3.257   3.298   8.299 -0.1061  1.4942  0.5114
 4058SOL     OW23632   0.675   1.573   4.550  0.1802 -0.1122 -0.2832
 4058SOL    HW123633   0.604   1.596   4.610 -0.5773  2.2840 -2.1111
 4058SOL    HW223634   0.638   1.498   4.503 -0.8279  1.5341 -2.1062
 4059SOL     OW23635   2.661   0.120   7.377 -0.1710  0.1863 -0.1395
 4059SOL    HW123636   2.669   0.215   7.380 -0.2950  0.1639  0.7541
 4059SOL    HW223637   2.740   0.088   7.422 -1.0751  0.7434  1.8359
 4060SOL     OW23638   2.072   1.563   7.082 -0.0746 -0.2019  0.4299
 4060SOL    HW123639   2.140   1.617   7.042 -0.4056  1.2411  1.8048
 4060SOL    HW223640   2.015   1.630   7.120  1.1214  0.8224  0.4320
 4061SOL     OW23641   2.305   1.506   7.649 -0.2785 -0.2805  0.2443
 4061SOL    HW123642   2.271   1.549   7.570  0.2258 -0.6072 -0.1468
 4061SOL    HW223643   2.227   1.495   7.703 -0.0928 -0.4706  0.4698
 4062SOL     OW23644   3.139   0.245  15.155 -0.0852 -0.1700  0.3006
 4062SOL    HW123645   3.226   0.215  15.179 -0.1362 -0.1437  0.5155
 4062SOL    HW223646   3.161   0.329  15.114 -2.1677 -0.6921 -1.8528
 4063SOL     OW23647   0.625   0.368   8.905 -0.1306  0.6186  0.0869
 4063SOL    HW123648   0.606   0.397   8.815 -0.1417 -0.9931 -0.4368
 4063SOL    HW223649   0.603   0.276   8.890 -0.1991  0.5385  0.6752
 4064SOL     OW23650   2.606   0.854   2.772 -0.8984  0.1908 -0.5291
 4064SOL    HW123651   2.701   0.857   2.785 -0.8517  3.4596 -1.4161
 4064SOL    HW223652   2.580   0.808   2.852  1.6596 -0.6190 -0.1657
 4065SOL     OW23653   2.051   2.783   5.155 -0.3783  0.0093 -0.4308
 4065SOL    HW123654   1.967   2.827   5.162  0.1248  0.7588  0.8456
 4065SOL    HW223655   2.052   2.749   5.066 -0.3211  0.1779 -0.4954
 4066SOL     OW23656   3.568   3.491   1.294  0.0233  0.1905 -0.2323
 4066SOL    HW123657   3.536   3.425   1.356 -0.8943 -2.0876 -3.1081
 4066SOL    HW223658   3.594   3.557   1.358 -3.6263  0.5917  0.8002
 4067SOL     OW23659   1.728   0.371  13.033  0.2849 -0.0818 -0.3669
 4067SOL    HW123660   1.735   0.401  12.943  2.3410 -0.2186 -0.2635
 4067SOL    HW223661   1.647   0.418  13.050  0.2269 -1.1923  2.5185
 4068SOL     OW23662   0.251   2.196   8.397 -0.4793 -0.2832  0.0633
 4068SOL    HW123663   0.199   2.118   8.413  0.8419 -1.3265 -0.7149
 4068SOL    HW223664   0.232   2.230   8.485 -1.9406  0.8042 -0.6772
 4069SOL     OW23665   3.527   0.551   7.432 -0.4258  0.3806 -0.1045
 4069SOL    HW123666   3.541   0.511   7.346  0.1542 -1.3975  0.8155
 4069SOL    HW223667   3.617   0.550   7.463 -1.0315 -0.1363  1.6410
 4070SOL     OW23668   3.050   3.981  16.794 -0.1839 -0.3437 -0.4810
 4070SOL    HW123669   3.076   4.069  16.768 -2.9243  0.7088  0.3563
 4070SOL    HW223670   2.954   3.988  16.794 -0.2663 -1.4788 -0.2177
 4071SOL     OW23671   0.468   0.269   8.194  0.5339  0.2108 -0.2285
 4071SOL    HW123672   0.389   0.295   8.241 -0.1454  0.7668 -1.6812
 4071SOL    HW223673   0.460   0.174   8.199  1.6004  0.3188  4.0418
 4072SOL     OW23674   2.894   2.360  12.697  0.0846  0.1974 -0.3549
 4072SOL    HW123675   2.924   2.322  12.614  0.0713 -0.6725  0.0416
 4072SOL    HW223676   2.961   2.322  12.753 -0.2477  0.2938  0.1041
 4073SOL     OW23677   4.134   2.653   0.692 -0.3818 -0.0453 -0.2319
 4073SOL    HW123678   4.119   2.609   0.609 -0.7074  0.4814 -0.4564
 4073SOL    HW223679   4.050   2.691   0.717  0.0998  0.5665  0.4857
 4074SOL     OW23680   1.370   3.557   9.029 -0.2942  0.4513 -0.1330
 4074SOL    HW123681   1.310   3.598   9.091  1.8772  1.6852  1.1308
 4074SOL    HW223682   1.377   3.609   8.949  0.8597  1.5770  0.7264
 4075SOL     OW23683   1.827   0.589  13.285 -0.1957 -0.0918  0.0487
 4075SOL    HW123684   1.835   0.662  13.224  2.3011  0.1988  0.7119
 4075SOL    HW223685   1.887   0.522  13.252  0.9640  1.2821 -0.6527
 4076SOL     OW23686   1.341   2.836  14.163  0.0451 -0.3274 -0.2814
 4076SOL    HW123687   1.279   2.901  14.198 -0.9843 -1.5611  0.2139
 4076SOL    HW223688   1.355   2.891  14.086  1.6861  0.5261  0.6311
 4077SOL     OW23689   4.339   3.638   5.872  0.2233 -0.1665 -0.8339
 4077SOL    HW123690   4.380   3.722   5.851 -0.4973  0.9297  2.0564
 4077SOL    HW223691   4.263   3.643   5.815 -0.5463 -0.1640  0.1952
 4078SOL     OW23692   1.252   0.731   3.179 -0.2667  0.3802 -0.5985
 4078SOL    HW123693   1.257   0.816   3.135  2.2696  0.2608 -0.5617
 4078SOL    HW223694   1.158   0.715   3.176 -0.1137 -1.0465  2.2899
 4079SOL     OW23695   1.175   4.213   6.214  0.0391 -0.8259 -0.1319
 4079SOL    HW123696   1.090   4.239   6.249  0.5838  1.3112 -0.4010
 4079SOL    HW223697   1.242   4.256   6.266  1.5605 -1.9316 -1.1702
 4080SOL     OW23698   0.449   2.303   8.702  0.1978  0.6938 -0.6265
 4080SOL    HW123699   0.494   2.307   8.617  0.8823 -0.3623 -0.3121
 4080SOL    HW223700   0.415   2.214   8.705 -1.3840  1.2632 -1.4418
 4081SOL     OW23701   0.926   1.975  12.389  0.3319 -0.0419 -0.0169
 4081SOL    HW123702   0.834   1.969  12.362 -0.8454  0.0888  3.9272
 4081SOL    HW223703   0.940   1.888  12.427  1.7469 -0.3271 -1.2145
 4082SOL     OW23704   1.580   0.653  10.435 -0.0071 -0.2317  0.0216
 4082SOL    HW123705   1.645   0.589  10.408  1.4298  0.9933  0.6066
 4082SOL    HW223706   1.569   0.623  10.525 -2.9144  0.9649  0.0868
 4083SOL     OW23707   4.203   1.654   3.730  0.0705 -0.1717  0.8008
 4083SOL    HW123708   4.216   1.559   3.727  0.2322 -0.1419  0.5633
 4083SOL    HW223709   4.295   1.676   3.718 -0.3546  1.3626  0.3777
 4084SOL     OW23710   1.450   4.701   3.309 -0.4244 -0.5029  0.0305
 4084SOL    HW123711   1.475   4.612   3.286 -2.6257 -1.7175  2.3165
 4084SOL    HW223712   1.388   4.701   3.382 -1.1413 -0.1071 -0.5890
 4085SOL     OW23713   0.509   0.502   1.509  0.2051  0.7813 -0.2269
 4085SOL    HW123714   0.583   0.453   1.475  0.9610  0.8569  1.3099
 4085SOL    HW223715   0.526   0.590   1.476  1.5419  0.1562 -1.1887
 4086SOL     OW23716   3.638   1.457  11.148  0.1487  0.7118 -0.1424
 4086SOL    HW123717   3.604   1.464  11.238  0.1884  1.7873 -0.2087
 4086SOL    HW223718   3.620   1.542  11.108 -1.0251  0.3541 -0.3647
 4087SOL     OW23719   2.534   3.147  14.093 -0.1544 -0.0007 -0.0559
 4087SOL    HW123720   2.594   3.220  14.110 -1.1293  0.9923 -0.8979
 4087SOL    HW223721   2.446   3.178  14.114 -0.2235 -0.9821  1.1174
 4088SOL     OW23722   2.370   4.358  15.897  0.0772  0.1706  0.0994
 4088SOL    HW123723   2.294   4.373  15.841 -0.1357  1.1630  0.6512
 4088SOL    HW223724   2.383   4.447  15.930  0.3410  0.7609 -1.5759
 4089SOL     OW23725   4.129   4.212   4.964 -0.1825 -0.3330  0.2273
 4089SOL    HW123726   4.039   4.182   4.976 -1.0986  1.7559 -1.5104
 4089SOL    HW223727   4.110   4.274   4.894  0.4899  1.0843  1.2960
 4090SOL     OW23728   2.473   0.865   7.645 -0.2559 -0.2499  0.0431
 4090SOL    HW123729   2.493   0.813   7.567  0.8070 -1.4627  1.1192
 4090SOL    HW223730   2.530   0.827   7.711 -0.2623  2.8731  1.8326
 4091SOL     OW23731   1.986   1.306   3.484 -0.1732 -0.6583 -0.1959
 4091SOL    HW123732   2.069   1.302   3.531 -0.5753  0.2292  0.5991
 4091SOL    HW223733   1.996   1.237   3.419 -3.2511 -0.1926 -1.1876
 4092SOL     OW23734   1.271   3.299  14.681  0.1258  0.4554 -0.0642
 4092SOL    HW123735   1.327   3.286  14.605 -0.5072 -2.1137 -0.0793
 4092SOL    HW223736   1.324   3.354  14.739 -1.7511  0.4243  1.6551
 4093SOL     OW23737   3.372   4.341  15.683 -0.3871  0.1762  0.6157
 4093SOL    HW123738   3.416   4.426  15.693  1.9729 -0.9657  0.0259
 4093SOL    HW223739   3.288   4.363  15.723  0.7098  0.4762  2.7381
 4094SOL     OW23740   1.825   2.853   8.513  0.1739  0.1811  0.1355
 4094SOL    HW123741   1.842   2.945   8.491  0.9461 -0.0545 -0.2664
 4094SOL    HW223742   1.731   2.856   8.497  0.5348 -2.1972 -2.2505
 4095SOL     OW23743   1.821   2.168  12.196 -0.2603  0.4314 -0.6489
 4095SOL    HW123744   1.786   2.145  12.110  0.0243  1.5282 -1.0667
 4095SOL    HW223745   1.774   2.251  12.208  0.2450  0.5969  0.1823
 4096SOL     OW23746   1.239   1.395  17.657  0.2552 -0.3222 -0.1278
 4096SOL    HW123747   1.249   1.458   0.032  0.1215  1.8994 -2.0951
 4096SOL    HW223748   1.283   1.440  17.585  0.5953 -1.4150 -0.5965
 4097SOL     OW23749   2.024   1.460   5.450  0.3270 -0.2345 -0.0777
 4097SOL    HW123750   2.111   1.493   5.472  0.4017 -0.2751 -0.3082
 4097SOL    HW223751   2.048   1.368   5.462  0.7669 -0.1777 -0.5315
 4098SOL     OW23752   0.284   3.714   4.884 -0.3090 -0.2674  0.1211
 4098SOL    HW123753   0.346   3.760   4.940 -1.4623  2.0823 -0.5566
 4098SOL    HW223754   0.309   3.622   4.894 -0.8642 -0.3119  1.1475
 4099SOL     OW23755   1.379   4.434   8.373 -0.1342  0.9028 -0.2730
 4099SOL    HW123756   1.399   4.509   8.428  1.5811  0.3428 -0.1441
 4099SOL    HW223757   1.290   4.453   8.342  0.2858  0.5128 -1.7636
 4100SOL     OW23758   1.060   2.622   2.341  0.0257  0.8841  0.3221
 4100SOL    HW123759   0.985   2.583   2.386  0.1979  1.1807  0.8722
 4100SOL    HW223760   1.108   2.540   2.331 -0.0265  0.9746 -0.6691
 4101SOL     OW23761   1.196   3.433   9.653  0.0166  0.6310 -0.0401
 4101SOL    HW123762   1.132   3.385   9.601 -1.8528  1.9896  1.0380
 4101SOL    HW223763   1.145   3.508   9.682  0.5140  0.7931  0.4174
 4102SOL     OW23764   1.038   1.094   7.456  0.3768  0.3705 -0.4292
 4102SOL    HW123765   1.006   1.184   7.453  1.6399  0.8714  0.9852
 4102SOL    HW223766   0.984   1.052   7.389  0.7639 -2.0077  0.7262
 4103SOL     OW23767   4.354   4.110   7.095  0.1399 -0.0087 -0.2991
 4103SOL    HW123768   4.272   4.105   7.145  1.2621  0.6593  1.6537
 4103SOL    HW223769   4.408   4.034   7.120  0.3632  0.0165 -0.7145
 4104SOL     OW23770   3.334   3.506   1.636 -0.4247  0.1297  0.2787
 4104SOL    HW123771   3.303   3.596   1.649 -1.2705 -0.2861  1.1147
 4104SOL    HW223772   3.248   3.464   1.640 -0.2942 -0.7369 -5.5599
 4105SOL     OW23773   1.407   0.649   6.489 -0.6437  0.4119 -0.3310
 4105SOL    HW123774   1.325   0.608   6.517 -0.0918 -0.0941  0.5426
 4105SOL    HW223775   1.463   0.585   6.445 -1.2507  0.5880 -1.3502
 4106SOL     OW23776   0.135   1.583   7.697 -0.5687 -0.2211 -0.2498
 4106SOL    HW123777   0.068   1.541   7.752 -1.5367  0.7188 -0.7132
 4106SOL    HW223778   0.092   1.665   7.672 -0.8098  0.0515  1.0639
 4107SOL     OW23779   4.543   0.748   5.395 -0.9473  0.0989 -0.1062
 4107SOL    HW123780   4.520   0.835   5.362 -0.7193  0.1280 -0.1882
 4107SOL    HW223781   4.477   0.684   5.369 -2.3688 -0.0885  3.9526
 4108SOL     OW23782   4.126   4.497  16.118  0.0744  0.1135 -0.1813
 4108SOL    HW123783   4.064   4.465  16.053 -0.1474 -0.4588  0.3170
 4108SOL    HW223784   4.202   4.509  16.060 -1.2554  2.0672 -1.5073
 4109SOL     OW23785   0.862   3.339   7.303  0.4318  0.6759  0.1730
 4109SOL    HW123786   0.823   3.254   7.324  2.0281  0.1598  1.0829
 4109SOL    HW223787   0.782   3.388   7.318 -0.5754 -0.8580 -0.2655
 4110SOL     OW23788   0.624   3.682   8.158 -0.2323  0.0201  0.0121
 4110SOL    HW123789   0.612   3.733   8.077  1.2445  0.4437  0.0684
 4110SOL    HW223790   0.703   3.633   8.138 -1.8606 -1.3188 -3.1159
 4111SOL     OW23791   4.492   4.582  11.477 -0.1880  0.3182 -0.2724
 4111SOL    HW123792   4.543   4.572  11.397  0.8596 -1.0479  0.5784
 4111SOL    HW223793   4.402   4.572  11.445  0.0673 -1.2377 -0.4833
 4112SOL     OW23794   1.734   3.603   5.632 -0.2955  0.1210  0.4737
 4112SOL    HW123795   1.685   3.524   5.608 -0.1678  0.8264 -2.1548
 4112SOL    HW223796   1.794   3.555   5.689  0.7598  1.2000  0.2800
 4113SOL     OW23797   2.659   3.663   8.229 -0.4543  0.3664  0.2132
 4113SOL    HW123798   2.655   3.570   8.206  0.2734  0.0980  1.1888
 4113SOL    HW223799   2.714   3.706   8.163 -2.3404  0.0921 -1.5170
 4114SOL     OW23800   1.385   4.471  16.506 -0.2712  0.1931  0.0000
 4114SOL    HW123801   1.372   4.472  16.411  0.6044  2.4959 -0.0863
 4114SOL    HW223802   1.294   4.451  16.527  0.6625 -2.7638  1.2373
 4115SOL     OW23803   3.353   0.932   5.255 -0.4130  0.4418  0.0105
 4115SOL    HW123804   3.324   1.023   5.244  0.0021  0.6941  0.9440
 4115SOL    HW223805   3.285   0.882   5.211  0.6868  0.9272 -2.2375
 4116SOL     OW23806   3.649   0.631   8.608  0.3111  0.2732 -0.1528
 4116SOL    HW123807   3.583   0.661   8.671 -2.3346 -0.6797 -2.4505
 4116SOL    HW223808   3.587   0.597   8.544  0.9810 -0.3007 -0.4912
 4117SOL     OW23809   3.972   1.520   2.944 -0.3348 -0.0483  0.3758
 4117SOL    HW123810   4.043   1.461   2.915 -1.4847 -1.6691  0.8521
 4117SOL    HW223811   3.915   1.459   2.991  0.2429  1.6104  3.2218
 4118SOL     OW23812   4.603   3.301   8.510  0.2044 -0.0453  0.3188
 4118SOL    HW123813   4.676   3.308   8.571  1.1510 -0.0947 -0.8126
 4118SOL    HW223814   4.635   3.230   8.456 -1.1730  1.1309 -2.0651
 4119SOL     OW23815   2.491   1.363  16.230  0.3675  0.6753  0.1020
 4119SOL    HW123816   2.468   1.456  16.231 -0.1551  0.5003  2.3718
 4119SOL    HW223817   2.546   1.364  16.151  0.8654 -2.2050  0.4163
 4120SOL     OW23818   4.370   3.017  14.100 -0.2910  0.1771  0.3039
 4120SOL    HW123819   4.324   3.061  14.172  0.2213  0.5485  0.4077
 4120SOL    HW223820   4.385   3.090  14.040 -0.1400 -1.0505 -1.1273
 4121SOL     OW23821   3.875   2.933   4.374 -0.1240 -0.3287 -0.1703
 4121SOL    HW123822   3.894   2.855   4.322  0.0254  1.1591 -2.3561
 4121SOL    HW223823   3.930   2.997   4.329 -1.6454  0.0735 -1.4579
 4122SOL     OW23824   0.759   2.667   5.332  0.0986 -0.1761  0.4641
 4122SOL    HW123825   0.750   2.590   5.276 -0.2832  0.3986 -0.2768
 4122SOL    HW223826   0.736   2.629   5.416  3.8935 -1.3565  0.9430
 4123SOL     OW23827   3.137   1.802  16.660  0.2807 -0.1504  0.4983
 4123SOL    HW123828   3.183   1.786  16.577 -0.0670 -1.7864  0.6096
 4123SOL    HW223829   3.079   1.871  16.629  0.1195  0.3811  2.0098
 4124SOL     OW23830   2.788   4.335   2.657  0.5456 -0.7464 -0.0292
 4124SOL    HW123831   2.706   4.383   2.657 -0.4967 -2.5277 -1.0257
 4124SOL    HW223832   2.825   4.348   2.744  0.8783  0.5291 -0.3649
 4125SOL     OW23833   2.083   0.293  12.076 -0.2429 -0.2956 -0.0960
 4125SOL    HW123834   2.051   0.379  12.048 -2.2521 -0.2923  2.2063
 4125SOL    HW223835   2.122   0.317  12.160 -0.5318 -0.2229  0.0173
 4126SOL     OW23836   0.351   1.117   5.168  0.3372  0.0892 -0.0816
 4126SOL    HW123837   0.276   1.058   5.178 -1.0857  2.0753  0.9137
 4126SOL    HW223838   0.400   1.094   5.247 -0.7924 -3.1837 -0.3337
 4127SOL     OW23839   0.499   0.147   8.813 -0.4712 -0.7506  0.7089
 4127SOL    HW123840   0.530   0.057   8.830  2.8958  0.1621 -0.5475
 4127SOL    HW223841   0.475   0.131   8.722  2.1486  0.1082 -0.1308
 4128SOL     OW23842   4.471   2.937   1.624 -0.1966  0.1034 -0.4009
 4128SOL    HW123843   4.394   2.898   1.584 -0.0523 -1.4918  0.8708
 4128SOL    HW223844   4.496   2.863   1.680 -1.2804 -1.1116 -1.5284
 4129SOL     OW23845   2.227   3.057   4.845 -0.4171 -0.4604 -0.0093
 4129SOL    HW123846   2.259   3.141   4.879 -1.2502 -0.0024 -0.3423
 4129SOL    HW223847   2.135   3.057   4.874 -0.6856 -2.0187 -0.8690
 4130SOL     OW23848   0.473   3.899   4.967  0.6374 -0.0138 -0.0565
 4130SOL    HW123849   0.478   3.939   5.054 -1.2131 -0.0602  0.0781
 4130SOL    HW223850   0.514   3.962   4.908  1.4600 -0.0587  0.4684
 4131SOL     OW23851   2.622   3.639  16.124 -0.0215  0.4170 -0.5784
 4131SOL    HW123852   2.604   3.621  16.216 -2.0407 -0.1138 -1.0624
 4131SOL    HW223853   2.713   3.664  16.141  0.6747  0.0307 -3.6236
 4132SOL     OW23854   1.708   4.275   2.232  0.1370  0.0096 -0.2095
 4132SOL    HW123855   1.639   4.215   2.261 -0.8336  1.0068 -0.4453
 4132SOL    HW223856   1.662   4.343   2.182  0.5835  0.4747  0.0218
 4133SOL     OW23857   3.936   2.873  11.465  0.3019 -0.4260 -0.1362
 4133SOL    HW123858   3.988   2.950  11.440  0.1979 -0.9327 -1.8976
 4133SOL    HW223859   3.853   2.921  11.469 -0.6578 -2.1717  0.8027
 4134SOL     OW23860   3.813   3.066   2.889 -0.2281  0.1805 -0.7095
 4134SOL    HW123861   3.855   3.148   2.864  0.2151  0.9025  2.3693
 4134SOL    HW223862   3.890   3.026   2.930 -1.4862 -1.0896  0.4018
 4135SOL     OW23863   2.466   3.125  12.991 -0.3506  0.2765  0.0110
 4135SOL    HW123864   2.460   3.216  12.962 -0.7970  0.0146 -0.7152
 4135SOL    HW223865   2.486   3.120  13.084  0.5866 -1.8232 -0.2989
 4136SOL     OW23866   3.543   1.285   8.752  0.3222 -0.6232  0.0933
 4136SOL    HW123867   3.505   1.349   8.692 -0.6851 -0.8264  0.5285
 4136SOL    HW223868   3.483   1.287   8.826  1.2482 -2.3656  0.8980
 4137SOL     OW23869   3.042   3.373   2.688 -0.0417 -0.0501  0.9484
 4137SOL    HW123870   3.010   3.432   2.757  0.3632  0.4086  0.7370
 4137SOL    HW223871   3.095   3.306   2.731  0.8599  0.6421  0.9142
 4138SOL     OW23872   0.136   4.614   5.977 -0.6343  0.4234  0.5229
 4138SOL    HW123873   0.129   4.614   6.073  2.2333  2.9769  0.7566
 4138SOL    HW223874   0.192   4.690   5.958 -0.2224  0.1679  0.7104
 4139SOL     OW23875   2.825   0.076   6.726  0.1421 -0.6464  0.3301
 4139SOL    HW123876   2.816   0.108   6.816  3.1252 -0.4476  0.5821
 4139SOL    HW223877   2.754   0.012   6.732  0.1942 -0.7479 -0.1542
 4140SOL     OW23878   1.516   3.874   3.575  0.3260 -0.0157  0.0519
 4140SOL    HW123879   1.495   3.891   3.666 -1.4914 -0.6025 -0.2638
 4140SOL    HW223880   1.606   3.907   3.581 -0.4584  2.0192  0.4761
 4141SOL     OW23881   3.009   4.086   4.651  0.4569 -0.0267  0.9381
 4141SOL    HW123882   2.975   4.057   4.735  0.0019  0.8458  1.0621
 4141SOL    HW223883   2.957   4.167   4.644 -0.5828 -0.7153  0.7528
 4142SOL     OW23884   0.683   2.855   0.546  0.2401  0.2313  0.2222
 4142SOL    HW123885   0.592   2.826   0.555 -0.1860  1.5893  0.3854
 4142SOL    HW223886   0.721   2.823   0.628 -2.0843 -1.6541  0.5393
 4143SOL     OW23887   1.939   0.623   3.091  0.0174 -0.2258 -0.5158
 4143SOL    HW123888   2.009   0.640   3.028  2.1325  2.5089  2.5285
 4143SOL    HW223889   1.874   0.688   3.068 -0.2717  0.5326  2.3557
 4144SOL     OW23890   4.097   3.506   4.492  0.2773  0.1758 -0.0945
 4144SOL    HW123891   4.072   3.441   4.558  1.2286 -0.7658 -0.6643
 4144SOL    HW223892   4.035   3.483   4.422 -1.6847  0.0411  1.6939
 4145SOL     OW23893   1.712   3.225  15.198  0.2504  0.6588 -0.1624
 4145SOL    HW123894   1.661   3.209  15.119 -0.8158 -1.5013  0.9483
 4145SOL    HW223895   1.664   3.168  15.259  0.9447  0.6368  0.3679
 4146SOL     OW23896   2.889   2.763   5.909  0.2194  0.4765 -0.1367
 4146SOL    HW123897   2.862   2.737   5.997 -0.0541 -0.9081 -0.6259
 4146SOL    HW223898   2.876   2.675   5.872 -1.3877  1.0605 -0.9646
 4147SOL     OW23899   2.683   0.780  15.090  0.4512  0.1309  0.1205
 4147SOL    HW123900   2.736   0.701  15.104  0.1664 -0.0738  0.0443
 4147SOL    HW223901   2.659   0.777  14.997  0.2238 -1.8775  0.2420
 4148SOL     OW23902   2.503   1.313   7.572  0.2572 -0.3535 -0.0438
 4148SOL    HW123903   2.493   1.305   7.477 -1.5549 -0.0820  0.1263
 4148SOL    HW223904   2.441   1.385   7.584 -0.7637 -1.1413 -0.5963
 4149SOL     OW23905   3.228   0.971  12.252  0.8811  0.3451 -0.3574
 4149SOL    HW123906   3.215   0.877  12.262  3.6058 -0.0357 -0.5769
 4149SOL    HW223907   3.253   0.970  12.160  0.9255  0.5357 -0.3475
 4150SOL     OW23908   2.643   1.542   7.322  0.0503 -0.5972 -0.0233
 4150SOL    HW123909   2.708   1.472   7.325 -0.1228 -0.7051  1.1716
 4150SOL    HW223910   2.569   1.508   7.271 -0.0744  0.8611 -0.7921
 4151SOL     OW23911   3.391   0.173  17.476  0.1883 -0.1988  0.5559
 4151SOL    HW123912   3.343   0.092  17.460  0.1818 -0.0308 -0.2892
 4151SOL    HW223913   3.462   0.141  17.531  0.3739 -0.6680  0.0532
 4152SOL     OW23914   1.324   3.704   3.481  0.0059 -0.0970 -0.3515
 4152SOL    HW123915   1.268   3.675   3.553  0.1494 -1.7509 -0.8985
 4152SOL    HW223916   1.387   3.762   3.524 -0.7528  1.5839 -1.5152
 4153SOL     OW23917   3.417   2.503   6.031 -0.1424  0.8416 -0.3484
 4153SOL    HW123918   3.487   2.476   5.972 -0.6285 -0.7914 -0.1788
 4153SOL    HW223919   3.346   2.504   5.967 -2.0732  1.5321  1.8123
 4154SOL     OW23920   3.312   0.357   7.239  0.0427  0.0313  0.3271
 4154SOL    HW123921   3.239   0.379   7.183 -0.3050  0.4920  0.9585
 4154SOL    HW223922   3.292   0.429   7.299 -1.1175 -0.1918  0.2113
 4155SOL     OW23923   4.525   2.591   6.045  0.6295 -0.4241 -0.3992
 4155SOL    HW123924   4.543   2.595   5.951 -1.6174  0.0325 -0.7957
 4155SOL    HW223925   4.604   2.547   6.077 -1.0070 -0.7718  3.0784
 4156SOL     OW23926   0.342   2.511  10.280 -0.3929 -0.4977  0.3303
 4156SOL    HW123927   0.355   2.560  10.361  1.4188 -1.8491  0.8547
 4156SOL    HW223928   0.406   2.551  10.221  0.0462 -0.4717  0.8201
 4157SOL     OW23929   4.478   3.694  11.658  0.1006 -0.3382 -0.3370
 4157SOL    HW123930   4.481   3.688  11.562  1.0186 -0.0000 -0.3309
 4157SOL    HW223931   4.436   3.611  11.680 -1.6085  0.5741 -0.1802
 4158SOL     OW23932   3.397   3.258  13.873  0.0551 -0.0003 -0.2172
 4158SOL    HW123933   3.486   3.226  13.859  0.0560  0.6882 -1.7677
 4158SOL    HW223934   3.391   3.324  13.804  2.0077 -0.8621 -1.2164
 4159SOL     OW23935   1.888   0.669   2.386 -0.1947  0.7713  0.2899
 4159SOL    HW123936   1.832   0.606   2.341  2.5696 -2.3704  1.3131
 4159SOL    HW223937   1.861   0.659   2.477 -1.4903 -1.7765 -0.3877
 4160SOL     OW23938   2.995   1.103   3.795 -0.0860  0.1269  0.1645
 4160SOL    HW123939   3.042   1.186   3.801 -0.5636  0.3023  1.2437
 4160SOL    HW223940   3.066   1.056   3.750 -0.8385 -2.4474  1.6343
 4161SOL     OW23941   2.508   4.210   8.422 -0.5353  0.2509  0.5791
 4161SOL    HW123942   2.569   4.140   8.447 -0.2824 -0.3700 -1.8169
 4161SOL    HW223943   2.423   4.184   8.458 -1.7026  1.7135 -1.0982
 4162SOL     OW23944   2.746   4.126  16.828 -0.4663 -0.2604  0.3921
 4162SOL    HW123945   2.658   4.150  16.856 -0.7664  0.1997 -0.9416
 4162SOL    HW223946   2.738   4.131  16.733 -2.9323 -1.4444  0.5296
 4163SOL     OW23947   3.027   0.710   2.944  0.4773 -0.2245  0.3814
 4163SOL    HW123948   3.067   0.625   2.966  0.6121  0.3039  2.1333
 4163SOL    HW223949   3.077   0.757   3.010  0.9895 -1.1944  0.6965
 4164SOL     OW23950   2.746   4.063   1.273  0.3062 -0.3552 -0.2533
 4164SOL    HW123951   2.839   4.039   1.271 -0.3544 -2.8555 -1.9847
 4164SOL    HW223952   2.724   4.056   1.180  0.3698 -1.0541 -0.2227
 4165SOL     OW23953   2.540   0.045   7.148  0.3664 -0.4848  0.3972
 4165SOL    HW123954   2.611   0.084   7.199 -1.1142 -1.9718  3.5946
 4165SOL    HW223955   2.578   4.684   7.123  1.9170  0.0296  0.9893
 4166SOL     OW23956   1.088   2.311   9.277  0.1407  0.3532  0.3184
 4166SOL    HW123957   1.104   2.398   9.242 -0.4207  0.1753 -0.3895
 4166SOL    HW223958   0.993   2.317   9.278  0.0811  0.1446 -2.9652
 4167SOL     OW23959   3.629   0.334  13.110  0.1201 -0.3410 -0.3897
 4167SOL    HW123960   3.564   0.388  13.156  0.7271  0.8110 -0.8825
 4167SOL    HW223961   3.594   0.321  13.022 -1.2458  1.0315 -0.0578
 4168SOL     OW23962   2.869   2.788   4.729 -0.2276  0.1109  0.0931
 4168SOL    HW123963   2.800   2.850   4.708  1.5234  1.5281 -1.4908
 4168SOL    HW223964   2.898   2.808   4.818  0.3755 -0.3036 -0.0072
 4169SOL     OW23965   3.990   3.660   2.771 -0.0851 -0.4286  0.8947
 4169SOL    HW123966   4.025   3.745   2.744 -3.7961  0.7940 -0.1632
 4169SOL    HW223967   3.933   3.689   2.842  0.7992  2.3320  0.4645
 4170SOL     OW23968   3.514   1.900   8.584 -0.1784 -0.0866  0.2151
 4170SOL    HW123969   3.423   1.874   8.595  0.8099 -3.6995 -0.1418
 4170SOL    HW223970   3.519   1.885   8.490 -0.3413  0.5923  0.0970
 4171SOL     OW23971   3.055   2.223   5.706 -0.3396  0.6369  0.1140
 4171SOL    HW123972   3.074   2.207   5.614 -1.6751  2.4607 -0.4791
 4171SOL    HW223973   3.016   2.310   5.694 -0.8248  0.2324 -1.2734
 4172SOL     OW23974   4.174   1.922   4.779  0.0413 -0.5304 -0.0962
 4172SOL    HW123975   4.108   1.953   4.718  1.5538 -1.4552 -2.1999
 4172SOL    HW223976   4.145   1.976   4.852  1.3233  1.4939 -1.0890
 4173SOL     OW23977   2.981   3.527   8.608 -0.5442  0.3275  0.0067
 4173SOL    HW123978   3.073   3.502   8.601 -0.0155  2.4145 -0.3847
 4173SOL    HW223979   2.975   3.517   8.703 -0.3587 -2.0542 -0.2288
 4174SOL     OW23980   2.839   3.716   8.477  0.4038 -0.7374 -0.5957
 4174SOL    HW123981   2.853   3.671   8.394 -2.1595  1.7154 -2.3042
 4174SOL    HW223982   2.896   3.668   8.538 -1.2248  1.3567  2.5849
 4175SOL     OW23983   1.329   1.648   3.086 -0.4029  0.2395 -0.0669
 4175SOL    HW123984   1.366   1.684   3.167 -0.6905  0.2508  0.0601
 4175SOL    HW223985   1.408   1.608   3.049  0.0185 -1.2170  2.3726
 4176SOL     OW23986   1.115   4.128   0.124  0.4940  0.2139  0.0746
 4176SOL    HW123987   1.134   4.054   0.066  1.0980  0.5172 -0.1036
 4176SOL    HW223988   1.191   4.130   0.182  0.4026  0.3482  0.1880
 4177SOL     OW23989   0.446   2.021   8.341 -0.1322 -0.2317 -0.3173
 4177SOL    HW123990   0.420   1.980   8.259  0.0334 -1.3153  0.1740
 4177SOL    HW223991   0.383   2.093   8.338  1.4266  1.1573  0.3576
 4178SOL     OW23992   1.473   3.962   9.130  1.1118  0.4569  0.3421
 4178SOL    HW123993   1.409   4.028   9.158  0.5470  0.5994 -1.2985
 4178SOL    HW223994   1.469   3.901   9.204 -0.0349 -1.8089 -1.6259
 4179SOL     OW23995   1.641   4.378   4.672  0.0079  0.8924 -0.0258
 4179SOL    HW123996   1.587   4.368   4.594  0.6800  0.0501 -0.3848
 4179SOL    HW223997   1.719   4.325   4.655 -1.3151 -0.5538 -1.6207
 4180SOL     OW23998   0.711   2.008  11.234 -0.1183  0.2389  0.0478
 4180SOL    HW123999   0.635   2.023  11.290 -1.3110 -0.8571 -1.3033
 4180SOL    HW224000   0.780   2.058  11.278 -0.9075 -0.6316  2.2384
 4181SOL     OW24001   0.122   4.608  11.323  0.0788 -0.2459  0.7611
 4181SOL    HW124002   0.202   4.559  11.304  0.3050 -0.4144  2.1723
 4181SOL    HW224003   0.055   4.539  11.321  0.5377 -0.6618 -0.4004
 4182SOL     OW24004   0.533   4.121   9.443  0.2355  0.0418  0.2915
 4182SOL    HW124005   0.571   4.196   9.397  0.6651  0.2430  0.9711
 4182SOL    HW224006   0.525   4.165   9.527 -2.4331 -1.5118  0.8391
 4183SOL     OW24007   1.091   4.228   7.721 -0.3463 -0.2493  0.0296
 4183SOL    HW124008   1.034   4.256   7.649 -0.5445 -0.8268 -0.0422
 4183SOL    HW224009   1.054   4.142   7.739  0.3023 -0.5554 -0.1267
 4184SOL     OW24010   4.472   3.308   0.598  0.0285 -0.2587  0.0191
 4184SOL    HW124011   4.454   3.223   0.639  0.5999 -0.3750  0.0293
 4184SOL    HW224012   4.567   3.318   0.589 -0.1344 -0.1793 -1.5026
 4185SOL     OW24013   0.054   1.520  12.234  0.1111  0.7763 -0.2577
 4185SOL    HW124014   0.114   1.449  12.210 -1.0918 -0.4717  0.4534
 4185SOL    HW224015   0.063   1.508  12.329 -0.1008 -0.0610 -0.3491
 4186SOL     OW24016   4.243   4.247  12.331 -0.3338  0.1403  0.2904
 4186SOL    HW124017   4.188   4.322  12.355 -0.1703  0.2636  0.2759
 4186SOL    HW224018   4.307   4.291  12.275 -0.9771 -0.3710 -0.8504
 4187SOL     OW24019   4.280   4.236  16.709  0.3209 -0.1347  0.0812
 4187SOL    HW124020   4.300   4.277  16.793 -2.1517  1.4761 -0.1060
 4187SOL    HW224021   4.300   4.307  16.648  1.6542 -1.1930 -0.7293
 4188SOL     OW24022   2.426   1.718  16.244  0.2270 -0.3249 -0.1693
 4188SOL    HW124023   2.343   1.723  16.196  0.4749 -1.7451 -0.7435
 4188SOL    HW224024   2.480   1.779  16.194  0.0786 -1.5413 -1.8060
 4189SOL     OW24025   3.744   1.718  15.766  0.8554  0.0438 -0.0132
 4189SOL    HW124026   3.809   1.787  15.778  0.2558  0.5307  0.4403
 4189SOL    HW224027   3.662   1.768  15.765  1.9869  1.8717 -0.2578
 4190SOL     OW24028   1.237   1.423   2.464 -0.4709  0.0738  0.1559
 4190SOL    HW124029   1.291   1.348   2.441 -1.2080 -0.2721 -0.4498
 4190SOL    HW224030   1.170   1.427   2.396  0.4089  1.9683 -0.6113
 4191SOL     OW24031   0.796   3.213   4.245 -0.1997 -0.5477  0.1045
 4191SOL    HW124032   0.779   3.210   4.340  0.9998  2.3971  0.4159
 4191SOL    HW224033   0.709   3.229   4.208 -0.3727 -0.2227  0.6452
 4192SOL     OW24034   2.971   1.754  17.011  0.2314  0.5041  0.0792
 4192SOL    HW124035   3.022   1.706  16.947  1.4453 -1.4875  2.5318
 4192SOL    HW224036   2.889   1.706  17.003  0.3329  0.4399 -0.5233
 4193SOL     OW24037   2.638   3.784   4.461 -0.0573  0.2157 -0.3813
 4193SOL    HW124038   2.595   3.842   4.524 -0.3907  0.1191 -0.5210
 4193SOL    HW224039   2.689   3.727   4.518 -0.3145 -0.7967 -1.1718
 4194SOL     OW24040   0.778   3.176   9.645  0.1592  0.0077  0.2968
 4194SOL    HW124041   0.731   3.189   9.728  2.0947 -0.8001  1.5123
 4194SOL    HW224042   0.714   3.144   9.582  0.5993  0.5945 -0.4420
 4195SOL     OW24043   0.635   2.371   4.065 -0.3013 -0.5480  0.4972
 4195SOL    HW124044   0.677   2.423   4.133 -1.1420  1.8097 -0.7653
 4195SOL    HW224045   0.542   2.394   4.063  0.5891  3.1070 -0.6195
 4196SOL     OW24046   2.241   1.980   5.393  0.0949 -0.0793  0.3322
 4196SOL    HW124047   2.299   1.966   5.319  0.6173 -1.2159  0.9709
 4196SOL    HW224048   2.276   1.913   5.451  0.5490 -0.6165 -0.5773
 4197SOL     OW24049   4.503   2.642   6.359  0.1521 -0.0752 -0.6375
 4197SOL    HW124050   4.525   2.723   6.313  0.8605 -0.1663 -0.4560
 4197SOL    HW224051   4.425   2.676   6.403  0.5126  2.3999 -1.9253
 4198SOL     OW24052   0.894   0.011   2.422 -0.0553 -0.0301 -0.0568
 4198SOL    HW124053   0.935   0.046   2.501 -1.4238 -2.9105  1.9662
 4198SOL    HW224054   0.889   4.644   2.453 -0.8848  0.0343 -0.0161
 4199SOL     OW24055   1.236   3.168   5.697 -0.3352  0.1200 -0.1396
 4199SOL    HW124056   1.265   3.165   5.606 -0.4756 -0.2152 -0.1703
 4199SOL    HW224057   1.145   3.140   5.695  0.2808 -1.6431 -2.4392
 4200SOL     OW24058   0.766   1.200   5.973 -0.1399  0.2915  0.6999
 4200SOL    HW124059   0.722   1.265   5.918  1.4107 -0.5793 -1.5909
 4200SOL    HW224060   0.740   1.117   5.932  2.1713  0.7950 -1.7789
 4201SOL     OW24061   1.045   0.921   6.004  0.0242  0.4979  0.1301
 4201SOL    HW124062   1.032   0.893   6.095 -0.1837  2.4552  0.7089
 4201SOL    HW224063   1.084   0.845   5.960 -0.2483  0.9236 -0.8333
 4202SOL     OW24064   0.710   0.451   3.818  0.5375  0.0863 -0.3817
 4202SOL    HW124065   0.790   0.493   3.850  1.5926  1.0933 -4.3702
 4202SOL    HW224066   0.727   0.464   3.725 -0.5746 -1.7363 -0.8316
 4203SOL     OW24067   4.522   0.314  16.393 -1.2982  0.1294  0.1239
 4203SOL    HW124068   4.548   0.235  16.439 -2.3546  0.2543  0.9545
 4203SOL    HW224069   4.452   0.338  16.454 -0.1672  0.7161  1.1898
 4204SOL     OW24070   1.582   0.328   2.098  0.0086  0.4551 -0.0559
 4204SOL    HW124071   1.545   0.242   2.079 -2.0070  1.5928 -1.2595
 4204SOL    HW224072   1.569   0.378   2.017 -1.3353  2.2175  1.2285
 4205SOL     OW24073   0.001   0.123   2.883 -0.0825 -0.3945 -0.8865
 4205SOL    HW124074   4.715   0.173   2.802  2.4550  0.9794 -0.3307
 4205SOL    HW224075   4.698   0.035   2.856  0.0445 -0.5757 -0.4147
 4206SOL     OW24076   3.233   4.637   1.505 -0.7409 -0.0620 -0.2495
 4206SOL    HW124077   3.164   4.576   1.479  0.5880 -1.2909 -0.8508
 4206SOL    HW224078   3.309   4.589   1.537  0.1549  0.7302 -1.2121
 4207SOL     OW24079   1.603   1.954   6.232  0.4175  0.2525  0.2987
 4207SOL    HW124080   1.584   2.035   6.183 -0.1547 -1.2770 -1.9941
 4207SOL    HW224081   1.516   1.921   6.253  0.5756  0.7383  1.7650
 4208SOL     OW24082   3.672   3.458   5.540  0.0576  0.6589  0.6293
 4208SOL    HW124083   3.607   3.404   5.495  0.1010 -0.0986  1.4803
 4208SOL    HW224084   3.667   3.535   5.483  2.9224  0.3721  0.0234
 4209SOL     OW24085   3.524   2.631   1.631  0.2297  0.1301 -0.6219
 4209SOL    HW124086   3.557   2.549   1.668 -2.9707 -0.6091  0.6067
 4209SOL    HW224087   3.471   2.663   1.704  0.8920  0.6557 -0.3723
 4210SOL     OW24088   4.181   3.930  10.331 -0.0668  0.1002  0.1283
 4210SOL    HW124089   4.117   3.909  10.399  0.4623  1.0794  0.9396
 4210SOL    HW224090   4.205   4.015  10.367  0.6496 -0.9501  2.1737
 4211SOL     OW24091   2.113   2.163  14.818 -0.1728 -0.2972  0.0358
 4211SOL    HW124092   2.114   2.150  14.723 -0.3089 -0.0438 -0.0024
 4211SOL    HW224093   2.025   2.136  14.843  0.3801 -0.2355  2.0102
 4212SOL     OW24094   3.465   2.969  11.862  0.0280 -0.5525 -0.3421
 4212SOL    HW124095   3.429   3.038  11.807  0.3173  0.5238  0.8003
 4212SOL    HW224096   3.557   2.995  11.854 -0.9316  3.1478  0.5558
 4213SOL     OW24097   1.360   1.107   3.277 -0.0596 -0.0227 -0.1156
 4213SOL    HW124098   1.367   1.179   3.214 -0.7333  0.5479  0.4529
 4213SOL    HW224099   1.301   1.043   3.237 -1.7554  2.0755 -0.9856
 4214SOL     OW24100   0.841   0.795   6.232  0.1977 -0.3826 -0.0941
 4214SOL    HW124101   0.935   0.803   6.247  0.0081  1.7650 -0.0136
 4214SOL    HW224102   0.797   0.877   6.210  1.9429  0.2688 -1.1490
 4215SOL     OW24103   3.595   0.993  15.809  0.5698  0.0523  0.2842
 4215SOL    HW124104   3.582   0.995  15.714  0.7224  0.5794  0.2794
 4215SOL    HW224105   3.688   0.971  15.809 -0.0520 -2.7904 -3.2398
 4216SOL     OW24106   4.123   2.298  11.239  0.0853 -0.1817  0.6083
 4216SOL    HW124107   4.216   2.317  11.233  0.1074 -0.4423  0.1221
 4216SOL    HW224108   4.133   2.215  11.285 -0.4061 -0.7728 -0.3301
 4217SOL     OW24109   4.387   2.536   3.357  0.1211  0.6933  0.0127
 4217SOL    HW124110   4.298   2.570   3.366  0.1254  0.7188 -0.0416
 4217SOL    HW224111   4.363   2.455   3.402 -1.0018  0.6036 -0.7199
 4218SOL     OW24112   0.315   1.386  11.032 -0.2509  0.0148 -0.0106
 4218SOL    HW124113   0.317   1.320  11.102  1.6800 -0.5317 -0.5947
 4218SOL    HW224114   0.408   1.396  11.014  0.0222  1.4166  2.1304
 4219SOL     OW24115   1.855   2.490   4.794  0.3836  0.5535 -0.1161
 4219SOL    HW124116   1.793   2.470   4.725 -0.7286 -0.7303  1.2456
 4219SOL    HW224117   1.934   2.510   4.745 -0.2368  0.2961 -1.2116
 4220SOL     OW24118   0.581   0.766   1.486 -0.5256  0.2574 -0.2171
 4220SOL    HW124119   0.647   0.787   1.420  2.2302 -3.0246  1.5114
 4220SOL    HW224120   0.501   0.777   1.433 -0.5585  0.5418 -0.1104
 4221SOL     OW24121   2.762   3.603   6.135  0.2066 -0.3873 -0.2020
 4221SOL    HW124122   2.679   3.645   6.161  0.3610  0.3078 -0.8358
 4221SOL    HW224123   2.813   3.597   6.216 -0.4944 -0.2376  0.2529
 4222SOL     OW24124   3.687   3.977  13.941 -0.8542 -0.3038 -0.0517
 4222SOL    HW124125   3.622   3.927  13.990 -0.8499 -0.0711  0.1843
 4222SOL    HW224126   3.680   3.938  13.853 -0.8133  1.6823 -0.9389
 4223SOL     OW24127   0.960   3.655  10.718 -1.0375 -0.2665  0.3070
 4223SOL    HW124128   0.891   3.670  10.654 -1.4106  1.7878  1.1749
 4223SOL    HW224129   1.004   3.573  10.697  1.1006  1.1532 -0.7459
 4224SOL     OW24130   3.982   2.441   5.955  0.2838 -0.0727  0.9513
 4224SOL    HW124131   3.907   2.497   5.970  1.6906  1.8352  0.8157
 4224SOL    HW224132   3.965   2.410   5.866 -0.3884  0.9263  0.7389
 4225SOL     OW24133   0.853   3.831   0.592  0.8704 -0.1440  0.1008
 4225SOL    HW124134   0.842   3.818   0.686 -2.1329  1.1820 -0.0371
 4225SOL    HW224135   0.942   3.798   0.584  1.2886  0.1668  3.3329
 4226SOL     OW24136   1.746   1.727   5.219 -0.1384  0.3420  0.4285
 4226SOL    HW124137   1.820   1.781   5.248 -1.1636  1.7837  0.3923
 4226SOL    HW224138   1.757   1.653   5.279  2.0121  0.1911 -0.1569
 4227SOL     OW24139   4.658   3.929   5.242 -0.1590 -0.0667  0.3018
 4227SOL    HW124140   0.017   3.883   5.256  0.0197 -0.0394 -0.6749
 4227SOL    HW224141   4.676   3.972   5.159  0.2605 -1.3971 -0.2836
 4228SOL     OW24142   3.369   1.468   3.989 -0.3083 -0.1026 -0.1632
 4228SOL    HW124143   3.384   1.559   4.015 -0.9289 -0.5262  1.6889
 4228SOL    HW224144   3.394   1.418   4.067 -1.6125  0.2924  0.5180
 4229SOL     OW24145   0.153   4.378   3.651  0.1074 -0.7956  0.3013
 4229SOL    HW124146   0.123   4.466   3.631 -0.8262 -0.7706  1.8557
 4229SOL    HW224147   0.146   4.375   3.746 -0.9721  1.3464  0.2775
 4230SOL     OW24148   3.077   4.058  11.304 -0.0876 -0.4579 -0.3360
 4230SOL    HW124149   3.085   4.120  11.231  0.5835  0.5060  0.5728
 4230SOL    HW224150   3.083   4.117  11.379 -2.5568  1.0532 -1.3024
 4231SOL     OW24151   1.017   3.367   8.016  0.6564  0.5748 -0.0200
 4231SOL    HW124152   1.085   3.417   7.970 -0.0290  0.0143 -1.6539
 4231SOL    HW224153   0.950   3.429   8.046 -1.0503 -0.7824 -0.9826
 4232SOL     OW24154   3.418   3.734   3.902  0.4708 -0.1881  0.6055
 4232SOL    HW124155   3.396   3.651   3.944  0.6083  0.2635  1.5705
 4232SOL    HW224156   3.353   3.799   3.928  1.6606  1.9583 -1.8047
 4233SOL     OW24157   4.020   3.031   2.031 -0.5679 -0.1085  0.2035
 4233SOL    HW124158   3.961   3.062   2.100 -0.5337  0.1658  0.1059
 4233SOL    HW224159   4.090   3.096   2.031  0.1259 -0.8551 -0.6390
 4234SOL     OW24160   0.885   1.347   9.016 -0.8707  0.6313  0.3805
 4234SOL    HW124161   0.946   1.324   8.946 -1.3412  0.6184 -0.0189
 4234SOL    HW224162   0.888   1.278   9.082 -0.9119 -1.1638 -1.5218
 4235SOL     OW24163   1.277   0.190   2.068 -0.1247  0.3948  0.1702
 4235SOL    HW124164   1.282   0.274   2.022  0.9542 -0.1668 -0.7379
 4235SOL    HW224165   1.336   0.127   2.025 -0.4819  0.7140 -0.7960
 4236SOL     OW24166   1.481   3.503   3.374 -0.4604  0.4233 -0.1495
 4236SOL    HW124167   1.427   3.568   3.418  0.8030  2.5701 -1.7831
 4236SOL    HW224168   1.538   3.565   3.329  1.4790 -0.6575  0.8664
 4237SOL     OW24169   1.835   3.479   6.896  0.2610 -0.3562  0.0379
 4237SOL    HW124170   1.754   3.523   6.924  1.5936 -0.1583  3.6300
 4237SOL    HW224171   1.852   3.533   6.819 -0.5877  1.2556  0.9824
 4238SOL     OW24172   1.919   1.356  16.359  0.3510 -0.7065 -0.0946
 4238SOL    HW124173   1.898   1.276  16.406  1.8621 -0.6130  0.7379
 4238SOL    HW224174   1.975   1.326  16.288  0.8067 -0.3342  0.1045
 4239SOL     OW24175   4.326   1.287   3.023 -0.3878  0.1549 -0.3713
 4239SOL    HW124176   4.364   1.223   2.963 -1.5153  0.6723 -1.6570
 4239SOL    HW224177   4.280   1.338   2.955 -1.5584 -0.0701  0.2598
 4240SOL     OW24178   4.415   4.410   3.156 -0.3573 -0.2674 -0.4368
 4240SOL    HW124179   4.355   4.466   3.207  1.1676 -1.1946  2.3634
 4240SOL    HW224180   4.402   4.322   3.190 -1.7901  0.5463  1.1191
 4241SOL     OW24181   0.852   1.330  10.891 -1.0694 -0.0195  0.3475
 4241SOL    HW124182   0.765   1.369  10.899 -1.4952 -0.6496 -1.1240
 4241SOL    HW224183   0.889   1.336  10.979 -0.7944  1.8222  0.1181
 4242SOL     OW24184   0.014   0.988   2.234  0.3025  0.3488 -0.1650
 4242SOL    HW124185   4.668   0.960   2.174  0.4344  0.6310 -0.4504
 4242SOL    HW224186   4.718   0.928   2.306  0.8581  0.6844  0.2649
 4243SOL     OW24187   2.455   0.827  10.235 -0.0001  0.1098  0.1731
 4243SOL    HW124188   2.402   0.756  10.198 -0.0083 -0.5925  1.5216
 4243SOL    HW224189   2.398   0.904  10.223 -1.7590 -1.2978 -0.5529
 4244SOL     OW24190   0.800   4.125   3.405 -0.0502 -0.4205  1.0490
 4244SOL    HW124191   0.894   4.133   3.391 -0.2554  3.3816  1.9564
 4244SOL    HW224192   0.772   4.062   3.339 -0.1916  2.4408 -1.5925
 4245SOL     OW24193   3.512   0.068   6.713 -0.0358  0.1726 -0.5746
 4245SOL    HW124194   3.434   0.109   6.675 -1.0195 -1.6323 -0.5099
 4245SOL    HW224195   3.512   0.112   6.798  2.7700 -1.2431  0.1530
 4246SOL     OW24196   1.450   1.932   9.704  0.1549  0.1359 -0.2034
 4246SOL    HW124197   1.535   1.951   9.663  1.4010 -2.4565  1.1624
 4246SOL    HW224198   1.394   2.009   9.696  1.4166  1.0456 -0.2587
 4247SOL     OW24199   4.136   2.558  14.445 -0.7053 -0.0457  0.4428
 4247SOL    HW124200   4.211   2.589  14.496 -0.3898  1.4501 -0.9381
 4247SOL    HW224201   4.183   2.495  14.390 -0.9379 -0.4339  0.6840
 4248SOL     OW24202   1.133   0.875  14.709  0.2628 -0.3357 -0.2821
 4248SOL    HW124203   1.173   0.796  14.672  1.7271 -0.4913  1.6565
 4248SOL    HW224204   1.044   0.843  14.720 -1.1290  2.0170 -4.4587
 4249SOL     OW24205   0.744   1.555   8.911 -0.3034 -0.3324 -0.0171
 4249SOL    HW124206   0.827   1.602   8.919  1.0408 -2.5398 -1.1750
 4249SOL    HW224207   0.769   1.476   8.958  2.0795  1.6334  1.9823
 4250SOL     OW24208   0.459   3.485   3.362 -0.3207  0.2883 -0.4900
 4250SOL    HW124209   0.507   3.469   3.281  1.9046 -0.0718  0.9072
 4250SOL    HW224210   0.462   3.581   3.353  3.1907  0.4332  2.2030
 4251SOL     OW24211   3.136   1.167   5.018  0.3520  0.1180  0.2225
 4251SOL    HW124212   3.084   1.133   5.091  0.0241 -0.4487 -0.2750
 4251SOL    HW224213   3.073   1.230   4.985 -0.1741  0.0344  1.0728
 4252SOL     OW24214   4.015   4.105  12.249 -0.1073 -0.2284  0.5833
 4252SOL    HW124215   4.088   4.166  12.245  0.6529 -1.3347 -2.5910
 4252SOL    HW224216   4.031   4.046  12.322 -0.2416  0.6717  1.3327
 4253SOL     OW24217   3.475   4.320   8.333 -0.0437  0.0542  0.3759
 4253SOL    HW124218   3.500   4.388   8.396  0.3185  0.5038 -0.2475
 4253SOL    HW224219   3.559   4.293   8.295  0.6868  1.6287  0.8209
 4254SOL     OW24220   0.120   2.503  11.285  0.3283  0.1539  0.1926
 4254SOL    HW124221   0.087   2.590  11.266  0.4612  0.7777  2.8503
 4254SOL    HW224222   0.120   2.511  11.380 -1.8258 -0.8865  0.2627
 4255SOL     OW24223   3.817   3.741  12.104 -0.4118 -0.6813 -0.2226
 4255SOL    HW124224   3.882   3.761  12.171 -0.3898 -3.3736  0.5572
 4255SOL    HW224225   3.755   3.812  12.121 -0.8377 -0.5579 -2.2173
 4256SOL     OW24226   4.225   0.543  12.429 -0.5499 -0.2627 -0.5114
 4256SOL    HW124227   4.220   0.594  12.348  1.1106  1.0251  0.2032
 4256SOL    HW224228   4.135   0.512  12.428 -0.8478  0.5781  3.7076
 4257SOL     OW24229   2.992   3.237   6.775 -0.4195 -0.3684  0.2642
 4257SOL    HW124230   2.957   3.313   6.729 -2.0989 -0.8543  0.7471
 4257SOL    HW224231   3.082   3.267   6.789 -0.4694 -0.3188  0.4859
 4258SOL     OW24232   0.168   3.839   5.321  0.1376  0.4847  0.2163
 4258SOL    HW124233   0.252   3.852   5.365  0.2135  0.6520  0.0177
 4258SOL    HW224234   0.190   3.772   5.256  1.8999  1.9943 -0.7448
 4259SOL     OW24235   3.518   4.555  17.239  0.4107 -0.2470  0.3945
 4259SOL    HW124236   3.517   4.537  17.333 -0.1576 -0.3318  0.3728
 4259SOL    HW224237   3.428   4.525  17.225  0.0356  0.7851  0.5794
 4260SOL     OW24238   2.076   1.176   5.478  0.7769  0.0286  0.2095
 4260SOL    HW124239   2.121   1.092   5.468 -2.8915 -1.7258 -1.6529
 4260SOL    HW224240   2.134   1.223   5.538  1.6430 -1.8935  0.8710
 4261SOL     OW24241   2.490   4.346   6.391  0.0401  0.5191 -0.3027
 4261SOL    HW124242   2.416   4.358   6.330  0.0564  1.0986 -0.2065
 4261SOL    HW224243   2.552   4.409   6.354  0.1649  0.0353 -0.9206
 4262SOL     OW24244   3.074   1.252   7.266  0.5184 -0.3919 -0.3869
 4262SOL    HW124245   3.046   1.343   7.260  1.3100 -0.2419 -1.5798
 4262SOL    HW224246   3.106   1.246   7.177 -2.1443 -0.0587 -1.3682
 4263SOL     OW24247   1.951   3.298   6.568  0.4251 -0.0400 -0.0184
 4263SOL    HW124248   1.933   3.219   6.518 -1.0592  0.6320 -0.5292
 4263SOL    HW224249   1.886   3.357   6.531 -0.8523 -0.7127  1.1414
 4264SOL     OW24250   1.397   0.607   3.563  0.4427  0.9368  0.2529
 4264SOL    HW124251   1.451   0.673   3.607  2.1790 -1.2803  1.4701
 4264SOL    HW224252   1.310   0.630   3.596 -0.1377 -1.5058  0.4047
 4265SOL     OW24253   2.867   0.656   7.388  0.1509 -0.0255 -0.0465
 4265SOL    HW124254   2.960   0.644   7.371  0.3408  1.0577  0.2112
 4265SOL    HW224255   2.861   0.713   7.465 -0.1818 -1.0140  0.6654
 4266SOL     OW24256   3.463   2.155   9.144  0.2640  0.5006 -0.2893
 4266SOL    HW124257   3.477   2.249   9.157  0.6441  0.6598 -1.8254
 4266SOL    HW224258   3.524   2.130   9.075 -0.7358 -2.0025 -0.2552
 4267SOL     OW24259   3.071   1.034  14.015  0.0722 -0.3312  0.1221
 4267SOL    HW124260   3.038   0.996  13.933  1.0910 -0.5926 -0.1787
 4267SOL    HW224261   2.994   1.024  14.071 -0.0622 -1.5909 -0.2778
 4268SOL     OW24262   1.474   1.939   4.576 -0.2976 -0.9586  0.1258
 4268SOL    HW124263   1.451   1.960   4.485  0.4389  3.5635  0.9675
 4268SOL    HW224264   1.471   1.844   4.567 -0.3102 -1.0731  1.4088
 4269SOL     OW24265   1.691   0.287   3.659 -0.4757 -0.0217 -0.5365
 4269SOL    HW124266   1.640   0.278   3.578 -3.0732 -1.1392  1.2076
 4269SOL    HW224267   1.765   0.337   3.625 -1.3995  0.9080 -1.2030
 4270SOL     OW24268   4.697   1.974  10.733  0.0120  0.2104  0.4728
 4270SOL    HW124269   0.036   2.007  10.796 -0.2341 -0.0926  0.8730
 4270SOL    HW224270   4.621   1.954  10.788  0.0742  2.5326  1.3935
 4271SOL     OW24271   0.592   2.488   1.094  0.3496 -0.1885  0.0744
 4271SOL    HW124272   0.553   2.541   1.024 -0.9472 -0.7639  0.3542
 4271SOL    HW224273   0.561   2.547   1.162 -0.2630  1.0863 -1.2951
 4272SOL     OW24274   2.596   0.969   4.376 -0.0024 -0.8858  0.2299
 4272SOL    HW124275   2.526   0.908   4.354 -1.0199 -0.2721  1.6698
 4272SOL    HW224276   2.556   1.056   4.366  0.7379 -0.6397 -0.5812
 4273SOL     OW24277   3.164   4.009  11.825 -0.0102  0.6524 -0.1205
 4273SOL    HW124278   3.234   4.074  11.827  1.5465 -1.1692  3.1019
 4273SOL    HW224279   3.173   3.959  11.906 -1.7944 -0.3138 -0.5005
 4274SOL     OW24280   4.377   1.907   1.691  0.1238  0.5763 -0.0750
 4274SOL    HW124281   4.354   1.985   1.741  0.5606  1.6413 -1.5137
 4274SOL    HW224282   4.292   1.863   1.698 -0.5825  1.3335 -3.5316
 4275SOL     OW24283   0.446   2.571   1.969  0.0816 -0.3214 -0.4021
 4275SOL    HW124284   0.489   2.593   1.886 -0.8529  2.8689 -0.0592
 4275SOL    HW224285   0.425   2.660   1.997 -1.0540 -0.9198  0.6115
 4276SOL     OW24286   4.264   4.165   9.429 -0.2564 -0.0664  0.7255
 4276SOL    HW124287   4.180   4.208   9.414  0.0495 -0.0438 -0.9394
 4276SOL    HW224288   4.264   4.132   9.519 -2.8771  1.9742  1.4438
 4277SOL     OW24289   4.127   1.345   6.836 -0.3819  0.4650  0.6655
 4277SOL    HW124290   4.167   1.261   6.859 -0.2027  0.4774  0.3975
 4277SOL    HW224291   4.210   1.394   6.837  0.8081 -1.5660  2.1553
 4278SOL     OW24292   4.019   0.794   4.179 -0.1372  0.2579 -0.3788
 4278SOL    HW124293   3.982   0.882   4.170  2.5351  1.7444  3.2912
 4278SOL    HW224294   4.088   0.803   4.112  0.4574 -1.0841  0.0536
 4279SOL     OW24295   2.728   3.361   1.969 -0.1688  0.2187  0.0097
 4279SOL    HW124296   2.768   3.282   2.006 -1.0124 -1.7594 -3.2923
 4279SOL    HW224297   2.666   3.319   1.911 -0.6697  0.5103  0.3339
 4280SOL     OW24298   4.253   3.376   2.519 -0.4558 -0.5246 -0.1362
 4280SOL    HW124299   4.242   3.400   2.611  1.6539  0.3549 -0.1113
 4280SOL    HW224300   4.346   3.353   2.508 -0.3189  1.3585 -2.7162
 4281SOL     OW24301   3.709   3.322   3.554 -0.5326  0.0723  1.3666
 4281SOL    HW124302   3.737   3.408   3.586 -1.1587  1.2330 -1.2038
 4281SOL    HW224303   3.773   3.271   3.604  1.1018 -0.3745 -1.1903
 4282SOL     OW24304   1.799   2.546  17.548  0.6254 -0.1795  0.1423
 4282SOL    HW124305   1.766   2.524  17.462  0.4923 -0.7909  0.3518
 4282SOL    HW224306   1.856   2.470  17.557  1.3981  0.8857  4.4654
 4283SOL     OW24307   3.938   1.649   9.193  0.2303  0.6410 -0.0794
 4283SOL    HW124308   3.881   1.637   9.269 -0.8164  0.7913 -0.8398
 4283SOL    HW224309   4.013   1.684   9.240 -0.8787  1.7776  0.8565
 4284SOL     OW24310   1.107   1.612  15.865  0.1395 -0.5365  0.0568
 4284SOL    HW124311   1.198   1.634  15.843 -0.6311  1.5360 -1.0888
 4284SOL    HW224312   1.087   1.549  15.796 -1.5996  1.6686 -1.4466
 4285SOL     OW24313   1.695   4.651  17.192 -0.6948  0.0314  0.0660
 4285SOL    HW124314   1.652   4.572  17.158  1.7307  0.2524 -3.5732
 4285SOL    HW224315   1.760   4.607  17.247 -0.7486  0.0854  0.1713
 4286SOL     OW24316   2.941   4.549   8.225  0.9526 -0.0749 -0.2526
 4286SOL    HW124317   2.970   4.473   8.275  1.0921  0.1134 -0.0526
 4286SOL    HW224318   3.008   4.551   8.157  0.5619  0.7229 -0.6086
 4287SOL     OW24319   4.328   2.936   4.812  0.0618 -0.1714 -0.1100
 4287SOL    HW124320   4.248   2.957   4.859  0.5586 -0.1945  0.7451
 4287SOL    HW224321   4.314   2.842   4.801 -1.3431  0.0882 -0.4559
 4288SOL     OW24322   1.696   2.201  13.723  0.3813  0.1949 -0.1190
 4288SOL    HW124323   1.702   2.296  13.711 -1.1633  0.4643  1.2685
 4288SOL    HW224324   1.789   2.179  13.724  0.5271  0.8334  0.4238
 4289SOL     OW24325   1.765   2.265   8.551 -0.0371 -0.2037  0.5261
 4289SOL    HW124326   1.781   2.200   8.619 -1.9861 -0.8511  0.3407
 4289SOL    HW224327   1.850   2.266   8.505  0.6079  1.5346  1.7338
 4290SOL     OW24328   0.033   1.189   5.860  0.1555  0.5932 -0.9734
 4290SOL    HW124329   4.679   1.227   5.901 -2.0991 -3.3878 -1.5035
 4290SOL    HW224330   0.059   1.132   5.932 -3.3647 -0.3236 -0.4219
 4291SOL     OW24331   3.584   0.469   7.907 -0.1583  0.1727 -0.0653
 4291SOL    HW124332   3.500   0.455   7.864 -0.4614 -0.6960  0.8079
 4291SOL    HW224333   3.616   0.381   7.929  0.2036  0.4717  0.6047
 4292SOL     OW24334   4.723   0.677   3.564  0.4955  0.0644  0.0865
 4292SOL    HW124335   0.082   0.724   3.572  1.6005 -1.5932 -1.5280
 4292SOL    HW224336   4.680   0.724   3.492  0.6106  0.6171  0.3812
 4293SOL     OW24337   0.916   2.569  11.333 -0.1545 -0.2621  0.2593
 4293SOL    HW124338   0.844   2.519  11.292  1.8146 -0.5399 -2.8594
 4293SOL    HW224339   0.879   2.574  11.421 -0.3177 -0.6817  0.2161
 4294SOL     OW24340   0.626   4.504   1.724 -0.2166 -1.0301  0.0575
 4294SOL    HW124341   0.682   4.470   1.654 -0.7381 -2.9801  0.5818
 4294SOL    HW224342   0.548   4.448   1.728  0.1834 -1.5404  0.5898
 4295SOL     OW24343   1.216   1.136  12.662 -0.0863  0.1984  0.3997
 4295SOL    HW124344   1.237   1.188  12.740  0.0781  1.4014 -0.4591
 4295SOL    HW224345   1.166   1.065  12.703  2.0147 -1.3972  0.1987
 4296SOL     OW24346   4.156   2.360  16.012  0.4486  0.1754 -0.2308
 4296SOL    HW124347   4.171   2.452  16.035  1.7291 -0.5040  1.7227
 4296SOL    HW224348   4.074   2.349  16.059  0.4440  1.2278  0.0121
 4297SOL     OW24349   3.159   1.896   5.543 -0.7124 -0.1290  0.3452
 4297SOL    HW124350   3.222   1.838   5.500  0.1727  0.5976  0.6459
 4297SOL    HW224351   3.177   1.983   5.509 -0.9113 -1.3215 -2.7973
 4298SOL     OW24352   3.260   1.971   8.329 -0.2422  0.2325 -0.5253
 4298SOL    HW124353   3.255   2.065   8.312  0.2281  0.2450 -0.5891
 4298SOL    HW224354   3.206   1.965   8.408  2.0597  2.4638  1.2117
 4299SOL     OW24355   0.137   0.272   1.560  0.2179  0.0524 -0.5626
 4299SOL    HW124356   0.160   0.254   1.651 -0.4352 -0.0051 -0.4036
 4299SOL    HW224357   0.212   0.244   1.508 -1.2872 -0.8075 -2.3085
 4300SOL     OW24358   4.110   2.098   5.625  0.2803  0.2660  0.3590
 4300SOL    HW124359   4.122   2.147   5.543  0.9406  0.2767  0.4604
 4300SOL    HW224360   4.193   2.107   5.671  0.4251  0.3636  0.0802
 4301SOL     OW24361   0.674   0.357   5.098  0.1864 -0.1231 -0.2531
 4301SOL    HW124362   0.663   0.281   5.041  0.7820 -0.4948  0.1140
 4301SOL    HW224363   0.655   0.427   5.036 -3.6726  2.2264  3.5672
 4302SOL     OW24364   1.986   2.551   2.015  0.1120 -0.2499  0.9047
 4302SOL    HW124365   1.897   2.566   2.045  0.5955  1.3632  1.5130
 4302SOL    HW224366   2.015   2.467   2.051  0.6745 -0.5819 -0.3060
 4303SOL     OW24367   3.098   4.289   2.912  0.7270  0.4583  0.3444
 4303SOL    HW124368   3.132   4.308   2.999  0.8001 -1.7626  0.7947
 4303SOL    HW224369   3.068   4.378   2.892 -0.9714 -0.9549 -3.4860
 4304SOL     OW24370   1.803   1.503  15.265  0.4379  0.5955  0.1249
 4304SOL    HW124371   1.871   1.491  15.331 -0.0744 -0.3483  0.4845
 4304SOL    HW224372   1.736   1.450  15.309 -1.4118  2.7636 -0.0510
 4305SOL     OW24373   1.195   3.646   3.721  0.0851 -0.2440 -0.0001
 4305SOL    HW124374   1.182   3.610   3.809  0.0246 -2.5680 -0.9720
 4305SOL    HW224375   1.106   3.634   3.687 -0.0992 -0.1963  0.4639
 4306SOL     OW24376   3.771   0.299   4.410  0.4305  0.0709  0.3172
 4306SOL    HW124377   3.849   0.337   4.450 -0.3466  1.4950  0.5220
 4306SOL    HW224378   3.806   0.221   4.368 -0.9668 -0.5324  0.2898
 4307SOL     OW24379   3.592   0.778   4.796 -0.6191 -0.2124 -0.0439
 4307SOL    HW124380   3.511   0.815   4.830 -0.3486  1.0982 -0.8192
 4307SOL    HW224381   3.564   0.770   4.705 -1.1771  0.3104  0.0823
 4308SOL     OW24382   0.870   4.218   2.853 -0.0766  0.0125  0.0716
 4308SOL    HW124383   0.942   4.182   2.801 -0.2403 -0.8149  0.4054
 4308SOL    HW224384   0.897   4.310   2.858 -0.1958  0.1835 -2.6349
 4309SOL     OW24385   1.144   3.992   8.925 -0.1242  0.2982 -0.1570
 4309SOL    HW124386   1.069   3.940   8.956 -0.4522  2.1397  2.1238
 4309SOL    HW224387   1.113   4.010   8.837 -0.0514 -0.5606 -0.3629
 4310SOL     OW24388   2.723   0.686   2.986 -0.1697  0.0628  0.0355
 4310SOL    HW124389   2.748   0.684   2.894 -0.0725 -0.9593  0.0810
 4310SOL    HW224390   2.779   0.617   3.021 -0.8306 -1.0780 -1.1996
 4311SOL     OW24391   3.692   4.023   8.237 -0.0208 -0.2110  0.1117
 4311SOL    HW124392   3.603   4.024   8.273 -0.6717  0.6915 -1.4910
 4311SOL    HW224393   3.694   3.935   8.200 -1.4223  0.0405 -0.5820
 4312SOL     OW24394   0.924   2.630  12.096 -0.0919  0.0462  0.1209
 4312SOL    HW124395   0.948   2.716  12.131  1.6454 -0.4805  0.2521
 4312SOL    HW224396   0.961   2.571  12.162  2.6177  0.2625 -1.1635
 4313SOL     OW24397   0.670   4.269   0.339  0.0129  0.4759  0.1088
 4313SOL    HW124398   0.576   4.272   0.321  0.4014  1.0399 -1.8141
 4313SOL    HW224399   0.674   4.209   0.413  1.6986  0.4795  0.0195
 4314SOL     OW24400   1.201   0.279  11.547 -0.0033 -0.6612  0.5919
 4314SOL    HW124401   1.136   0.323  11.492  0.7191 -0.1789  0.1272
 4314SOL    HW224402   1.207   0.199  11.496 -0.4749 -0.0899 -0.3654
 4315SOL     OW24403   0.861   1.566   4.094  0.0316  0.1362  0.1940
 4315SOL    HW124404   0.905   1.651   4.095  1.3114 -0.5117 -0.7642
 4315SOL    HW224405   0.772   1.603   4.097  0.0306 -0.0506  2.0978
 4316SOL     OW24406   0.731   3.356  12.608 -0.2394  0.1539  0.2201
 4316SOL    HW124407   0.669   3.379  12.539  0.6040  0.1204 -0.5468
 4316SOL    HW224408   0.672   3.349  12.683  1.1416  0.9295  1.3674
 4317SOL     OW24409   4.087   3.420   6.772 -0.1901  0.4122 -0.0942
 4317SOL    HW124410   4.151   3.359   6.808 -0.2867 -0.4820 -1.4438
 4317SOL    HW224411   4.137   3.471   6.708  1.6604  0.0433  1.0775
 4318SOL     OW24412   0.348   3.372   8.423  0.1405 -0.0809  0.4006
 4318SOL    HW124413   0.423   3.431   8.420 -0.2607  0.4000 -0.0774
 4318SOL    HW224414   0.343   3.345   8.332  1.9338 -1.5371  0.7241
 4319SOL     OW24415   3.835   0.099  10.093 -0.1623  0.2940 -0.8874
 4319SOL    HW124416   3.744   0.073  10.075 -0.6528  1.3972 -0.0714
 4319SOL    HW224417   3.887   0.022  10.072  1.4350  0.5041  2.2811
 4320SOL     OW24418   0.969   4.462   2.915  0.1652 -0.4761 -0.1852
 4320SOL    HW124419   0.981   4.520   2.839  0.9291 -1.4816 -0.8345
 4320SOL    HW224420   0.986   4.517   2.991 -2.4068 -0.5643  0.4283
 4321SOL     OW24421   0.675   3.157   5.028  0.3206  0.1967 -0.3065
 4321SOL    HW124422   0.723   3.162   5.111  0.0155  2.0328 -0.2388
 4321SOL    HW224423   0.658   3.249   5.008  0.1725 -0.0036 -1.0828
 4322SOL     OW24424   0.502   0.001   6.074  0.1951 -0.2344 -0.3435
 4322SOL    HW124425   0.560   4.661   6.115 -0.7751 -0.0299  1.3669
 4322SOL    HW224426   0.438   0.010   6.145  1.0511  2.9844  0.0067
 4323SOL     OW24427   1.780   1.401   6.506  0.3997 -0.5909 -0.5107
 4323SOL    HW124428   1.737   1.331   6.554  2.2863 -0.7209  0.9905
 4323SOL    HW224429   1.845   1.349   6.457  0.1367  0.1292 -1.6279
 4324SOL     OW24430   2.532   0.440   9.441 -0.4374 -0.3045 -0.0819
 4324SOL    HW124431   2.495   0.505   9.502 -0.7437 -0.0612 -0.5261
 4324SOL    HW224432   2.615   0.486   9.425  0.1791 -0.7670  1.7435
 4325SOL     OW24433   0.344   3.487   7.930 -0.7336 -0.0560 -0.6161
 4325SOL    HW124434   0.392   3.540   7.866  0.2396 -0.7728 -0.4849
 4325SOL    HW224435   0.267   3.541   7.946 -1.2463 -0.7032 -0.9225
 4326SOL     OW24436   4.152   1.620   0.895 -0.1675  0.0850 -0.1328
 4326SOL    HW124437   4.231   1.578   0.861 -2.7508 -2.0720 -3.4747
 4326SOL    HW224438   4.185   1.707   0.916 -0.2674 -0.3725  1.9631
 4327SOL     OW24439   3.926   2.758   9.218  0.0075 -0.5187  0.4401
 4327SOL    HW124440   3.955   2.688   9.159  1.1188  1.0756 -0.9034
 4327SOL    HW224441   3.833   2.756   9.193 -0.2882 -0.1127  1.5302
 4328SOL     OW24442   0.074   4.620   6.256  0.2187 -0.0165  0.0499
 4328SOL    HW124443   0.018   4.669   6.315  1.2679  0.1309  0.9287
 4328SOL    HW224444   0.157   4.668   6.264  0.0740 -0.0318  1.7210
 4329SOL     OW24445   0.304   0.082   7.281 -0.3624 -0.2034  0.2638
 4329SOL    HW124446   0.286   0.077   7.375 -2.7953 -0.5567 -0.2051
 4329SOL    HW224447   0.278   0.171   7.260 -3.1793 -1.5370 -2.0177
 4330SOL     OW24448   1.069   0.911   3.461  0.5242  0.1807 -0.1457
 4330SOL    HW124449   1.094   1.001   3.443  1.2256 -0.0848 -0.5048
 4330SOL    HW224450   1.139   0.858   3.421 -0.5408 -0.0808 -1.6438
 4331SOL     OW24451   3.250   2.017   3.653 -0.2140  0.4724  0.3670
 4331SOL    HW124452   3.258   2.102   3.695  0.8550  0.4577  0.2027
 4331SOL    HW224453   3.304   2.038   3.576  1.8124 -0.0586  1.6355
 4332SOL     OW24454   3.771   2.572  15.256 -0.0442 -0.3799  0.1505
 4332SOL    HW124455   3.822   2.623  15.319  0.4845 -1.1095  0.3106
 4332SOL    HW224456   3.827   2.581  15.178  1.7044  1.9272  1.6354
 4333SOL     OW24457   0.847   3.863   8.836 -0.3530 -0.0947 -0.0977
 4333SOL    HW124458   0.831   3.819   8.753 -0.9085 -1.5290  0.7667
 4333SOL    HW224459   0.760   3.855   8.875 -0.2244 -0.9568 -0.0012
 4334SOL     OW24460   2.009   4.235   7.556 -0.7908 -0.2135  0.3383
 4334SOL    HW124461   1.975   4.297   7.621 -2.2341 -1.3902  0.7050
 4334SOL    HW224462   2.104   4.228   7.565 -0.9319  0.5725  2.3830
 4335SOL     OW24463   0.302   0.733   9.598  0.3531  0.0863  0.3386
 4335SOL    HW124464   0.312   0.803   9.535  0.1672  1.1933  1.5436
 4335SOL    HW224465   0.300   0.778   9.683  2.8229  1.8519 -0.5602
 4336SOL     OW24466   0.157   3.713   2.328 -0.0076  0.1725  0.0556
 4336SOL    HW124467   0.068   3.724   2.362 -0.5419 -0.3416 -1.1849
 4336SOL    HW224468   0.142   3.662   2.248  1.2282  0.6038 -0.4532
 4337SOL     OW24469   1.935   4.350   9.153 -0.3997  0.1386  0.2303
 4337SOL    HW124470   1.906   4.260   9.168  1.1136  0.0729  2.7246
 4337SOL    HW224471   1.859   4.390   9.111 -0.5038  1.9857  2.1571
 4338SOL     OW24472   3.208   1.273  13.522  0.3565 -0.0237 -0.8254
 4338SOL    HW124473   3.122   1.302  13.491 -0.2038 -2.0481 -1.1710
 4338SOL    HW224474   3.242   1.225  13.446  2.3207  1.3474 -0.7897
 4339SOL     OW24475   3.666   2.096   4.670  0.3324 -0.4708 -0.2406
 4339SOL    HW124476   3.576   2.080   4.642  0.2195  0.3131 -0.3309
 4339SOL    HW224477   3.687   2.017   4.720 -0.4643 -2.3258 -2.8083
 4340SOL     OW24478   0.552   4.667   0.569 -0.0773 -0.2836 -0.2315
 4340SOL    HW124479   0.610   4.604   0.611 -0.0848  0.1228  0.3805
 4340SOL    HW224480   0.523   4.617   0.492  1.4058  1.2786 -1.8307
 4341SOL     OW24481   3.459   0.379   6.604  0.3282  0.1274  0.0576
 4341SOL    HW124482   3.418   0.327   6.673 -0.0241  0.6654  0.2563
 4341SOL    HW224483   3.387   0.398   6.544  1.3201  0.4451 -1.0530
 4342SOL     OW24484   1.330   2.905  10.065 -0.1687  0.2018 -0.5528
 4342SOL    HW124485   1.383   2.927  10.142 -0.2460 -0.9460 -0.1648
 4342SOL    HW224486   1.367   2.947   9.988  1.5731 -1.1177 -0.4393
 4343SOL     OW24487   3.731   4.299   6.014  0.2832  0.0837  0.4590
 4343SOL    HW124488   3.655   4.356   6.007 -0.4822 -0.9827  0.1910
 4343SOL    HW224489   3.749   4.273   5.924 -1.7169 -1.0324  0.3854
 4344SOL     OW24490   2.913   2.906   2.516 -0.0697 -0.1819 -0.0639
 4344SOL    HW124491   2.957   2.989   2.502 -1.0610  0.4561  0.6204
 4344SOL    HW224492   2.878   2.932   2.601 -1.1347  1.8606 -1.1360
 4345SOL     OW24493   3.208   1.274   4.739 -0.0092  0.3950  0.1344
 4345SOL    HW124494   3.197   1.302   4.648  0.3891  1.5581  0.4386
 4345SOL    HW224495   3.118   1.245   4.753  0.2989 -1.2338 -1.3552
 4346SOL     OW24496   3.902   0.663   1.245 -0.0087  0.0263 -0.2436
 4346SOL    HW124497   3.920   0.701   1.331  0.8274 -1.0634  0.0668
 4346SOL    HW224498   3.993   0.657   1.217  0.0072 -3.0982  0.4545
 4347SOL     OW24499   1.082   2.291   5.128 -0.2953 -0.3366  0.3048
 4347SOL    HW124500   1.040   2.232   5.066 -2.3531  1.9453 -0.4790
 4347SOL    HW224501   1.161   2.302   5.075 -0.4033  0.5646  0.3327
 4348SOL     OW24502   0.741   0.627   6.646 -0.4807  0.2782  0.0875
 4348SOL    HW124503   0.741   0.718   6.616  1.2576 -0.2769 -1.5845
 4348SOL    HW224504   0.691   0.632   6.728 -2.8866  1.1154 -1.4317
 4349SOL     OW24505   3.485   0.418   4.086  0.1817 -0.3112 -0.0012
 4349SOL    HW124506   3.477   0.513   4.098  0.9718 -0.2629  0.1308
 4349SOL    HW224507   3.517   0.393   4.173 -0.6839 -0.0372  0.3960
 4350SOL     OW24508   2.624   4.172  17.250  0.5151  0.2498 -0.3596
 4350SOL    HW124509   2.608   4.234  17.320 -0.4550  1.4047 -1.6066
 4350SOL    HW224510   2.672   4.113  17.308  0.4653  0.4514 -0.1147
 4351SOL     OW24511   0.054   3.983  15.770  0.2595 -0.1919  0.0840
 4351SOL    HW124512   0.139   3.940  15.777  0.1102 -0.4175  0.5171
 4351SOL    HW224513   0.038   4.024  15.685  2.0459  2.5156  1.0543
 4352SOL     OW24514   1.514   3.184   4.005 -0.1903  0.0450  0.1394
 4352SOL    HW124515   1.448   3.243   3.970  1.5904  2.2986  0.5967
 4352SOL    HW224516   1.519   3.131   3.925 -0.3621 -2.3904  1.7515
 4353SOL     OW24517   3.951   0.099   6.971 -0.2106 -0.0859  0.6835
 4353SOL    HW124518   3.959   0.072   7.062 -1.6267  3.0598  1.7529
 4353SOL    HW224519   3.867   0.065   6.941  0.1908  0.5789 -1.1825
 4354SOL     OW24520   4.699   4.108   7.873 -0.0028 -0.8405 -0.1779
 4354SOL    HW124521   4.712   4.014   7.864  0.4976 -0.7879  0.0071
 4354SOL    HW224522   4.707   4.118   7.968 -2.5214 -3.5524  0.3130
 4355SOL     OW24523   3.727   3.569   8.916 -0.6924  0.1154  0.3404
 4355SOL    HW124524   3.680   3.575   8.999  0.9741  3.6700  1.0207
 4355SOL    HW224525   3.789   3.495   8.919 -1.1819 -0.2374  1.6965
 4356SOL     OW24526   2.037   3.647   4.913 -0.5682 -0.7550  0.1180
 4356SOL    HW124527   2.097   3.574   4.929 -0.1758  0.2185  3.2515
 4356SOL    HW224528   2.073   3.722   4.961  0.1126 -0.6722 -0.5144
 4357SOL     OW24529   4.386   1.376  12.395 -0.1352  0.1657  0.1721
 4357SOL    HW124530   4.325   1.404  12.326 -0.1021  0.2724  0.1864
 4357SOL    HW224531   4.332   1.382  12.474  0.3529  1.5399  0.4055
 4358SOL     OW24532   2.591   4.275   1.713 -0.3207 -0.4384  0.4622
 4358SOL    HW124533   2.565   4.198   1.763  0.3566 -1.2315 -0.4006
 4358SOL    HW224534   2.635   4.321   1.784  1.7007  2.4091 -2.6319
 4359SOL     OW24535   0.472   1.526   7.981  0.2379  0.5316  0.3186
 4359SOL    HW124536   0.418   1.576   7.920  1.0363 -1.1570 -1.7749
 4359SOL    HW224537   0.441   1.560   8.065 -2.2446  0.1536 -0.4621
 4360SOL     OW24538   3.099   0.756   2.382 -0.1306 -0.6059  0.1956
 4360SOL    HW124539   3.120   0.760   2.289 -1.7172  1.7320 -0.0745
 4360SOL    HW224540   3.035   0.827   2.381  1.6498  0.9979  0.0735
 4361SOL     OW24541   1.118   2.858   4.636  0.3292 -0.6646  0.2113
 4361SOL    HW124542   1.057   2.881   4.707  0.3258  0.9848 -0.3254
 4361SOL    HW224543   1.162   2.780   4.670  0.1368 -0.8954 -0.0673
 4362SOL     OW24544   2.334   1.413   3.978  0.3453  0.2926  0.0859
 4362SOL    HW124545   2.255   1.427   4.031  0.8521 -1.5654  1.3360
 4362SOL    HW224546   2.347   1.504   3.953 -0.9801  0.2525 -0.8120
 4363SOL     OW24547   3.335   0.933  10.774 -0.3322 -0.3928 -0.2609
 4363SOL    HW124548   3.396   0.879  10.725 -0.3883 -1.0022  0.3546
 4363SOL    HW224549   3.286   0.975  10.703  0.6635 -0.7287 -1.1304
 4364SOL     OW24550   2.342   3.555  15.980 -0.6246  0.1540 -0.3585
 4364SOL    HW124551   2.349   3.646  16.009 -1.9858 -0.0483  0.6225
 4364SOL    HW224552   2.329   3.510  16.064 -0.1367 -0.5075 -0.6426
 4365SOL     OW24553   1.056   1.510   9.372 -0.3174  1.2058  0.2270
 4365SOL    HW124554   1.149   1.508   9.396 -0.2109  0.0680 -0.2878
 4365SOL    HW224555   1.058   1.577   9.303 -0.2089  0.2743 -0.6663
 4366SOL     OW24556   1.862   2.964   7.594 -0.7851  0.0557  0.2141
 4366SOL    HW124557   1.806   3.022   7.645 -2.8129 -2.7330  1.1285
 4366SOL    HW224558   1.849   2.883   7.642  0.1481  0.0320  0.4238
 4367SOL     OW24559   3.196   3.154   9.690 -0.8509  0.8838  0.4152
 4367SOL    HW124560   3.220   3.246   9.690  0.6591  0.4990 -0.0943
 4367SOL    HW224561   3.280   3.115   9.714 -1.1320 -0.5199 -0.8656
 4368SOL     OW24562   0.338   2.999   1.834 -0.0450  0.5494 -0.0264
 4368SOL    HW124563   0.256   3.045   1.815 -0.5078  0.0480  0.7705
 4368SOL    HW224564   0.320   2.947   1.912 -0.8163  0.2116 -0.4367
 4369SOL     OW24565   3.251   1.277  15.177 -0.2058  0.1330  0.0163
 4369SOL    HW124566   3.323   1.241  15.230 -0.0252  0.4982  0.0203
 4369SOL    HW224567   3.179   1.238  15.226  0.5165  1.8573  2.4774
 4370SOL     OW24568   0.467   0.830  13.489  0.2669  0.6779  0.2851
 4370SOL    HW124569   0.414   0.860  13.564  1.1371  2.7163  0.0871
 4370SOL    HW224570   0.499   0.905  13.439 -0.6307  1.6980  1.2262
 4371SOL     OW24571   0.962   2.671   3.764 -0.1106 -0.1641  0.2742
 4371SOL    HW124572   1.027   2.646   3.698  0.6834 -0.0097  0.9982
 4371SOL    HW224573   0.895   2.709   3.707 -0.5175 -1.1837  0.0678
 4372SOL     OW24574   3.715   2.971   5.041  0.4537 -0.0492  1.1505
 4372SOL    HW124575   3.663   2.903   4.999 -0.8507  0.7327  1.4909
 4372SOL    HW224576   3.652   3.018   5.097  0.9854  1.4740  0.4706
 4373SOL     OW24577   3.840   4.041  14.953  0.5273  0.1682  0.2317
 4373SOL    HW124578   3.901   3.988  14.902  0.0015 -1.5128  1.3506
 4373SOL    HW224579   3.783   3.975  14.994 -0.7165  0.0632 -1.6600
 4374SOL     OW24580   4.059   0.524   5.935 -0.3114  0.0856 -0.1319
 4374SOL    HW124581   3.988   0.530   5.872  1.5956  2.6590 -2.0202
 4374SOL    HW224582   4.135   0.516   5.878 -0.1379 -0.8890  0.2355
 4375SOL     OW24583   0.258   1.422  11.675 -0.1667 -0.4816  0.0920
 4375SOL    HW124584   0.245   1.337  11.635 -0.2376 -0.2279 -0.4235
 4375SOL    HW224585   0.281   1.401  11.765 -1.5214 -1.4566  0.2068
 4376SOL     OW24586   0.395   1.850  14.388  0.0983  0.2788  0.2002
 4376SOL    HW124587   0.328   1.824  14.325 -0.4279  2.1309  0.0028
 4376SOL    HW224588   0.343   1.842  14.468 -0.5868  1.8092 -0.0946
 4377SOL     OW24589   4.198   3.821   9.354  0.3705  0.3853 -0.0284
 4377SOL    HW124590   4.152   3.737   9.348  1.1726  0.0605 -1.7176
 4377SOL    HW224591   4.202   3.834   9.449  0.9157  1.5939 -0.2197
 4378SOL     OW24592   0.548   4.391   2.835  0.5275  0.1173 -0.1212
 4378SOL    HW124593   0.576   4.305   2.805  0.8984 -0.3485  1.5499
 4378SOL    HW224594   0.459   4.373   2.863  0.5011 -1.2614 -1.0907
 4379SOL     OW24595   0.979   2.515   4.545 -0.1789  0.2279 -0.0861
 4379SOL    HW124596   0.888   2.486   4.547  0.3516 -1.3353  1.6888
 4379SOL    HW224597   0.995   2.555   4.631  0.9142  0.8853 -0.5966
 4380SOL     OW24598   4.677   1.051   8.855  0.0365  0.0366  0.4342
 4380SOL    HW124599   0.007   0.972   8.859  0.5329  0.2469 -2.2840
 4380SOL    HW224600   4.595   1.013   8.887 -0.5755  1.0356  0.0546
 4381SOL     OW24601   3.629   3.065  14.026 -0.6842 -0.2197  0.5276
 4381SOL    HW124602   3.698   3.004  13.999 -1.4979 -1.1043  0.4451
 4381SOL    HW224603   3.634   3.126  13.953  0.2275 -0.5967  0.2761
 4382SOL     OW24604   2.174   2.112   8.968  0.0614  0.4004 -0.0423
 4382SOL    HW124605   2.250   2.055   8.973 -1.2823 -1.5306 -1.7094
 4382SOL    HW224606   2.215   2.195   8.994 -0.0548  0.5926 -0.4605
 4383SOL     OW24607   0.864   3.207  13.792 -0.4045 -0.2347 -0.2183
 4383SOL    HW124608   0.797   3.198  13.860  0.7281 -0.7248  0.8218
 4383SOL    HW224609   0.937   3.172  13.842 -0.7343 -0.4500  0.1059
 4384SOL     OW24610   4.438   4.576  11.740  0.0954 -0.0105  0.0570
 4384SOL    HW124611   4.461   4.584  11.648  3.0592  1.9376  0.9627
 4384SOL    HW224612   4.359   4.522  11.739  0.3929 -0.3893 -2.3460
 4385SOL     OW24613   0.072   0.714  16.050  0.1857  0.1524 -0.1136
 4385SOL    HW124614   0.033   0.762  16.123  1.1666  4.0135 -2.1860
 4385SOL    HW224615   4.718   0.669  16.016 -1.2660  2.3130  0.3730
 4386SOL     OW24616   1.327   1.241  13.229  0.0853 -0.3163 -0.7573
 4386SOL    HW124617   1.260   1.291  13.182 -1.1538 -1.9837 -0.7267
 4386SOL    HW224618   1.338   1.178  13.158  2.1766 -1.3988  0.5319
 4387SOL     OW24619   0.869   3.202   6.460 -0.5165 -0.6427  0.1344
 4387SOL    HW124620   0.845   3.276   6.515 -2.1462 -0.9586 -0.1548
 4387SOL    HW224621   0.925   3.154   6.521 -0.7198  0.1225  0.9110
 4388SOL     OW24622   1.628   1.383  15.399 -0.5010 -0.5415 -0.3224
 4388SOL    HW124623   1.643   1.311  15.461  2.6362  0.8834  0.5543
 4388SOL    HW224624   1.587   1.441  15.463  1.9635  0.0433  0.7145
 4389SOL     OW24625   3.942   1.042  14.875 -0.3826  0.2199 -0.5022
 4389SOL    HW124626   3.967   1.133  14.892 -1.7498  0.4019  0.5351
 4389SOL    HW224627   3.969   1.004  14.959 -0.6201 -0.7159 -0.8559
 4390SOL     OW24628   2.861   2.524   3.090 -0.0641  0.0900 -0.3131
 4390SOL    HW124629   2.824   2.544   3.004  2.5023  1.8139 -1.0198
 4390SOL    HW224630   2.792   2.477   3.138 -1.4720  1.2909 -1.1648
 4391SOL     OW24631   0.906   0.671  15.163  0.1706 -0.0630  0.3394
 4391SOL    HW124632   0.863   0.589  15.187 -1.8715  0.2941 -2.1160
 4391SOL    HW224633   0.908   0.673  15.068 -3.6300 -0.1861  0.2710
 4392SOL     OW24634   0.881   4.045   4.338  0.4723  0.4410  0.4777
 4392SOL    HW124635   0.909   4.014   4.424 -0.0676 -1.1169  0.0973
 4392SOL    HW224636   0.829   4.123   4.357  4.0706  2.3932  2.1146
 4393SOL     OW24637   0.484   0.878  17.577 -0.1785  0.4625  0.1443
 4393SOL    HW124638   0.430   0.848  17.650 -0.2903  2.3754  0.8483
 4393SOL    HW224639   0.457   0.812  17.512 -0.0612  0.0507  0.5173
 4394SOL     OW24640   0.664   1.171  15.786 -0.0059  0.4095  0.1066
 4394SOL    HW124641   0.720   1.166  15.708  0.8419  1.2510  0.6579
 4394SOL    HW224642   0.732   1.133  15.841  0.3498  0.4260 -0.3119
 4395SOL     OW24643   3.433   0.168   4.932  0.6428  0.2084  0.1002
 4395SOL    HW124644   3.381   0.120   4.997 -3.0335  2.3784 -1.2291
 4395SOL    HW224645   3.442   0.099   4.866 -1.8300 -0.6065  0.5949
 4396SOL     OW24646   1.449   3.815   2.279  0.1010  0.0490  0.0035
 4396SOL    HW124647   1.379   3.787   2.338 -0.1937  3.9952  1.5326
 4396SOL    HW224648   1.473   3.738   2.228 -0.0902 -1.0082  1.5092
 4397SOL     OW24649   0.857   0.436  15.394 -0.3452 -0.2320  0.1427
 4397SOL    HW124650   0.905   0.509  15.433 -1.6142  1.1802 -0.9329
 4397SOL    HW224651   0.866   0.381  15.472  2.4882  1.3675  0.9676
 4398SOL     OW24652   4.247   0.315   6.107 -0.4066  0.1389  0.4091
 4398SOL    HW124653   4.274   0.295   6.018  2.7087 -0.5448  1.4758
 4398SOL    HW224654   4.157   0.342   6.120 -0.2269  1.0052 -0.1708
 4399SOL     OW24655   4.456   1.303   7.320 -0.0583 -0.2635 -0.0722
 4399SOL    HW124656   4.394   1.374   7.302  1.0027 -0.0947 -3.1319
 4399SOL    HW224657   4.437   1.284   7.412 -0.8651  0.0424 -0.1806
 4400SOL     OW24658   3.789   0.206   5.824 -0.4140  0.2211  0.6648
 4400SOL    HW124659   3.703   0.205   5.867 -0.0806 -1.6966  1.3057
 4400SOL    HW224660   3.755   0.152   5.753  1.0074 -2.9789  2.3746
 4401SOL     OW24661   4.402   0.221   8.825 -0.3495  0.0094 -0.9548
 4401SOL    HW124662   4.460   0.293   8.851 -0.0015 -0.7315  0.3702
 4401SOL    HW224663   4.331   0.223   8.889  0.1493 -0.6639 -0.3624
 4402SOL     OW24664   1.102   2.045  13.827  0.1769 -0.0741  0.6839
 4402SOL    HW124665   1.105   1.958  13.788  0.0970 -0.6750  2.0023
 4402SOL    HW224666   1.097   2.042  13.923 -1.4131  0.0976  0.5954
 4403SOL     OW24667   1.122   1.192   3.497 -0.0782  0.6553  0.0738
 4403SOL    HW124668   1.073   1.246   3.558 -0.1755  2.2407 -1.3879
 4403SOL    HW224669   1.204   1.239   3.487  0.3078  0.1014  0.6385
 4404SOL     OW24670   3.337   1.240   5.192  0.3701 -0.0645 -0.1641
 4404SOL    HW124671   3.335   1.336   5.187  2.3951  0.1324  2.6199
 4404SOL    HW224672   3.279   1.225   5.118  0.0837  1.3617 -0.2422
 4405SOL     OW24673   0.741   1.774  13.669 -0.3752 -0.2160 -0.8412
 4405SOL    HW124674   0.781   1.693  13.636 -2.6843 -3.4324  4.2235
 4405SOL    HW224675   0.780   1.839  13.610 -0.0108 -0.3984 -0.8076
 4406SOL     OW24676   1.298   3.729   6.518  0.3030  0.0139  0.1203
 4406SOL    HW124677   1.389   3.749   6.497  0.5241  0.4646  1.4983
 4406SOL    HW224678   1.280   3.662   6.451 -1.4364 -0.6646  1.2582
 4407SOL     OW24679   4.296   4.603   3.854 -0.1229  0.1660  0.2383
 4407SOL    HW124680   4.357   4.533   3.831 -0.8843  0.6372 -3.1952
 4407SOL    HW224681   4.353   4.643   3.919 -0.8244 -1.4449  1.8498
 4408SOL     OW24682   0.347   1.912   2.694  0.3448  0.6189  0.1173
 4408SOL    HW124683   0.409   1.840   2.706  0.7586  0.7204 -1.3188
 4408SOL    HW224684   0.262   1.872   2.713  0.3685  0.2427 -0.5274
 4409SOL     OW24685   2.393   0.257   9.041 -0.3400  0.8022 -0.2138
 4409SOL    HW124686   2.446   0.195   8.991 -0.5356  0.9858 -0.6506
 4409SOL    HW224687   2.451   0.286   9.111 -1.4538  1.6595  0.3522
 4410SOL     OW24688   3.138   0.707   6.411  0.0153  0.0670 -0.0911
 4410SOL    HW124689   3.175   0.745   6.332  1.4639 -2.2827 -0.5576
 4410SOL    HW224690   3.121   0.617   6.385  2.4815 -0.4776  0.1163
 4411SOL     OW24691   0.043   4.551   2.855 -0.0519 -0.0845  0.2373
 4411SOL    HW124692   0.136   4.533   2.870  0.1328  2.6510  2.1832
 4411SOL    HW224693   0.008   4.547   2.944 -1.1757  1.1152 -0.1624
 4412SOL     OW24694   0.322   0.857   5.498 -0.0440 -0.1546 -0.2360
 4412SOL    HW124695   0.275   0.918   5.442 -0.3069 -0.2820 -0.1536
 4412SOL    HW224696   0.248   0.799   5.517  0.4816  0.3699  3.4933
 4413SOL     OW24697   1.168   0.616  12.819 -0.3029 -0.4322  0.1572
 4413SOL    HW124698   1.223   0.538  12.810  0.0762 -0.3049  1.3944
 4413SOL    HW224699   1.222   0.674  12.766 -1.8499  2.0099  1.2387
 4414SOL     OW24700   3.883   0.725  12.293 -0.1422  0.5240  0.5280
 4414SOL    HW124701   3.960   0.768  12.331  1.1311 -1.6003  0.3776
 4414SOL    HW224702   3.911   0.636  12.269  3.2380  0.4922  4.6724
 4415SOL     OW24703   4.099   4.230  15.295  0.0767 -0.3286 -0.1885
 4415SOL    HW124704   4.062   4.246  15.382 -2.1754 -3.6590 -0.5234
 4415SOL    HW224705   4.026   4.253  15.239 -0.0907  1.9249  0.9675
 4416SOL     OW24706   3.476   2.421   6.704  0.1171 -0.4366 -0.2495
 4416SOL    HW124707   3.547   2.415   6.769 -0.0792  2.0674  0.1765
 4416SOL    HW224708   3.506   2.467   6.626  1.2950 -1.8845 -0.6553
 4417SOL     OW24709   3.511   0.863  12.418  0.3583  0.4436 -0.0647
 4417SOL    HW124710   3.578   0.927  12.394  0.1722  1.8218  3.0340
 4417SOL    HW224711   3.523   0.864  12.513  0.9511 -0.2974 -0.1337
 4418SOL     OW24712   2.060   2.246   1.194  0.5957  0.6596 -0.0127
 4418SOL    HW124713   2.079   2.336   1.219  1.6912  0.4222  0.0061
 4418SOL    HW224714   1.990   2.272   1.134  0.3809 -0.9517 -0.4714
 4419SOL     OW24715   0.276   3.552   6.449  0.2240  0.4345  0.6020
 4419SOL    HW124716   0.362   3.514   6.468 -0.0908 -1.3875 -1.5574
 4419SOL    HW224717   0.236   3.502   6.378  0.2396 -1.0099  1.6180
 4420SOL     OW24718   0.740   1.328  10.514  0.3510  0.0077  0.2553
 4420SOL    HW124719   0.801   1.366  10.451  0.6004 -0.4583  0.2149
 4420SOL    HW224720   0.808   1.286  10.566 -1.0759 -1.8231  0.6917
 4421SOL     OW24721   2.440   1.918   2.147  0.0453 -0.3345 -0.1900
 4421SOL    HW124722   2.497   1.957   2.081 -2.5688  0.8465 -1.7240
 4421SOL    HW224723   2.488   1.839   2.171 -0.5211 -0.4410  0.6071
 4422SOL     OW24724   0.879   1.423   9.718 -0.0195 -0.2752 -0.0066
 4422SOL    HW124725   0.810   1.372   9.677  0.6033 -2.7206  1.9027
 4422SOL    HW224726   0.872   1.506   9.672  1.8992  0.1760  0.4937
 4423SOL     OW24727   3.634   3.053   4.441  0.2645 -0.1473  0.2293
 4423SOL    HW124728   3.718   3.012   4.418  1.5895  2.3501  0.5408
 4423SOL    HW224729   3.574   2.984   4.465  0.9963 -1.0135 -0.4257
 4424SOL     OW24730   0.643   0.503   5.356  0.0509  0.4540  0.4829
 4424SOL    HW124731   0.658   0.502   5.261 -0.9724  0.3619  0.3235
 4424SOL    HW224732   0.611   0.413   5.355 -0.3918  0.6041  1.3574
 4425SOL     OW24733   4.143   3.150   5.535  0.6757 -0.0706  0.0023
 4425SOL    HW124734   4.212   3.216   5.535 -1.5391  2.2280  1.7439
 4425SOL    HW224735   4.184   3.070   5.501 -2.8808 -1.2207 -1.5946
 4426SOL     OW24736   1.641   3.257   4.567  0.1560  0.3364 -0.8381
 4426SOL    HW124737   1.549   3.229   4.563  0.2498 -0.5172  3.1536
 4426SOL    HW224738   1.629   3.331   4.627  1.1896 -1.0780  1.0929
 4427SOL     OW24739   3.250   1.314  16.129 -0.0290 -0.0088 -0.4050
 4427SOL    HW124740   3.241   1.221  16.151 -0.5352  0.0721 -0.2695
 4427SOL    HW224741   3.342   1.326  16.106  0.1035 -3.7326 -1.9633
 4428SOL     OW24742   3.460   0.278   1.836 -0.1392 -0.3050  0.0262
 4428SOL    HW124743   3.518   0.332   1.782 -0.0416  0.5026  0.9372
 4428SOL    HW224744   3.531   0.221   1.868  1.0121  1.6513  0.9888
 4429SOL     OW24745   0.352   1.480   3.002  0.2603 -0.7147  0.5027
 4429SOL    HW124746   0.292   1.515   3.069  0.1665  1.2186 -0.5992
 4429SOL    HW224747   0.402   1.561   2.994  0.6500 -0.9106  0.9687
 4430SOL     OW24748   2.310   2.156   0.765 -0.4767  0.7960  0.4185
 4430SOL    HW124749   2.297   2.183   0.674  0.7027 -5.1009 -1.4950
 4430SOL    HW224750   2.406   2.159   0.772 -0.3102 -0.6722 -1.4605
 4431SOL     OW24751   0.689   1.794   7.757  0.3955  0.3059 -0.0349
 4431SOL    HW124752   0.616   1.828   7.705  2.1120  2.6955 -0.9075
 4431SOL    HW224753   0.686   1.850   7.835  0.9642 -0.1584  0.3209
 4432SOL     OW24754   1.635   4.478   8.612  0.0660  0.0298 -0.3519
 4432SOL    HW124755   1.540   4.487   8.600 -0.0478 -1.4549 -0.4994
 4432SOL    HW224756   1.654   4.572   8.612 -1.3398  0.3201  0.0733
 4433SOL     OW24757   2.011   2.463   2.341  0.6637 -0.5446 -0.1544
 4433SOL    HW124758   2.026   2.421   2.256  2.4905 -1.0723  0.4326
 4433SOL    HW224759   2.042   2.385   2.389  3.3852  0.7127  0.1027
 4434SOL     OW24760   4.004   3.949   7.034  0.6495 -0.2618 -0.4280
 4434SOL    HW124761   4.038   3.999   7.108  1.2225  1.7771 -2.0675
 4434SOL    HW224762   3.922   3.911   7.067 -0.5651  1.3732 -1.5263
 4435SOL     OW24763   2.693   4.579   0.418  0.1214 -0.3043 -0.1206
 4435SOL    HW124764   2.744   4.498   0.414  0.5954  0.0975 -2.6365
 4435SOL    HW224765   2.602   4.554   0.402 -0.1263 -1.5640  3.3355
 4436SOL     OW24766   0.341   0.374   1.124 -0.1979 -0.4480 -0.2563
 4436SOL    HW124767   0.399   0.436   1.169 -1.1488  0.5127 -0.3552
 4436SOL    HW224768   0.273   0.365   1.192 -0.9345  0.0655 -0.9299
 4437SOL     OW24769   4.303   2.348  15.238 -0.0587 -0.3097 -0.2473
 4437SOL    HW124770   4.254   2.362  15.158 -2.8967 -0.2890  1.5060
 4437SOL    HW224771   4.386   2.391  15.215 -0.0767 -0.1122  0.0583
 4438SOL     OW24772   2.371   1.471   9.419  0.7002 -0.0792  0.0840
 4438SOL    HW124773   2.378   1.407   9.489 -0.9196  1.5590  1.7355
 4438SOL    HW224774   2.302   1.521   9.463  0.5348  0.0104 -0.2758
 4439SOL     OW24775   1.942   1.943   2.400  0.1551  0.1845  0.1439
 4439SOL    HW124776   2.000   1.980   2.333 -1.7421  1.8839 -0.5651
 4439SOL    HW224777   2.007   1.914   2.463  1.6130  0.8440 -1.0369
 4440SOL     OW24778   2.510   4.129   8.795 -1.0054  0.2329 -0.2220
 4440SOL    HW124779   2.545   4.174   8.872 -0.0751 -0.2400 -0.3654
 4440SOL    HW224780   2.446   4.187   8.755  1.5436  1.2110 -2.9071
 4441SOL     OW24781   1.397   1.488  10.206  0.1621 -0.7379  0.3114
 4441SOL    HW124782   1.306   1.461  10.191  0.4941 -0.7601 -1.7155
 4441SOL    HW224783   1.391   1.583  10.213  2.6012 -0.6836  1.5264
 4442SOL     OW24784   0.663   3.985   7.304 -0.2889 -0.0362 -0.4116
 4442SOL    HW124785   0.648   3.992   7.210  0.5457 -0.3117 -0.5606
 4442SOL    HW224786   0.619   4.066   7.333  0.6089  0.2730  0.0741
 4443SOL     OW24787   0.732   1.758  15.553 -0.7380 -0.5115  0.3004
 4443SOL    HW124788   0.812   1.793  15.592 -1.3698  0.8190  0.3872
 4443SOL    HW224789   0.673   1.762  15.628  0.2306 -4.4061  1.2865
 4444SOL     OW24790   3.688   0.603   4.141  0.0167  0.1168  0.4526
 4444SOL    HW124791   3.773   0.641   4.165 -0.9443  2.9887 -0.6358
 4444SOL    HW224792   3.708   0.542   4.070  1.6032 -0.2527  1.2235
 4445SOL     OW24793   1.114   0.085   6.596  0.4652 -0.2622  0.1571
 4445SOL    HW124794   1.094   0.036   6.675 -1.1893  0.4386  0.1880
 4445SOL    HW224795   1.169   0.158   6.625 -1.3872  1.2708 -0.1585
 4446SOL     OW24796   2.476   4.599   3.871  0.1546 -0.3770  0.3114
 4446SOL    HW124797   2.500   4.554   3.790 -0.7969  1.1106 -0.8228
 4446SOL    HW224798   2.383   4.576   3.872  0.6583 -2.3789  0.3882
 4447SOL     OW24799   0.463   3.224  15.034 -0.0433  0.1199  0.3456
 4447SOL    HW124800   0.390   3.264  14.987 -0.8791 -0.3326  1.2555
 4447SOL    HW224801   0.416   3.173  15.099 -1.8644  0.7018 -0.5053
 4448SOL     OW24802   2.318   2.127  16.582 -0.1512 -0.4390 -0.4912
 4448SOL    HW124803   2.339   2.035  16.594  1.1877 -0.4171 -2.6156
 4448SOL    HW224804   2.283   2.130  16.492  0.8829  1.0501 -0.8479
 4449SOL     OW24805   2.298   0.851   6.229 -0.6136 -0.3808  0.2816
 4449SOL    HW124806   2.343   0.936   6.231 -0.0594 -0.6787  0.1278
 4449SOL    HW224807   2.326   0.807   6.150 -1.8922  1.3902 -1.1790
 4450SOL     OW24808   1.965   0.879  10.867 -0.3402  0.1757 -0.5332
 4450SOL    HW124809   2.011   0.931  10.801 -0.3541 -0.9958 -1.4776
 4450SOL    HW224810   1.877   0.897  10.834  1.5820  2.5983 -4.4591
 4451SOL     OW24811   0.437   1.550  12.481 -0.5140  0.3992 -0.6144
 4451SOL    HW124812   0.381   1.503  12.419 -0.5168 -0.7095  0.2259
 4451SOL    HW224813   0.469   1.609  12.412  0.2649  1.3146  0.5341
 4452SOL     OW24814   0.301   0.926   2.205  0.6675  0.0095  0.5988
 4452SOL    HW124815   0.224   0.869   2.200  0.0621  0.7758  1.2623
 4452SOL    HW224816   0.266   0.987   2.139  0.8136 -2.3115 -1.6558
 4453SOL     OW24817   2.971   4.670   2.565 -0.3498 -0.2957  0.6508
 4453SOL    HW124818   3.041   0.007   2.587  1.2761 -0.6176 -3.6064
 4453SOL    HW224819   2.950   4.697   2.475  0.0182  0.3593  0.7674
 4454SOL     OW24820   4.257   1.071   1.548 -0.0281  0.2885  0.0045
 4454SOL    HW124821   4.266   1.162   1.577  0.0477  0.1640  0.3721
 4454SOL    HW224822   4.340   1.033   1.578  0.1808  1.2690  0.6683
 4455SOL     OW24823   1.263   2.922   1.554  0.2426  0.1770 -0.7513
 4455SOL    HW124824   1.266   2.931   1.458 -1.5665 -1.7754 -0.9934
 4455SOL    HW224825   1.198   2.990   1.570 -0.2209 -0.4954  0.2125
 4456SOL     OW24826   1.142   1.333   7.992  0.0130  0.1179  0.2178
 4456SOL    HW124827   1.119   1.335   7.899 -1.0797  1.5766  0.5260
 4456SOL    HW224828   1.078   1.266   8.015 -0.4742 -0.0642 -1.6787
 4457SOL     OW24829   3.241   4.466   1.847 -0.1961  0.3048  0.9535
 4457SOL    HW124830   3.284   4.394   1.894  1.8938  2.2692  2.0407
 4457SOL    HW224831   3.256   4.450   1.754 -0.8901 -1.2811  1.1167
 4458SOL     OW24832   1.737   2.370  10.498  0.1025 -0.3191  0.0718
 4458SOL    HW124833   1.751   2.418  10.416  0.2328 -1.4320 -0.5533
 4458SOL    HW224834   1.749   2.280  10.469  1.3684 -0.9340  2.4398
 4459SOL     OW24835   1.142   0.860   6.250  0.2828  0.2706 -0.1247
 4459SOL    HW124836   1.234   0.835   6.243  0.0682  0.1101 -2.4535
 4459SOL    HW224837   1.141   0.948   6.288  0.5034 -0.1488  0.8284
 4460SOL     OW24838   3.222   1.808   7.629  0.1540 -0.4812 -0.0740
 4460SOL    HW124839   3.222   1.899   7.659  0.3105  0.5468 -3.2123
 4460SOL    HW224840   3.160   1.816   7.557  0.3582  2.0989  0.0429
 4461SOL     OW24841   4.139   1.001   0.503 -0.4271  0.5074 -0.0009
 4461SOL    HW124842   4.071   0.934   0.509 -1.5927  1.7865  1.1284
 4461SOL    HW224843   4.220   0.952   0.491  0.1987  1.1930  1.4494
 4462SOL     OW24844   2.891   0.840   2.754 -0.1298  0.4891  0.3730
 4462SOL    HW124845   2.916   0.931   2.738 -0.3682  0.3853 -0.6194
 4462SOL    HW224846   2.941   0.813   2.831  0.2915 -1.4826 -0.5782
 4463SOL     OW24847   1.284   3.085   3.248  0.0255 -0.2792  0.4575
 4463SOL    HW124848   1.358   3.032   3.218  0.1190  0.0173  0.1733
 4463SOL    HW224849   1.319   3.174   3.249  0.0142 -0.2815  1.4740
 4464SOL     OW24850   1.133   1.573  14.203  0.0127 -0.0384  0.3233
 4464SOL    HW124851   1.053   1.521  14.210  1.0091 -1.8121 -1.7028
 4464SOL    HW224852   1.149   1.620  14.285  3.0437 -0.5987  0.0378
 4465SOL     OW24853   4.235   0.798   9.144 -0.3843  0.2438  0.2061
 4465SOL    HW124854   4.242   0.880   9.193  2.0377  0.5102 -0.6240
 4465SOL    HW224855   4.149   0.807   9.101  0.1672 -0.8993 -1.1216
 4466SOL     OW24856   1.761   3.714   6.428  0.0754 -0.6435  0.0456
 4466SOL    HW124857   1.691   3.780   6.434 -0.1988 -0.9430  0.1173
 4466SOL    HW224858   1.825   3.749   6.366 -0.5718  0.2817 -0.1084
 4467SOL     OW24859   4.267   0.107   7.213 -0.6504 -0.4643  0.1751
 4467SOL    HW124860   4.306   0.182   7.167 -1.6026  0.6678  1.2182
 4467SOL    HW224861   4.337   0.044   7.196 -0.3359 -0.0637 -0.0192
 4468SOL     OW24862   0.474   4.534   6.530  0.3670  1.0476 -0.2297
 4468SOL    HW124863   0.382   4.527   6.504  0.4253 -0.9931  0.0917
 4468SOL    HW224864   0.506   4.444   6.517 -1.8264  0.1571  0.5172
 4469SOL     OW24865   0.287   0.491   4.148  0.1103 -0.2389  0.2940
 4469SOL    HW124866   0.227   0.510   4.076  1.7442  1.4658 -0.6101
 4469SOL    HW224867   0.233   0.465   4.222  3.0331 -2.8990  1.5072
 4470SOL     OW24868   2.206   1.929   7.190 -0.5681 -0.3035 -0.4419
 4470SOL    HW124869   2.232   1.960   7.277 -0.2238 -1.1761 -0.2283
 4470SOL    HW224870   2.158   1.849   7.211  0.5468 -0.3223  2.0055
 4471SOL     OW24871   0.401   0.165   7.546 -0.0574  0.2083 -0.6575
 4471SOL    HW124872   0.413   0.183   7.639  0.5371 -2.3152 -0.2503
 4471SOL    HW224873   0.439   0.244   7.506 -0.8626  0.8997 -0.0655
 4472SOL     OW24874   1.484   4.010   4.715 -0.3636 -0.4213  0.2064
 4472SOL    HW124875   1.423   4.076   4.683 -1.5268 -0.4557  2.3262
 4472SOL    HW224876   1.448   4.007   4.804 -1.3142 -0.8196 -0.1881
 4473SOL     OW24877   3.685   2.870   6.905 -0.5127  0.2179 -0.1233
 4473SOL    HW124878   3.747   2.932   6.944  0.6513 -0.2865 -1.1678
 4473SOL    HW224879   3.728   2.786   6.917 -0.0185  0.3657 -0.8515
 4474SOL     OW24880   2.265   4.373   4.817  0.2132  0.1841 -0.3664
 4474SOL    HW124881   2.255   4.468   4.822  0.0889  0.0358  2.3593
 4474SOL    HW224882   2.331   4.369   4.748  0.6170 -0.3170  0.0444
 4475SOL     OW24883   3.373   2.043  16.350 -0.3350 -0.0926  0.1924
 4475SOL    HW124884   3.306   1.976  16.360  0.2329 -0.6452  0.2817
 4475SOL    HW224885   3.398   2.040  16.443 -0.2737 -1.8061  0.1168
 4476SOL     OW24886   2.544   0.398   2.697  0.4405 -0.0325  0.3713
 4476SOL    HW124887   2.624   0.452   2.692  1.5543 -1.8257 -1.1837
 4476SOL    HW224888   2.545   0.344   2.618 -1.7720  1.9972 -1.0308
 4477SOL     OW24889   1.623   0.794   2.722  0.5652  0.0441  0.3747
 4477SOL    HW124890   1.699   0.736   2.725  0.1763 -0.4135  1.6207
 4477SOL    HW224891   1.625   0.831   2.634 -1.2851  0.1195  0.3724
 4478SOL     OW24892   4.302   2.563   2.301  0.3762 -0.4153  0.0476
 4478SOL    HW124893   4.306   2.472   2.330  1.0314 -0.0290  1.1520
 4478SOL    HW224894   4.208   2.561   2.284  0.1447 -0.8359  1.4109
 4479SOL     OW24895   0.599   3.465   3.601 -0.0800 -1.3337  0.1155
 4479SOL    HW124896   0.541   3.445   3.528  1.5081  1.0229 -1.7833
 4479SOL    HW224897   0.636   3.549   3.573 -2.6333 -0.4212 -0.4988
 4480SOL     OW24898   1.182   0.680   3.681  0.2953 -0.3191  0.1970
 4480SOL    HW124899   1.094   0.690   3.717 -0.3114  0.8527 -1.6176
 4480SOL    HW224900   1.199   0.771   3.656 -2.8965  0.6599  1.5615
 4481SOL     OW24901   3.084   0.656  15.801 -0.5834  0.0266 -0.6871
 4481SOL    HW124902   3.089   0.605  15.720  1.0049  1.0653 -1.2387
 4481SOL    HW224903   3.142   0.730  15.785 -1.0579  0.7016  0.7506
 4482SOL     OW24904   4.569   2.734  17.609  0.3668 -0.3134  0.1125
 4482SOL    HW124905   4.539   2.682  17.535 -0.8396 -2.0077  1.7850
 4482SOL    HW224906   4.659   2.705  17.620  0.6740 -0.1250 -1.8713
 4483SOL     OW24907   3.451   3.036   3.485  0.4559 -0.1020 -0.1830
 4483SOL    HW124908   3.378   2.975   3.477  0.0627  0.2878  0.4563
 4483SOL    HW224909   3.521   2.987   3.442  0.2236  0.1200 -0.8270
 4484SOL     OW24910   2.056   0.957   2.018 -0.3283 -0.0150 -0.0945
 4484SOL    HW124911   2.121   1.018   1.981 -0.7347  0.1356 -0.5659
 4484SOL    HW224912   2.100   0.934   2.100  0.1387 -0.4842 -0.4761
 4485SOL     OW24913   0.079   0.503   1.195 -0.2909  0.2218  0.7281
 4485SOL    HW124914   0.070   0.411   1.218  1.7601  0.3704  2.1954
 4485SOL    HW224915   0.161   0.521   1.242 -0.0118  1.0034 -0.0477
 4486SOL     OW24916   2.819   4.049  11.166  0.0256 -0.7302  0.3861
 4486SOL    HW124917   2.784   4.114  11.226 -0.3356  0.8253 -1.4977
 4486SOL    HW224918   2.902   4.033  11.211 -0.0217 -1.1994  0.3054
 4487SOL     OW24919   2.666   1.519   4.154  0.4031 -0.2221  0.6676
 4487SOL    HW124920   2.708   1.604   4.139 -0.1358  0.4155  2.7455
 4487SOL    HW224921   2.583   1.539   4.197  0.3136  0.1716  0.3170
 4488SOL     OW24922   3.140   0.635  11.205 -0.1149  0.0489 -0.3120
 4488SOL    HW124923   3.210   0.603  11.148 -0.4057 -0.8514 -0.1522
 4488SOL    HW224924   3.149   0.731  11.206  0.0212  0.0422 -1.1437
 4489SOL     OW24925   0.089   0.857   3.175  0.2441 -0.2475  0.0247
 4489SOL    HW124926   0.141   0.776   3.176  1.1950  0.3644  2.1590
 4489SOL    HW224927   0.163   0.917   3.164  0.6229 -0.8864 -0.9359
 4490SOL     OW24928   3.986   1.363   9.138  0.3706 -0.5254 -0.6236
 4490SOL    HW124929   3.964   1.452   9.165 -0.9976 -1.1308  0.2541
 4490SOL    HW224930   4.045   1.377   9.064 -1.7776  0.4804 -2.1823
 4491SOL     OW24931   2.248   4.027   3.562  0.7424  0.0084  0.1560
 4491SOL    HW124932   2.310   4.014   3.490  0.4541 -0.3794 -0.0224
 4491SOL    HW224933   2.165   4.046   3.518  0.3929  0.0798  0.8559
 4492SOL     OW24934   3.336   0.912   1.294 -0.1014 -0.7480 -0.6101
 4492SOL    HW124935   3.299   0.949   1.214 -0.4667 -1.1754 -0.6372
 4492SOL    HW224936   3.391   0.984   1.326 -0.2047 -0.7632 -0.4045
 4493SOL     OW24937   0.937   1.414   3.259 -0.1372  0.3391  0.5512
 4493SOL    HW124938   0.909   1.363   3.183  0.5489 -0.0731  0.5761
 4493SOL    HW224939   0.855   1.463   3.267 -0.9026 -0.6480 -1.2741
 4494SOL     OW24940   3.224   4.098   7.122  0.7446 -0.3617  0.8030
 4494SOL    HW124941   3.206   4.061   7.035 -0.9307  2.0625  0.1043
 4494SOL    HW224942   3.139   4.080   7.162  0.1855 -1.9988 -1.1185
 4495SOL     OW24943   0.186   3.825   6.383 -0.3248 -0.3763 -0.2602
 4495SOL    HW124944   0.218   3.739   6.410  0.1689  0.1380  0.7993
 4495SOL    HW224945   0.173   3.811   6.289 -0.9879  3.7013 -0.7646
 4496SOL     OW24946   1.868   1.777   9.112  0.4638 -0.6726 -0.1649
 4496SOL    HW124947   1.908   1.784   9.025  0.8133  2.6233  0.2586
 4496SOL    HW224948   1.923   1.714   9.158 -0.4274  1.2095  3.4505
 4497SOL     OW24949   0.205   3.530   5.799 -0.0611  1.0842  0.5815
 4497SOL    HW124950   0.236   3.454   5.749  0.8626  1.5794  0.4113
 4497SOL    HW224951   0.110   3.515   5.793  0.1197  1.4870 -3.3053
 4498SOL     OW24952   4.103   4.467   7.447  0.3036 -0.0393 -0.1180
 4498SOL    HW124953   4.064   4.547   7.482  0.0323 -1.1292  2.0620
 4498SOL    HW224954   4.064   4.395   7.496  0.4376  0.9925  1.5018
 4499SOL     OW24955   1.943   3.011   4.380 -0.7344 -0.3373  0.3337
 4499SOL    HW124956   1.995   3.025   4.300 -0.8098  1.0838  0.5297
 4499SOL    HW224957   1.902   3.096   4.398 -1.8716 -0.4742 -1.6423
 4500SOL     OW24958   0.943   3.705   4.367 -0.1319 -0.4884  0.4082
 4500SOL    HW124959   1.033   3.691   4.338 -0.5762  1.4415 -1.8961
 4500SOL    HW224960   0.899   3.645   4.307 -1.1072  0.7483 -0.1220
 4501SOL     OW24961   0.320   1.457  14.980  0.8390  0.3448  0.0751
 4501SOL    HW124962   0.319   1.532  14.920  0.3113  0.0148 -0.3217
 4501SOL    HW224963   0.407   1.469  15.019  0.4182 -1.5072  1.6001
 4502SOL     OW24964   3.233   3.908   3.935  0.0663  0.4820 -0.5375
 4502SOL    HW124965   3.275   3.991   3.956 -1.4202  1.0364  0.2578
 4502SOL    HW224966   3.193   3.898   4.022 -0.8159  0.6287 -0.9313
 4503SOL     OW24967   3.614   2.802   4.133  0.1628  0.0377  0.1701
 4503SOL    HW124968   3.709   2.793   4.140  0.1544  0.3780  0.7331
 4503SOL    HW224969   3.598   2.798   4.039  1.2923  2.2417 -0.1279
 4504SOL     OW24970   3.294   0.534   2.355  0.4270 -0.0981 -0.5969
 4504SOL    HW124971   3.227   0.601   2.367  1.2246  0.6926 -0.5532
 4504SOL    HW224972   3.243   0.469   2.306 -1.5214  0.4539  0.6864
 4505SOL     OW24973   2.894   2.759   1.687 -0.1000  0.0737 -0.0371
 4505SOL    HW124974   2.898   2.823   1.758 -1.1612  0.0177  0.0703
 4505SOL    HW224975   2.885   2.681   1.741 -1.8615  1.2017  1.3065
 4506SOL     OW24976   3.869   1.697  16.576 -0.3614  0.3179 -0.5234
 4506SOL    HW124977   3.810   1.772  16.579  0.7241  1.0900  1.1509
 4506SOL    HW224978   3.884   1.681  16.669 -1.5345  3.4046  0.1942
 4507SOL     OW24979   4.267   1.424   1.197 -0.3426  0.2562  0.5128
 4507SOL    HW124980   4.345   1.480   1.204  0.6273 -1.2362  1.5230
 4507SOL    HW224981   4.288   1.333   1.220 -0.7909  0.4452  1.6885
 4508SOL     OW24982   3.493   1.827   0.679 -0.2305  0.2351 -0.0624
 4508SOL    HW124983   3.501   1.777   0.760 -1.1888  1.7095  0.9628
 4508SOL    HW224984   3.557   1.787   0.621  1.2602  0.0451  1.7045
 4509SOL     OW24985   0.359   0.871   3.024 -0.3567 -0.6484  0.2537
 4509SOL    HW124986   0.348   0.796   2.965 -1.5246 -0.1800 -0.1251
 4509SOL    HW224987   0.300   0.937   2.986  1.3067  1.0449  0.6220
 4510SOL     OW24988   3.244   2.808  11.466 -0.1324 -0.7719  0.1327
 4510SOL    HW124989   3.213   2.824  11.555 -0.3254  0.4086 -0.1387
 4510SOL    HW224990   3.155   2.797  11.432  0.2773 -0.5770 -1.0298
 4511SOL     OW24991   4.620   1.407   6.987 -0.1901 -0.4511 -0.6994
 4511SOL    HW124992   4.554   1.365   6.931 -1.7940 -0.4255  1.1787
 4511SOL    HW224993   4.557   1.440   7.051 -0.4565 -1.0292 -0.6554
 4512SOL     OW24994   1.411   3.519   7.590 -0.4745  0.3715 -0.5688
 4512SOL    HW124995   1.316   3.524   7.580 -0.6810 -0.6976  0.8238
 4512SOL    HW224996   1.449   3.604   7.568  0.0830 -0.0384 -1.1749
 4513SOL     OW24997   2.353   4.551   6.804  0.6752 -0.0177 -0.3535
 4513SOL    HW124998   2.296   4.597   6.742  0.9755 -0.2714 -0.8141
 4513SOL    HW224999   2.392   4.473   6.765 -1.6241 -0.8714 -0.9834
 4514SOL     OW25000   1.818   4.443  16.567 -0.3606  1.2558 -0.3979
 4514SOL    HW125001   1.804   4.363  16.617 -0.1508  0.2047 -2.0630
 4514SOL    HW225002   1.744   4.498  16.596 -1.7891 -0.3366 -1.0674
 4515SOL     OW25003   3.491   1.735   7.758  0.3484  0.2497  0.4767
 4515SOL    HW125004   3.458   1.824   7.751 -0.0756 -0.0153 -1.0280
 4515SOL    HW225005   3.584   1.747   7.741  0.2698  0.7266  0.3920
 4516SOL     OW25006   1.462   1.774   1.283 -0.1026 -0.1883 -0.3086
 4516SOL    HW125007   1.450   1.736   1.196 -2.1127  1.1385 -0.6266
 4516SOL    HW225008   1.378   1.817   1.301  0.6986  0.4745  1.9445
 4517SOL     OW25009   0.953   0.058   5.199  0.1312 -0.1032  0.2174
 4517SOL    HW125010   0.885   4.714   5.209 -1.3845  1.5803  1.1613
 4517SOL    HW225011   1.038   0.015   5.210  0.5223  0.0860 -1.9432
 4518SOL     OW25012   3.069   2.978   5.305 -0.0617  0.7206 -0.0161
 4518SOL    HW125013   2.974   2.984   5.309 -0.2434 -2.9681  1.0801
 4518SOL    HW225014   3.089   2.942   5.392 -1.4356  1.8680  0.7686
 4519SOL     OW25015   2.996   4.170   6.343 -0.5322  0.5544 -0.0714
 4519SOL    HW125016   2.928   4.107   6.367  0.2648 -0.8288 -1.4419
 4519SOL    HW225017   2.943   4.250   6.337 -2.2425 -0.5735 -0.1676
 4520SOL     OW25018   3.708   2.646   7.888  0.2540 -0.3523 -0.0761
 4520SOL    HW125019   3.698   2.700   7.809 -1.2370 -0.5199 -0.0091
 4520SOL    HW225020   3.780   2.686   7.936 -0.2111 -0.5436  0.7774
 4521SOL     OW25021   4.507   4.272   7.532  0.2901  0.0301 -0.5961
 4521SOL    HW125022   4.425   4.264   7.483 -1.1165  0.1579  1.6916
 4521SOL    HW225023   4.491   4.214   7.607  0.1575  0.8937  0.0450
 4522SOL     OW25024   4.265   1.986   6.934 -0.4941 -0.3240  0.0795
 4522SOL    HW125025   4.312   2.069   6.928 -0.7291 -0.0303  2.2977
 4522SOL    HW225026   4.342   1.930   6.942  1.1109  1.9494  0.5162
 4523SOL     OW25027   1.047   1.733  16.084 -0.1403 -0.4677  0.4560
 4523SOL    HW125028   0.999   1.656  16.114 -2.5827  0.6307 -0.5636
 4523SOL    HW225029   1.081   1.700  16.001  0.0220  0.9885 -0.0668
 4524SOL     OW25030   2.143   3.893  13.870  0.2987 -0.0056 -0.0346
 4524SOL    HW125031   2.071   3.913  13.930  0.6621  0.3576  0.2767
 4524SOL    HW225032   2.123   3.800  13.857  0.3267 -0.1081  0.6327
 4525SOL     OW25033   0.356   1.793  12.709  0.5286  0.1526 -0.8124
 4525SOL    HW125034   0.328   1.865  12.765  0.6258  0.8709 -1.7000
 4525SOL    HW225035   0.323   1.825  12.625 -0.4509  1.1091 -0.0741
 4526SOL     OW25036   4.182   0.044  14.035 -0.0503  0.2677  0.1983
 4526SOL    HW125037   4.109   4.708  14.050  0.0554 -0.5082 -2.4973
 4526SOL    HW225038   4.216   0.023  13.949  2.2457  0.9630  0.9216
 4527SOL     OW25039   3.574   2.845  10.628 -0.1679  0.4895 -0.1763
 4527SOL    HW125040   3.622   2.808  10.702 -0.4555  1.8820  0.7030
 4527SOL    HW225041   3.551   2.757  10.599  0.9896  0.5888 -1.4168
 4528SOL     OW25042   2.074   0.701   3.665 -0.0837  0.2797 -0.2737
 4528SOL    HW125043   2.110   0.789   3.675 -2.5905  1.7847 -4.1246
 4528SOL    HW225044   2.151   0.648   3.644  0.0427  0.4478 -0.2270
 4529SOL     OW25045   1.038   1.739  17.134 -0.3636 -0.1880 -0.4385
 4529SOL    HW125046   0.944   1.720  17.128 -0.3257 -0.3976 -0.3947
 4529SOL    HW225047   1.026   1.830  17.159  4.0459  0.5991 -1.3387
 4530SOL     OW25048   3.434   3.429  14.086 -0.0057  0.9180 -0.3283
 4530SOL    HW125049   3.451   3.352  14.032 -1.9254  0.5902 -0.4556
 4530SOL    HW225050   3.393   3.485  14.020  0.4433 -0.6195 -1.9059
 4531SOL     OW25051   0.442   0.350   3.776  0.5787  0.9115  0.2903
 4531SOL    HW125052   0.445   0.344   3.681  1.5370  0.0068  0.3797
 4531SOL    HW225053   0.524   0.397   3.786  2.0340 -1.3422 -0.9975
 4532SOL     OW25054   1.879   3.545  13.945  0.3643 -0.4877  0.3702
 4532SOL    HW125055   1.847   3.455  13.953 -1.7947  0.2609 -0.0111
 4532SOL    HW225056   1.796   3.592  13.942  0.3462 -0.6355 -1.3908
 4533SOL     OW25057   3.248   1.275   1.390 -0.2038 -0.0684 -0.0851
 4533SOL    HW125058   3.325   1.329   1.376 -0.4591  0.3479  0.1228
 4533SOL    HW225059   3.280   1.205   1.447  1.2482  0.8053  0.1673
 4534SOL     OW25060   0.468   2.242   3.035  0.2824 -0.5954 -0.5948
 4534SOL    HW125061   0.549   2.263   2.988 -0.0377  1.6593 -0.1055
 4534SOL    HW225062   0.501   2.271   3.120 -1.3701  1.8620 -0.7835
 4535SOL     OW25063   4.623   2.499   4.781 -0.8955  0.8700  0.6027
 4535SOL    HW125064   4.624   2.515   4.687  0.3615 -0.2259  0.4216
 4535SOL    HW225065   4.545   2.444   4.787  0.3814 -0.7493  2.4458
 4536SOL     OW25066   2.879   0.766   6.054  0.6445  0.1576 -0.1980
 4536SOL    HW125067   2.933   0.730   5.984 -0.5564 -1.9777 -0.0373
 4536SOL    HW225068   2.882   0.861   6.042  0.4793  0.4092  1.7059
 4537SOL     OW25069   1.555   2.811   7.705 -0.1978 -0.2857  0.5620
 4537SOL    HW125070   1.484   2.750   7.725  0.8906 -0.9383  2.5013
 4537SOL    HW225071   1.517   2.892   7.739  0.1381 -0.3868  1.1765
 4538SOL     OW25072   3.296   1.648  12.218  0.3987 -0.0456  0.5596
 4538SOL    HW125073   3.373   1.672  12.270 -0.3712  0.4985  1.4368
 4538SOL    HW225074   3.278   1.729  12.171 -0.5028 -1.0857 -0.9028
 4539SOL     OW25075   1.576   2.977   4.166 -0.8917  0.6482  0.2202
 4539SOL    HW125076   1.555   2.979   4.260 -1.8119  3.2678 -0.0480
 4539SOL    HW225077   1.507   3.032   4.131 -1.0321 -2.4715 -4.4143
 4540SOL     OW25078   2.610   2.016   1.945  0.2701 -0.1013  0.5539
 4540SOL    HW125079   2.591   2.085   1.882  1.6540  0.4513  0.7352
 4540SOL    HW225080   2.616   1.944   1.881  0.5464  0.9880 -0.6458
 4541SOL     OW25081   3.088   2.910   8.291  0.2296  0.1536  0.0488
 4541SOL    HW125082   3.118   2.834   8.341 -2.8086 -0.6345  0.6655
 4541SOL    HW225083   3.066   2.863   8.211 -0.4362  0.2337  0.1855
 4542SOL     OW25084   1.976   3.587  15.033  0.2262 -0.2710  0.2516
 4542SOL    HW125085   2.015   3.556  14.951  1.2228  3.1804 -0.5474
 4542SOL    HW225086   1.972   3.677  15.002  0.0043 -0.2804  0.2512
 4543SOL     OW25087   1.135   0.657   5.923 -0.3194  0.0266 -0.5989
 4543SOL    HW125088   1.065   0.594   5.937 -0.5079  0.4202  0.2582
 4543SOL    HW225089   1.131   0.666   5.828 -0.6741 -2.3840 -0.8021
 4544SOL     OW25090   3.611   1.362   6.376 -0.4411  0.2482 -0.1958
 4544SOL    HW125091   3.529   1.410   6.376  0.3306  1.5780 -3.2616
 4544SOL    HW225092   3.643   1.386   6.289  0.2684  0.5126  0.1319
 4545SOL     OW25093   1.086   4.275  16.865 -0.1233 -0.2321 -0.0446
 4545SOL    HW125094   1.064   4.214  16.796  1.9501  0.9846 -1.7855
 4545SOL    HW225095   1.160   4.228  16.903  1.8550  3.7184  1.0472
 4546SOL     OW25096   2.848   4.083  17.104  0.0473  0.3427  0.6856
 4546SOL    HW125097   2.906   4.065  17.030 -3.8596 -0.8208 -2.0452
 4546SOL    HW225098   2.769   4.110  17.058 -0.3647 -0.6694  0.7969
 4547SOL     OW25099   1.322   1.733   8.992 -0.8627 -0.8594 -0.0269
 4547SOL    HW125100   1.395   1.758   9.048 -1.8749  0.5900  0.6209
 4547SOL    HW225101   1.298   1.821   8.963 -1.3978 -0.8883  0.3434
 4548SOL     OW25102   1.554   0.638   0.179 -0.7319 -0.1889 -0.4084
 4548SOL    HW125103   1.546   0.586   0.259 -0.4782  0.6042  0.1341
 4548SOL    HW225104   1.531   0.727   0.207  0.3642 -0.6250  1.8791
 4549SOL     OW25105   0.972   1.983   8.900  0.1289  0.2932  0.2963
 4549SOL    HW125106   0.966   2.048   8.830 -0.1342  1.0920  1.0605
 4549SOL    HW225107   0.908   2.018   8.962 -2.5113 -3.1272 -0.4779
 4550SOL     OW25108   1.704   3.807   8.299 -0.4956 -0.7006  0.1051
 4550SOL    HW125109   1.653   3.882   8.268  1.5181 -0.0287 -1.6030
 4550SOL    HW225110   1.792   3.838   8.320  0.7305 -3.2883 -1.2548
 4551SOL     OW25111   2.628   2.627  16.981 -0.4995 -0.4092 -0.3899
 4551SOL    HW125112   2.596   2.562  17.044 -0.2222 -0.1511  0.0144
 4551SOL    HW225113   2.635   2.584  16.895  1.5282 -0.6137 -0.1266
 4552SOL     OW25114   1.231   2.329   4.682 -0.0744  0.9654 -0.1948
 4552SOL    HW125115   1.152   2.282   4.655 -0.2967  1.0750  0.2589
 4552SOL    HW225116   1.303   2.296   4.629 -1.7879 -0.9049 -1.3723
 4553SOL     OW25117   3.627   3.560   2.299  0.4425  0.0002  0.5067
 4553SOL    HW125118   3.543   3.600   2.319  0.4701 -0.5584  1.7585
 4553SOL    HW225119   3.620   3.521   2.211  1.0809  2.0606 -0.4431
 4554SOL     OW25120   3.575   4.614   8.872 -0.3946  0.0747 -0.1805
 4554SOL    HW125121   3.588   4.578   8.960  2.8044  1.0833 -0.2239
 4554SOL    HW225122   3.495   4.566   8.850 -0.1819 -0.4062  0.0812
 4555SOL     OW25123   1.118   3.465  16.458 -0.8163 -0.1758 -0.3401
 4555SOL    HW125124   1.114   3.422  16.372  1.2473 -0.4544 -0.2770
 4555SOL    HW225125   1.115   3.556  16.427  1.0587  0.0404  0.1268
 4556SOL     OW25126   2.411   4.107  12.042 -0.0406  0.4034 -0.2285
 4556SOL    HW125127   2.425   4.074  11.954  0.2249 -1.9245  0.6745
 4556SOL    HW225128   2.405   4.026  12.094 -0.2451  0.7755  0.3294
 4557SOL     OW25129   1.008   3.821   2.929  0.6223  0.5675  0.1762
 4557SOL    HW125130   1.098   3.805   2.899  0.7869  1.6989  0.0903
 4557SOL    HW225131   1.014   3.846   3.021 -0.1529 -0.2069  0.4395
 4558SOL     OW25132   1.062   1.557   5.334 -0.7490  0.1008 -0.4082
 4558SOL    HW125133   1.057   1.593   5.423 -0.3357  0.8807 -0.7038
 4558SOL    HW225134   0.976   1.575   5.297 -0.6195 -0.0386 -0.7816
 4559SOL     OW25135   1.453   0.888   7.522 -0.4370 -0.3106  0.4305
 4559SOL    HW125136   1.529   0.944   7.538 -0.3513 -0.1615 -0.5172
 4559SOL    HW225137   1.385   0.941   7.562 -0.0978  0.6296 -0.2592
 4560SOL     OW25138   2.373   1.739   1.911  0.1266 -0.1098  0.0462
 4560SOL    HW125139   2.404   1.745   1.821 -0.8632  2.6981 -0.1336
 4560SOL    HW225140   2.348   1.830   1.929 -0.2660  0.1499 -1.7976
 4561SOL     OW25141   2.415   0.465   7.454  0.2959  0.3571 -0.7206
 4561SOL    HW125142   2.408   0.380   7.410  1.7347 -0.6096  0.9320
 4561SOL    HW225143   2.415   0.435   7.544 -3.4044 -1.1135 -1.2261
 4562SOL     OW25144   3.012   2.565   3.982  0.4607 -0.1101  0.4057
 4562SOL    HW125145   3.086   2.621   3.957 -0.6344  0.8374 -0.7236
 4562SOL    HW225146   3.064   2.534   4.056 -0.4122  0.0044  1.0611
 4563SOL     OW25147   4.084   4.616   4.578 -0.2064  0.2542 -0.2008
 4563SOL    HW125148   4.141   4.553   4.534  1.1567  1.6347 -0.4363
 4563SOL    HW225149   4.152   4.683   4.589 -0.4221  0.6079 -0.9448
 4564SOL     OW25150   3.691   3.110   4.134  0.2692 -0.1297 -0.0033
 4564SOL    HW125151   3.649   3.027   4.153 -0.2762 -0.1121 -1.1238
 4564SOL    HW225152   3.662   3.160   4.211  1.3094  0.5919 -0.0725
 4565SOL     OW25153   2.010   1.637   8.456 -0.0696 -0.7259 -0.0457
 4565SOL    HW125154   2.104   1.620   8.457  0.7008  3.5611 -1.2887
 4565SOL    HW225155   2.013   1.724   8.496 -1.1418 -0.1312 -1.2318
 4566SOL     OW25156   1.037   3.209  14.620 -0.4115  0.3945 -0.0728
 4566SOL    HW125157   1.108   3.269  14.643  0.1027  0.1109 -0.9030
 4566SOL    HW225158   1.060   3.146  14.688  3.1808  1.7256 -0.0074
 4567SOL     OW25159   2.266   2.009   7.455  0.0507  0.1655 -0.2192
 4567SOL    HW125160   2.220   2.080   7.499 -0.4857  0.7322 -1.6865
 4567SOL    HW225161   2.353   2.045   7.438  0.1118  0.4150  0.6258
 4568SOL     OW25162   1.091   1.207   7.127  0.1306 -0.1673  0.1431
 4568SOL    HW125163   1.166   1.233   7.181  0.7674  1.1590 -1.3697
 4568SOL    HW225164   1.097   1.113   7.145 -2.8544 -0.1301  1.3160
 4569SOL     OW25165   4.566   4.481   7.803 -0.5406  0.2015 -0.1832
 4569SOL    HW125166   4.645   4.427   7.800 -1.0270 -0.4457 -1.4595
 4569SOL    HW225167   4.578   4.526   7.886 -2.2534 -1.5768  1.0233
 4570SOL     OW25168   2.246   1.440  13.597 -0.0635  0.1467 -0.4393
 4570SOL    HW125169   2.288   1.522  13.575  0.5237  0.1099  0.5286
 4570SOL    HW225170   2.156   1.473  13.601 -0.4354 -0.7821 -1.0113
 4571SOL     OW25171   0.179   1.898  11.082 -0.0723  0.1232  0.1362
 4571SOL    HW125172   0.227   1.837  11.027 -0.6352 -0.4368  0.2697
 4571SOL    HW225173   0.148   1.963  11.019  2.4565  2.7948  1.6046
 4572SOL     OW25174   3.797   4.446   4.757  0.0436 -0.9341 -0.1906
 4572SOL    HW125175   3.767   4.452   4.848 -4.2593 -0.8045 -1.6674
 4572SOL    HW225176   3.738   4.383   4.716 -1.4220 -0.1691  0.7456
 4573SOL     OW25177   2.988   3.766   3.649  0.0922  0.0838 -0.4960
 4573SOL    HW125178   2.912   3.802   3.603 -0.7631  0.7592  1.4871
 4573SOL    HW225179   3.016   3.703   3.583  1.5052  0.1254  0.0793
 4574SOL     OW25180   3.519   3.335   0.803 -0.0483  0.3985  0.3540
 4574SOL    HW125181   3.483   3.415   0.840 -1.2616  0.3983 -0.8278
 4574SOL    HW225182   3.610   3.358   0.822  0.3626  0.4881 -1.7343
 4575SOL     OW25183   4.283   2.047   1.093  0.5271  0.3505 -0.8002
 4575SOL    HW125184   4.241   1.993   1.160  0.8054  1.0048 -0.0861
 4575SOL    HW225185   4.330   2.115   1.142  1.1396  0.3281 -1.3640
 4576SOL     OW25186   2.664   4.561   6.727  0.2148  0.1097  0.3316
 4576SOL    HW125187   2.610   4.636   6.702  0.0264 -0.0542  0.2403
 4576SOL    HW225188   2.599   4.511   6.776 -1.1813  3.4239  1.8464
 4577SOL     OW25189   3.395   3.134   8.377 -0.0555  0.3961  0.2744
 4577SOL    HW125190   3.439   3.050   8.379  0.0282  0.4145 -1.0356
 4577SOL    HW225191   3.310   3.119   8.419  0.4915  0.7852  1.5392
 4578SOL     OW25192   0.934   3.707  12.253 -0.7619  0.2355 -0.1422
 4578SOL    HW125193   1.004   3.663  12.205 -0.1986 -0.7429  1.5757
 4578SOL    HW225194   0.952   3.693  12.346  0.8660 -0.6715 -0.5900
 4579SOL     OW25195   1.971   4.133   4.066 -0.0596  0.2412  0.0576
 4579SOL    HW125196   1.993   4.125   3.973  1.3772 -3.7547  0.7208
 4579SOL    HW225197   1.884   4.173   4.073  0.2744  1.1687 -1.2287
 4580SOL     OW25198   2.040   4.498  11.123 -0.1456 -0.1336 -0.0213
 4580SOL    HW125199   1.988   4.496  11.204  0.4158 -0.7571  0.3133
 4580SOL    HW225200   1.972   4.515  11.058 -0.0554 -1.6116 -0.4967
 4581SOL     OW25201   0.809   2.313  14.457 -0.0244  0.1268 -0.1477
 4581SOL    HW125202   0.806   2.218  14.452 -0.7659  0.2012 -1.0447
 4581SOL    HW225203   0.885   2.341  14.406 -0.5511  1.0186 -0.4485
 4582SOL     OW25204   1.991   3.321   9.831  0.0909 -0.0226  0.4129
 4582SOL    HW125205   2.023   3.411   9.824 -1.1432  0.3958  0.1453
 4582SOL    HW225206   2.052   3.282   9.893  0.8094 -0.6010 -0.6596
 4583SOL     OW25207   3.387   3.215   6.295  0.5162  0.1969  0.0929
 4583SOL    HW125208   3.378   3.120   6.289  0.0098  0.3965 -2.3315
 4583SOL    HW225209   3.382   3.236   6.201 -0.3444 -0.7966 -0.0909
 4584SOL     OW25210   1.749   2.463  17.030  0.3968 -0.8020  0.4491
 4584SOL    HW125211   1.668   2.511  17.012 -0.2156 -2.4417 -1.1292
 4584SOL    HW225212   1.798   2.462  16.949 -0.0271  0.2885  0.1790
 4585SOL     OW25213   1.217   2.360   3.187  0.5426 -0.4617  0.3567
 4585SOL    HW125214   1.243   2.347   3.278  0.8533 -0.3793  0.2787
 4585SOL    HW225215   1.122   2.348   3.185  0.5962 -1.2960  2.4567
 4586SOL     OW25216   1.705   2.384   0.031 -0.3407  0.2487  0.2758
 4586SOL    HW125217   1.696   2.298  17.686 -1.0022  0.3778  0.1360
 4586SOL    HW225218   1.739   2.438  17.655  0.0884  1.9936  1.7975
 4587SOL     OW25219   4.477   4.642  13.996  0.7192 -0.6933 -0.0349
 4587SOL    HW125220   4.417   4.676  13.931  0.0423  3.3349  2.6760
 4587SOL    HW225221   4.521   4.568  13.955  0.8855 -0.8145  0.3615
 4588SOL     OW25222   4.288   1.746   5.118  0.1197  0.5057  0.8660
 4588SOL    HW125223   4.241   1.730   5.200  0.1908  0.2095  0.8486
 4588SOL    HW225224   4.380   1.729   5.136 -0.2970 -1.1940  1.4202
 4589SOL     OW25225   2.998   1.638  15.391  0.1732 -0.3833 -0.0257
 4589SOL    HW125226   3.074   1.626  15.333 -1.3800 -2.2464 -1.6557
 4589SOL    HW225227   2.930   1.644  15.324  1.3360 -0.9321 -1.2519
 4590SOL     OW25228   2.261   3.120   6.835  0.1608 -0.5056 -0.6817
 4590SOL    HW125229   2.313   3.077   6.767  0.7715  0.5064 -0.8584
 4590SOL    HW225230   2.314   3.147   6.910 -0.7640 -1.2800  0.2481
 4591SOL     OW25231   4.061   2.205   3.554  0.0187  0.3730 -0.3845
 4591SOL    HW125232   3.986   2.263   3.561 -1.3954 -1.1921 -2.2762
 4591SOL    HW225233   4.046   2.143   3.625  1.8740 -0.2374 -0.5254
 4592SOL     OW25234   2.385   1.804   9.608  0.3190  0.9685 -0.3147
 4592SOL    HW125235   2.457   1.742   9.621 -0.5177 -0.1505 -1.0184
 4592SOL    HW225236   2.412   1.874   9.666  0.9719  0.9566 -0.5967
 4593SOL     OW25237   2.003   4.024   3.450  0.8822 -0.0056  0.3284
 4593SOL    HW125238   2.010   4.090   3.381 -2.7666 -0.1340 -0.2059
 4593SOL    HW225239   1.972   3.952   3.395 -1.6346 -0.0965  1.8383
 4594SOL     OW25240   1.359   2.727   1.845  0.5750  0.5031 -0.1772
 4594SOL    HW125241   1.367   2.816   1.811  2.3557  1.2683  2.2618
 4594SOL    HW225242   1.332   2.725   1.937 -0.4414  0.1559 -0.4807
 4595SOL     OW25243   1.635   2.429  12.541 -0.0288  0.3831  0.2708
 4595SOL    HW125244   1.622   2.524  12.551  0.0084  0.4356 -0.1982
 4595SOL    HW225245   1.571   2.401  12.606  1.1634  0.4576  1.4789
 4596SOL     OW25246   0.796   0.088   2.178 -0.1151 -0.5307 -0.1476
 4596SOL    HW125247   0.838   0.169   2.148 -3.9860  1.2860 -0.7717
 4596SOL    HW225248   0.843   0.071   2.259 -0.7431 -1.7912 -0.0493
 4597SOL     OW25249   0.918   2.353  16.610  0.2435 -0.4841 -0.3067
 4597SOL    HW125250   0.868   2.305  16.544  0.3771  0.1133 -0.8295
 4597SOL    HW225251   0.877   2.438  16.598  0.6173 -0.2850 -0.1684
 4598SOL     OW25252   1.853   1.082   2.990 -0.0078 -0.3094  0.2914
 4598SOL    HW125253   1.898   1.050   2.912  1.7660  1.4600  0.5593
 4598SOL    HW225254   1.922   1.072   3.056  1.2232 -1.1962 -1.1281
 4599SOL     OW25255   4.142   4.233   9.705 -0.3321  0.2353 -0.2089
 4599SOL    HW125256   4.148   4.324   9.734  0.3383 -0.5773  2.2498
 4599SOL    HW225257   4.224   4.199   9.741  0.1473  0.9497 -0.6082
 4600SOL     OW25258   3.150   2.091  17.370 -0.8451 -0.1458  0.5536
 4600SOL    HW125259   3.078   2.029  17.383 -0.1530 -0.6074  2.1427
 4600SOL    HW225260   3.163   2.122  17.460 -0.1021 -0.6184  0.6044
 4601SOL     OW25261   3.532   1.753   6.747 -0.3806 -0.3577  0.2458
 4601SOL    HW125262   3.542   1.754   6.652 -0.3690  3.0573  0.3035
 4601SOL    HW225263   3.490   1.837   6.765  0.3624  0.0192  0.2065
 4602SOL     OW25264   2.525   3.339   4.754  0.2091  0.2422  0.4945
 4602SOL    HW125265   2.493   3.350   4.664  0.0385  1.1203  0.6689
 4602SOL    HW225266   2.617   3.314   4.748 -0.0350 -0.4537 -0.3646
 4603SOL     OW25267   3.434   0.741   4.146  0.1407  0.5095  0.0118
 4603SOL    HW125268   3.527   0.719   4.159 -0.6982 -1.1166  3.4192
 4603SOL    HW225269   3.397   0.740   4.235 -2.8616 -1.5098 -1.2629
 4604SOL     OW25270   3.021   0.966   4.822  0.1508 -0.5090 -0.2894
 4604SOL    HW125271   3.015   1.026   4.748 -3.0592  1.9727  1.9479
 4604SOL    HW225272   3.080   1.022   4.872  0.8988 -0.3686 -1.3362
 4605SOL     OW25273   1.017   1.712   3.433  0.9369 -0.1493 -0.6448
 4605SOL    HW125274   1.091   1.652   3.420  1.1629  0.3609 -1.7040
 4605SOL    HW225275   0.977   1.714   3.346  0.5157 -1.4315 -0.4794
 4606SOL     OW25276   3.455   0.044   2.929  0.2350  0.0236 -0.3338
 4606SOL    HW125277   3.459   0.109   3.000 -0.6863 -0.9651  0.6194
 4606SOL    HW225278   3.423   0.099   2.857 -0.7435  1.3733  1.1379
 4607SOL     OW25279   3.474   0.878   7.754  0.3493  0.6421  0.4117
 4607SOL    HW125280   3.383   0.851   7.754  0.1236  1.4040  1.6503
 4607SOL    HW225281   3.531   0.804   7.733  0.4878  1.1582 -1.0739
 4608SOL     OW25282   0.493   2.908  14.765 -0.1117  0.5731 -0.4211
 4608SOL    HW125283   0.560   2.889  14.700  2.1312 -0.3620  2.1793
 4608SOL    HW225284   0.502   2.842  14.834 -0.1131  0.1402 -0.8392
 4609SOL     OW25285   3.816   4.256   2.186 -0.1576  0.5768 -0.1201
 4609SOL    HW125286   3.841   4.252   2.093 -1.1784  0.3719 -0.3929
 4609SOL    HW225287   3.901   4.238   2.224 -0.8231  0.1795  1.1892
 4610SOL     OW25288   0.878   3.855  13.983 -0.7162 -0.0173 -0.8530
 4610SOL    HW125289   0.903   3.766  14.008 -0.3191 -0.2049 -1.9674
 4610SOL    HW225290   0.793   3.871  14.026 -0.8605 -0.8093 -0.8482
 4611SOL     OW25291   1.930   4.142  10.682  0.4071  0.4250  0.1248
 4611SOL    HW125292   2.021   4.140  10.711  0.4139 -3.0802 -0.1304
 4611SOL    HW225293   1.911   4.155  10.775 -0.4974 -1.8489  0.2502
 4612SOL     OW25294   4.353   0.787   4.201 -0.0152 -0.6515 -0.3233
 4612SOL    HW125295   4.291   0.780   4.274  1.3291 -0.5130  0.8142
 4612SOL    HW225296   4.290   0.771   4.131  0.7304  1.2833 -1.4132
 4613SOL     OW25297   2.020   1.869  14.979  0.4588 -0.5646  0.1916
 4613SOL    HW125298   2.075   1.802  14.938 -0.7556 -1.3532 -0.1413
 4613SOL    HW225299   1.953   1.867  14.910  0.1684 -2.4606  0.5280
 4614SOL     OW25300   2.924   2.062   3.087 -0.1463 -0.2135  0.1219
 4614SOL    HW125301   2.842   2.110   3.077 -0.1195  0.5851  3.9150
 4614SOL    HW225302   2.990   2.131   3.079  0.7872 -1.1005  0.0641
 4615SOL     OW25303   1.787   3.666   3.748 -0.1868 -0.4218 -0.4870
 4615SOL    HW125304   1.707   3.628   3.785  0.3748 -1.4370 -0.3372
 4615SOL    HW225305   1.753   3.683   3.660 -1.0673 -1.4892 -0.3521
 4616SOL     OW25306   4.227   4.591  17.308  0.0458  0.2589 -0.3554
 4616SOL    HW125307   4.174   4.561  17.382 -1.4874  1.5662 -0.9212
 4616SOL    HW225308   4.281   4.653  17.357 -0.8820  0.4107  0.4878
 4617SOL     OW25309   0.107   0.111   0.680  0.1351  0.2129  0.6335
 4617SOL    HW125310   0.166   0.084   0.750 -2.1211 -2.2302  1.5837
 4617SOL    HW225311   0.050   0.172   0.729 -0.4458 -1.3643  1.9240
 4618SOL     OW25312   1.586   1.402   2.088  0.4867  1.0147 -0.2964
 4618SOL    HW125313   1.576   1.449   2.005 -0.6343  0.1994 -0.6264
 4618SOL    HW225314   1.635   1.324   2.061 -3.0962 -0.8601 -1.4046
 4619SOL     OW25315   1.112   0.655   5.627  0.4302  0.1031 -0.6470
 4619SOL    HW125316   1.024   0.662   5.664  1.7084 -0.0401  2.4172
 4619SOL    HW225317   1.094   0.700   5.544  2.0633  0.4796 -0.7949
 4620SOL     OW25318   3.493   3.081  14.675  0.2541 -0.1113  0.3331
 4620SOL    HW125319   3.543   3.142  14.620 -1.5324  2.0179  1.0563
 4620SOL    HW225320   3.539   3.101  14.757 -1.3640  0.1638  1.1693
 4621SOL     OW25321   1.240   1.098  16.532  0.4423  0.0516 -0.0580
 4621SOL    HW125322   1.203   1.077  16.447 -2.1999 -1.3407  1.4533
 4621SOL    HW225323   1.332   1.070  16.523 -0.0676 -1.6681  0.1628
 4622SOL     OW25324   4.321   1.202   2.576  0.0004  0.3296 -0.0272
 4622SOL    HW125325   4.266   1.179   2.651 -0.8741 -0.3495 -0.8821
 4622SOL    HW225326   4.268   1.201   2.497  1.1019 -0.7857 -0.7442
 4623SOL     OW25327   2.342   1.120  11.080 -0.3326  0.3049 -0.7317
 4623SOL    HW125328   2.379   1.163  11.003 -2.6524  2.0870 -0.8653
 4623SOL    HW225329   2.399   1.147  11.152 -0.8369  1.3097 -0.7102
 4624SOL     OW25330   0.499   3.121   2.550 -0.5985  0.1969 -0.4965
 4624SOL    HW125331   0.473   3.210   2.573  0.1442  0.8307 -2.0685
 4624SOL    HW225332   0.533   3.129   2.461 -1.1121  1.5233 -0.5754
 4625SOL     OW25333   0.719   3.332   2.284  0.6448  0.5449  0.4087
 4625SOL    HW125334   0.664   3.410   2.275  1.4886  1.0273 -0.6153
 4625SOL    HW225335   0.688   3.267   2.221 -2.4796  0.9793  1.4842
 4626SOL     OW25336   3.017   3.217  17.481  0.1803 -0.4889 -0.1599
 4626SOL    HW125337   3.109   3.213  17.455  0.1847 -0.6879 -0.1181
 4626SOL    HW225338   3.023   3.173  17.565  0.5398  0.2090  0.1790
 4627SOL     OW25339   2.884   3.384  13.402 -0.3335 -0.5312 -0.0081
 4627SOL    HW125340   2.894   3.294  13.370  0.1110  0.4356 -2.5627
 4627SOL    HW225341   2.847   3.361  13.487 -0.9126 -0.9422 -0.3672
 4628SOL     OW25342   2.050   0.334  12.807 -0.1807 -0.2993 -0.1800
 4628SOL    HW125343   1.960   0.367  12.811  0.0993  0.4388  0.1794
 4628SOL    HW225344   2.066   0.312  12.898  1.0083  0.7200 -0.1317
 4629SOL     OW25345   2.812   1.193   7.373 -0.4468  0.0063 -0.2062
 4629SOL    HW125346   2.901   1.177   7.342  0.2006 -0.8731  2.1134
 4629SOL    HW225347   2.832   1.232   7.458 -0.4101  1.1694 -0.7419
 4630SOL     OW25348   0.446   1.894  16.942  0.2530 -0.2274 -0.8717
 4630SOL    HW125349   0.426   1.978  16.902  3.2617 -0.2427 -2.3974
 4630SOL    HW225350   0.361   1.855  16.964  0.6319 -1.0543 -0.8680
 4631SOL     OW25351   1.545   1.163   5.453  0.4622  0.0863 -0.3334
 4631SOL    HW125352   1.505   1.173   5.539  1.3171 -0.3094  0.1146
 4631SOL    HW225353   1.620   1.110   5.479  0.8030  1.2026  0.9954
 4632SOL     OW25354   4.090   0.041   3.767  0.1605  0.1823 -0.0080
 4632SOL    HW125355   4.137   0.123   3.754  0.1153  0.3561  0.9078
 4632SOL    HW225356   4.167   4.708   3.770 -0.4682 -0.7489 -1.5259
 4633SOL     OW25357   1.365   3.285   3.529  0.0070  0.4235 -0.3824
 4633SOL    HW125358   1.386   3.327   3.446  0.9573  0.0313 -0.3432
 4633SOL    HW225359   1.372   3.194   3.500 -0.0730 -0.0269  1.0046
 4634SOL     OW25360   4.094   1.816   2.321  0.2431 -0.3302  0.2355
 4634SOL    HW125361   4.064   1.803   2.411 -1.8235 -1.2838 -0.5874
 4634SOL    HW225362   4.176   1.767   2.327  1.0986  0.9220 -0.9819
 4635SOL     OW25363   3.730   2.983   5.871 -0.7169 -0.7845 -0.8487
 4635SOL    HW125364   3.639   3.013   5.865 -0.7123 -0.8022 -1.0054
 4635SOL    HW225365   3.754   3.024   5.954 -0.4987  1.3469 -1.9788
 4636SOL     OW25366   2.509   2.012  16.216  0.2151 -0.2273 -0.1464
 4636SOL    HW125367   2.542   2.092  16.257  0.4072 -0.1061 -0.5339
 4636SOL    HW225368   2.544   2.018  16.127 -0.3989 -3.6191 -0.5975
 4637SOL     OW25369   2.546   0.444   4.295 -0.4376  0.0131 -0.3648
 4637SOL    HW125370   2.585   0.380   4.235 -0.8654  0.1157 -0.7572
 4637SOL    HW225371   2.608   0.516   4.287  1.8263 -1.7784  0.8860
 4638SOL     OW25372   0.356   3.710   0.324 -0.0773  0.0375  0.4690
 4638SOL    HW125373   0.346   3.628   0.373  0.7709  0.7108  1.7637
 4638SOL    HW225374   0.264   3.728   0.308  0.1766  0.4220 -0.5661
 4639SOL     OW25375   2.923   2.022   1.379  0.4459  0.3394  0.0066
 4639SOL    HW125376   3.008   2.064   1.389  1.6468 -1.5913 -2.1911
 4639SOL    HW225377   2.940   1.928   1.383  0.1632  0.3031  0.3452
 4640SOL     OW25378   1.245   2.728   5.007  0.6853 -0.2866 -0.1458
 4640SOL    HW125379   1.305   2.663   5.045 -0.4554 -0.1558  1.8840
 4640SOL    HW225380   1.165   2.692   5.045  0.3300 -0.0536 -0.6674
 4641SOL     OW25381   4.197   2.463   9.370  0.1599 -0.0053  0.0861
 4641SOL    HW125382   4.179   2.397   9.437  0.8080  0.0357  0.3041
 4641SOL    HW225383   4.158   2.539   9.413  0.0723  0.7345 -1.2840
 4642SOL     OW25384   2.606   3.210   1.769  0.2058  0.2720 -0.3807
 4642SOL    HW125385   2.611   3.119   1.800 -0.2407  0.4024  0.0820
 4642SOL    HW225386   2.645   3.205   1.682 -1.8625  1.1313 -1.3347
 4643SOL     OW25387   2.689   3.603  10.564  0.2300  0.4707 -0.1902
 4643SOL    HW125388   2.730   3.665  10.625 -1.3318 -0.0731  1.4073
 4643SOL    HW225389   2.651   3.545  10.631 -0.3246  1.5935  0.4795
 4644SOL     OW25390   2.666   3.411  14.139 -0.0850 -0.2486 -0.5152
 4644SOL    HW125391   2.588   3.462  14.162  0.1681 -0.8779  1.6699
 4644SOL    HW225392   2.712   3.486  14.100 -3.1689  1.9597  0.0754
 4645SOL     OW25393   4.178   0.861   2.252  0.0525  0.1693  0.3552
 4645SOL    HW125394   4.108   0.861   2.318 -0.4173  1.4117 -0.1399
 4645SOL    HW225395   4.165   0.776   2.210  0.1684  0.7468 -0.8420
 4646SOL     OW25396   0.324   2.628   4.401  0.2275  0.1171  0.1166
 4646SOL    HW125397   0.299   2.674   4.320 -3.3003 -0.5868  0.7792
 4646SOL    HW225398   0.297   2.542   4.367 -2.4265  0.0565  2.3783
 4647SOL     OW25399   3.751   3.401  10.319 -0.2212  0.4772  0.2339
 4647SOL    HW125400   3.833   3.433  10.356 -1.7162  3.0137  1.3431
 4647SOL    HW225401   3.754   3.311  10.351  0.3905 -0.2485 -1.8806
 4648SOL     OW25402   0.629   4.060   8.994 -0.5237 -0.0165 -0.4970
 4648SOL    HW125403   0.715   4.081   8.958  0.3001 -2.3794  0.0935
 4648SOL    HW225404   0.612   3.980   8.944  1.2534 -1.7586  1.7207
 4649SOL     OW25405   2.010   3.844  16.087 -0.1645 -0.3069 -0.1409
 4649SOL    HW125406   1.922   3.878  16.107 -0.6604 -2.1626  0.8824
 4649SOL    HW225407   1.994   3.757  16.049 -1.0058 -1.3232  2.4841
 4650SOL     OW25408   3.604   3.748   8.199  0.1906 -0.2972 -0.3397
 4650SOL    HW125409   3.652   3.688   8.255  0.4328  0.2449  0.0387
 4650SOL    HW225410   3.533   3.767   8.262  0.4711 -1.4319  0.3082
 4651SOL     OW25411   0.864   2.685   8.780  0.2531 -0.3160 -0.0284
 4651SOL    HW125412   0.799   2.671   8.849 -1.2671  1.8055 -1.0180
 4651SOL    HW225413   0.802   2.721   8.716  4.0194  3.1583 -1.7613
 4652SOL     OW25414   0.821   1.753   4.914 -0.0743  0.1708  1.1826
 4652SOL    HW125415   0.906   1.709   4.918  0.5014  1.2538  0.7374
 4652SOL    HW225416   0.828   1.808   4.992  3.2311 -1.9957  2.4335
 4653SOL     OW25417   1.254   0.967   2.782 -0.9140  0.4366 -0.1972
 4653SOL    HW125418   1.249   1.004   2.694 -0.1147 -1.5349 -1.0695
 4653SOL    HW225419   1.222   1.043   2.831 -1.2296  1.2316 -1.6140
 4654SOL     OW25420   3.991   4.402   6.943 -0.3385  0.3531 -0.2903
 4654SOL    HW125421   3.900   4.391   6.971  0.1623 -1.4449  0.5916
 4654SOL    HW225422   4.016   4.482   6.989  1.9723  0.2223 -1.2998
 4655SOL     OW25423   3.173   0.763   4.677  0.3692 -0.4671  0.7676
 4655SOL    HW125424   3.177   0.834   4.614 -1.0998 -1.2462 -0.2089
 4655SOL    HW225425   3.101   0.709   4.643  0.8433 -0.2973 -0.5118
 4656SOL     OW25426   0.323   0.781   1.800 -0.1804 -0.6405 -0.1233
 4656SOL    HW125427   0.348   0.794   1.708  0.8772 -0.4660  0.1920
 4656SOL    HW225428   0.387   0.836   1.844  1.3731 -0.3585 -2.7589
 4657SOL     OW25429   0.709   1.213   7.513 -0.0682  0.0037  0.0891
 4657SOL    HW125430   0.679   1.248   7.430  1.6772 -1.6163 -1.2261
 4657SOL    HW225431   0.752   1.293   7.543 -0.6941  0.1322  0.6423
 4658SOL     OW25432   1.859   4.201   4.566  0.6460  0.4395 -0.2549
 4658SOL    HW125433   1.900   4.116   4.553  0.8196  0.3830  0.6568
 4658SOL    HW225434   1.928   4.257   4.601  0.3016  1.0218 -0.5044
 4659SOL     OW25435   4.208   1.473   7.122  0.3701 -0.4217 -0.3782
 4659SOL    HW125436   4.197   1.395   7.176  2.1346  0.2390  0.9581
 4659SOL    HW225437   4.147   1.448   7.053  1.1903 -0.5491 -1.0657
 4660SOL     OW25438   3.244   1.718   3.594 -0.9240  0.2994  0.5986
 4660SOL    HW125439   3.315   1.693   3.534  0.8995 -1.4121  3.4773
 4660SOL    HW225440   3.204   1.632   3.608  1.6632 -0.8970  0.6964
 4661SOL     OW25441   3.393   0.430   5.423 -0.4280 -0.2135  0.6332
 4661SOL    HW125442   3.419   0.352   5.472 -1.6532 -0.9220  0.1485
 4661SOL    HW225443   3.476   0.477   5.422  0.4446 -1.7942 -1.5596
 4662SOL     OW25444   0.533   4.637  17.204 -0.3122  0.1526 -0.1205
 4662SOL    HW125445   0.479   4.558  17.194 -0.4561  0.5924 -2.7824
 4662SOL    HW225446   0.606   4.598  17.252 -1.7400 -0.3494  1.6466
 4663SOL     OW25447   4.192   0.965  12.993  0.2485 -0.4962  0.0124
 4663SOL    HW125448   4.255   0.963  12.921  0.1186  0.9317 -0.1435
 4663SOL    HW225449   4.126   0.902  12.965  0.8558 -0.2839 -1.8507
 4664SOL     OW25450   1.880   3.952   2.824 -0.6664 -0.6886 -0.5209
 4664SOL    HW125451   1.921   3.988   2.903 -0.6198 -0.0252 -0.8516
 4664SOL    HW225452   1.841   4.031   2.787 -1.2872 -1.2824 -1.1350
 4665SOL     OW25453   4.149   2.977   7.051  0.7449  0.1556 -0.2323
 4665SOL    HW125454   4.060   2.941   7.052 -0.2157  2.4698 -0.4006
 4665SOL    HW225455   4.146   3.038   6.977 -2.1245  1.9731  1.3555
 4666SOL     OW25456   0.471   2.928   6.336 -0.0124  0.3116  0.2723
 4666SOL    HW125457   0.529   3.004   6.342 -0.8237  0.9826 -0.4779
 4666SOL    HW225458   0.421   2.957   6.260  0.4324 -0.7118 -0.4122
 4667SOL     OW25459   2.457   0.968   2.260 -0.0753 -0.3502  0.1271
 4667SOL    HW125460   2.451   1.025   2.184 -1.0480  0.3921  0.7679
 4667SOL    HW225461   2.429   0.882   2.229  2.2293 -0.9093 -0.4289
 4668SOL     OW25462   3.487   0.127  15.673  0.3981 -0.0469 -0.0344
 4668SOL    HW125463   3.405   0.158  15.634 -0.1456 -0.1514  1.0318
 4668SOL    HW225464   3.519   0.211  15.704 -1.5681  0.5753  0.2750
 4669SOL     OW25465   3.995   1.625   4.756 -0.3637  0.3903 -0.0516
 4669SOL    HW125466   3.931   1.609   4.825 -0.0560  1.1942  0.4282
 4669SOL    HW225467   4.079   1.591   4.788 -0.4402 -0.4028 -0.6948
 4670SOL     OW25468   1.648   2.039  17.236  0.4280  0.2258 -0.1105
 4670SOL    HW125469   1.722   2.008  17.288  0.2068  0.9281  0.6145
 4670SOL    HW225470   1.691   2.086  17.165  0.3806  2.6334  1.4492
 4671SOL     OW25471   0.003   1.318  14.220  0.3035  0.3351  0.2676
 4671SOL    HW125472   0.003   1.410  14.247  0.3640  0.9060 -1.6789
 4671SOL    HW225473   4.633   1.296  14.223 -0.1956  2.3843 -0.3474
 4672SOL     OW25474   1.463   4.396  16.793 -0.4035  0.3265 -0.3277
 4672SOL    HW125475   1.406   4.362  16.724 -0.8013  1.9501 -0.7968
 4672SOL    HW225476   1.413   4.477  16.795  1.0475  1.2169 -0.6287
 4673SOL     OW25477   3.064   0.691  12.471  0.1771 -0.1757  0.0093
 4673SOL    HW125478   3.002   0.705  12.399  0.6590 -0.5656 -0.4747
 4673SOL    HW225479   3.146   0.703  12.424  0.8850 -0.0794  1.2663
 4674SOL     OW25480   4.562   0.103   3.598 -0.3527  0.6934 -0.2434
 4674SOL    HW125481   4.649   0.066   3.585 -0.6192 -0.2426  0.6847
 4674SOL    HW225482   4.571   0.151   3.680  0.7824 -0.8301  0.5230
 4675SOL     OW25483   1.818   1.910   6.746  0.1316 -0.0785  0.3617
 4675SOL    HW125484   1.802   1.819   6.722  0.0422  0.0580 -0.0938
 4675SOL    HW225485   1.891   1.936   6.690 -1.4552 -1.8854 -2.5382
 4676SOL     OW25486   0.399   1.769   0.506 -0.2114 -0.8602 -0.6409
 4676SOL    HW125487   0.312   1.775   0.468 -0.4373  2.5194  0.4226
 4676SOL    HW225488   0.444   1.700   0.457  0.2434 -0.5429 -0.6758
 4677SOL     OW25489   1.239   0.943  16.019  0.4623  0.1072 -0.1247
 4677SOL    HW125490   1.314   0.951  15.959 -1.0686  1.5652 -1.8695
 4677SOL    HW225491   1.177   1.001  15.974  0.9113 -1.0412 -2.2312
 4678SOL     OW25492   3.500   1.528   7.924  0.4556 -0.3368 -0.3837
 4678SOL    HW125493   3.493   1.602   7.863 -0.1764  1.0091  1.3020
 4678SOL    HW225494   3.498   1.581   8.005  2.0808 -0.2814 -0.3847
 4679SOL     OW25495   1.476   1.554   8.828  0.2680 -0.2452 -0.2096
 4679SOL    HW125496   1.432   1.637   8.847  2.5179  0.1607  3.3245
 4679SOL    HW225497   1.423   1.512   8.760 -0.3426 -1.7938  1.2125
 4680SOL     OW25498   2.073   3.458  10.446 -0.6863  0.1710 -0.0913
 4680SOL    HW125499   2.131   3.506  10.388 -2.0375  2.1241  0.1575
 4680SOL    HW225500   1.992   3.453  10.395 -0.3133  1.4439 -0.7992
 4681SOL     OW25501   1.212   3.111   4.484 -0.0371 -0.1762  0.5662
 4681SOL    HW125502   1.230   3.066   4.401 -0.1559 -0.4312  0.6780
 4681SOL    HW225503   1.123   3.080   4.498  0.0565 -0.6504  0.1328
 4682SOL     OW25504   1.808   1.732  15.483 -0.2358 -0.4467  0.0226
 4682SOL    HW125505   1.882   1.710  15.427  0.1480  2.1252 -0.4449
 4682SOL    HW225506   1.757   1.788  15.425 -1.0359 -1.5879 -0.3882
 4683SOL     OW25507   3.773   1.865   4.779  0.0776  0.0218 -0.8566
 4683SOL    HW125508   3.713   1.799   4.743 -1.2601  0.0925  1.2812
 4683SOL    HW225509   3.854   1.835   4.737  1.3618  1.3380  0.7079
 4684SOL     OW25510   1.453   1.705   7.243 -0.4612  0.7131 -0.3869
 4684SOL    HW125511   1.492   1.634   7.192 -1.2240 -1.0444  1.4639
 4684SOL    HW225512   1.510   1.704   7.320 -3.4326 -0.6286  1.8152
 4685SOL     OW25513   2.374   4.492  12.950 -0.4014 -0.0920 -0.2159
 4685SOL    HW125514   2.435   4.561  12.978 -0.8012  0.9445 -1.9168
 4685SOL    HW225515   2.426   4.449  12.883  2.5415  1.0773  1.3076
 4686SOL     OW25516   2.608   2.344  16.532 -0.1233  0.2199  0.1945
 4686SOL    HW125517   2.660   2.275  16.491 -1.3188  0.5641 -1.9107
 4686SOL    HW225518   2.547   2.368  16.462 -1.0325  0.9784  1.2391
 4687SOL     OW25519   2.192   1.688   0.866  0.4168  0.5897  0.2499
 4687SOL    HW125520   2.156   1.770   0.902  1.7609  1.2516  0.0662
 4687SOL    HW225521   2.214   1.651   0.951  1.6794 -0.7397 -0.6635
 4688SOL     OW25522   1.852   1.633   6.851  0.2742 -0.3727 -0.3895
 4688SOL    HW125523   1.830   1.542   6.870 -2.7138  0.4220  0.0252
 4688SOL    HW225524   1.876   1.627   6.758  0.8207  0.8560 -0.3284
 4689SOL     OW25525   0.682   4.444   5.780 -0.1440 -0.3389 -0.1496
 4689SOL    HW125526   0.748   4.512   5.789 -0.1951 -0.2595 -0.3700
 4689SOL    HW225527   0.609   4.478   5.832  0.8038 -1.0343  1.6222
 4690SOL     OW25528   0.489   1.055  11.437 -0.1474 -0.3286 -0.0243
 4690SOL    HW125529   0.470   1.103  11.518  1.3927 -2.0664  1.3387
 4690SOL    HW225530   0.573   1.090  11.407 -0.3516  0.2146  0.0241
 4691SOL     OW25531   2.177   1.749  16.162  0.5603  0.7269 -0.3371
 4691SOL    HW125532   2.121   1.822  16.138  0.1230  0.5233  0.0678
 4691SOL    HW225533   2.155   1.683  16.097  3.4915 -1.9286  1.3600
 4692SOL     OW25534   3.668   0.302   1.437  0.0742 -0.0962  0.0473
 4692SOL    HW125535   3.730   0.270   1.502  0.7965  1.6559  0.2123
 4692SOL    HW225536   3.634   0.381   1.478  2.1255  0.5731  0.4790
 4693SOL     OW25537   2.170   4.102  10.805  0.1851 -0.1720 -0.1820
 4693SOL    HW125538   2.237   4.066  10.747  0.6436 -0.7568  0.7054
 4693SOL    HW225539   2.195   4.069  10.892 -0.4059 -0.5200 -0.1467
 4694SOL     OW25540   2.681   2.662   5.518  0.3106  0.4830  0.1024
 4694SOL    HW125541   2.666   2.574   5.485  0.0806  0.9376 -1.0138
 4694SOL    HW225542   2.589   2.684   5.534  0.5819  2.1081 -0.5192
 4695SOL     OW25543   4.391   3.715   4.884  0.6885  0.0339  0.3333
 4695SOL    HW125544   4.351   3.688   4.801  0.6325  2.6861 -0.5176
 4695SOL    HW225545   4.358   3.805   4.890  2.1622  0.4476  2.1404
 4696SOL     OW25546   4.512   2.480   4.516  0.7650 -0.3776 -0.0266
 4696SOL    HW125547   4.442   2.449   4.459  0.8571  2.4301 -1.6604
 4696SOL    HW225548   4.488   2.571   4.499  1.0852 -0.0023  1.5947
 4697SOL     OW25549   3.248   4.101   4.194  0.4630  0.4097 -0.0016
 4697SOL    HW125550   3.201   4.093   4.277 -1.0195  0.6823 -0.8063
 4697SOL    HW225551   3.199   4.175   4.157 -0.7908 -2.1051 -3.3867
 4698SOL     OW25552   1.688   2.845   3.644  0.6075  0.1359  0.3008
 4698SOL    HW125553   1.670   2.784   3.572 -0.4579  1.5470 -0.6125
 4698SOL    HW225554   1.727   2.784   3.707  0.5869 -1.0364 -0.8243
 4699SOL     OW25555   2.241   1.331   5.228  0.3603 -0.5723  0.2373
 4699SOL    HW125556   2.320   1.329   5.281  0.3718 -2.4046  0.1669
 4699SOL    HW225557   2.224   1.425   5.234  1.0901 -0.2927 -2.0758
 4700SOL     OW25558   1.780   0.604  16.667  0.6639  0.7209 -0.7483
 4700SOL    HW125559   1.812   0.613  16.577  0.8172 -0.0575 -0.7737
 4700SOL    HW225560   1.860   0.620  16.717 -1.0702  2.9527  1.3168
 4701SOL     OW25561   4.115   2.582  16.164  1.0894  0.1513 -0.0046
 4701SOL    HW125562   4.115   2.584  16.259  0.5747 -2.0522  0.0542
 4701SOL    HW225563   4.162   2.660  16.137  0.4361  0.6174  0.2059
 4702SOL     OW25564   2.243   1.116   9.478  0.4601 -0.0466 -0.6322
 4702SOL    HW125565   2.301   1.115   9.402 -0.3625 -0.3926 -1.2661
 4702SOL    HW225566   2.261   1.201   9.518  1.6623  0.1496 -1.6058
 4703SOL     OW25567   1.832   3.011   4.045  0.4662  0.5172 -0.7032
 4703SOL    HW125568   1.804   3.055   3.964 -1.0203  0.4500 -0.2040
 4703SOL    HW225569   1.749   3.006   4.092  1.1223 -2.0584  0.1569
 4704SOL     OW25570   1.235   0.614  13.095 -0.3144 -0.1692 -0.5988
 4704SOL    HW125571   1.145   0.627  13.066 -1.0891  0.1267  1.9471
 4704SOL    HW225572   1.222   0.586  13.186  1.0919  0.7199 -0.1119
 4705SOL     OW25573   2.551   4.222   8.143 -0.2510 -0.5594  0.2429
 4705SOL    HW125574   2.542   4.229   8.238  0.0478  2.7854  0.0033
 4705SOL    HW225575   2.556   4.129   8.122 -3.1466 -1.2437  2.5215
 4706SOL     OW25576   2.402   1.255   3.519  0.7839  0.3676  0.0143
 4706SOL    HW125577   2.392   1.161   3.506  5.2967 -0.2753  1.3435
 4706SOL    HW225578   2.434   1.282   3.433  0.7446  1.2939  0.2858
 4707SOL     OW25579   3.373   1.149   6.318 -0.2220  0.5317 -0.4228
 4707SOL    HW125580   3.283   1.116   6.328 -1.1899  2.6016 -2.2215
 4707SOL    HW225581   3.383   1.131   6.224  1.6660 -2.0527  0.2705
 4708SOL     OW25582   2.210   4.312  17.499  0.4465  0.6852 -0.0437
 4708SOL    HW125583   2.245   4.287  17.585 -0.3429  0.2580  0.1510
 4708SOL    HW225584   2.195   4.406  17.511  0.3273  0.6555  0.0356
 4709SOL     OW25585   1.830   1.276  13.245  0.1840 -0.0308  0.0321
 4709SOL    HW125586   1.767   1.210  13.220  0.2097  0.1942 -0.6386
 4709SOL    HW225587   1.893   1.205  13.236  0.2106 -0.0100  0.0507
 4710SOL     OW25588   4.045   3.978  10.589 -0.9458  0.2683  0.2106
 4710SOL    HW125589   4.038   3.998  10.682 -0.6777 -1.1932  0.5418
 4710SOL    HW225590   3.972   3.918  10.575 -1.8486  0.7278  2.9702
 4711SOL     OW25591   4.416   2.778   8.382 -0.4790 -0.2022  0.2738
 4711SOL    HW125592   4.434   2.760   8.289 -0.5717  2.7522 -0.3021
 4711SOL    HW225593   4.445   2.694   8.419 -1.6568 -1.3277 -1.3429
 4712SOL     OW25594   0.111   2.150   1.193 -0.0356 -0.1826 -0.2251
 4712SOL    HW125595   0.178   2.110   1.249 -1.6429  0.0274  1.8760
 4712SOL    HW225596   0.156   2.203   1.127  1.0849  2.6243  2.7638
 4713SOL     OW25597   1.716   2.719   2.529  0.3199 -0.1708 -0.4875
 4713SOL    HW125598   1.653   2.730   2.600 -0.8077 -1.6997 -1.2235
 4713SOL    HW225599   1.789   2.673   2.570  0.2502 -1.2566 -1.5433
 4714SOL     OW25600   4.145   0.748   5.690 -0.0831 -0.1351 -0.0078
 4714SOL    HW125601   4.144   0.652   5.688  0.4644 -0.1323 -0.5993
 4714SOL    HW225602   4.192   0.763   5.608  1.5311 -0.9066  0.7693
 4715SOL     OW25603   3.857   3.701   3.043  0.1810  0.7566  0.1326
 4715SOL    HW125604   3.830   3.791   3.058  0.4226  1.1806 -1.9650
 4715SOL    HW225605   3.925   3.691   3.109  1.2137 -1.5983 -1.3000
 4716SOL     OW25606   3.806   0.649  15.184 -0.6664 -0.1156  0.0231
 4716SOL    HW125607   3.901   0.643  15.196 -0.7990 -0.0898  1.1435
 4716SOL    HW225608   3.790   0.584  15.116  0.3465 -1.3767  0.9732
 4717SOL     OW25609   4.604   1.730   8.420 -0.2715 -0.3886  0.3493
 4717SOL    HW125610   4.553   1.655   8.390 -1.1123  0.1961  0.3103
 4717SOL    HW225611   4.586   1.733   8.514  1.1503 -0.4786  0.6147
 4718SOL     OW25612   2.296   1.581   3.337 -0.3271 -0.0683 -0.0944
 4718SOL    HW125613   2.260   1.584   3.426 -0.0193  2.0827 -0.0466
 4718SOL    HW225614   2.278   1.496   3.296  0.3464 -0.6673  0.8561
 4719SOL     OW25615   2.270   1.674   6.081 -0.3653  0.2909  0.2431
 4719SOL    HW125616   2.346   1.618   6.099  1.3189  1.9881 -1.5434
 4719SOL    HW225617   2.231   1.705   6.162  1.3372 -1.3411  1.6831
 4720SOL     OW25618   2.081   3.484   0.658  0.2287  0.3529 -0.1175
 4720SOL    HW125619   2.117   3.568   0.687  0.2748 -0.1797  1.3999
 4720SOL    HW225620   2.129   3.418   0.709 -1.5850  0.9317  2.3676
 4721SOL     OW25621   3.447   3.908  14.534 -0.0591 -0.0804 -0.1299
 4721SOL    HW125622   3.533   3.926  14.572 -0.5295 -0.8250  1.3024
 4721SOL    HW225623   3.488   3.864  14.459  2.4790 -0.5974  1.5690
 4722SOL     OW25624   0.517   3.953   5.234 -0.0114 -0.5713 -0.3233
 4722SOL    HW125625   0.516   3.917   5.322 -0.9075 -0.8881 -0.4603
 4722SOL    HW225626   0.573   4.029   5.250  0.2039 -0.4817 -1.4674
 4723SOL     OW25627   0.250   1.439   7.487 -0.2807 -0.7438  0.1947
 4723SOL    HW125628   0.214   1.493   7.557 -1.7887  1.0277 -1.9357
 4723SOL    HW225629   0.169   1.426   7.438 -0.9515  0.6980  0.9252
 4724SOL     OW25630   0.441   0.501  10.915 -0.5007  0.1484  0.0877
 4724SOL    HW125631   0.469   0.565  10.849  2.1400 -0.1828  0.8727
 4724SOL    HW225632   0.406   0.437  10.853 -1.3810 -1.3090  2.0878
 4725SOL     OW25633   3.375   3.629   2.324  0.5830  0.2859 -0.7002
 4725SOL    HW125634   3.324   3.588   2.394 -0.6774 -0.6677 -2.1744
 4725SOL    HW225635   3.330   3.708   2.294 -0.4277  1.1353  3.0818
 4726SOL     OW25636   3.272   0.273   5.903 -0.1124  0.8369  0.0530
 4726SOL    HW125637   3.233   0.328   5.970  0.1084  0.8513  0.1678
 4726SOL    HW225638   3.237   0.302   5.818 -1.5047 -1.1339 -0.0545
 4727SOL     OW25639   0.667   3.885  15.538  0.5137 -0.0084 -0.0797
 4727SOL    HW125640   0.682   3.919  15.450  0.3965  2.6297  0.9141
 4727SOL    HW225641   0.654   3.967  15.587 -0.7884  0.7152 -1.6178
 4728SOL     OW25642   1.983   3.395   5.738 -0.7473  0.2874 -0.2266
 4728SOL    HW125643   2.060   3.450   5.755  1.1919 -2.3520 -0.5518
 4728SOL    HW225644   2.003   3.345   5.659  1.9176  2.6387 -1.0422
 4729SOL     OW25645   1.853   2.852  16.726 -0.0158 -0.2675 -0.3413
 4729SOL    HW125646   1.811   2.884  16.806  0.1069 -0.6787 -0.1100
 4729SOL    HW225647   1.829   2.922  16.665  0.0487  0.9194  0.9907
 4730SOL     OW25648   0.491   3.409  15.712 -0.1374  0.3347  0.1264
 4730SOL    HW125649   0.478   3.501  15.689  0.0740  0.5810  1.0068
 4730SOL    HW225650   0.404   3.376  15.689  0.1543 -0.2252 -0.1622
 4731SOL     OW25651   3.295   2.434   4.985  0.8222 -0.2950  0.4263
 4731SOL    HW125652   3.359   2.363   4.983  1.6089  0.4525 -0.6333
 4731SOL    HW225653   3.342   2.515   4.965  0.5256 -0.0969  0.5276
 4732SOL     OW25654   3.254   3.367   8.578  0.0212  0.8195 -0.0293
 4732SOL    HW125655   3.309   3.358   8.655  1.1229  0.2618 -0.8758
 4732SOL    HW225656   3.207   3.284   8.581  0.2459  0.8026  2.2981
 4733SOL     OW25657   4.432   4.265   4.388  0.3951 -0.3166 -0.9153
 4733SOL    HW125658   4.467   4.193   4.441  0.9530  0.2223 -0.5462
 4733SOL    HW225659   4.516   4.309   4.376  0.6884 -0.7283 -0.3766
 4734SOL     OW25660   4.664   2.337  11.162  0.4322 -0.5813 -1.0389
 4734SOL    HW125661   4.708   2.341  11.077  1.2962 -0.9254 -0.6011
 4734SOL    HW225662   4.691   2.413  11.213 -0.4155 -0.1503 -1.2153
 4735SOL     OW25663   0.184   3.238  14.857 -0.6376 -0.0983  0.1379
 4735SOL    HW125664   0.111   3.260  14.799 -1.0739 -0.0900  0.6839
 4735SOL    HW225665   0.248   3.212  14.792 -0.1517  1.0359  0.1629
 4736SOL     OW25666   3.787   1.007   0.366  0.4427 -0.1839  0.8643
 4736SOL    HW125667   3.756   1.075   0.426 -0.4555  1.0926 -1.0546
 4736SOL    HW225668   3.834   0.945   0.422 -0.6688  0.0200  2.0251
 4737SOL     OW25669   1.220   4.493   5.608 -0.2906  0.5201 -0.2214
 4737SOL    HW125670   1.155   4.458   5.668 -1.2370  3.4089  0.4227
 4737SOL    HW225671   1.159   4.546   5.558 -0.0597  2.0688  1.1630
 4738SOL     OW25672   0.883   0.606  10.682  0.0796  0.6319 -0.5989
 4738SOL    HW125673   0.927   0.685  10.713 -2.6239  1.4469  1.1473
 4738SOL    HW225674   0.959   0.556  10.654  0.4166  0.7511  0.0999
 4739SOL     OW25675   0.321   1.826   8.518  0.4582 -0.3399  0.3348
 4739SOL    HW125676   0.381   1.874   8.461  0.2157 -2.0428 -1.3371
 4739SOL    HW225677   0.384   1.765   8.557  0.0605 -0.6943  0.4229
 4740SOL     OW25678   1.663   0.460   6.143 -0.2112  0.2999 -0.1045
 4740SOL    HW125679   1.596   0.461   6.210  1.4843  0.1054  1.6022
 4740SOL    HW225680   1.717   0.537   6.163  2.1623 -1.6841  1.2024
 4741SOL     OW25681   3.766   4.412   5.714 -0.8136  0.5468 -0.2833
 4741SOL    HW125682   3.833   4.474   5.685  0.0291 -0.1425  0.1656
 4741SOL    HW225683   3.698   4.478   5.726 -1.0330  0.3667 -0.5243
 4742SOL     OW25684   3.665   3.680   4.507  0.1552 -0.1378 -0.4416
 4742SOL    HW125685   3.684   3.612   4.571 -0.6737  0.6157  0.5955
 4742SOL    HW225686   3.594   3.631   4.465 -0.3905  0.2515  0.0308
 4743SOL     OW25687   4.280   3.507  11.453 -0.3467  0.8214  0.2563
 4743SOL    HW125688   4.228   3.552  11.520 -3.4298  0.1444 -1.6917
 4743SOL    HW225689   4.221   3.433  11.438 -0.4533  1.1048 -0.6847
 4744SOL     OW25690   1.002   0.282   2.109  0.2111  0.1433 -0.1886
 4744SOL    HW125691   1.062   0.221   2.067 -3.3929 -3.6859  0.1823
 4744SOL    HW225692   1.022   0.280   2.202 -1.6228  1.8367  0.2378
 4745SOL     OW25693   1.303   0.352  12.742 -0.0077 -0.4439 -0.1093
 4745SOL    HW125694   1.384   0.360  12.692  0.6058 -1.2827  0.7727
 4745SOL    HW225695   1.312   0.266  12.782 -0.8268 -1.2266 -1.6071
 4746SOL     OW25696   3.777   2.371   5.478  0.4569  0.2880 -0.5530
 4746SOL    HW125697   3.767   2.339   5.388 -0.7426  1.7447 -0.9321
 4746SOL    HW225698   3.810   2.460   5.468 -0.2734  0.6885  0.6337
 4747SOL     OW25699   3.513   2.972  12.125  0.1047  0.2610  0.3470
 4747SOL    HW125700   3.605   2.981  12.100  0.6077 -0.5364  1.8640
 4747SOL    HW225701   3.475   2.947  12.041  1.6138 -0.0673 -0.2515
 4748SOL     OW25702   0.086   0.940   7.312  0.2792 -0.0695 -0.1692
 4748SOL    HW125703   0.079   0.907   7.223  0.1987 -0.6450  0.0475
 4748SOL    HW225704   0.043   1.021   7.287 -0.5316 -0.8426 -1.2587
 4749SOL     OW25705   1.807   3.375   8.333  0.0653  0.2546  0.0305
 4749SOL    HW125706   1.860   3.425   8.272 -0.2926  1.1981  0.4904
 4749SOL    HW225707   1.756   3.446   8.371 -0.5196  0.6035 -1.4316
 4750SOL     OW25708   2.452   2.860   1.310  0.4330 -0.1836  0.0364
 4750SOL    HW125709   2.383   2.918   1.277  1.1294 -0.2016 -1.4514
 4750SOL    HW225710   2.441   2.873   1.404 -0.6847 -2.0114  0.1695
 4751SOL     OW25711   3.614   2.842   8.136  0.7631  0.1041  0.5180
 4751SOL    HW125712   3.541   2.845   8.074 -0.3408 -2.3662  1.6799
 4751SOL    HW225713   3.562   2.823   8.214  2.0785  1.1001  1.6199
 4752SOL     OW25714   4.573   1.621   9.748  0.0395  0.4471 -0.3612
 4752SOL    HW125715   4.570   1.663   9.834  2.6047  2.0790 -1.0753
 4752SOL    HW225716   4.485   1.642   9.717 -0.6518  0.4370  1.5806
 4753SOL     OW25717   0.551   2.833   8.425 -0.5294 -0.5770 -0.1234
 4753SOL    HW125718   0.592   2.825   8.339 -1.0656  1.8814 -0.6004
 4753SOL    HW225719   0.501   2.914   8.420  0.0048 -0.3443 -1.6170
 4754SOL     OW25720   2.302   0.531   6.249  0.0889  0.0650  0.1732
 4754SOL    HW125721   2.240   0.518   6.178 -0.9546  0.5742  0.9840
 4754SOL    HW225722   2.380   0.569   6.208 -0.7665  1.0606 -0.5300
 4755SOL     OW25723   4.178   0.274   0.464  0.2765 -0.5872 -1.0702
 4755SOL    HW125724   4.168   0.367   0.482  0.3411 -0.8978  0.5754
 4755SOL    HW225725   4.252   0.245   0.517  1.8355  0.5051 -2.6759
 4756SOL     OW25726   3.923   4.234   3.899 -0.0430  0.3256 -0.1924
 4756SOL    HW125727   3.887   4.275   3.820 -2.4914 -0.8282  0.3128
 4756SOL    HW225728   3.929   4.312   3.954 -0.6352  0.9208 -0.9819
 4757SOL     OW25729   1.743   4.572  11.072 -0.8003 -0.3945 -0.2368
 4757SOL    HW125730   1.796   4.639  11.030  0.6658 -2.5484 -1.8615
 4757SOL    HW225731   1.665   4.577  11.017 -1.5203 -1.4685  0.6782
 4758SOL     OW25732   4.674   4.178  17.354  0.2249 -0.3334  0.0334
 4758SOL    HW125733   4.637   4.128  17.427 -1.4796  1.2497  0.2547
 4758SOL    HW225734   4.607   4.177  17.286 -1.0214 -0.2348  1.2466
 4759SOL     OW25735   4.440   0.208   2.852 -0.0326 -0.2105 -0.6453
 4759SOL    HW125736   4.437   0.124   2.806  0.0374 -1.0176  0.8207
 4759SOL    HW225737   4.408   0.190   2.940 -0.3020  0.7899 -0.5324
 4760SOL     OW25738   0.102   2.866  11.628 -0.0260  0.0706 -0.2700
 4760SOL    HW125739   0.089   2.772  11.611 -0.3813  0.4204 -1.9209
 4760SOL    HW225740   0.111   2.893  11.537 -0.5038  0.5557 -0.1714
 4761SOL     OW25741   1.328   2.429  12.516  0.2840  0.0692  0.2869
 4761SOL    HW125742   1.249   2.458  12.560  0.3673  2.8255 -1.3880
 4761SOL    HW225743   1.371   2.383  12.589 -0.2753  0.1795  0.6805
 4762SOL     OW25744   2.013   3.530   7.325  0.0824 -0.3778  0.4311
 4762SOL    HW125745   1.963   3.456   7.291  0.0442 -1.1773  2.2621
 4762SOL    HW225746   1.985   3.600   7.266 -0.6380 -2.5746 -1.8570
 4763SOL     OW25747   2.533   0.973  16.493  0.2775  0.0356 -0.0924
 4763SOL    HW125748   2.548   1.044  16.556 -1.7149 -1.6597  2.2507
 4763SOL    HW225749   2.514   1.023  16.413  3.1500 -2.2424 -2.1771
 4764SOL     OW25750   1.759   2.336   2.567 -0.5470 -0.5494  0.2837
 4764SOL    HW125751   1.738   2.269   2.502 -2.3235  0.9181 -0.6451
 4764SOL    HW225752   1.804   2.282   2.632  0.9390 -0.4623 -0.6939
 4765SOL     OW25753   1.057   3.311  12.205 -0.3541 -0.0628 -0.1238
 4765SOL    HW125754   1.004   3.321  12.284 -3.2331  2.2045 -2.3726
 4765SOL    HW225755   1.144   3.333  12.236 -1.1665  0.3660  1.8341
 4766SOL     OW25756   0.988   0.691  16.526  0.2113  0.0166  0.3605
 4766SOL    HW125757   0.974   0.650  16.441  2.3349  0.5905 -0.2726
 4766SOL    HW225758   0.941   0.774  16.516 -0.8495 -0.8432 -1.6442
 4767SOL     OW25759   4.145   1.372  15.842  0.2225  0.0528  0.2943
 4767SOL    HW125760   4.207   1.345  15.775 -0.9881 -0.5154 -0.5950
 4767SOL    HW225761   4.065   1.392  15.794  0.2014  0.6335  0.5624
 4768SOL     OW25762   2.655   0.695   5.684  0.0832  0.6347 -0.0685
 4768SOL    HW125763   2.665   0.743   5.766 -0.7232 -0.6523  0.7783
 4768SOL    HW225764   2.735   0.708   5.633  0.7750  0.1569  0.9138
 4769SOL     OW25765   3.949   1.288   7.571 -0.2110 -0.1770  0.5456
 4769SOL    HW125766   3.990   1.250   7.649  0.7450  1.1566  0.6764
 4769SOL    HW225767   3.960   1.215   7.510  1.5403  0.2718  0.3235
 4770SOL     OW25768   4.188   2.909   4.147  0.1003  0.1287 -0.0631
 4770SOL    HW125769   4.164   2.955   4.227 -0.8960 -0.7414  0.1388
 4770SOL    HW225770   4.284   2.913   4.154  0.1046 -1.6710  1.0634
 4771SOL     OW25771   2.744   2.117  16.097  0.1902  0.1576  0.2380
 4771SOL    HW125772   2.694   2.176  16.040  0.9801 -1.8062 -2.4685
 4771SOL    HW225773   2.784   2.077  16.020 -0.2430  0.7785 -0.3036
 4772SOL     OW25774   1.007   1.063  15.224  0.4333  0.0844  0.4075
 4772SOL    HW125775   0.960   1.121  15.164 -0.4081  1.3280  2.2755
 4772SOL    HW225776   1.086   1.049  15.172  0.6770  1.6512  0.3661
 4773SOL     OW25777   4.450   1.159  17.637  0.0180 -0.2712  0.0180
 4773SOL    HW125778   4.366   1.136  17.597  0.5164 -2.4003  0.1679
 4773SOL    HW225779   4.462   1.083  17.694  1.0643 -0.4849 -0.4865
 4774SOL     OW25780   2.297   3.848   7.410  0.1292  0.3706 -0.2801
 4774SOL    HW125781   2.268   3.805   7.330  1.0175 -0.8512  0.0600
 4774SOL    HW225782   2.345   3.787   7.466 -0.3282  0.0144 -0.2757
 4775SOL     OW25783   2.620   4.256  15.942  0.0194  0.7636 -0.2526
 4775SOL    HW125784   2.537   4.302  15.931 -0.7061 -0.7141 -0.8793
 4775SOL    HW225785   2.634   4.245  15.848 -0.3350 -1.1710 -0.0754
 4776SOL     OW25786   2.884   4.691   9.866  0.2049 -0.2858 -0.5186
 4776SOL    HW125787   2.969   4.690   9.910  0.2086 -0.3565 -0.5278
 4776SOL    HW225788   2.867   4.597   9.863 -1.3567  0.0338 -1.7356
 4777SOL     OW25789   3.890   2.355   6.726 -0.1154 -0.2976  0.2898
 4777SOL    HW125790   3.984   2.364   6.738 -0.1510  0.2629  0.1487
 4777SOL    HW225791   3.890   2.265   6.691  1.7061 -1.3740  3.0969
 4778SOL     OW25792   0.574   1.787   9.870 -0.1466 -0.0124 -0.5124
 4778SOL    HW125793   0.482   1.784   9.843 -0.4005 -2.2762  0.6825
 4778SOL    HW225794   0.577   1.876   9.905  1.6516 -0.2060 -0.1697
 4779SOL     OW25795   4.024   3.497   3.729 -0.1693  0.4207  0.7941
 4779SOL    HW125796   3.952   3.552   3.698  0.3536  1.1105  0.7927
 4779SOL    HW225797   4.078   3.496   3.650  0.3144 -0.7356  1.1351
 4780SOL     OW25798   0.535   1.108   7.708  0.0071  0.8273 -0.1651
 4780SOL    HW125799   0.616   1.117   7.658  0.3895 -1.0640  0.1166
 4780SOL    HW225800   0.469   1.121   7.639 -0.2683  0.8794  0.1070
 4781SOL     OW25801   1.513   2.328   8.969  0.8370  0.2298 -0.5209
 4781SOL    HW125802   1.480   2.377   9.045  0.3502 -1.2549  0.2396
 4781SOL    HW225803   1.430   2.332   8.922 -0.5495 -1.7935  1.6788
 4782SOL     OW25804   4.110   2.922   3.559  0.1807  0.5132  0.2513
 4782SOL    HW125805   4.091   2.974   3.638 -2.6240  0.4987 -0.4092
 4782SOL    HW225806   4.200   2.951   3.546  0.6221 -0.5760  0.8963
 4783SOL     OW25807   4.629   4.638   6.730  0.1640 -0.3718 -0.0537
 4783SOL    HW125808   4.627   0.007   6.753  0.5322  0.1414 -2.0263
 4783SOL    HW225809   4.596   4.601   6.811  1.9582 -1.7703  0.0419
 4784SOL     OW25810   2.707   4.125   8.598  0.5203  0.6614  0.0124
 4784SOL    HW125811   2.782   4.123   8.656 -1.5049  0.3205  2.6278
 4784SOL    HW225812   2.639   4.165   8.652  0.8427  0.2217  0.7329
 4785SOL     OW25813   2.739   2.594  13.704  0.0960  0.1625  0.3243
 4785SOL    HW125814   2.716   2.573  13.614 -0.2749  1.4344  0.1175
 4785SOL    HW225815   2.718   2.688  13.708 -0.0325  0.2602 -3.1988
 4786SOL     OW25816   2.816   0.782   5.203 -0.1900  0.0850 -0.3646
 4786SOL    HW125817   2.813   0.766   5.108 -0.7292  1.7736 -0.6229
 4786SOL    HW225818   2.726   0.780   5.235 -0.4568  0.0944 -1.1013
 4787SOL     OW25819   4.457   3.968   3.741 -0.0877 -0.2297 -0.0483
 4787SOL    HW125820   4.509   4.039   3.780 -1.8934  0.6304  0.8004
 4787SOL    HW225821   4.383   4.013   3.700  1.2435  1.2437 -0.8320
 4788SOL     OW25822   1.945   0.343   4.732  0.3852  0.4128  0.0835
 4788SOL    HW125823   2.034   0.312   4.714 -0.1789 -0.0541 -1.8232
 4788SOL    HW225824   1.944   0.429   4.692  1.5209  0.4848  0.2006
 4789SOL     OW25825   4.315   1.852   0.905 -0.2322 -0.0918 -0.1899
 4789SOL    HW125826   4.308   1.907   0.827  0.6275  1.3925  0.7904
 4789SOL    HW225827   4.314   1.913   0.978  1.7534 -1.5983  1.1050
 4790SOL     OW25828   1.715   3.073   3.793  0.1888  0.0399 -0.2767
 4790SOL    HW125829   1.734   3.127   3.716  0.8815  1.4866  0.9075
 4790SOL    HW225830   1.703   2.996   3.738 -0.6464 -1.2305  1.6857
 4791SOL     OW25831   3.679   1.095  14.143 -0.3979  0.5152 -0.2396
 4791SOL    HW125832   3.767   1.112  14.178 -0.2877 -0.4452 -0.0627
 4791SOL    HW225833   3.663   1.004  14.169  3.3330 -0.1564 -0.3451
 4792SOL     OW25834   0.606   2.629   7.487 -0.5664 -0.2920 -0.8084
 4792SOL    HW125835   0.580   2.627   7.395 -0.1699 -0.1424 -0.9233
 4792SOL    HW225836   0.516   2.630   7.519 -0.9236 -0.2397 -1.8091
 4793SOL     OW25837   1.678   3.109   7.784  0.3396  0.4496  0.7086
 4793SOL    HW125838   1.648   3.199   7.771 -1.5859 -0.0371  1.8701
 4793SOL    HW225839   1.596   3.059   7.790 -0.3769  1.6238  0.6232
 4794SOL     OW25840   0.311   3.384  12.993  0.5061  0.5727  0.6197
 4794SOL    HW125841   0.319   3.460  12.935 -0.4108  0.9809  1.0289
 4794SOL    HW225842   0.237   3.328  12.969  0.7913  0.5456 -0.2083
 4795SOL     OW25843   2.122   2.283   4.517 -0.1478 -0.1449 -0.5364
 4795SOL    HW125844   2.059   2.284   4.445  0.8262  2.9773 -1.3605
 4795SOL    HW225845   2.184   2.347   4.482  0.0554  0.8036  1.5293
 4796SOL     OW25846   2.848   0.684   3.807 -0.1024 -0.3375 -0.2007
 4796SOL    HW125847   2.792   0.720   3.738 -0.7324 -0.3258  0.3241
 4796SOL    HW225848   2.799   0.701   3.887 -1.6161  0.6438 -1.3500
 4797SOL     OW25849   1.239   4.380   7.154 -0.3446  0.2438  0.4933
 4797SOL    HW125850   1.301   4.343   7.091 -1.7625 -0.1345 -0.6741
 4797SOL    HW225851   1.154   4.340   7.137  1.8732 -3.5871 -1.6994
 4798SOL     OW25852   2.735   3.007   4.738 -0.3871  0.1140 -0.6597
 4798SOL    HW125853   2.640   3.004   4.725 -0.4348  1.7887 -0.6092
 4798SOL    HW225854   2.737   3.044   4.826 -1.6435 -1.3642  0.0002
 4799SOL     OW25855   3.016   2.780   7.602  0.3074  0.1816 -0.5223
 4799SOL    HW125856   3.079   2.828   7.656 -1.1027  2.7393 -1.1548
 4799SOL    HW225857   2.931   2.814   7.628  1.1469  1.8204  0.0369
 4800SOL     OW25858   3.574   1.611   9.119  0.2583  0.2569  0.0051
 4800SOL    HW125859   3.646   1.644   9.173 -0.8992  1.3761  0.8599
 4800SOL    HW225860   3.621   1.540   9.076  2.4777  2.4207 -1.1985
 4801SOL     OW25861   0.802   3.166   5.265  0.3209 -1.0351  0.0815
 4801SOL    HW125862   0.815   3.071   5.273  1.5674 -0.8671  0.0443
 4801SOL    HW225863   0.875   3.197   5.317 -2.9123  0.4188  3.7443
 4802SOL     OW25864   4.172   0.606   2.121 -0.1419  0.0170  0.2000
 4802SOL    HW125865   4.093   0.564   2.086  1.3893 -0.1383 -2.9863
 4802SOL    HW225866   4.239   0.602   2.054 -0.4127  2.2931 -0.2063
 4803SOL     OW25867   0.410   0.893  15.816  0.4335  0.1411  0.0481
 4803SOL    HW125868   0.441   0.903  15.906  1.4640  1.9317 -0.5254
 4803SOL    HW225869   0.494   0.897  15.770 -0.0840  1.6346 -0.7510
 4804SOL     OW25870   1.035   3.110  13.980 -0.4519  0.2968 -0.0889
 4804SOL    HW125871   0.953   3.113  14.029 -0.0710 -2.1287  0.7103
 4804SOL    HW225872   1.088   3.166  14.037 -0.4581 -0.3993  0.6119
 4805SOL     OW25873   3.106   3.096   4.482 -0.8338 -0.2318 -0.0911
 4805SOL    HW125874   3.172   3.080   4.550  0.6202 -0.0114 -1.4325
 4805SOL    HW225875   3.025   3.107   4.531 -2.3937 -1.2237 -2.5048
 4806SOL     OW25876   2.192   0.206   4.632  0.3653  0.0119 -0.3028
 4806SOL    HW125877   2.250   0.246   4.567 -1.0185  2.0577 -0.2860
 4806SOL    HW225878   2.254   0.189   4.703 -1.7449 -4.6229  0.4813
 4807SOL     OW25879   0.893   3.563   5.654  0.5086 -0.4919 -0.0894
 4807SOL    HW125880   0.916   3.544   5.745 -1.1884 -0.5932  0.3213
 4807SOL    HW225881   0.979   3.571   5.612  0.9121  2.2594  1.2520
 4808SOL     OW25882   4.051   0.524  13.867 -0.4129 -0.1712  0.0148
 4808SOL    HW125883   3.982   0.547  13.806 -1.7338  1.7677  2.2437
 4808SOL    HW225884   4.126   0.578  13.842 -1.8051  1.0551 -1.4875
 4809SOL     OW25885   2.118   0.677   2.890  0.2503  0.0691  0.4780
 4809SOL    HW125886   2.131   0.738   2.818  0.6005  1.9031  2.0900
 4809SOL    HW225887   2.173   0.601   2.868 -1.9214 -1.8541  1.6772
 4810SOL     OW25888   1.670   2.229  14.460  0.1196 -0.5070  0.0889
 4810SOL    HW125889   1.743   2.207  14.518 -0.0975 -0.7362  0.2719
 4810SOL    HW225890   1.613   2.157  14.484 -0.1828  0.1645  1.4019
 4811SOL     OW25891   2.237   3.386   1.645 -0.8808  0.3977  0.1579
 4811SOL    HW125892   2.271   3.324   1.710  0.9882 -0.6898 -1.8634
 4811SOL    HW225893   2.143   3.369   1.651 -0.9918  1.1205  0.4037
 4812SOL     OW25894   1.436   0.856   0.269  0.4164 -0.0113  0.0729
 4812SOL    HW125895   1.458   0.855   0.363 -0.2587 -0.8193  0.2196
 4812SOL    HW225896   1.361   0.914   0.259  0.4174  0.1022  0.6840
 4813SOL     OW25897   1.926   3.263   9.384  0.1888 -0.3070 -0.3126
 4813SOL    HW125898   1.907   3.248   9.477 -0.5922  1.6743 -0.1444
 4813SOL    HW225899   1.959   3.353   9.378 -2.2444  0.6760  0.7781
 4814SOL     OW25900   2.824   3.342   2.968  0.0641  0.1037 -0.4812
 4814SOL    HW125901   2.752   3.362   2.908 -1.2730 -0.6819  0.8719
 4814SOL    HW225902   2.878   3.422   2.971  1.0616 -0.6439  1.6537
 4815SOL     OW25903   4.187   1.065   6.502  0.1195  0.3786 -0.2324
 4815SOL    HW125904   4.155   1.135   6.445  0.0665  0.7079  0.2087
 4815SOL    HW225905   4.111   1.006   6.498 -1.6409  2.5784  1.0771
 4816SOL     OW25906   3.859   4.066   6.175  0.1543 -0.1829 -0.0106
 4816SOL    HW125907   3.795   4.095   6.240 -0.0341 -0.4247 -0.0900
 4816SOL    HW225908   3.834   4.127   6.105  0.2810 -0.2731 -0.1332
 4817SOL     OW25909   2.932   3.639   7.362  0.2979  0.6128 -0.4062
 4817SOL    HW125910   2.854   3.694   7.368 -0.8080 -1.0796  0.4527
 4817SOL    HW225911   2.904   3.554   7.394  2.1179 -0.4088 -1.5024
 4818SOL     OW25912   4.241   2.275   2.254  0.0382 -0.2204  0.1437
 4818SOL    HW125913   4.308   2.279   2.186  0.1952 -0.0322  0.3090
 4818SOL    HW225914   4.259   2.191   2.295  0.7392 -0.5329 -0.8042
 4819SOL     OW25915   0.523   1.624   6.279 -0.1113  0.0751  0.0262
 4819SOL    HW125916   0.534   1.595   6.188  1.8937 -2.1535  0.9719
 4819SOL    HW225917   0.546   1.717   6.269 -1.0081  0.1681 -1.2537
 4820SOL     OW25918   3.030   4.324   4.973 -0.5525 -0.1356  0.3107
 4820SOL    HW125919   3.062   4.382   4.904 -0.4604 -0.5817 -0.0226
 4820SOL    HW225920   2.940   4.358   4.974 -0.9794 -1.2740  0.6085
 4821SOL     OW25921   2.956   2.844   2.000 -0.2240  0.4182 -0.1749
 4821SOL    HW125922   2.908   2.777   2.048  1.6576 -0.6229  0.2653
 4821SOL    HW225923   3.048   2.818   2.000  0.3328  2.4275 -0.2138
 4822SOL     OW25924   3.069   4.333  16.965  0.1215 -0.2546  0.1415
 4822SOL    HW125925   3.135   4.265  16.964 -1.9967 -2.2865 -0.7454
 4822SOL    HW225926   3.123   4.403  16.929 -0.5884  0.8940  1.2754
 4823SOL     OW25927   1.302   0.952  14.125 -0.6375  0.1932  0.3743
 4823SOL    HW125928   1.239   1.021  14.106  2.1934  2.7799  0.3692
 4823SOL    HW225929   1.380   0.989  14.084 -0.3079 -1.3684 -0.4449
 4824SOL     OW25930   2.616   1.720   6.821 -0.1257  0.2518  0.0081
 4824SOL    HW125931   2.554   1.713   6.748  1.6601  0.0559 -1.4835
 4824SOL    HW225932   2.696   1.743   6.774 -0.1964  1.2130  0.3394
 4825SOL     OW25933   4.041   3.796   6.524 -0.0402  0.1758 -0.2085
 4825SOL    HW125934   3.984   3.850   6.468 -1.3262 -0.2396  0.6959
 4825SOL    HW225935   4.066   3.716   6.478 -2.1019  0.6151 -2.0784
 4826SOL     OW25936   3.949   2.222   7.476  0.0981 -0.3700  0.2796
 4826SOL    HW125937   3.998   2.144   7.453 -1.1024 -1.1571  0.3635
 4826SOL    HW225938   4.010   2.254   7.542  0.4650 -1.2492  0.3616
 4827SOL     OW25939   4.236   4.064   3.592  0.2158  0.3629  0.3454
 4827SOL    HW125940   4.155   4.026   3.624  0.1882 -1.4719 -1.8814
 4827SOL    HW225941   4.221   4.153   3.621  2.5508  0.1827  2.1373
 4828SOL     OW25942   1.679   4.233   1.228 -0.1663 -0.2728 -0.0223
 4828SOL    HW125943   1.761   4.254   1.183 -0.1419 -1.5041 -0.5429
 4828SOL    HW225944   1.639   4.152   1.196  0.3120 -0.6069  0.2100
 4829SOL     OW25945   0.965   1.862  12.122  0.4846 -0.0968  0.1851
 4829SOL    HW125946   0.875   1.889  12.103  0.6178  0.5849  0.5690
 4829SOL    HW225947   0.979   1.904  12.206 -1.3604 -0.3904  0.6351
 4830SOL     OW25948   4.522   1.791   1.217  0.0853  0.2742  0.1308
 4830SOL    HW125949   4.592   1.831   1.166  1.4059 -2.5085 -0.2509
 4830SOL    HW225950   4.461   1.752   1.154  1.0646 -0.3638 -0.4126
 4831SOL     OW25951   4.134   1.808   1.666 -0.0669 -0.4000  0.0096
 4831SOL    HW125952   4.046   1.833   1.640  0.0621  0.8304  0.7426
 4831SOL    HW225953   4.147   1.727   1.618 -3.5173 -3.1612  3.7053
 4832SOL     OW25954   3.305   1.173  17.104  0.4269 -0.3567  0.3672
 4832SOL    HW125955   3.322   1.258  17.144  0.0872  0.0185 -0.2834
 4832SOL    HW225956   3.239   1.136  17.164 -0.3749  1.2164  0.4404
 4833SOL     OW25957   2.494   0.033   6.610  0.0584 -0.1357 -0.2084
 4833SOL    HW125958   2.411   0.071   6.639  0.6412 -0.9743  2.6234
 4833SOL    HW225959   2.548   0.108   6.585 -2.1293  1.3143 -0.5478
 4834SOL     OW25960   2.244   2.730   2.177 -0.5527  0.0283  0.2155
 4834SOL    HW125961   2.246   2.701   2.086 -1.2181  2.4757 -0.5764
 4834SOL    HW225962   2.335   2.713   2.202  0.0604  1.7218 -0.9013
 4835SOL     OW25963   3.204   0.327   5.235 -0.2248 -0.0072  0.3900
 4835SOL    HW125964   3.225   0.246   5.189 -0.7092  1.4294 -2.3893
 4835SOL    HW225965   3.277   0.351   5.291 -0.1539  3.6715 -1.2967
 4836SOL     OW25966   2.058   2.166   1.891  0.0666  0.4058 -0.1170
 4836SOL    HW125967   2.100   2.188   1.808 -2.7396  0.0886 -1.6160
 4836SOL    HW225968   1.967   2.165   1.863  0.6019 -0.1357 -1.8495
 4837SOL     OW25969   1.137   0.228   5.780 -0.1841 -0.4216  0.0843
 4837SOL    HW125970   1.044   0.242   5.796 -0.4068 -0.5577 -1.1264
 4837SOL    HW225971   1.164   0.240   5.871  2.8346 -4.0612 -0.2929
 4838SOL     OW25972   4.242   2.783   8.926  0.2035  0.0483 -0.4292
 4838SOL    HW125973   4.311   2.718   8.937  0.1043 -0.2950 -1.9076
 4838SOL    HW225974   4.296   2.860   8.908 -0.5291  0.5423 -0.5242
 4839SOL     OW25975   0.457   2.826   3.306 -0.0640  0.1559 -0.1173
 4839SOL    HW125976   0.396   2.752   3.311  2.2418 -1.7650 -0.5556
 4839SOL    HW225977   0.501   2.834   3.390  1.1362  0.3095 -0.7682
 4840SOL     OW25978   0.508   4.130   3.071  0.7025  0.0072  0.0518
 4840SOL    HW125979   0.539   4.113   2.982 -2.9511 -0.4301 -1.1293
 4840SOL    HW225980   0.454   4.208   3.069 -0.9943 -1.1762 -0.0265
 4841SOL     OW25981   1.394   4.424   7.858 -0.9592 -0.5658  0.4209
 4841SOL    HW125982   1.478   4.413   7.813 -0.3585 -2.1517  1.9088
 4841SOL    HW225983   1.429   4.424   7.948 -0.2469  2.4739  0.1484
 4842SOL     OW25984   2.731   4.264   5.133 -0.3190  0.3318 -0.1854
 4842SOL    HW125985   2.688   4.327   5.190 -1.0883 -0.0794 -0.3204
 4842SOL    HW225986   2.665   4.197   5.116 -1.7803  1.5199  0.9588
 4843SOL     OW25987   3.563   4.177   3.648 -0.5138  0.2426  0.0405
 4843SOL    HW125988   3.516   4.256   3.674 -2.5637 -1.1961  0.6496
 4843SOL    HW225989   3.618   4.146   3.720 -1.1188 -1.8616 -0.3869
 4844SOL     OW25990   1.061   2.826   1.739 -0.1705 -0.0079  0.4709
 4844SOL    HW125991   1.138   2.882   1.730 -1.4824  1.6624 -0.4766
 4844SOL    HW225992   1.056   2.813   1.834  2.1941 -0.1401  0.5671
 4845SOL     OW25993   0.473   3.481  12.205 -0.6190 -0.3033 -0.1124
 4845SOL    HW125994   0.482   3.572  12.175  1.2143 -0.8478 -1.2077
 4845SOL    HW225995   0.455   3.429  12.127  1.0150  2.1328 -2.1115
 4846SOL     OW25996   0.458   1.685   5.712 -0.0742  0.4290 -0.4540
 4846SOL    HW125997   0.531   1.742   5.689  0.4494 -0.3318 -0.6672
 4846SOL    HW225998   0.488   1.609   5.661 -0.7235  0.6594 -1.1880
 4847SOL     OW25999   4.021   3.174  17.025 -0.9049  0.3030  0.1271
 4847SOL    HW126000   4.091   3.164  16.961  0.5294  1.3546  1.5496
 4847SOL    HW226001   4.035   3.100  17.084  0.1838  1.4725  1.3298
 4848SOL     OW26002   3.010   1.542  13.557 -0.5293 -0.2645  0.3806
 4848SOL    HW126003   2.973   1.477  13.497 -1.1408  1.3293 -1.0126
 4848SOL    HW226004   2.982   1.626  13.519 -2.1606  0.0315  2.2593
 4849SOL     OW26005   4.601   3.565   4.975 -0.8074  0.1212  0.6345
 4849SOL    HW126006   4.533   3.624   4.943  0.7233  0.2015 -2.4525
 4849SOL    HW226007   4.566   3.478   4.953  0.1533  0.3226 -1.6952
 4850SOL     OW26008   0.349   0.810   0.530  0.5929  0.0460 -0.2151
 4850SOL    HW126009   0.398   0.786   0.452  1.3574  1.8404 -0.2866
 4850SOL    HW226010   0.372   0.903   0.539 -0.4754  0.4544 -1.8242
 4851SOL     OW26011   2.029   3.775  12.824 -0.1633 -0.1982  0.3616
 4851SOL    HW126012   2.076   3.817  12.896 -2.4770  0.4483  1.4805
 4851SOL    HW226013   2.083   3.699  12.799 -1.3150 -0.5191 -1.2056
 4852SOL     OW26014   2.659   3.083   8.530  0.6401  0.0870  0.2975
 4852SOL    HW126015   2.676   3.056   8.620  0.5859 -0.4570  0.1406
 4852SOL    HW226016   2.665   3.179   8.537  0.1267  0.1065  0.4256
 4853SOL     OW26017   4.130   4.604   7.086 -0.4122 -0.3916 -0.3827
 4853SOL    HW126018   4.095   4.682   7.129 -1.5709 -2.1185  1.8373
 4853SOL    HW226019   4.212   4.594   7.134 -0.8177 -0.5822  0.2836
 4854SOL     OW26020   4.397   2.162   8.561  0.2051 -0.1372 -0.0344
 4854SOL    HW126021   4.324   2.146   8.621 -0.8181 -1.4541 -1.6463
 4854SOL    HW226022   4.455   2.218   8.614 -0.3637  0.8030 -0.4039
 4855SOL     OW26023   3.034   0.181  10.015 -0.4663  1.0317 -0.3279
 4855SOL    HW126024   3.055   0.092   9.988  1.7529  1.2484  0.6697
 4855SOL    HW226025   2.949   0.164  10.057  0.4575  0.7444  1.4030
 4856SOL     OW26026   2.867   2.496   4.304 -0.3162  0.0559 -0.0023
 4856SOL    HW126027   2.963   2.488   4.298 -0.0759  2.0090  1.5767
 4856SOL    HW226028   2.839   2.420   4.356  0.8123  0.3038  0.9681
 4857SOL     OW26029   3.058   3.000   7.030 -0.6298  0.0499 -0.0122
 4857SOL    HW126030   3.145   3.022   7.065 -0.3533  1.0299 -1.2940
 4857SOL    HW226031   3.007   3.060   7.084  2.0956  1.0457  1.4635
 4858SOL     OW26032   4.665   0.218   6.575 -0.0322 -0.3592  0.4296
 4858SOL    HW126033   4.665   0.313   6.562  0.1873 -0.1843  1.7765
 4858SOL    HW226034   0.031   0.198   6.550 -0.1095 -0.7246  0.4321
 4859SOL     OW26035   3.433   3.719   8.744  0.0601 -0.4377  0.3963
 4859SOL    HW126036   3.353   3.742   8.790 -0.4487 -0.0794 -0.6813
 4859SOL    HW226037   3.446   3.627   8.769  3.9893  1.0333  3.6860
 4860SOL     OW26038   4.048   4.615   1.319  0.3065  0.0764 -0.2012
 4860SOL    HW126039   4.103   4.613   1.398  0.6746 -1.1211 -0.4800
 4860SOL    HW226040   3.961   4.631   1.358 -0.1825 -3.6708  0.2879
 4861SOL     OW26041   1.264   1.237  14.355 -0.1578  0.2305  0.3541
 4861SOL    HW126042   1.343   1.189  14.380 -1.1490 -1.7051 -0.2564
 4861SOL    HW226043   1.283   1.259  14.264 -1.7152 -2.0529 -0.5176
 4862SOL     OW26044   2.057   1.337   8.035  0.0256 -0.3748  0.3408
 4862SOL    HW126045   2.098   1.415   8.072 -0.8095  0.3390 -0.2258
 4862SOL    HW226046   1.999   1.309   8.106  1.4100  1.6900  2.2719
 4863SOL     OW26047   1.171   0.971   0.200 -0.0076  0.0223  0.1154
 4863SOL    HW126048   1.206   0.885   0.174 -1.5135 -0.8207  0.8564
 4863SOL    HW226049   1.100   0.975   0.136  0.8404  0.3392 -0.8070
 4864SOL     OW26050   4.337   1.862   3.363  0.7663 -0.0167 -0.3304
 4864SOL    HW126051   4.391   1.870   3.283  1.2526 -0.2715 -0.0276
 4864SOL    HW226052   4.252   1.844   3.323  1.0777  0.7675 -1.3557
 4865SOL     OW26053   4.544   3.004  12.365 -0.0242  0.4724  0.7214
 4865SOL    HW126054   4.467   3.010  12.308 -1.1523 -0.2681  2.1607
 4865SOL    HW226055   4.593   2.938  12.317 -0.3432  0.4732  0.3960
 4866SOL     OW26056   4.073   3.552   9.418  0.1024  0.4191  0.1441
 4866SOL    HW126057   3.990   3.507   9.433  0.4790  0.0254  1.0619
 4866SOL    HW226058   4.137   3.491   9.456  2.0343  1.9800 -0.6253
 4867SOL     OW26059   3.045   3.126  10.786 -0.0649  0.3881 -0.3578
 4867SOL    HW126060   3.048   3.103  10.879  1.0106  0.1287 -0.4556
 4867SOL    HW226061   3.121   3.076  10.758  0.0675  0.0817  0.5332
 4868SOL     OW26062   0.190   0.103   1.348  0.2220  0.0284 -0.0242
 4868SOL    HW126063   0.111   0.070   1.391  0.4961  0.2727  0.6633
 4868SOL    HW226064   0.158   0.156   1.275  1.4522 -1.0652 -1.3572
 4869SOL     OW26065   2.431   3.725   8.381  0.5616 -0.3795  0.2710
 4869SOL    HW126066   2.491   3.678   8.323 -1.8162 -1.1220 -1.5581
 4869SOL    HW226067   2.497   3.755   8.444  2.1609 -1.1352 -1.0526
 4870SOL     OW26068   4.168   0.688  12.880  0.1070 -0.7270 -0.4498
 4870SOL    HW126069   4.125   0.725  12.803 -0.1032  1.9243  0.9707
 4870SOL    HW226070   4.247   0.642  12.850  1.3689  1.1756 -0.0603
 4871SOL     OW26071   1.646   3.010   8.205  0.3317  0.6554  0.1041
 4871SOL    HW126072   1.622   2.929   8.249  4.3412 -0.9050 -0.5619
 4871SOL    HW226073   1.741   2.995   8.213  0.5305  0.4636 -2.5902
 4872SOL     OW26074   4.298   0.898   4.750 -0.1814 -0.4847 -0.6947
 4872SOL    HW126075   4.235   0.935   4.812  0.0135 -1.7020  0.2190
 4872SOL    HW226076   4.326   0.978   4.706  1.3892 -0.2935  0.6686
 4873SOL     OW26077   2.741   4.655  17.486  0.0408 -0.1211 -0.0855
 4873SOL    HW126078   2.810   4.717  17.462 -0.3880  0.4270  0.0929
 4873SOL    HW226079   2.745   4.585  17.421 -0.4134  1.9633 -2.3948
 4874SOL     OW26080   2.150   3.022   7.592  0.4402 -0.5486 -0.3286
 4874SOL    HW126081   2.159   3.071   7.510 -1.8585  0.2839 -0.0983
 4874SOL    HW226082   2.058   2.996   7.591  0.6359 -1.2675  2.2298
 4875SOL     OW26083   3.311   3.340   9.508 -0.0228  0.2465  0.3390
 4875SOL    HW126084   3.398   3.336   9.547 -0.3837  0.1073  1.1394
 4875SOL    HW226085   3.278   3.428   9.524  0.3971  0.4227  0.2016
 4876SOL     OW26086   2.392   1.106  10.254  0.1472  0.2470  0.3533
 4876SOL    HW126087   2.383   1.197  10.228  1.0969  0.5632  1.1480
 4876SOL    HW226088   2.436   1.079  10.173 -1.1581 -1.5401  0.2295
 4877SOL     OW26089   2.372   2.888   7.649  0.3397 -0.2934 -0.1980
 4877SOL    HW126090   2.279   2.908   7.638  1.1628  3.5108 -0.2217
 4877SOL    HW226091   2.377   2.817   7.712 -2.2274  1.2423  1.6999
 4878SOL     OW26092   2.177   1.159   4.303  0.5730  0.3309 -0.0705
 4878SOL    HW126093   2.113   1.137   4.370 -0.3604 -1.0826 -1.4236
 4878SOL    HW226094   2.156   1.090   4.239 -0.0056  0.5824 -0.1494
 4879SOL     OW26095   0.064   3.209   0.602 -0.3397  0.2476  0.2003
 4879SOL    HW126096   0.058   3.299   0.635  1.1746  0.2825  0.4044
 4879SOL    HW226097   0.025   3.152   0.668  0.2160  0.2791  0.5562
 4880SOL     OW26098   0.707   2.909  16.918  0.5296 -0.0863  0.4879
 4880SOL    HW126099   0.800   2.912  16.895 -0.2486  0.3576 -2.5318
 4880SOL    HW226100   0.675   2.853  16.847  1.5975  0.6619 -0.5827
 4881SOL     OW26101   0.315   4.707   5.736 -0.1083 -0.3033  0.2421
 4881SOL    HW126102   0.265   0.045   5.681 -0.2496  0.6311  1.4340
 4881SOL    HW226103   0.267   4.627   5.715  0.4172 -0.8426  1.1300
 4882SOL     OW26104   3.656   3.661   7.041  0.2417  0.6339  0.6272
 4882SOL    HW126105   3.623   3.663   6.952 -0.8020 -1.2918  0.9566
 4882SOL    HW226106   3.748   3.640   7.024  0.0415  0.5324 -0.3083
 4883SOL     OW26107   0.273   2.247   4.781 -1.0524 -0.0600 -0.6630
 4883SOL    HW126108   0.265   2.326   4.728  1.6559  0.3586 -0.4547
 4883SOL    HW226109   0.331   2.267   4.854 -1.8805 -0.7199  0.1670
 4884SOL     OW26110   1.683   1.049   0.783 -0.0008  0.3786 -0.7546
 4884SOL    HW126111   1.685   0.960   0.749 -0.7470 -0.3979  1.2122
 4884SOL    HW226112   1.690   1.033   0.877  1.5267 -0.9347 -1.0996
 4885SOL     OW26113   0.545   4.210   4.231  0.1621 -0.4783 -0.3497
 4885SOL    HW126114   0.566   4.211   4.325  0.7097  2.6375 -0.4896
 4885SOL    HW226115   0.495   4.292   4.222 -0.3005 -0.8576 -1.1992
 4886SOL     OW26116   1.886   1.238   8.227 -0.4823  0.2039  0.2194
 4886SOL    HW126117   1.849   1.310   8.280  1.7519  2.0880 -0.8021
 4886SOL    HW226118   1.869   1.165   8.287 -5.1880  0.2025 -1.1175
 4887SOL     OW26119   2.110   0.179  11.029 -0.0472  0.2652  0.3721
 4887SOL    HW126120   2.119   0.179  11.124 -0.3808 -1.2587  0.4107
 4887SOL    HW226121   2.131   0.271  11.015  1.2783 -0.3075 -1.3543
 4888SOL     OW26122   0.632   2.915   1.891  0.2142  0.3945 -0.2641
 4888SOL    HW126123   0.693   2.883   1.825  0.8552 -0.5527  0.7785
 4888SOL    HW226124   0.548   2.918   1.846  0.2105 -0.1395 -0.2905
 4889SOL     OW26125   3.781   3.449   1.599  0.4240  0.6187 -0.0902
 4889SOL    HW126126   3.869   3.457   1.636  0.5063 -0.6729 -0.0304
 4889SOL    HW226127   3.739   3.370   1.632  1.0749  0.3689  0.1329
 4890SOL     OW26128   1.826   4.028   6.429  0.0728  0.3870 -0.3476
 4890SOL    HW126129   1.843   4.107   6.378  2.0179  0.0761 -0.1653
 4890SOL    HW226130   1.759   4.072   6.482 -0.2738 -3.0744  2.0641
 4891SOL     OW26131   4.123   1.723   0.589 -0.3200 -0.0575 -0.5295
 4891SOL    HW126132   4.179   1.652   0.556 -0.0703  0.4311 -1.1575
 4891SOL    HW226133   4.129   1.706   0.683 -0.1605  0.3704 -0.4605
 4892SOL     OW26134   1.209   1.530   7.570 -0.1388  0.0826 -0.1027
 4892SOL    HW126135   1.233   1.607   7.621  0.7444 -2.1201  2.7478
 4892SOL    HW226136   1.149   1.482   7.627  0.5202  1.3802  1.6900
 4893SOL     OW26137   4.689   0.469   5.282  0.7448 -0.0816 -0.2470
 4893SOL    HW126138   0.000   0.466   5.192 -2.8326 -2.2051 -1.5629
 4893SOL    HW226139   4.718   0.384   5.314  1.1026  0.3466  0.5470
 4894SOL     OW26140   0.053   2.778  12.529 -0.0710 -0.7535 -0.3629
 4894SOL    HW126141   0.093   2.809  12.447  0.8694 -1.9762 -0.3735
 4894SOL    HW226142   0.101   2.695  12.530  2.2058  0.5411 -0.7963
 4895SOL     OW26143   2.518   3.692   9.102 -0.8140 -0.1067  0.8812
 4895SOL    HW126144   2.546   3.604   9.129 -2.1675 -1.0233 -0.7225
 4895SOL    HW226145   2.430   3.676   9.069 -1.2820  1.0501  1.5851
 4896SOL     OW26146   1.560   0.130  16.738 -1.1258 -0.4605  0.0972
 4896SOL    HW126147   1.582   0.114  16.830 -0.0167 -0.9869 -0.2582
 4896SOL    HW226148   1.646   0.151  16.701 -0.5968 -1.3445  0.8292
 4897SOL     OW26149   2.179   4.379   8.494 -0.4156  0.0073  0.1251
 4897SOL    HW126150   2.095   4.350   8.459 -0.5999 -0.8700  1.3149
 4897SOL    HW226151   2.222   4.407   8.413 -1.6891 -1.9704 -1.2501
 4898SOL     OW26152   3.890   4.651   7.490 -0.2529 -0.2766  0.3940
 4898SOL    HW126153   3.794   4.655   7.491 -0.1007  3.4988 -0.4125
 4898SOL    HW226154   3.920   4.697   7.569  1.2316  0.4070 -0.5639
 4899SOL     OW26155   1.456   0.805  10.872 -0.4556 -0.6249 -0.1891
 4899SOL    HW126156   1.444   0.769  10.960 -0.5785  2.6784  1.1482
 4899SOL    HW226157   1.382   0.763  10.828  0.2331 -2.6809  0.6466
 4900SOL     OW26158   1.056   1.834   5.082 -0.0675 -0.1816 -0.0586
 4900SOL    HW126159   1.150   1.845   5.073 -0.2651  0.6397 -1.0185
 4900SOL    HW226160   1.049   1.752   5.033  1.2149 -0.3854  0.1088
 4901SOL     OW26161   4.493   0.404   4.235  0.6251 -0.0885 -0.8349
 4901SOL    HW126162   4.583   0.412   4.266 -1.0912  2.0723  3.5782
 4901SOL    HW226163   4.455   0.483   4.274  1.6915 -0.4232  0.8727
 4902SOL     OW26164   3.361   4.323   2.723 -0.0795 -0.4396  0.2764
 4902SOL    HW126165   3.283   4.324   2.779  0.1932  0.9225  0.6270
 4902SOL    HW226166   3.410   4.401   2.750 -0.1972 -0.0863 -0.5109
 4903SOL     OW26167   3.471   1.172   1.236 -0.1115 -0.2339 -0.5833
 4903SOL    HW126168   3.441   1.239   1.175 -1.4171 -1.3892 -1.1914
 4903SOL    HW226169   3.480   1.217   1.320 -0.1329  0.0546 -0.7333
 4904SOL     OW26170   2.083   3.760   9.318  0.0561  0.1571  0.5400
 4904SOL    HW126171   2.076   3.670   9.349 -0.0777 -0.3388 -0.9029
 4904SOL    HW226172   2.117   3.737   9.231  1.3033 -3.7565  2.0792
 4905SOL     OW26173   1.995   0.269   8.527  0.4378 -0.0450 -0.6363
 4905SOL    HW126174   1.941   0.348   8.524  3.0962  1.8152  0.2023
 4905SOL    HW226175   1.962   0.235   8.611  2.4749  0.9876  0.5932
 4906SOL     OW26176   4.270   1.629   1.960 -0.1670  0.2467 -1.0000
 4906SOL    HW126177   4.356   1.650   1.997 -0.9629 -0.2293  1.1068
 4906SOL    HW226178   4.237   1.718   1.975 -0.7779 -0.0890 -0.3664
 4907SOL     OW26179   2.320   1.689   8.853 -0.2245  0.4227  0.1467
 4907SOL    HW126180   2.321   1.758   8.787 -0.6880 -0.6670 -0.9980
 4907SOL    HW226181   2.238   1.644   8.834  1.3388 -2.6089  0.6188
 4908SOL     OW26182   1.488   3.538   2.745 -0.6759  0.0872 -0.2953
 4908SOL    HW126183   1.543   3.540   2.667  1.1012 -0.0112  0.9489
 4908SOL    HW226184   1.420   3.479   2.714  0.2741 -0.6806 -0.9293
 4909SOL     OW26185   1.391   1.641   2.561  0.2863 -0.1662 -0.7032
 4909SOL    HW126186   1.327   1.571   2.549  0.2145 -0.3491  0.6700
 4909SOL    HW226187   1.385   1.644   2.657  0.6652  1.7960 -0.7390
 4910SOL     OW26188   4.497   3.517   8.198 -0.1036  0.0924  0.3928
 4910SOL    HW126189   4.427   3.564   8.152  0.0007  0.0616  0.2031
 4910SOL    HW226190   4.445   3.518   8.278 -2.9167  0.2207 -1.4388
 4911SOL     OW26191   2.906   0.442   8.587 -0.1785 -0.1308 -0.4282
 4911SOL    HW126192   2.979   0.394   8.626  0.7659 -0.1816 -2.2500
 4911SOL    HW226193   2.935   0.448   8.495  1.2752 -3.0541 -0.1452
 4912SOL     OW26194   0.439   3.030  15.645 -0.2868  0.2016 -0.1757
 4912SOL    HW126195   0.393   3.110  15.618 -1.5589 -0.6439 -0.5090
 4912SOL    HW226196   0.483   3.020  15.561 -0.6318 -0.8315 -0.2382
 4913SOL     OW26197   2.861   0.259   0.916 -0.0701 -0.4454  0.8947
 4913SOL    HW126198   2.834   0.213   0.995 -1.3565 -1.0259  0.1055
 4913SOL    HW226199   2.791   0.236   0.856 -1.6818  0.5862  2.4005
 4914SOL     OW26200   3.397   4.181   7.448 -0.4140  0.2892  0.2303
 4914SOL    HW126201   3.310   4.193   7.485 -0.8532 -0.3587 -0.5900
 4914SOL    HW226202   3.452   4.233   7.507  0.5198  0.3902 -0.7253
 4915SOL     OW26203   0.044   2.328   9.107 -0.0311  0.2074  0.6127
 4915SOL    HW126204   4.698   2.266   9.129  0.0703  0.5077  1.7814
 4915SOL    HW226205   0.125   2.288   9.139  0.1183  1.0883  1.3442
 4916SOL     OW26206   4.457   3.150   6.963 -0.1852  0.0742  0.6363
 4916SOL    HW126207   4.453   3.242   6.990 -1.8367  0.2265 -0.1075
 4916SOL    HW226208   4.531   3.153   6.902 -0.1802  1.3039  0.6945
 4917SOL     OW26209   3.436   3.122   9.043  0.8246  0.0058 -0.2333
 4917SOL    HW126210   3.446   3.103   9.137  0.6621 -2.1000 -0.6502
 4917SOL    HW226211   3.528   3.134   9.018  0.5496  3.1492  0.2423
 4918SOL     OW26212   0.969   4.399   7.115 -0.2882  0.1476 -0.6100
 4918SOL    HW126213   0.891   4.434   7.072 -0.1986 -0.0799 -0.9573
 4918SOL    HW226214   1.026   4.476   7.127  3.0064 -2.1612 -1.3909
 4919SOL     OW26215   2.023   1.410   2.299  0.2116  0.2436  0.4282
 4919SOL    HW126216   2.086   1.355   2.347 -1.3614  0.6716  2.9822
 4919SOL    HW226217   1.991   1.343   2.239 -1.0820 -0.4768  1.9036
 4920SOL     OW26218   4.424   1.940   9.822 -0.3204 -0.2688 -0.4819
 4920SOL    HW126219   4.339   1.979   9.799  1.0780  3.3171  0.3881
 4920SOL    HW226220   4.446   2.002   9.892 -2.4318 -1.1383  0.9502
 4921SOL     OW26221   2.293   1.754   8.132  0.5825 -0.0383  0.4518
 4921SOL    HW126222   2.387   1.739   8.137  1.1320  2.7442 -1.5111
 4921SOL    HW226223   2.303   1.805   8.052  1.1703  0.5842  0.9177
 4922SOL     OW26224   0.878   3.447  12.080  0.3723 -0.2645 -0.5691
 4922SOL    HW126225   0.941   3.388  12.121  0.2344  0.0478  0.1027
 4922SOL    HW226226   0.876   3.398  11.998 -0.6029 -0.8212 -0.2109
 4923SOL     OW26227   2.465   3.611   1.201 -0.1501  0.1846  0.1933
 4923SOL    HW126228   2.495   3.527   1.235  2.8592  1.0640 -0.2858
 4923SOL    HW226229   2.483   3.681   1.263  0.6395  0.0603  0.1054
 4924SOL     OW26230   0.399   1.970   1.297  0.0090  0.1912 -0.5309
 4924SOL    HW126231   0.452   2.035   1.252  0.7930 -0.7769 -1.0048
 4924SOL    HW226232   0.451   1.960   1.377 -1.5055 -3.3249  0.0660
 4925SOL     OW26233   2.825   2.277   7.338  0.1448  0.6097  0.9894
 4925SOL    HW126234   2.867   2.356   7.372 -0.0449  0.7560  0.8825
 4925SOL    HW226235   2.871   2.257   7.257 -2.8019 -0.5071 -0.4204
 4926SOL     OW26236   2.634   2.149   0.982  0.1425 -0.0360  0.4736
 4926SOL    HW126237   2.652   2.157   0.889  0.9848 -0.5237  0.5953
 4926SOL    HW226238   2.587   2.065   0.977  0.4827 -0.2499  0.8277
 4927SOL     OW26239   3.629   2.706   9.336 -0.1007 -0.2037  0.6544
 4927SOL    HW126240   3.541   2.698   9.371 -0.6993 -0.2943 -0.8477
 4927SOL    HW226241   3.673   2.624   9.362  0.5236 -0.6068 -1.6117
 4928SOL     OW26242   1.346   2.878   7.070 -0.4006  0.9844 -0.1849
 4928SOL    HW126243   1.402   2.877   6.992  2.0364 -0.8769  1.5750
 4928SOL    HW226244   1.405   2.915   7.136 -1.6492 -0.5876  1.7863
 4929SOL     OW26245   1.477   2.351  12.732 -0.0892  0.0232  0.1622
 4929SOL    HW126246   1.525   2.282  12.778  1.7026  2.0514  1.2962
 4929SOL    HW226247   1.437   2.384  12.813 -0.6261 -0.9223  0.2884
 4930SOL     OW26248   3.734   4.274  13.928  0.3265  0.3350  0.3228
 4930SOL    HW126249   3.723   4.181  13.910  0.3678  0.0303  1.9091
 4930SOL    HW226250   3.765   4.277  14.018 -1.3025  0.7332  0.8799
 4931SOL     OW26251   4.034   0.848  14.154 -0.2111  0.8119  0.0200
 4931SOL    HW126252   4.077   0.873  14.236  0.7434 -1.9137  0.3616
 4931SOL    HW226253   4.113   0.799  14.129 -1.1328 -0.6589  0.0247
 4932SOL     OW26254   0.567   3.851   8.837 -0.5410 -0.0734  0.3235
 4932SOL    HW126255   0.509   3.792   8.886 -0.4455 -0.5005 -0.0807
 4932SOL    HW226256   0.579   3.800   8.757  1.1885 -0.6442  0.9684
 4933SOL     OW26257   1.984   1.356   1.521  0.7188  0.0909  0.2228
 4933SOL    HW126258   2.001   1.450   1.521 -0.6821  0.3339 -0.1390
 4933SOL    HW226259   1.919   1.345   1.451  0.3213 -1.0683  0.7630
 4934SOL     OW26260   3.839   1.395   8.093  0.5212 -0.3280  0.4066
 4934SOL    HW126261   3.920   1.407   8.044  1.4624  1.8505  2.5241
 4934SOL    HW226262   3.850   1.450   8.171 -2.4029 -0.4843  0.9251
 4935SOL     OW26263   3.636   0.848   1.630 -0.5917  0.3538  0.0014
 4935SOL    HW126264   3.563   0.787   1.618 -0.1698 -0.2199  0.3765
 4935SOL    HW226265   3.635   0.889   1.544  1.6742  0.2106 -0.0779
 4936SOL     OW26266   1.554   1.728   3.641 -0.5505  0.0241 -0.2788
 4936SOL    HW126267   1.638   1.719   3.597  0.3142  0.7058  1.2085
 4936SOL    HW226268   1.537   1.648   3.691  0.8890 -1.1363 -1.6577
 4937SOL     OW26269   0.194   1.130   1.633 -0.1199  0.1731  0.0118
 4937SOL    HW126270   0.281   1.092   1.624 -1.7097 -3.0894 -1.7919
 4937SOL    HW226271   0.204   1.226   1.634  0.1555  0.1534 -0.6067
 4938SOL     OW26272   1.542   4.034  14.612 -0.3246 -0.4095  0.3986
 4938SOL    HW126273   1.526   4.075  14.527 -1.0394  0.1074  0.7734
 4938SOL    HW226274   1.542   3.945  14.577 -1.0121  0.2622 -1.3066
 4939SOL     OW26275   0.841   2.279   6.193  0.3345 -0.2369 -0.3266
 4939SOL    HW126276   0.885   2.222   6.255 -0.3089  0.6006  0.8993
 4939SOL    HW226277   0.766   2.311   6.242  1.0019 -0.8036  1.0499
 4940SOL     OW26278   3.734   1.456   0.994  0.0289  0.4423  0.2352
 4940SOL    HW126279   3.672   1.481   1.062 -0.6097 -1.3641  0.3222
 4940SOL    HW226280   3.819   1.478   1.032  0.4259  1.9110 -1.4971
 4941SOL     OW26281   3.106   2.851   4.042 -0.0723  0.1628  0.8503
 4941SOL    HW126282   3.089   2.862   4.136  0.5545 -0.2592  1.0108
 4941SOL    HW226283   3.114   2.944   4.021 -1.4712 -0.1196 -0.9381
 4942SOL     OW26284   2.161   2.739   1.125 -0.3804 -0.1941 -0.2397
 4942SOL    HW126285   2.207   2.822   1.134 -2.0229  0.4552  2.1483
 4942SOL    HW226286   2.076   2.763   1.089 -0.6743 -0.4870  0.2628
 4943SOL     OW26287   1.266   3.194   9.784 -0.1495 -0.5494 -0.3009
 4943SOL    HW126288   1.191   3.192   9.725  0.8118 -0.4507 -1.5237
 4943SOL    HW226289   1.293   3.284   9.766  0.3074 -0.6413 -0.0645
 4944SOL     OW26290   1.780   2.865  13.657  0.5619  0.4104 -0.3132
 4944SOL    HW126291   1.831   2.931  13.610 -1.0680  1.7504 -0.1916
 4944SOL    HW226292   1.701   2.910  13.686 -0.9535 -1.0982 -2.0511
 4945SOL     OW26293   3.210   4.217   6.711  0.0507 -0.0753 -0.2021
 4945SOL    HW126294   3.157   4.251   6.639 -0.4315 -1.9407 -0.7281
 4945SOL    HW226295   3.299   4.219   6.675  0.3091 -0.4401  0.4123
 4946SOL     OW26296   2.582   3.703  17.011 -0.2468  0.0994 -0.1655
 4946SOL    HW126297   2.603   3.639  17.080  1.0542 -0.1423 -0.7960
 4946SOL    HW226298   2.637   3.775  17.041 -0.2058 -0.6963  1.7004
 4947SOL     OW26299   1.977   2.502   5.020  0.8406  0.1957 -0.3036
 4947SOL    HW126300   1.940   2.494   4.932 -2.0754 -2.0354  1.1659
 4947SOL    HW226301   1.945   2.590   5.039  1.9170  0.0145  2.2787
 4948SOL     OW26302   4.405   1.442  17.681  0.2900 -0.5658  0.3566
 4948SOL    HW126303   4.320   1.463  17.642  1.1183  2.1951  0.0779
 4948SOL    HW226304   4.411   1.347  17.677 -1.1593 -0.6440 -0.2018
 4949SOL     OW26305   2.023   2.306   8.114  0.4808  0.3644  0.2185
 4949SOL    HW126306   2.059   2.253   8.043  1.6259  1.1247  0.2279
 4949SOL    HW226307   2.026   2.242   8.184 -1.0952  0.8574  0.7315
 4950SOL     OW26308   0.947   0.864   3.728 -0.2452 -0.0765  0.5021
 4950SOL    HW126309   0.964   0.902   3.642 -0.2394  1.9190  1.3915
 4950SOL    HW226310   0.951   0.943   3.781 -1.1663  0.8048 -0.7566
 4951SOL     OW26311   3.759   4.174   7.034 -0.1774  0.2564  0.2830
 4951SOL    HW126312   3.768   4.083   7.061 -3.5439  0.3123  1.4908
 4951SOL    HW226313   3.783   4.222   7.113  2.7274 -0.1864 -0.3276
 4952SOL     OW26314   1.796   3.828   5.506  0.4981 -0.3353 -0.4133
 4952SOL    HW126315   1.762   3.748   5.544  1.4994  0.4755  2.1862
 4952SOL    HW226316   1.796   3.793   5.417 -0.2820 -0.7551 -0.2409
 4953SOL     OW26317   2.298   0.990   5.494  0.1349  0.6019  0.2130
 4953SOL    HW126318   2.335   0.902   5.491 -1.5152 -0.0990  0.1737
 4953SOL    HW226319   2.367   1.037   5.541 -0.7199  2.3432 -0.2627
 4954SOL     OW26320   3.574   2.385   5.844 -0.0007 -0.3253  0.0812
 4954SOL    HW126321   3.545   2.396   5.753  1.0170  0.1424 -0.1986
 4954SOL    HW226322   3.532   2.303   5.870 -0.3813 -0.6450 -1.5291
 4955SOL     OW26323   0.056   2.050   8.553 -0.6028 -0.1994 -0.3657
 4955SOL    HW126324   0.000   2.048   8.475 -1.4214  0.5547  0.1928
 4955SOL    HW226325   0.059   1.956   8.570 -1.1662 -0.5724 -2.3337
 4956SOL     OW26326   0.154   2.019   2.230 -0.4301  0.0086  0.5136
 4956SOL    HW126327   0.083   1.963   2.197 -0.9598  1.4963 -0.8235
 4956SOL    HW226328   0.195   1.975   2.305  1.3140  1.4516  0.4152
 4957SOL     OW26329   1.806   3.414   4.877 -0.0425 -0.2227  0.2599
 4957SOL    HW126330   1.831   3.480   4.942 -0.3750  0.5941 -0.4262
 4957SOL    HW226331   1.878   3.358   4.851  1.5359  1.9150 -0.0158
 4958SOL     OW26332   1.605   3.289   8.191  0.3357 -0.3764  0.3561
 4958SOL    HW126333   1.628   3.199   8.169  2.4989 -0.5007  3.0667
 4958SOL    HW226334   1.683   3.310   8.243  0.2215  1.1950 -0.0855
 4959SOL     OW26335   4.314   3.049   7.944  0.5073 -0.0252 -0.3085
 4959SOL    HW126336   4.361   3.094   8.014 -1.1132 -0.0122  0.7805
 4959SOL    HW226337   4.373   2.975   7.931 -0.5259 -0.9776  0.4367
 4960SOL     OW26338   3.204   1.622  16.872 -0.2905  0.0534 -0.3902
 4960SOL    HW126339   3.181   1.569  16.796 -0.2244 -0.2836 -0.1752
 4960SOL    HW226340   3.228   1.695  16.815 -0.4029 -0.8957 -1.6546
 4961SOL     OW26341   3.230   4.538   8.340 -0.4209 -0.1877  0.2304
 4961SOL    HW126342   3.321   4.524   8.369 -0.4217 -1.4717 -0.3971
 4961SOL    HW226343   3.217   4.623   8.382  0.3237  0.2053 -0.3194
 4962SOL     OW26344   1.997   3.069   4.955 -0.1683  0.3331 -0.5339
 4962SOL    HW126345   1.954   3.075   4.869  0.1606 -3.2162 -0.9256
 4962SOL    HW226346   1.950   2.995   4.994  0.5466  0.3462  0.3561
 4963SOL     OW26347   3.179   1.506  16.458  0.2739  0.1783 -0.2871
 4963SOL    HW126348   3.117   1.493  16.530  1.8177 -3.1688  0.3940
 4963SOL    HW226349   3.260   1.474  16.497 -0.8863 -1.4868  0.7426
 4964SOL     OW26350   4.414   4.289   7.968  0.1076 -0.0795  0.2913
 4964SOL    HW126351   4.342   4.345   7.998  0.0555  1.2129 -2.2693
 4964SOL    HW226352   4.447   4.348   7.901 -2.2138  0.8286 -0.0473
 4965SOL     OW26353   1.309   0.652   3.913  0.1198  0.3356 -0.0013
 4965SOL    HW126354   1.386   0.702   3.887 -0.6623  2.0675  0.9840
 4965SOL    HW226355   1.258   0.643   3.832  1.6912 -0.1326 -0.9265
 4966SOL     OW26356   4.557   0.401   8.949  0.3811  0.3396 -0.1866
 4966SOL    HW126357   4.638   0.425   8.905  0.7472  0.8645  0.7590
 4966SOL    HW226358   4.563   0.455   9.028  2.1728  0.9821 -0.7651
 4967SOL     OW26359   1.755   4.532   4.061 -0.3118  0.6010 -0.5081
 4967SOL    HW126360   1.836   4.583   4.058 -0.9848  1.6665 -0.6650
 4967SOL    HW226361   1.780   4.440   4.063  0.5772  0.7436 -4.6299
 4968SOL     OW26362   1.457   2.552   6.496  0.0280  0.1306 -0.1694
 4968SOL    HW126363   1.376   2.588   6.531  1.6143  2.6285  0.9528
 4968SOL    HW226364   1.436   2.459   6.501 -0.7103  0.2270 -1.5566
 4969SOL     OW26365   2.680   2.254   8.385  0.2158  0.6300  0.1456
 4969SOL    HW126366   2.764   2.208   8.388  0.3683  0.8553 -0.7708
 4969SOL    HW226367   2.652   2.216   8.302  1.3246 -1.0620  0.5235
 4970SOL     OW26368   3.923   3.034  14.943 -0.0691 -0.1210  0.0290
 4970SOL    HW126369   3.951   2.944  14.963  2.3795 -0.0245 -2.9259
 4970SOL    HW226370   3.975   3.089  15.002 -0.8448  0.6956 -0.0564
 4971SOL     OW26371   3.517   1.361   1.431  0.1856 -0.3136 -0.1047
 4971SOL    HW126372   3.599   1.366   1.480  0.7039  2.6216 -1.2877
 4971SOL    HW226373   3.462   1.407   1.493  0.6080  1.2028 -0.8592
 4972SOL     OW26374   3.290   4.240   2.242  0.0395  0.1258  0.3734
 4972SOL    HW126375   3.370   4.240   2.294  0.8733  0.4368 -0.9031
 4972SOL    HW226376   3.321   4.254   2.153  0.3861  0.2293  0.5109
 4973SOL     OW26377   3.655   4.466   5.013  1.1443  0.1395  0.6139
 4973SOL    HW126378   3.622   4.406   5.080 -1.1345  0.9272  0.1827
 4973SOL    HW226379   3.600   4.543   5.027  0.0338 -0.4031 -0.8785
 4974SOL     OW26380   3.363   3.868   0.106  0.0413 -0.1320 -0.3588
 4974SOL    HW126381   3.413   3.949   0.107 -2.4746  1.4400 -1.4880
 4974SOL    HW226382   3.283   3.883   0.156  1.0285  2.2564  0.4895
 4975SOL     OW26383   3.077   4.310   8.609 -0.2020 -0.0399  0.3482
 4975SOL    HW126384   3.088   4.216   8.625  0.4438 -0.2835 -1.6361
 4975SOL    HW226385   3.056   4.306   8.516  0.0781 -1.4855  0.3438
 4976SOL     OW26386   1.775   3.627   8.084 -0.2272  0.1093  0.1735
 4976SOL    HW126387   1.737   3.664   8.163 -1.5764  1.1029 -0.9442
 4976SOL    HW226388   1.864   3.608   8.115 -0.6506 -0.5366  0.9766
 4977SOL     OW26389   3.486   1.770  16.690  0.6859 -0.6136 -0.0227
 4977SOL    HW126390   3.471   1.733  16.602 -0.1469 -1.1948  0.3586
 4977SOL    HW226391   3.555   1.835  16.679  0.0094  0.1537  0.2401
 4978SOL     OW26392   3.634   1.784   6.180  0.1173  0.3646 -0.1095
 4978SOL    HW126393   3.714   1.836   6.189 -0.5023  1.0222  1.6862
 4978SOL    HW226394   3.581   1.861   6.157 -0.1451 -0.2449 -1.5088
 4979SOL     OW26395   1.535   4.447   6.116 -0.4531  0.1671  0.4399
 4979SOL    HW126396   1.546   4.446   6.021  0.3720 -0.8676  0.5532
 4979SOL    HW226397   1.536   4.542   6.131 -0.9449  0.5756 -2.0583
 4980SOL     OW26398   3.540   0.097  10.475  0.1461  0.4686 -0.3983
 4980SOL    HW126399   3.619   0.145  10.449 -0.8885  0.5814 -3.3818
 4980SOL    HW226400   3.543   0.018  10.420  0.9739  0.0008  0.3092
 4981SOL     OW26401   3.931   0.450  14.676 -0.0141 -0.0887  0.1098
 4981SOL    HW126402   3.980   0.520  14.633  0.1940  0.3578  1.0691
 4981SOL    HW226403   3.847   0.465  14.631  0.4560  1.0942 -0.3653
 4982SOL     OW26404   2.696   3.572   2.150 -0.2741 -0.3745 -0.2694
 4982SOL    HW126405   2.709   3.497   2.091  1.7200 -0.4688  0.3033
 4982SOL    HW226406   2.682   3.634   2.078  1.8987  1.1824  0.6486
 4983SOL     OW26407   1.069   3.216   6.034 -0.3177 -0.0048  0.8891
 4983SOL    HW126408   1.122   3.250   5.961 -0.4171  0.0591  0.8461
 4983SOL    HW226409   1.033   3.298   6.065 -1.0904 -0.0841  0.1943
 4984SOL     OW26410   0.394   2.163  12.521 -0.0877  0.0680 -0.3173
 4984SOL    HW126411   0.330   2.216  12.472 -0.8315  0.8668  1.5449
 4984SOL    HW226412   0.339   2.086  12.505 -1.5562  0.8334  1.0236
 4985SOL     OW26413   4.619   0.478   6.564 -0.3076 -0.2404  0.1831
 4985SOL    HW126414   4.649   0.550   6.619  0.3469 -0.1224 -0.3231
 4985SOL    HW226415   4.526   0.492   6.581 -0.0972  1.4960 -0.0325
 4986SOL     OW26416   0.625   4.178   5.833 -0.0831 -0.2142  0.0140
 4986SOL    HW126417   0.551   4.186   5.893 -0.9170 -1.7697 -0.8222
 4986SOL    HW226418   0.656   4.268   5.831 -1.4056  0.2008 -0.8922
 4987SOL     OW26419   2.044   3.066  14.091 -0.0835  0.1041  0.5702
 4987SOL    HW126420   2.110   3.029  14.149  0.0640 -0.8664 -0.2055
 4987SOL    HW226421   2.066   3.159  14.092  1.0575 -0.1948  2.8623
 4988SOL     OW26422   0.248   3.538  12.407  0.3507 -0.2348 -0.4923
 4988SOL    HW126423   0.313   3.551  12.339  0.1254 -0.4841 -0.7573
 4988SOL    HW226424   0.220   3.628  12.421  0.3459 -0.0678 -1.5887
 4989SOL     OW26425   2.291   2.104   8.504  0.2605  0.3225 -0.0768
 4989SOL    HW126426   2.314   2.196   8.502  0.4097  0.2742 -0.6426
 4989SOL    HW226427   2.325   2.059   8.427 -0.6365 -0.2134 -0.1686
 4990SOL     OW26428   1.585   4.195   6.447 -0.0493 -0.2099  0.0288
 4990SOL    HW126429   1.567   4.241   6.529 -1.8617  0.6305 -0.8361
 4990SOL    HW226430   1.517   4.235   6.392 -0.2916 -0.6151  0.0338
 4991SOL     OW26431   0.955   0.393   2.515 -0.4054 -0.4482  0.2803
 4991SOL    HW126432   1.012   0.337   2.463 -3.6079 -1.1025 -2.5205
 4991SOL    HW226433   0.874   0.344   2.525 -1.1713  0.8327  0.4061
 4992SOL     OW26434   1.200   3.342  15.758  0.2234  0.0588  0.3853
 4992SOL    HW126435   1.110   3.373  15.763 -0.0229 -0.4051 -1.2464
 4992SOL    HW226436   1.240   3.410  15.813  0.2373 -0.3956  0.9346
 4993SOL     OW26437   4.112   1.428   8.922  0.0020 -0.2336 -0.2873
 4993SOL    HW126438   4.127   1.422   8.828  0.0323 -1.4387 -0.1992
 4993SOL    HW226439   4.171   1.492   8.963 -2.1556  2.5049 -1.4283
 4994SOL     OW26440   3.050   4.491   4.323 -0.2794 -0.1211  0.0002
 4994SOL    HW126441   3.116   4.502   4.254 -0.8433  1.7419 -0.2384
 4994SOL    HW226442   2.979   4.451   4.273 -0.0641  1.3068 -1.4592
 4995SOL     OW26443   3.132   4.427   6.428 -0.2964 -0.5710 -0.0225
 4995SOL    HW126444   3.170   4.342   6.406  0.6526 -0.2261  0.2702
 4995SOL    HW226445   3.061   4.435   6.365  0.9822  0.2939 -1.3453
 4996SOL     OW26446   0.481   4.065   6.311 -0.0031  0.1783  0.3535
 4996SOL    HW126447   0.466   3.971   6.298 -1.0443  0.2577  1.0017
 4996SOL    HW226448   0.534   4.089   6.235 -2.2408 -2.4133 -2.0484
 4997SOL     OW26449   4.237   1.653   4.846 -0.1339  0.1620  0.1390
 4997SOL    HW126450   4.261   1.651   4.939 -1.7774  0.6056  0.5614
 4997SOL    HW226451   4.208   1.743   4.833 -0.4588  0.0016 -0.2568
 4998SOL     OW26452   3.900   0.596   2.061 -0.1206 -0.6671  0.0808
 4998SOL    HW126453   3.907   0.691   2.075  2.1450 -0.8014 -0.2094
 4998SOL    HW226454   3.822   0.581   2.114  0.4424 -0.1736  1.0555
 4999SOL     OW26455   4.557   0.573  16.443  0.2116  0.6773 -0.5254
 4999SOL    HW126456   4.463   0.581  16.460  0.4876 -0.0353  1.3943
 4999SOL    HW226457   4.568   0.482  16.416  3.3949  1.3812 -1.5436
 5000SOL     OW26458   4.376   1.864   7.322  0.8763  0.4685  0.0904
 5000SOL    HW126459   4.374   1.773   7.350 -1.3894  0.3804 -0.2967
 5000SOL    HW226460   4.329   1.853   7.239  0.1984 -0.7350  0.6339
 5001SOL     OW26461   3.452   4.704   6.106  0.3307 -0.3254 -0.0140
 5001SOL    HW126462   3.457   4.662   6.192  3.5199  0.9700  0.4381
 5001SOL    HW226463   3.361   4.699   6.078  0.3120  1.2453 -0.2349
 5002SOL     OW26464   2.704   4.115  12.812  0.4331 -0.2004  0.1044
 5002SOL    HW126465   2.611   4.123  12.835  0.1817 -0.3937 -0.8525
 5002SOL    HW226466   2.697   4.177  12.740  4.9478  0.7006  0.4737
 5003SOL     OW26467   3.394   2.368   4.593  0.0160 -0.4839  0.0085
 5003SOL    HW126468   3.449   2.373   4.515 -1.0639  1.2007 -0.6346
 5003SOL    HW226469   3.312   2.387   4.547  0.7407  0.5166 -0.8757
 5004SOL     OW26470   0.669   4.342   5.500 -0.0833 -0.0338 -0.1203
 5004SOL    HW126471   0.625   4.339   5.585  1.2268  2.1675  0.6271
 5004SOL    HW226472   0.757   4.372   5.521 -0.3516 -0.6393  1.9315
 5005SOL     OW26473   2.433   4.331   6.662  0.0395 -0.3417  0.1844
 5005SOL    HW126474   2.346   4.297   6.642  0.1419 -0.6948  0.3485
 5005SOL    HW226475   2.464   4.337   6.572  2.8624 -1.1636  1.0792
 5006SOL     OW26476   0.252   3.041   7.493 -0.7509  0.1674 -0.3023
 5006SOL    HW126477   0.345   3.025   7.510 -0.6948  2.1118  1.3124
 5006SOL    HW226478   0.243   3.005   7.405 -0.4185 -0.5856 -0.0239
 5007SOL     OW26479   4.617   2.925   3.432  0.2376  0.1761  0.0177
 5007SOL    HW126480   4.662   2.982   3.494 -0.5412  0.6166  0.1864
 5007SOL    HW226481   4.680   2.917   3.360 -2.1198  1.0877 -2.1704
 5008SOL     OW26482   4.090   0.507   5.460  0.7730 -0.2833  0.1934
 5008SOL    HW126483   4.173   0.477   5.422  0.8766  1.0513 -0.6363
 5008SOL    HW226484   4.080   0.443   5.531  2.4211  0.5817  1.2190
 5009SOL     OW26485   2.256   1.237   0.689 -0.2137  0.0839 -0.3907
 5009SOL    HW126486   2.241   1.168   0.624 -0.4068  1.7328 -2.0887
 5009SOL    HW226487   2.342   1.206   0.719 -0.1182  0.2624 -0.4862
 5010SOL     OW26488   3.118   3.703   4.499  0.6789 -0.1181  0.7063
 5010SOL    HW126489   3.159   3.698   4.585 -1.2977  3.2795  1.8443
 5010SOL    HW226490   3.093   3.610   4.494  0.9986 -0.1294 -0.6534
 5011SOL     OW26491   2.265   3.343  14.120  0.4316  0.6497 -0.1642
 5011SOL    HW126492   2.182   3.383  14.146 -0.6210  0.0325 -2.5750
 5011SOL    HW226493   2.263   3.351  14.025 -0.7005  4.0269  0.1338
 5012SOL     OW26494   2.871   0.640  11.079 -0.1373 -0.3971  0.0624
 5012SOL    HW126495   2.946   0.616  11.134  0.7442  1.2610 -0.4300
 5012SOL    HW226496   2.912   0.631  10.993  1.7003  1.1540  0.7841
 5013SOL     OW26497   1.570   2.794   2.729  0.6208 -0.1980  0.1046
 5013SOL    HW126498   1.634   2.862   2.750 -1.6469  1.6314  1.1123
 5013SOL    HW226499   1.509   2.801   2.802  0.4692  0.4684 -0.0874
 5014SOL     OW26500   1.561   2.847   8.444  0.0444 -0.1357  0.0859
 5014SOL    HW126501   1.481   2.898   8.455  0.1154 -0.3709  1.6764
 5014SOL    HW226502   1.517   2.762   8.437 -0.2898 -0.3008  3.8894
 5015SOL     OW26503   3.541   1.389   9.589  0.0095  0.2390  0.1330
 5015SOL    HW126504   3.584   1.466   9.626 -2.0880  0.8234  1.3085
 5015SOL    HW226505   3.449   1.395   9.613  0.2328 -3.0731  1.9170
 5016SOL     OW26506   0.694   2.199  13.735 -0.0366  0.0642 -0.0948
 5016SOL    HW126507   0.777   2.188  13.689  0.7913 -1.0809  1.6555
 5016SOL    HW226508   0.712   2.133  13.803  1.2208  1.5430  1.0092
 5017SOL     OW26509   3.468   2.823   1.870 -0.3276 -0.0280 -0.7581
 5017SOL    HW126510   3.508   2.749   1.916  2.3820  1.4960 -0.6696
 5017SOL    HW226511   3.540   2.885   1.857 -1.5196  1.2538 -1.1209
 5018SOL     OW26512   1.013   1.331   4.326 -0.0547 -0.4205  0.3125
 5018SOL    HW126513   0.995   1.241   4.298 -0.0083 -1.2786  2.9879
 5018SOL    HW226514   0.954   1.342   4.401  1.2693 -1.9552  1.5900
 5019SOL     OW26515   0.845   3.279  13.336  0.4771  0.3607 -0.1396
 5019SOL    HW126516   0.863   3.316  13.249 -0.0248 -1.2170 -0.9106
 5019SOL    HW226517   0.846   3.361  13.385  1.7173 -0.6695  1.5661
 5020SOL     OW26518   1.775   1.979   8.449 -0.5480  0.0055 -0.7576
 5020SOL    HW126519   1.697   2.034   8.457  1.3124  2.5843 -0.3557
 5020SOL    HW226520   1.729   1.906   8.407 -1.6522 -0.0342  0.5098
 5021SOL     OW26521   0.117   4.618  10.706 -0.5198 -1.1402 -0.3461
 5021SOL    HW126522   0.031   4.591  10.738  0.9654 -3.7850  1.3793
 5021SOL    HW226523   0.101   4.597  10.614 -0.6838  0.1293 -0.6104
 5022SOL     OW26524   3.993   0.497   8.068 -0.1292 -0.2058 -0.1299
 5022SOL    HW126525   3.964   0.556   7.998 -2.5463 -1.6370 -0.3163
 5022SOL    HW226526   4.014   0.551   8.144 -0.6991  0.3285 -0.3542
 5023SOL     OW26527   2.222   1.369   5.654 -0.4585  0.0535  0.7404
 5023SOL    HW126528   2.162   1.443   5.663 -1.2118 -0.5698  0.8745
 5023SOL    HW226529   2.243   1.378   5.747  1.8318 -3.3857  0.5564
 5024SOL     OW26530   1.320   2.988   8.457  0.1393 -0.3707 -0.3123
 5024SOL    HW126531   1.307   3.076   8.494  0.8231 -1.0850  1.6730
 5024SOL    HW226532   1.300   3.002   8.365  1.7909 -3.4880 -1.1467
 5025SOL     OW26533   0.599   0.198  15.326  0.7229  0.1752 -0.1060
 5025SOL    HW126534   0.558   0.222  15.409  0.4734  0.8618 -0.4352
 5025SOL    HW226535   0.518   0.187  15.278  0.1329 -1.2536  1.1998
 5026SOL     OW26536   2.059   1.734   7.320  0.2761 -0.5022  0.7506
 5026SOL    HW126537   2.137   1.693   7.357  1.7139 -0.3048 -2.0631
 5026SOL    HW226538   2.015   1.741   7.405  0.4280 -1.0800  0.8807
 5027SOL     OW26539   1.970   3.050   9.199  1.1162 -0.3038  0.8013
 5027SOL    HW126540   1.942   3.116   9.262  1.9339  0.9337 -0.1120
 5027SOL    HW226541   1.955   2.970   9.249 -1.2615 -2.4922 -3.3243
 5028SOL     OW26542   0.507   3.351   4.159  0.1366  0.3674 -0.3524
 5028SOL    HW126543   0.523   3.384   4.070 -1.7277 -0.2316 -0.9110
 5028SOL    HW226544   0.414   3.329   4.161 -0.8769  4.6947  0.4632
 5029SOL     OW26545   3.559   2.419   4.366  0.0852 -0.2520  0.3301
 5029SOL    HW126546   3.629   2.353   4.368 -0.1444 -0.5376 -2.3065
 5029SOL    HW226547   3.578   2.468   4.286 -1.8598  0.1887  0.1544
 5030SOL     OW26548   1.873   1.658  13.853  0.2206 -0.0293 -0.8657
 5030SOL    HW126549   1.921   1.647  13.771 -0.2673 -1.4152 -0.9637
 5030SOL    HW226550   1.793   1.703  13.825 -0.3728  0.1412  1.0440
 5031SOL     OW26551   0.724   3.087   6.697 -0.1937 -0.4194  0.1332
 5031SOL    HW126552   0.732   3.181   6.680  1.2744 -0.1466  2.4287
 5031SOL    HW226553   0.725   3.090   6.792  0.3054 -1.8831  0.1607
 5032SOL     OW26554   4.201   0.888  14.342  0.0757 -0.2020  0.4463
 5032SOL    HW126555   4.275   0.834  14.370  0.1943  0.1341  0.7934
 5032SOL    HW226556   4.248   0.969  14.322 -0.8536  0.5229  1.1582
 5033SOL     OW26557   0.583   4.002   3.814  0.0503  0.6054 -0.0475
 5033SOL    HW126558   0.651   4.054   3.770 -1.6244  3.2557  0.4762
 5033SOL    HW226559   0.509   4.062   3.802  0.1961  0.4660 -1.6422
 5034SOL     OW26560   4.110   1.051  10.409  0.5275 -0.2460 -0.0650
 5034SOL    HW126561   4.097   1.007  10.325 -0.6221  0.2248 -0.1450
 5034SOL    HW226562   4.198   1.086  10.398  0.6052 -0.3486  0.2569
 5035SOL     OW26563   4.628   1.886  12.096 -0.1265 -0.2941  0.2481
 5035SOL    HW126564   4.603   1.796  12.117 -2.6284  0.6134  1.0988
 5035SOL    HW226565   4.543   1.919  12.066 -0.0867 -0.4377 -0.0193
 5036SOL     OW26566   2.987   0.567   5.242  0.5365 -0.3437 -0.3405
 5036SOL    HW126567   2.929   0.642   5.224 -0.2797 -1.0016 -0.4615
 5036SOL    HW226568   2.980   0.514   5.162  0.8697 -0.0121 -0.5909
 5037SOL     OW26569   0.408   4.253   9.059  0.0431  0.4088 -0.2156
 5037SOL    HW126570   0.405   4.241   8.964 -0.0985  2.0348 -0.4112
 5037SOL    HW226571   0.492   4.207   9.068 -1.1775 -1.8040 -0.0835
 5038SOL     OW26572   1.834   0.331   4.001 -0.4129 -0.0086 -0.2713
 5038SOL    HW126573   1.892   0.328   4.077  0.9795  1.9854 -1.2647
 5038SOL    HW226574   1.772   0.396   4.034  1.9125  2.1242 -0.1236
 5039SOL     OW26575   1.935   0.018  15.511 -0.3274  0.0844  0.0453
 5039SOL    HW126576   1.974   4.717  15.595  0.1733  0.8031  0.0180
 5039SOL    HW226577   1.971   4.674  15.453  2.5537  2.0873 -0.4711
 5040SOL     OW26578   1.993   2.734   9.024 -0.2595  0.5657  0.1705
 5040SOL    HW126579   1.921   2.791   9.051 -0.1524  1.1572 -0.8132
 5040SOL    HW226580   1.971   2.731   8.931 -0.3194  1.0591  0.1712
 5041SOL     OW26581   3.564   3.576  10.436 -0.5030  0.0741  0.4554
 5041SOL    HW126582   3.561   3.556  10.529 -2.0394 -1.5119  0.0630
 5041SOL    HW226583   3.631   3.519  10.397 -0.5548  0.3379 -0.0243
 5042SOL     OW26584   0.140   4.542   4.102 -0.4409  0.1377 -0.2401
 5042SOL    HW126585   0.095   4.475   4.153 -1.8908  1.3080  0.0284
 5042SOL    HW226586   0.110   4.620   4.148 -0.6394 -0.0597 -0.0390
 5043SOL     OW26587   2.909   4.457   6.281  0.8004  0.2943  0.7105
 5043SOL    HW126588   2.944   4.524   6.221 -1.7577  0.3138 -0.7671
 5043SOL    HW226589   2.846   4.513   6.326 -1.0093 -0.0583 -1.3890
 5044SOL     OW26590   0.139   1.288   8.405  0.4532  0.0397 -0.1842
 5044SOL    HW126591   0.165   1.365   8.355  3.0791 -0.9367 -0.2902
 5044SOL    HW226592   0.058   1.318   8.448  1.7150  0.6298  1.7895
 5045SOL     OW26593   2.805   3.901   7.601 -0.4028  0.0966 -0.9029
 5045SOL    HW126594   2.846   3.986   7.590  1.4267 -0.4495  1.5681
 5045SOL    HW226595   2.810   3.894   7.697  1.4427  1.6686 -0.8877
 5046SOL     OW26596   2.971   0.715  12.873 -0.1160 -0.4243  0.8840
 5046SOL    HW126597   2.919   0.639  12.900  0.1452 -0.6322  0.7964
 5046SOL    HW226598   3.016   0.677  12.798  1.1522  1.0285  0.8975
 5047SOL     OW26599   0.234   0.093   0.918  0.2742 -0.0468  0.1831
 5047SOL    HW126600   0.310   0.082   0.974  0.3249  2.1407  0.5190
 5047SOL    HW226601   0.232   0.186   0.896 -2.1342  0.3481  2.0542
 5048SOL     OW26602   0.892   3.465   4.191 -0.1010  0.5569 -0.0399
 5048SOL    HW126603   0.898   3.369   4.195  0.3873  0.6141  0.5186
 5048SOL    HW226604   0.818   3.477   4.251 -0.3007 -0.2424 -0.1152
 5049SOL     OW26605   2.241   1.106   1.868 -0.5526 -0.1554 -0.0815
 5049SOL    HW126606   2.292   1.081   1.791 -1.5950  0.7768 -1.0790
 5049SOL    HW226607   2.185   1.163   1.815  0.4634 -0.3801 -1.4029
 5050SOL     OW26608   3.348   4.278   9.135  0.3867 -0.7771 -0.0586
 5050SOL    HW126609   3.271   4.305   9.185  1.1928  0.6301  0.3967
 5050SOL    HW226610   3.406   4.234   9.198  0.7485 -1.4451 -0.8505
 5051SOL     OW26611   1.718   2.108   2.385 -0.1268  0.1087 -0.6431
 5051SOL    HW126612   1.736   2.133   2.294 -0.0642  0.1064 -0.6312
 5051SOL    HW226613   1.787   2.046   2.406  0.2850  0.6281 -0.4459
 5052SOL     OW26614   3.487   1.519  12.521  0.4552  0.4534 -0.4487
 5052SOL    HW126615   3.457   1.608  12.543  4.5205  1.6581  0.2656
 5052SOL    HW226616   3.413   1.469  12.553  2.6535 -1.0530  2.2903
 5053SOL     OW26617   0.113   0.997  17.626  0.1977  0.3929  0.5396
 5053SOL    HW126618   0.135   1.035   0.015 -1.7986  2.0938  0.3053
 5053SOL    HW226619   0.146   0.912  17.655  0.5017  0.6206  0.8537
 5054SOL     OW26620   4.139   0.324   1.930 -0.1507  0.0956 -0.4755
 5054SOL    HW126621   4.219   0.355   1.887  0.2086  2.3387  1.7654
 5054SOL    HW226622   4.177   0.318   2.018 -1.3687 -0.8668 -0.0120
 5055SOL     OW26623   2.797   4.387   3.825  0.0733  0.1405  0.6766
 5055SOL    HW126624   2.846   4.328   3.769 -0.9416  0.5916 -0.6818
 5055SOL    HW226625   2.856   4.385   3.900  0.3396 -1.1546  0.4301
 5056SOL     OW26626   3.738   2.827   9.761 -0.5462  0.8137  0.4357
 5056SOL    HW126627   3.827   2.798   9.743 -0.4189  0.5472  1.4573
 5056SOL    HW226628   3.682   2.750   9.753 -0.1539  0.5517  0.2210
 5057SOL     OW26629   0.172   1.066   1.991  0.2308 -0.1356  0.0088
 5057SOL    HW126630   0.095   1.049   2.046  1.6809 -1.6363  1.5750
 5057SOL    HW226631   0.136   1.033   1.908 -1.9697 -0.3284  1.0523
 5058SOL     OW26632   3.536   3.692   5.486  0.0153 -0.2874 -0.2701
 5058SOL    HW126633   3.516   3.779   5.449 -0.5896  0.1729  1.1457
 5058SOL    HW226634   3.495   3.706   5.571  2.3182 -0.7489  0.9101
 5059SOL     OW26635   3.305   4.711   3.517  0.0544  0.5874 -0.3539
 5059SOL    HW126636   3.374   4.664   3.471 -1.0514  0.7573 -2.1748
 5059SOL    HW226637   3.340   0.077   3.515 -2.7596  1.6898 -0.7296
 5060SOL     OW26638   1.081   1.428   4.052  0.8430 -0.0896  0.5944
 5060SOL    HW126639   1.004   1.473   4.016  1.5163 -0.1089 -0.8728
 5060SOL    HW226640   1.045   1.417   4.140 -1.5853  0.2155 -0.3511
 5061SOL     OW26641   0.024   1.213   2.370  0.3065  0.4968 -0.0844
 5061SOL    HW126642   0.074   1.280   2.322 -0.2141 -1.1669 -2.9477
 5061SOL    HW226643   0.007   1.143   2.308  2.3933 -0.0836 -0.0008
 5062SOL     OW26644   2.126   3.000  13.200  0.7353  0.5477 -0.3326
 5062SOL    HW126645   2.198   3.048  13.240 -0.7530  0.9360  1.8207
 5062SOL    HW226646   2.053   3.061  13.201 -0.8945 -1.4365  1.5076
 5063SOL     OW26647   2.501   1.182  12.213 -0.0921  0.6420  0.3769
 5063SOL    HW126648   2.449   1.103  12.199  0.5284  0.0773  1.2144
 5063SOL    HW226649   2.521   1.222  12.128  0.5161  0.2316  0.3236
 5064SOL     OW26650   4.535   1.508   7.633  0.0004 -0.1010 -0.0331
 5064SOL    HW126651   4.506   1.418   7.620  2.8976 -1.0768  0.2854
 5064SOL    HW226652   4.603   1.496   7.699  0.0896 -0.4594 -0.1925
 5065SOL     OW26653   4.019   2.657   4.893  0.8011 -0.0651 -0.0455
 5065SOL    HW126654   3.974   2.738   4.869 -2.6904 -2.4024 -1.2960
 5065SOL    HW226655   3.949   2.592   4.888  2.3560 -1.5248 -2.4822
 5066SOL     OW26656   0.787   0.880  15.315 -0.0992 -0.1539 -0.6246
 5066SOL    HW126657   0.826   0.837  15.239  1.9219 -0.7213  0.7401
 5066SOL    HW226658   0.819   0.970  15.314 -1.3406  0.2953 -0.7603
 5067SOL     OW26659   3.752   2.263   8.763 -0.5356 -0.1627  0.4371
 5067SOL    HW126660   3.700   2.228   8.690 -2.2328  1.1855  1.0104
 5067SOL    HW226661   3.831   2.209   8.759 -0.6592 -0.3585  0.6438
 5068SOL     OW26662   2.288   1.659   6.951 -0.0354  0.2120  0.7626
 5068SOL    HW126663   2.317   1.576   6.912  2.0271  1.4455 -0.3043
 5068SOL    HW226664   2.343   1.652   7.028  2.1505 -2.3504 -0.9997
 5069SOL     OW26665   3.225   3.651   3.053 -0.0660  0.3171 -0.4397
 5069SOL    HW126666   3.274   3.622   3.130  0.0318 -0.7913 -0.9127
 5069SOL    HW226667   3.243   3.745   3.052 -1.4765  0.5606 -1.5704
 5070SOL     OW26668   3.670   1.668   8.471 -0.5085 -0.1058  0.2085
 5070SOL    HW126669   3.641   1.759   8.461  1.1055  0.3354 -0.4672
 5070SOL    HW226670   3.664   1.657   8.566  0.3405 -1.7661  0.0664
 5071SOL     OW26671   2.577   2.417   8.014 -0.2829 -0.6464 -0.5194
 5071SOL    HW126672   2.523   2.430   7.936  1.3710  0.8149 -1.4310
 5071SOL    HW226673   2.522   2.345   8.045  1.2143 -0.3776  2.7591
 5072SOL     OW26674   3.536   1.322   8.229 -0.0198  0.2009 -0.2100
 5072SOL    HW126675   3.565   1.257   8.164  0.5782  1.1631 -0.9003
 5072SOL    HW226676   3.532   1.403   8.179  1.0336  0.5065  0.1982
 5073SOL     OW26677   2.735   1.414   6.020  0.2336 -0.1300  0.2830
 5073SOL    HW126678   2.806   1.424   5.957  1.3578 -1.9285  1.2535
 5073SOL    HW226679   2.787   1.401   6.100 -0.2432  1.3955  0.8402
 5074SOL     OW26680   0.892   1.907   0.540 -0.2011 -0.4324 -0.2231
 5074SOL    HW126681   0.908   1.813   0.537  1.8075 -0.1259  0.5308
 5074SOL    HW226682   0.818   1.915   0.479 -0.4062  1.8910  0.3025
 5075SOL     OW26683   2.965   3.740  15.280 -1.0392  0.1222  0.0693
 5075SOL    HW126684   2.888   3.738  15.336 -0.9988 -0.4442  0.1082
 5075SOL    HW226685   3.030   3.785  15.334 -1.3869  0.4413  0.2213
 5076SOL     OW26686   2.794   3.478  10.340 -0.1624  0.0453 -0.1619
 5076SOL    HW126687   2.772   3.531  10.417 -2.1592 -0.9023 -0.0862
 5076SOL    HW226688   2.758   3.392  10.361 -0.4735  0.3566  0.5839
 5077SOL     OW26689   0.905   3.985   4.617 -0.0531  0.5305 -0.0828
 5077SOL    HW126690   0.915   4.052   4.684 -1.2690 -0.5162  1.1289
 5077SOL    HW226691   0.991   3.943   4.625 -1.1283 -1.7304 -0.4853
 5078SOL     OW26692   4.100   1.930  15.222 -0.0957 -0.2178  0.3619
 5078SOL    HW126693   4.152   1.998  15.266 -1.4226  0.5837  0.7166
 5078SOL    HW226694   4.013   1.969  15.227 -1.8763 -4.3204  1.1087
 5079SOL     OW26695   1.504   0.745   7.254 -0.9677 -0.2083  0.1690
 5079SOL    HW126696   1.543   0.808   7.314  1.9505 -3.3109  1.5427
 5079SOL    HW226697   1.475   0.683   7.321  0.0051 -0.3485  0.4605
 5080SOL     OW26698   0.149   0.431   3.011 -0.1266  0.1049  0.3509
 5080SOL    HW126699   0.184   0.347   3.041  1.7820  0.1850 -1.6148
 5080SOL    HW226700   0.097   0.401   2.937 -1.7552  1.6441  0.8546
 5081SOL     OW26701   1.254   2.921   9.081  0.0594 -0.4655 -0.1559
 5081SOL    HW126702   1.350   2.920   9.083  0.0233 -0.0960  1.8490
 5081SOL    HW226703   1.253   2.923   8.985 -0.1516 -2.5923 -0.1922
 5082SOL     OW26704   4.630   1.104   7.504  0.1481 -0.1780  0.0444
 5082SOL    HW126705   0.002   1.097   7.498 -0.0296 -2.2081 -0.3728
 5082SOL    HW226706   4.612   1.012   7.524  1.4700 -0.6370 -0.8745
 5083SOL     OW26707   4.159   3.001   0.364 -0.1033 -0.2705  0.1983
 5083SOL    HW126708   4.088   3.065   0.373 -0.7038 -1.0906  1.2245
 5083SOL    HW226709   4.157   2.989   0.269 -0.1508  1.4089 -0.0185
 5084SOL     OW26710   0.041   3.389   3.678 -0.1949  0.2193  0.7935
 5084SOL    HW126711   0.039   3.446   3.755  1.8204 -0.7567  1.5764
 5084SOL    HW226712   0.048   3.456   3.610  0.5097 -1.7489 -1.0506
 5085SOL     OW26713   1.603   0.277   5.563  0.2113 -0.1730 -0.2088
 5085SOL    HW126714   1.517   0.313   5.540  0.6300 -0.4592 -2.2328
 5085SOL    HW226715   1.615   0.284   5.658 -0.3158  0.4299 -0.1949
 5086SOL     OW26716   2.199   4.438  12.592  0.6630  0.7640 -0.3068
 5086SOL    HW126717   2.266   4.400  12.650 -0.6865  0.4225  1.0078
 5086SOL    HW226718   2.170   4.511  12.646  2.1169  0.9904  0.1843
 5087SOL     OW26719   3.654   2.450   3.426  0.2867 -0.1144  0.4195
 5087SOL    HW126720   3.566   2.425   3.397  0.8759 -0.2588 -1.2318
 5087SOL    HW226721   3.687   2.500   3.351  0.1770  2.8648  2.3496
 5088SOL     OW26722   3.232   2.901   2.317 -0.1698 -0.2762 -0.8483
 5088SOL    HW126723   3.327   2.903   2.307  0.1490  1.0948  2.5574
 5088SOL    HW226724   3.214   2.843   2.243 -1.5176  1.6073 -2.0086
 5089SOL     OW26725   0.888   3.008   7.233  0.9366  0.3006  0.6844
 5089SOL    HW126726   0.857   3.027   7.321  0.8399  2.5138  0.1722
 5089SOL    HW226727   0.979   2.983   7.247  0.8672 -0.7282 -0.6282
 5090SOL     OW26728   1.245   2.158   0.803  0.7137  0.0029 -1.0367
 5090SOL    HW126729   1.222   2.199   0.886  1.0058 -0.5306 -0.6921
 5090SOL    HW226730   1.164   2.108   0.786  0.7492 -0.3577 -0.1698
 5091SOL     OW26731   0.293   3.149  16.766 -0.0059 -0.1407 -0.3753
 5091SOL    HW126732   0.284   3.119  16.857 -0.2596 -0.1348 -0.3979
 5091SOL    HW226733   0.259   3.082  16.707 -0.7653 -0.9715  1.0022
 5092SOL     OW26734   3.330   2.716   3.016 -0.1101  0.1115 -0.0858
 5092SOL    HW126735   3.386   2.750   3.085 -1.3768  1.7852  0.1169
 5092SOL    HW226736   3.241   2.735   3.046 -0.2535 -1.4685  0.5268
 5093SOL     OW26737   0.820   3.253  11.513  0.1590 -0.0879  0.5250
 5093SOL    HW126738   0.904   3.266  11.557  0.0155  1.7074  0.2503
 5093SOL    HW226739   0.813   3.157  11.518  1.8113 -0.1704  1.0706
 5094SOL     OW26740   0.930   2.602   7.263 -0.0483 -0.3433 -0.0002
 5094SOL    HW126741   0.839   2.613   7.236  0.1212 -1.1238 -0.8818
 5094SOL    HW226742   0.968   2.687   7.240  1.8164 -1.5408 -1.2673
 5095SOL     OW26743   1.249   0.536  13.368  0.3075  0.6778  0.7657
 5095SOL    HW126744   1.293   0.455  13.395 -1.0306 -0.7066 -1.2248
 5095SOL    HW226745   1.303   0.599  13.416  0.1519  1.2294  0.2096
 5096SOL     OW26746   0.059   0.044   2.594 -0.0730  0.2858  0.1349
 5096SOL    HW126747   0.152   0.067   2.597  0.3928 -1.9338  2.5683
 5096SOL    HW226748   0.070   4.673   2.610 -2.5914 -0.3587 -1.8877
 5097SOL     OW26749   1.723   2.287   1.339 -0.6890  1.0803 -0.3027
 5097SOL    HW126750   1.685   2.212   1.293 -3.3140  1.9208  0.4746
 5097SOL    HW226751   1.650   2.349   1.344 -1.3033  0.1638  2.2088
 5098SOL     OW26752   2.695   1.747   4.992 -0.1003  0.2560 -0.7629
 5098SOL    HW126753   2.776   1.702   4.969 -0.2302 -0.5110  0.2943
 5098SOL    HW226754   2.631   1.726   4.924 -1.6412  0.8885  0.4805
 5099SOL     OW26755   1.866   0.119   3.852 -0.1131 -0.2964  0.5951
 5099SOL    HW126756   1.798   0.128   3.785  1.2620 -0.8912 -0.8867
 5099SOL    HW226757   1.838   0.190   3.910 -2.4763 -0.6522 -0.0950
 5100SOL     OW26758   1.851   2.092  12.737 -0.0041  0.3503 -0.3325
 5100SOL    HW126759   1.938   2.112  12.703  0.1569  1.8340  0.9932
 5100SOL    HW226760   1.861   2.015  12.792  1.5741  1.8927  1.5216
 5101SOL     OW26761   1.065   0.018  11.023  0.0928  0.4351 -0.2671
 5101SOL    HW126762   1.046   4.656  11.062  0.9669  0.1403 -0.4891
 5101SOL    HW226763   1.118   0.051  11.096  0.1029 -0.4328  0.1262
 5102SOL     OW26764   1.233   2.287   8.929  0.1766  0.0489 -0.2680
 5102SOL    HW126765   1.145   2.324   8.924  0.5029  0.9146  0.3705
 5102SOL    HW226766   1.246   2.326   9.015  0.9380 -0.2258 -0.2596
 5103SOL     OW26767   1.268   0.003  11.529 -0.2287 -0.2988 -0.4318
 5103SOL    HW126768   1.248   4.636  11.504 -2.4577  0.6684 -2.1877
 5103SOL    HW226769   1.363   0.009  11.528 -0.0715 -2.0599  2.0070
 5104SOL     OW26770   3.739   4.528   8.019  0.1665 -0.3294  0.3939
 5104SOL    HW126771   3.789   4.588   8.075  1.9346 -0.7316 -0.7606
 5104SOL    HW226772   3.745   4.581   7.940 -0.5988  1.0061  1.2361
 5105SOL     OW26773   1.627   1.470  13.022 -0.8024  0.0316 -0.2525
 5105SOL    HW126774   1.532   1.467  13.013 -0.7601 -2.2242  0.1351
 5105SOL    HW226775   1.647   1.396  12.965 -1.1915 -1.1262  1.1362
 5106SOL     OW26776   3.913   1.698   8.909 -0.0508 -0.9078  0.4600
 5106SOL    HW126777   3.924   1.727   9.000 -1.5950  0.2637  0.2759
 5106SOL    HW226778   3.963   1.616   8.911 -0.6709 -1.3305 -1.8062
 5107SOL     OW26779   3.339   2.292   8.078 -0.6892 -0.2730 -0.3054
 5107SOL    HW126780   3.365   2.340   7.999  0.0226  1.4962  1.0176
 5107SOL    HW226781   3.252   2.260   8.054 -1.2701 -1.4308  3.3233
 5108SOL     OW26782   3.631   1.948  13.632  0.3589 -0.0531  0.1355
 5108SOL    HW126783   3.645   1.931  13.539  0.7154  0.5290  0.0809
 5108SOL    HW226784   3.593   1.864  13.656 -0.2144  1.1509  3.4191
 5109SOL     OW26785   0.240   0.808   3.894  0.9898 -0.8207 -0.1686
 5109SOL    HW126786   0.222   0.812   3.988 -3.2609  0.5756 -1.0258
 5109SOL    HW226787   0.329   0.774   3.905  0.3994 -2.0795  0.8326
 5110SOL     OW26788   1.413   0.937   6.671 -0.1905 -0.0090  0.8042
 5110SOL    HW126789   1.374   1.024   6.671 -0.0604  0.0478 -0.3095
 5110SOL    HW226790   1.466   0.928   6.592 -0.3154  1.3191  0.5702
 5111SOL     OW26791   0.539   2.861   6.884 -0.2471 -0.2866  0.2288
 5111SOL    HW126792   0.513   2.906   6.965  0.8702 -0.8179  0.8852
 5111SOL    HW226793   0.475   2.790   6.872 -0.3107 -0.0104 -1.0940
 5112SOL     OW26794   0.917   2.786  11.075  0.0463  0.0095 -0.4443
 5112SOL    HW126795   0.892   2.861  11.130 -1.7296  1.2752 -2.9795
 5112SOL    HW226796   1.012   2.794  11.073  0.0808 -0.1028  0.8139
 5113SOL     OW26797   4.154   4.403   1.958 -0.0773  0.1658  0.5414
 5113SOL    HW126798   4.234   4.361   1.927 -0.7232  0.2154 -1.1859
 5113SOL    HW226799   4.091   4.332   1.947  0.0802  0.1493 -0.2876
 5114SOL     OW26800   0.746   1.359   2.607 -0.0087  0.4681  0.6153
 5114SOL    HW126801   0.766   1.273   2.645  1.1024  0.4978  0.1133
 5114SOL    HW226802   0.664   1.390   2.644 -0.4789 -0.5084  0.3835
 5115SOL     OW26803   3.684   2.203   1.396 -0.5151  0.3534  0.4632
 5115SOL    HW126804   3.778   2.226   1.395 -0.0653 -1.6617 -2.3193
 5115SOL    HW226805   3.641   2.288   1.383 -0.9907 -0.5046 -3.6439
 5116SOL     OW26806   0.742   0.037   7.038 -0.0813  0.4854 -0.2798
 5116SOL    HW126807   0.806   0.038   7.109 -0.7049  2.3515  0.2561
 5116SOL    HW226808   0.748   4.671   7.004 -0.3840 -0.5056  2.2992
 5117SOL     OW26809   4.160   3.552   9.146 -0.2470 -0.6930 -0.1903
 5117SOL    HW126810   4.137   3.555   9.239  1.4524 -0.6812  0.2292
 5117SOL    HW226811   4.092   3.610   9.111 -0.3525  1.7320  4.0488
 5118SOL     OW26812   3.705   4.069   2.570 -0.3868 -0.2410  0.4534
 5118SOL    HW126813   3.707   4.153   2.615 -0.7958  0.2822 -0.4929
 5118SOL    HW226814   3.792   4.047   2.538 -0.3609 -3.2615  2.5804
 5119SOL     OW26815   1.531   0.920   8.281 -0.4818 -0.1700  0.3810
 5119SOL    HW126816   1.602   0.882   8.229 -0.4485  2.4013 -1.4886
 5119SOL    HW226817   1.538   0.865   8.359  1.1070 -0.3484  0.1125
 5120SOL     OW26818   2.783   3.536   3.399  0.1872  0.0596 -0.3711
 5120SOL    HW126819   2.718   3.565   3.334 -0.8592 -1.6302 -0.0574
 5120SOL    HW226820   2.790   3.443   3.377  1.1663 -0.1828  0.9545
 5121SOL     OW26821   1.887   3.356   7.690 -0.0878  0.8314  0.4734
 5121SOL    HW126822   1.802   3.324   7.722 -0.4937  2.2777  0.8509
 5121SOL    HW226823   1.886   3.323   7.600  2.6281  0.1976  0.6886
 5122SOL     OW26824   2.748   0.269  11.500 -0.5521  0.4208 -0.1449
 5122SOL    HW126825   2.665   0.222  11.506 -0.7006  0.5092 -1.7443
 5122SOL    HW226826   2.816   0.206  11.526  0.2069  0.2416 -2.5770
 5123SOL     OW26827   2.116   4.175   9.656 -0.3407 -0.1457  0.0064
 5123SOL    HW126828   2.054   4.160   9.585  1.7703 -2.3493 -1.3866
 5123SOL    HW226829   2.148   4.086   9.671 -0.5449  0.1254  2.0583
 5124SOL     OW26830   1.215   1.519  13.693  0.6171 -0.3085 -0.1351
 5124SOL    HW126831   1.125   1.549  13.693  1.0018  0.8289  1.5600
 5124SOL    HW226832   1.265   1.601  13.688  1.4970 -0.8669 -0.5864
 5125SOL     OW26833   3.560   4.509   1.256 -0.8449 -0.1108 -0.2757
 5125SOL    HW126834   3.583   4.564   1.330 -1.8038 -0.2931  0.1579
 5125SOL    HW226835   3.641   4.461   1.239 -1.0736 -0.3817 -0.6217
 5126SOL     OW26836   0.932   3.606   3.694  0.5300  0.6990  0.0873
 5126SOL    HW126837   0.912   3.513   3.697  1.3881  0.5402  0.8864
 5126SOL    HW226838   0.892   3.629   3.779 -0.8700 -0.6115 -0.2241
 5127SOL     OW26839   0.841   2.508   1.676  0.0568 -0.4829  0.1265
 5127SOL    HW126840   0.931   2.498   1.643 -0.1109 -1.2599 -0.0978
 5127SOL    HW226841   0.806   2.562   1.605 -1.3116 -1.7524 -0.1428
 5128SOL     OW26842   2.106   3.698   6.559  0.1934 -0.6411  0.4705
 5128SOL    HW126843   2.071   3.648   6.486  0.4932  1.1067 -0.8664
 5128SOL    HW226844   2.132   3.778   6.514 -2.4194  1.0481  1.9065
 5129SOL     OW26845   1.222   3.082  14.217 -0.3164 -0.9289  0.1930
 5129SOL    HW126846   1.163   3.147  14.257  0.3603  0.1198 -0.5125
 5129SOL    HW226847   1.260   3.139  14.149 -1.2535  1.3871  1.5921
 5130SOL     OW26848   0.280   1.914   3.010 -0.5131  0.1135  0.2952
 5130SOL    HW126849   0.304   1.915   2.917  0.4715 -0.2797  0.5457
 5130SOL    HW226850   0.358   1.870   3.043 -0.3497 -0.2690 -0.6068
 5131SOL     OW26851   3.619   4.657   5.226  0.2722 -0.1619  0.6324
 5131SOL    HW126852   3.696   4.685   5.276  0.3312  1.6186 -0.4632
 5131SOL    HW226853   3.617   4.564   5.248  1.4287 -0.3117  0.0638
 5132SOL     OW26854   0.893   4.676   8.206 -0.2399  0.6161  0.1454
 5132SOL    HW126855   0.872   0.045   8.196 -0.2117  0.7203  1.0127
 5132SOL    HW226856   0.932   4.656   8.121  0.1357 -1.4421  0.7977
 5133SOL     OW26857   0.095   0.543   5.999  0.1129 -0.2140 -0.5137
 5133SOL    HW126858   0.136   0.465   5.962 -0.0807 -0.8772  0.6681
 5133SOL    HW226859   0.008   0.506   6.012  0.0909  0.6856  1.8728
 5134SOL     OW26860   4.465   3.487   7.662 -0.3681  0.2116 -0.3734
 5134SOL    HW126861   4.486   3.424   7.593  0.6104  0.5684 -0.4036
 5134SOL    HW226862   4.456   3.419   7.728  3.7691 -0.1250 -0.1537
 5135SOL     OW26863   0.006   0.027   8.487  0.3422 -0.3579 -0.5130
 5135SOL    HW126864   0.014   0.104   8.544  0.3645 -0.4672 -0.3683
 5135SOL    HW226865   4.638   0.004   8.503  0.1104 -0.2151 -1.6870
 5136SOL     OW26866   3.482   0.780   9.773  0.2784  0.2690 -0.0792
 5136SOL    HW126867   3.443   0.748   9.691 -0.7901  0.9633  0.1522
 5136SOL    HW226868   3.408   0.751   9.826 -0.1938 -2.5154 -2.2123
 5137SOL     OW26869   3.766   0.935  16.480  0.1943  0.1498 -0.0217
 5137SOL    HW126870   3.819   0.890  16.415 -0.3585 -1.8394  0.8962
 5137SOL    HW226871   3.785   1.028  16.464 -0.0216 -0.1105 -1.8071
 5138SOL     OW26872   4.212   1.389  10.212  0.0824 -0.6495  0.1834
 5138SOL    HW126873   4.276   1.367  10.279  0.2418  1.1448  0.6013
 5138SOL    HW226874   4.134   1.350  10.253 -1.6544 -0.0130 -2.4916
 5139SOL     OW26875   3.786   3.944  17.137 -0.4979  0.2930 -0.4145
 5139SOL    HW126876   3.825   3.972  17.054  1.3736 -0.3325  0.2713
 5139SOL    HW226877   3.728   3.875  17.105 -1.0665  0.2561  0.7204
 5140SOL     OW26878   1.899   2.398   3.218  0.0890  0.0396 -0.2367
 5140SOL    HW126879   1.942   2.472   3.174 -1.7462  1.7356  0.8453
 5140SOL    HW226880   1.895   2.333   3.149 -1.9632  1.2534 -1.2518
 5141SOL     OW26881   3.705   2.153   7.884  0.4966  0.4796 -0.4517
 5141SOL    HW126882   3.670   2.126   7.799 -0.2558 -1.3161  0.4104
 5141SOL    HW226883   3.776   2.209   7.854 -0.8828  1.7461 -1.3611
 5142SOL     OW26884   4.358   4.441   4.879 -0.3992 -0.3312 -0.8258
 5142SOL    HW126885   4.431   4.378   4.879 -0.1260 -0.0097 -0.3115
 5142SOL    HW226886   4.285   4.392   4.841  1.6599 -3.1927 -1.1562
 5143SOL     OW26887   1.900   3.402   3.431  0.1651  0.1212 -0.2104
 5143SOL    HW126888   1.963   3.472   3.414  0.8771 -0.4871 -0.0692
 5143SOL    HW226889   1.924   3.336   3.367 -0.6894 -0.0788 -0.3220
 5144SOL     OW26890   4.620   4.254  16.353 -0.4045 -0.0491  0.3324
 5144SOL    HW126891   4.561   4.325  16.376 -0.5872  0.4117 -1.5923
 5144SOL    HW226892   4.627   4.204  16.435  0.8341 -0.8642 -0.2642
 5145SOL     OW26893   4.505   1.827   7.021  0.7457 -0.4535  0.1847
 5145SOL    HW126894   4.530   1.804   6.932  1.9607  2.1919 -0.1543
 5145SOL    HW226895   4.501   1.742   7.065  4.7741  0.3420  2.1299
 5146SOL     OW26896   2.930   3.835   9.053 -0.1994  0.0775  0.0514
 5146SOL    HW126897   2.897   3.751   9.021  1.3593 -0.3156 -0.5553
 5146SOL    HW226898   2.921   3.821   9.148  0.4217 -1.8712 -0.1655
 5147SOL     OW26899   2.898   4.533  16.612 -0.0470  0.2071 -0.4075
 5147SOL    HW126900   2.808   4.523  16.579 -0.3957 -0.7189  0.8396
 5147SOL    HW226901   2.900   4.470  16.684  1.3440 -1.9056 -2.3125
 5148SOL     OW26902   0.265   2.240   1.617 -0.1522 -0.1405 -0.0748
 5148SOL    HW126903   0.213   2.309   1.576  1.5142  0.3095 -1.4071
 5148SOL    HW226904   0.230   2.170   1.563  0.5094 -0.9413  0.5221
 5149SOL     OW26905   0.991   2.838   5.868  0.1477 -0.2630  0.1809
 5149SOL    HW126906   0.993   2.775   5.797 -0.4657  1.9627 -1.8094
 5149SOL    HW226907   0.932   2.800   5.934  2.5760  0.3706  2.7242
 5150SOL     OW26908   0.708   1.176  15.192  0.5823  0.4260 -0.6186
 5150SOL    HW126909   0.782   1.212  15.142  2.1467  0.1006  1.4854
 5150SOL    HW226910   0.675   1.118  15.122  0.5610 -0.6624  0.2992
 5151SOL     OW26911   3.841   4.165  10.713  0.0702 -0.1948 -0.0295
 5151SOL    HW126912   3.918   4.141  10.764 -0.3748 -2.1279 -0.2850
 5151SOL    HW226913   3.869   4.250  10.678  0.7302 -0.2568  0.3577
 5152SOL     OW26914   1.486   3.500   6.730  0.5144 -0.1617 -0.4823
 5152SOL    HW126915   1.555   3.434   6.736  0.2629 -0.3576  0.3012
 5152SOL    HW226916   1.429   3.462   6.663  0.7805  1.1519 -1.4493
 5153SOL     OW26917   4.312   3.682   5.245  0.6031 -0.1304 -0.1069
 5153SOL    HW126918   4.358   3.756   5.205  1.6401 -1.3026 -1.0717
 5153SOL    HW226919   4.331   3.688   5.338  0.6769 -3.0383  0.0604
 5154SOL     OW26920   4.061   2.738   3.989 -0.0684 -0.5598 -0.6579
 5154SOL    HW126921   4.087   2.823   4.025 -0.1886 -0.1442 -1.5644
 5154SOL    HW226922   4.146   2.710   3.955  0.4652  0.1138  0.1126
 5155SOL     OW26923   2.224   2.737   3.322 -0.9528 -0.1735 -0.5383
 5155SOL    HW126924   2.311   2.777   3.330 -1.0372 -0.2726  0.7865
 5155SOL    HW226925   2.170   2.808   3.288  1.2683  0.4981 -2.7101
 5156SOL     OW26926   3.012   0.377  11.381 -0.2810 -0.4461  0.2291
 5156SOL    HW126927   2.969   0.326  11.450  0.3980  0.0982  1.0544
 5156SOL    HW226928   2.956   0.355  11.306 -0.9489  2.8170 -0.2151
 5157SOL     OW26929   0.682   0.693   4.640  0.1451 -0.1430  0.1258
 5157SOL    HW126930   0.718   0.652   4.561  0.6687  0.0341  0.2727
 5157SOL    HW226931   0.593   0.702   4.607 -0.0917 -0.1433  0.7630
 5158SOL     OW26932   3.427   4.065   5.729  0.5897 -0.1360 -0.4407
 5158SOL    HW126933   3.512   4.053   5.687  0.0649 -2.1440 -0.9148
 5158SOL    HW226934   3.444   4.083   5.822  0.6061 -1.5403 -0.1731
 5159SOL     OW26935   0.997   1.080   4.623 -0.2206  0.3173  0.1003
 5159SOL    HW126936   1.031   1.013   4.564  0.7968 -0.2025  1.2622
 5159SOL    HW226937   0.962   1.016   4.685  0.0485  0.4344  0.3759
 5160SOL     OW26938   2.285   2.637   6.271  0.2931  0.3434 -0.6190
 5160SOL    HW126939   2.261   2.713   6.324 -0.3649 -0.9938  1.0279
 5160SOL    HW226940   2.199   2.598   6.256 -0.6200  2.9024 -1.9764
 5161SOL     OW26941   2.083   3.967   8.021  0.5940  0.1248 -0.4451
 5161SOL    HW126942   2.030   3.903   7.974 -0.7337 -2.1636  4.2348
 5161SOL    HW226943   2.032   4.048   8.013  1.2116  0.6224  0.5915
 5162SOL     OW26944   1.084   0.626   7.660 -0.0748 -0.3373  0.1471
 5162SOL    HW126945   1.146   0.584   7.719  0.8203  1.6424  0.5956
 5162SOL    HW226946   1.120   0.593   7.578 -0.5937  1.5515 -0.8520
 5163SOL     OW26947   4.614   2.595   5.757 -0.3837 -0.5010  0.0470
 5163SOL    HW126948   4.661   2.512   5.763 -2.0596 -1.3380  1.8085
 5163SOL    HW226949   4.535   2.562   5.716 -0.4647  1.6528 -1.5308
 5164SOL     OW26950   2.840   0.044   4.195 -0.0835 -0.5301 -0.3962
 5164SOL    HW126951   2.827   0.131   4.155 -2.7187 -1.7713 -2.2543
 5164SOL    HW226952   2.858   4.717   4.116  2.4235 -2.7009  1.5537
 5165SOL     OW26953   0.635   0.605   6.192 -0.0958  0.2333  0.6046
 5165SOL    HW126954   0.698   0.676   6.192  1.9492 -1.5709 -2.5823
 5165SOL    HW226955   0.566   0.642   6.247 -0.8440  0.4448 -0.4660
 5166SOL     OW26956   3.987   1.808   6.024 -0.0102 -0.2389  0.1206
 5166SOL    HW126957   3.927   1.882   6.013 -1.1083 -1.1765 -0.1159
 5166SOL    HW226958   4.051   1.844   6.086 -2.1467 -0.4986  2.4720
 5167SOL     OW26959   4.139   0.966   1.164 -0.0895 -0.6928  0.1329
 5167SOL    HW126960   4.103   0.900   1.105  2.0084 -0.1574 -1.7315
 5167SOL    HW226961   4.122   0.916   1.244 -0.5072 -1.4578 -0.4346
 5168SOL     OW26962   3.745   1.439  14.177 -0.0600  0.9850  0.3740
 5168SOL    HW126963   3.679   1.495  14.218  1.0975  0.7780  2.4845
 5168SOL    HW226964   3.814   1.437  14.244 -0.5986 -1.0635  0.8544
 5169SOL     OW26965   0.596   0.856   5.589  0.1101 -0.6394  0.3185
 5169SOL    HW126966   0.518   0.899   5.553  0.2216 -0.6544  0.0604
 5169SOL    HW226967   0.566   0.765   5.596 -1.7295 -0.0320  0.4563
 5170SOL     OW26968   3.256   2.741   8.458  0.2300  0.3697 -0.3551
 5170SOL    HW126969   3.316   2.698   8.398 -1.5830  0.2070 -2.0460
 5170SOL    HW226970   3.302   2.806   8.511 -0.5110  0.8056 -0.2484
 5171SOL     OW26971   2.581   2.224   2.214  0.5490  0.3374  0.6049
 5171SOL    HW126972   2.605   2.178   2.133 -1.7709  0.3077 -0.0600
 5171SOL    HW226973   2.624   2.177   2.285  0.0696 -2.8205 -1.1786
 5172SOL     OW26974   3.349   0.336   9.003  0.0587  0.0204 -0.2044
 5172SOL    HW126975   3.419   0.325   8.938 -1.5090 -2.1874 -1.5097
 5172SOL    HW226976   3.310   0.250   8.994 -1.3748  0.6204  0.2405
 5173SOL     OW26977   4.470   0.262   1.002  0.1262 -0.1442 -0.1216
 5173SOL    HW126978   4.554   0.238   0.964  0.4433 -1.2935  1.2789
 5173SOL    HW226979   4.407   0.220   0.944  2.1684 -2.6843 -0.4968
 5174SOL     OW26980   4.008   4.129   3.238  0.5641  0.2507  0.3510
 5174SOL    HW126981   4.075   4.161   3.299  0.1988 -0.0532  0.9067
 5174SOL    HW226982   3.996   4.037   3.262  1.3991 -0.1359 -0.6821
 5175SOL     OW26983   0.436   1.218   2.201  0.5121  0.6900 -0.2196
 5175SOL    HW126984   0.518   1.168   2.206  0.2019 -0.0751 -2.9741
 5175SOL    HW226985   0.408   1.191   2.289  1.6975  1.2975  0.3407
 5176SOL     OW26986   2.864   1.867   4.517 -0.1332  0.8209  0.5231
 5176SOL    HW126987   2.902   1.883   4.430  0.5208  1.0142  0.8467
 5176SOL    HW226988   2.857   1.773   4.500  0.5200  0.5668  1.6782
 5177SOL     OW26989   3.460   0.285   3.068  0.5974 -0.0533  0.0570
 5177SOL    HW126990   3.420   0.356   3.017  1.1117 -1.0302 -1.6889
 5177SOL    HW226991   3.489   0.333   3.146 -0.1951 -1.3990  1.1868
 5178SOL     OW26992   3.477   4.372   4.123 -0.3383 -0.1402  0.0414
 5178SOL    HW126993   3.530   4.432   4.072  1.4492 -0.7956  1.1361
 5178SOL    HW226994   3.538   4.299   4.126 -0.9390 -0.6536 -0.3211
 5179SOL     OW26995   3.580   0.155   7.727 -0.4037 -0.1530  0.0949
 5179SOL    HW126996   3.602   0.197   7.644 -2.6825 -0.3650 -0.6103
 5179SOL    HW226997   3.488   0.146   7.704 -0.5813  1.4341  0.2130
 5180SOL     OW26998   1.739   1.518   0.955 -0.0530 -0.3420  0.2711
 5180SOL    HW126999   1.695   1.450   1.006  1.7197 -0.3182  1.8421
 5180SOL    HW227000   1.812   1.528   1.017  0.5965  0.8708 -0.6873
 5181SOL     OW27001   2.638   4.566   7.433 -0.3458 -0.5040  0.0904
 5181SOL    HW127002   2.607   4.647   7.391  1.6402  0.3623  0.2988
 5181SOL    HW227003   2.655   4.506   7.360 -1.2506  0.2665 -0.7639
 5182SOL     OW27004   0.054   0.171   4.710 -0.0089  0.1524 -0.4697
 5182SOL    HW127005   0.145   0.179   4.741  0.3220 -0.3163 -1.3074
 5182SOL    HW227006   0.066   0.245   4.651 -0.0471 -0.3357 -1.0939
 5183SOL     OW27007   2.529   0.678   6.097 -0.1459 -0.0809 -0.5088
 5183SOL    HW127008   2.595   0.610   6.087 -1.1421 -0.6750 -3.0640
 5183SOL    HW227009   2.497   0.685   6.007 -0.9096  1.1148 -0.1562
 5184SOL     OW27010   4.079   0.176  13.471 -0.5960 -0.3730 -0.3447
 5184SOL    HW127011   4.095   0.084  13.453  2.4385 -0.0983  0.9765
 5184SOL    HW227012   4.027   0.201  13.395  1.5522 -2.7252 -2.6084
 5185SOL     OW27013   0.490   3.466   8.998  0.3475  0.2585  0.5268
 5185SOL    HW127014   0.438   3.402   9.046 -1.6827  1.4540 -0.0684
 5185SOL    HW227015   0.533   3.420   8.926  0.7836 -0.5238  1.2952
 5186SOL     OW27016   4.022   3.817  12.307 -0.0571 -0.2719 -0.1972
 5186SOL    HW127017   4.086   3.844  12.241  1.4712 -2.0099  0.5564
 5186SOL    HW227018   4.043   3.870  12.384 -3.9999  0.8513  0.0912
 5187SOL     OW27019   1.810   2.850   9.369 -0.0849  0.2578  0.0353
 5187SOL    HW127020   1.755   2.927   9.353  0.1084 -0.1683 -2.5896
 5187SOL    HW227021   1.823   2.859   9.464  2.6031  0.5857 -0.3674
 5188SOL     OW27022   1.629   4.140   3.847 -0.4252  0.2543  0.2666
 5188SOL    HW127023   1.601   4.173   3.762  2.2187  0.2755 -0.5811
 5188SOL    HW227024   1.564   4.072   3.864 -0.0632 -0.7326 -2.3480
 5189SOL     OW27025   3.564   3.813   2.546  0.1889 -0.6217 -0.1131
 5189SOL    HW127026   3.476   3.844   2.569  1.7302  2.2661  1.8247
 5189SOL    HW227027   3.621   3.879   2.584  1.3626 -0.9988 -1.2325
 5190SOL     OW27028   0.874   2.054   7.280 -0.3620  0.5008 -0.8532
 5190SOL    HW127029   0.882   1.960   7.297 -2.1452  0.6174  0.6000
 5190SOL    HW227030   0.942   2.073   7.215  0.7028 -0.1444  0.0774
 5191SOL     OW27031   2.774   1.322   4.007 -0.4165 -0.2375 -0.4009
 5191SOL    HW127032   2.707   1.303   3.941  2.4806 -1.5473 -2.9231
 5191SOL    HW227033   2.732   1.390   4.060 -1.0013 -0.3351 -0.7299
 5192SOL     OW27034   1.301   1.475  16.092  0.1629 -1.0084  0.4773
 5192SOL    HW127035   1.348   1.452  16.171  0.7145 -0.8491  0.1921
 5192SOL    HW227036   1.211   1.467  16.125  0.7141 -0.2650  2.1428
 5193SOL     OW27037   2.586   3.478   6.441  0.0246 -0.1872  0.4502
 5193SOL    HW127038   2.586   3.383   6.446  1.6258 -0.2586 -1.1561
 5193SOL    HW227039   2.500   3.493   6.403 -0.2627  0.5296  1.3679
 5194SOL     OW27040   3.629   4.146   2.950 -0.6057  0.1077  0.0175
 5194SOL    HW127041   3.546   4.122   2.992  0.2965 -1.1500  1.0801
 5194SOL    HW227042   3.672   4.198   3.018  0.1384 -1.1551  0.5120
 5195SOL     OW27043   1.648   1.180  15.586  0.0855 -0.7532 -0.2382
 5195SOL    HW127044   1.713   1.138  15.641  0.3362 -2.2140 -1.6426
 5195SOL    HW227045   1.603   1.107  15.544  1.1968 -1.4209 -0.2534
 5196SOL     OW27046   2.747   1.258   2.987 -0.0350  0.2198 -0.3140
 5196SOL    HW127047   2.713   1.233   2.901  1.8680 -0.6292 -0.8200
 5196SOL    HW227048   2.672   1.311   3.015 -1.1414 -0.5009 -1.8822
 5197SOL     OW27049   3.267   3.964   2.199  0.0173 -0.0506 -0.1458
 5197SOL    HW127050   3.192   3.931   2.248 -0.2119 -0.7093 -0.9436
 5197SOL    HW227051   3.278   4.049   2.242  0.9163 -0.2429  0.0160
 5198SOL     OW27052   2.963   3.525   5.146 -0.1993  0.0369 -0.1568
 5198SOL    HW127053   2.932   3.605   5.103  2.2931  1.3213  0.4280
 5198SOL    HW227054   2.955   3.550   5.238  2.2520  0.7920 -0.1668
 5199SOL     OW27055   3.948   4.013   2.439 -0.8236 -0.1155 -0.0071
 5199SOL    HW127056   3.869   3.980   2.396 -2.2422  0.4367  2.1846
 5199SOL    HW227057   4.002   3.935   2.422 -1.7525 -0.8539  0.4723
 5200SOL     OW27058   0.065   0.174   8.870 -0.3677 -0.0308  0.5034
 5200SOL    HW127059   0.110   0.190   8.953  0.1569 -0.0560  0.2187
 5200SOL    HW227060   0.001   0.108   8.899 -2.2043  0.7243 -1.8334
 5201SOL     OW27061   3.794   2.005  14.998 -0.4871  0.3700 -0.3396
 5201SOL    HW127062   3.876   1.959  14.984 -0.5051  0.8883 -2.1383
 5201SOL    HW227063   3.804   2.040  15.086  0.9384 -0.0580 -0.3332
 5202SOL     OW27064   1.249   3.298  12.553  0.5517 -0.2247 -0.3735
 5202SOL    HW127065   1.179   3.335  12.499  1.4329 -1.5691 -2.4299
 5202SOL    HW227066   1.301   3.243  12.494 -1.4386 -0.8359 -1.5188
 5203SOL     OW27067   0.203   2.476   2.645 -0.0140 -0.4145 -0.1195
 5203SOL    HW127068   0.139   2.526   2.596 -2.0197 -0.9868  1.8943
 5203SOL    HW227069   0.222   2.408   2.580  1.7303 -2.0190  2.0387
 5204SOL     OW27070   1.183   2.923   7.933 -0.3405  0.1076  0.0745
 5204SOL    HW127071   1.182   2.989   8.002 -0.4365  0.0992  0.0811
 5204SOL    HW227072   1.089   2.915   7.917  0.0589 -1.2297 -1.6518
 5205SOL     OW27073   2.264   0.638   4.896 -0.3232 -0.4440 -0.0698
 5205SOL    HW127074   2.267   0.621   4.802  0.6426 -0.3049 -0.0686
 5205SOL    HW227075   2.330   0.577   4.931  0.3049 -0.5189 -1.4086
 5206SOL     OW27076   3.982   1.835   2.809  0.2369 -0.4411  0.4121
 5206SOL    HW127077   4.041   1.811   2.881  1.2728 -2.3188 -1.0903
 5206SOL    HW227078   3.984   1.931   2.815 -1.6099 -0.4704  1.3378
 5207SOL     OW27079   3.016   3.858   4.101  0.2531 -0.0078 -0.1360
 5207SOL    HW127080   2.926   3.853   4.132  1.0199 -0.4909  2.0801
 5207SOL    HW227081   3.002   3.922   4.032  0.6479 -0.8128 -0.9528
 5208SOL     OW27082   0.286   4.324   2.820 -0.2781  0.1408 -0.1565
 5208SOL    HW127083   0.243   4.358   2.741 -0.2629  2.3561  0.8035
 5208SOL    HW227084   0.246   4.237   2.820 -0.4606  0.2245  1.3301
 5209SOL     OW27085   1.603   3.366   7.702  0.1060  0.5393  0.1009
 5209SOL    HW127086   1.603   3.410   7.787 -2.1163 -1.3132  1.1056
 5209SOL    HW227087   1.534   3.415   7.657  0.4488  0.4235 -0.5425
 5210SOL     OW27088   2.757   4.658   3.906  0.2654  0.2034 -0.3608
 5210SOL    HW127089   2.763   4.571   3.865 -1.4283 -0.4372  0.7161
 5210SOL    HW227090   2.663   4.662   3.927 -0.0570 -0.5899 -1.6304
 5211SOL     OW27091   2.059   1.455   4.896 -0.5288  0.2040 -0.2100
 5211SOL    HW127092   2.079   1.538   4.851  0.4291 -0.4845 -1.0659
 5211SOL    HW227093   2.005   1.486   4.969 -0.7663  1.8521 -1.0603
 5212SOL     OW27094   4.555   0.991   3.650 -0.0925  0.7211 -0.4160
 5212SOL    HW127095   4.561   0.997   3.555 -0.5902  0.0267 -0.5002
 5212SOL    HW227096   4.511   1.069   3.683 -1.7150 -1.3686  2.4254
 5213SOL     OW27097   1.624   0.148   8.026  0.2641  0.6689  0.4129
 5213SOL    HW127098   1.689   0.155   7.955  0.1192  0.5188  0.2662
 5213SOL    HW227099   1.593   0.237   8.010 -0.6799  0.6117  1.9934
 5214SOL     OW27100   1.279   3.247   5.142 -0.3220  0.1259  0.4206
 5214SOL    HW127101   1.365   3.265   5.103  0.6315 -0.8839  2.0955
 5214SOL    HW227102   1.234   3.207   5.068  3.2364  1.0830 -2.2673
 5215SOL     OW27103   3.672   3.259   8.349  0.0342  0.1256 -0.3611
 5215SOL    HW127104   3.578   3.246   8.360  0.1755  1.1024  2.1287
 5215SOL    HW227105   3.699   3.284   8.438  0.4491 -0.3441 -0.3571
 5216SOL     OW27106   2.294   2.450   5.949  0.1565 -0.0056  0.4676
 5216SOL    HW127107   2.243   2.531   5.952 -0.1222 -0.0934 -1.5710
 5216SOL    HW227108   2.212   2.402   5.933  0.4027 -0.9722  2.1435
 5217SOL     OW27109   1.309   2.527   8.712 -0.3295 -0.2745 -0.3877
 5217SOL    HW127110   1.311   2.433   8.725 -2.0473  0.3333  4.2075
 5217SOL    HW227111   1.238   2.558   8.769  0.0914 -0.7069  0.3752
 5218SOL     OW27112   3.326   0.019   5.185 -0.4453 -0.3706  0.2578
 5218SOL    HW127113   3.408   4.711   5.224  0.5307  1.4153 -0.3549
 5218SOL    HW227114   3.307   4.683   5.112  3.1019 -0.6530 -0.4447
 5219SOL     OW27115   0.704   3.723   3.112 -0.0165  0.0713 -0.0873
 5219SOL    HW127116   0.637   3.717   3.180  0.0799 -1.4209 -0.1317
 5219SOL    HW227117   0.783   3.698   3.160  0.4646 -0.3815 -1.1114
 5220SOL     OW27118   4.592   4.618   2.119 -0.0742 -0.1283 -0.0045
 5220SOL    HW127119   4.542   4.577   2.048  2.8562 -2.0965 -0.9705
 5220SOL    HW227120   4.596   4.542   2.177 -2.0840  0.0939  0.4268
 5221SOL     OW27121   1.062   1.233   5.301 -0.0524  0.1375  0.7276
 5221SOL    HW127122   1.083   1.322   5.274 -0.5417  0.2615  0.7661
 5221SOL    HW227123   1.140   1.191   5.263 -0.5968  0.7189 -1.0531
 5222SOL     OW27124   0.041   4.309  12.023  0.2227  0.7825  0.6730
 5222SOL    HW127125   4.688   4.358  11.993  0.5540 -0.5424 -2.3833
 5222SOL    HW227126   0.112   4.364  11.989 -0.0761  1.0298  0.4464
 5223SOL     OW27127   2.218   3.467   5.075 -0.2784  0.1150 -0.2361
 5223SOL    HW127128   2.266   3.390   5.046 -1.3808 -0.6460 -0.0325
 5223SOL    HW227129   2.293   3.493   5.127 -0.4351 -0.0183  0.0593
 5224SOL     OW27130   2.774   3.242  14.321  0.3434  0.7181 -0.1146
 5224SOL    HW127131   2.755   3.314  14.261  2.6988  1.6859  0.2940
 5224SOL    HW227132   2.781   3.289  14.404 -2.3347  0.0774  0.4664
 5225SOL     OW27133   4.339   3.561  13.432 -0.2524  0.3043 -0.4641
 5225SOL    HW127134   4.315   3.591  13.519  0.6179  0.7924 -0.3865
 5225SOL    HW227135   4.257   3.527  13.396 -0.4444  0.1217  0.1460
 5226SOL     OW27136   0.465   3.117   4.488  0.1874 -0.5326 -0.4808
 5226SOL    HW127137   0.471   3.023   4.474 -1.9794 -0.6376 -0.6580
 5226SOL    HW227138   0.458   3.151   4.399  1.0905  3.3192  0.9242
 5227SOL     OW27139   1.438   4.411   4.391 -0.2323 -0.3441  0.6957
 5227SOL    HW127140   1.427   4.359   4.312 -0.3796  1.5748 -0.5603
 5227SOL    HW227141   1.515   4.466   4.373 -1.2518  0.9430  0.2846
 5228SOL     OW27142   4.585   1.224   4.132  0.6815  0.0624 -0.6315
 5228SOL    HW127143   4.655   1.239   4.196 -0.4023 -0.1081  0.6108
 5228SOL    HW227144   4.525   1.297   4.142 -0.0277 -0.3312 -2.0970
 5229SOL     OW27145   2.187   3.524   7.511 -0.1486  0.9699 -0.4700
 5229SOL    HW127146   2.123   3.527   7.440  1.8230 -0.3599 -2.2924
 5229SOL    HW227147   2.175   3.605   7.562  1.7095  1.0148 -0.0882
 5230SOL     OW27148   3.475   1.855  13.321 -0.0351  0.1072 -0.5418
 5230SOL    HW127149   3.486   1.849  13.226  0.4164 -0.4511 -0.4495
 5230SOL    HW227150   3.552   1.903  13.351 -0.2494  1.1491 -1.6423
 5231SOL     OW27151   2.100   2.742   4.594 -0.0051  0.7790 -0.2636
 5231SOL    HW127152   2.193   2.752   4.574  0.0871 -0.8535 -0.6038
 5231SOL    HW227153   2.063   2.736   4.506 -0.8911 -0.6536  0.2118
 5232SOL     OW27154   0.562   1.086   5.375 -0.6420  0.5406  0.5098
 5232SOL    HW127155   0.533   1.130   5.455  2.6039  0.0049  2.0007
 5232SOL    HW227156   0.657   1.097   5.373 -0.4235 -1.2682  0.5155
 5233SOL     OW27157   2.977   2.515   6.619 -0.0390  0.1459 -0.6739
 5233SOL    HW127158   3.021   2.550   6.541 -1.0529  0.3474 -1.1661
 5233SOL    HW227159   3.004   2.424   6.618 -0.4103  0.0469 -1.6162
 5234SOL     OW27160   4.150   1.751  10.548  0.2249 -0.1229 -0.2978
 5234SOL    HW127161   4.177   1.669  10.590 -1.5313 -0.2191  0.6528
 5234SOL    HW227162   4.236   1.785  10.526 -0.3290  1.2289 -0.3800
 5235SOL     OW27163   2.648   4.477   5.317  0.2088  0.4586 -0.0252
 5235SOL    HW127164   2.601   4.512   5.241 -1.7945 -1.9820  0.0810
 5235SOL    HW227165   2.645   4.554   5.374  2.3492 -0.0233  0.7281
 5236SOL     OW27166   4.244   3.250   5.859 -0.8300  0.1282 -0.1658
 5236SOL    HW127167   4.187   3.189   5.813 -0.5043  1.7871 -2.7692
 5236SOL    HW227168   4.331   3.210   5.852 -0.1785  1.3962  0.7779
 5237SOL     OW27169   1.014   0.189   6.927 -0.0912  0.2560 -0.0566
 5237SOL    HW127170   1.096   0.209   6.971 -1.0467  0.3491  1.6855
 5237SOL    HW227171   1.030   0.221   6.839 -1.2206  2.2570  0.4737
 5238SOL     OW27172   1.561   0.477   4.884 -0.1199 -0.4994 -0.2535
 5238SOL    HW127173   1.513   0.400   4.916  0.9629 -1.2821 -0.4949
 5238SOL    HW227174   1.613   0.433   4.816  0.5611  0.3636 -0.2841
 5239SOL     OW27175   1.191   0.628   0.069 -0.2707 -0.2918  0.0047
 5239SOL    HW127176   1.267   0.665   0.024  0.0104  1.8725  2.2708
 5239SOL    HW227177   1.134   0.591   0.001  0.7942 -1.2181 -0.3893
 5240SOL     OW27178   4.569   2.649   1.168  0.3599  0.0904  0.6749
 5240SOL    HW127179   4.517   2.570   1.181  0.6422  0.0518  1.5424
 5240SOL    HW227180   4.658   2.612   1.167 -0.8717 -2.8209  0.0267
 5241SOL     OW27181   0.849   3.774   6.020 -0.3928  0.5892 -0.0668
 5241SOL    HW127182   0.935   3.814   6.033  0.2627 -0.7376 -0.2820
 5241SOL    HW227183   0.804   3.824   5.952 -0.5586  1.2876  0.5553
 5242SOL     OW27184   3.244   0.054   4.130  0.1697 -0.2227  0.0902
 5242SOL    HW127185   3.337   0.045   4.152 -0.0828  0.2687  1.3665
 5242SOL    HW227186   3.219   4.685   4.133 -0.4596 -0.1457 -2.6804
 5243SOL     OW27187   2.714   3.711  15.613 -0.1036  0.0462 -0.5150
 5243SOL    HW127188   2.653   3.685  15.682 -1.4771  0.0657 -1.7441
 5243SOL    HW227189   2.784   3.649  15.634 -2.2526 -2.0524  0.4125
 5244SOL     OW27190   4.112   1.264   0.419  0.5080  0.0031  0.7579
 5244SOL    HW127191   4.131   1.241   0.328 -0.3119  0.7793  0.3872
 5244SOL    HW227192   4.109   1.175   0.453 -0.1439  0.6122  2.2491
 5245SOL     OW27193   2.746   3.461   7.472  0.2369  0.2196  0.1348
 5245SOL    HW127194   2.773   3.467   7.564  1.4055 -3.9508  0.0420
 5245SOL    HW227195   2.701   3.377   7.476  0.6918 -0.0936 -1.6513
 5246SOL     OW27196   4.631   2.960  16.589 -0.0129  0.4042  0.3037
 5246SOL    HW127197   4.543   2.923  16.579 -0.9373  2.2987  1.3862
 5246SOL    HW227198   4.616   3.052  16.566  1.0720  0.5357  0.1327
 5247SOL     OW27199   1.226   1.783   4.720 -0.1915 -0.2519  0.0003
 5247SOL    HW127200   1.282   1.722   4.672 -0.8751 -0.9505  0.1085
 5247SOL    HW227201   1.193   1.728   4.791  0.4086  0.8589  1.1382
 5248SOL     OW27202   2.056   3.314   2.886 -0.4621 -0.1564 -0.6504
 5248SOL    HW127203   1.999   3.345   2.815 -2.6383 -2.2673  0.1619
 5248SOL    HW227204   2.069   3.394   2.935 -2.7661 -0.2532  0.1044
 5249SOL     OW27205   1.459   0.840   3.776 -0.2867 -0.8247 -0.2567
 5249SOL    HW127206   1.534   0.899   3.784  0.5653 -2.0465  0.6326
 5249SOL    HW227207   1.391   0.906   3.765 -0.4134 -0.5535  2.0913
 5250SOL     OW27208   1.244   0.651  10.759  0.1870 -0.0773  0.0460
 5250SOL    HW127209   1.216   0.653  10.851 -1.3419  1.4133 -0.4503
 5250SOL    HW227210   1.277   0.562  10.750 -2.2251 -0.9740  0.1100
 5251SOL     OW27211   1.210   3.547   3.988 -0.0534  0.2659 -0.1011
 5251SOL    HW127212   1.223   3.558   4.082 -2.3633 -2.6381  0.5607
 5251SOL    HW227213   1.159   3.467   3.986 -0.6795  0.6608  0.1484
 5252SOL     OW27214   4.084   3.574   6.338  0.7434  0.1070  0.7972
 5252SOL    HW127215   4.145   3.549   6.268 -0.0926  1.0942 -0.2910
 5252SOL    HW227216   4.007   3.525   6.310  2.7039 -2.6150  0.1478
 5253SOL     OW27217   4.494   4.591   9.320 -0.2812 -0.4146  0.1910
 5253SOL    HW127218   4.490   4.497   9.334 -0.6218 -0.5860 -1.0129
 5253SOL    HW227219   4.586   4.616   9.326 -0.3678  0.0803 -0.4727
 5254SOL     OW27220   0.874   3.017   3.483 -0.1624  0.4107  0.2415
 5254SOL    HW127221   0.804   3.059   3.433 -2.6216 -1.5343  2.0510
 5254SOL    HW227222   0.953   3.062   3.453 -0.1305 -0.5052 -1.0411
 5255SOL     OW27223   2.264   4.179   1.126 -0.1582 -0.1586  0.5284
 5255SOL    HW127224   2.185   4.192   1.074 -0.1427  0.0588  0.5560
 5255SOL    HW227225   2.229   4.171   1.215 -1.0004  2.8847  0.4681
 5256SOL     OW27226   0.112   3.167   7.961 -0.4898  0.3187 -0.7693
 5256SOL    HW127227   0.137   3.214   8.041 -1.0223 -1.7330  0.5964
 5256SOL    HW227228   0.107   3.081   8.003  1.1870  1.0063  0.8392
 5257SOL     OW27229   4.052   1.148   5.619 -0.3008  0.3646  0.0401
 5257SOL    HW127230   4.004   1.187   5.546  0.0867  1.6902  0.4909
 5257SOL    HW227231   3.987   1.082   5.644  0.0905  0.4433  1.2649
 5258SOL     OW27232   0.777   4.521  15.165  0.4842 -0.2567  0.2629
 5258SOL    HW127233   0.832   4.489  15.237 -0.4910 -0.9236  0.7114
 5258SOL    HW227234   0.693   4.531  15.210 -0.4896 -0.6984 -1.4502
 5259SOL     OW27235   2.091   2.341   5.781 -0.0141  0.2294  0.1201
 5259SOL    HW127236   2.077   2.247   5.769  1.0817  0.1074 -0.1788
 5259SOL    HW227237   2.053   2.382   5.704  1.3847 -0.3797 -0.8930
 5260SOL     OW27238   4.120   2.483   8.750 -0.1769 -0.1826 -0.1145
 5260SOL    HW127239   4.148   2.428   8.824 -1.5236 -0.2915  0.3254
 5260SOL    HW227240   4.050   2.428   8.715 -1.1897  0.6888  0.5177
 5261SOL     OW27241   2.259   1.995   1.921 -0.5686 -0.2278 -0.0277
 5261SOL    HW127242   2.187   2.057   1.914 -0.1530 -0.0496 -2.6505
 5261SOL    HW227243   2.291   2.010   2.010 -2.9220 -1.8957  1.0988
 5262SOL     OW27244   2.769   1.577   7.640  0.5712 -0.1275  0.2369
 5262SOL    HW127245   2.686   1.604   7.679  1.2284  1.9997  0.1221
 5262SOL    HW227246   2.765   1.626   7.558  1.2059  1.3293  1.0936
 5263SOL     OW27247   3.591   2.608   7.196 -0.2959 -0.6403  0.0075
 5263SOL    HW127248   3.521   2.565   7.245 -1.4887 -0.2500 -1.3822
 5263SOL    HW227249   3.657   2.540   7.213  2.1865  1.6891 -0.4193
 5264SOL     OW27250   3.365   1.826   3.815 -0.5496  0.5819 -0.1710
 5264SOL    HW127251   3.351   1.903   3.759 -0.5389  1.2552  0.7421
 5264SOL    HW227252   3.329   1.759   3.758 -2.1334 -0.6329  2.2368
 5265SOL     OW27253   2.800   4.100  16.086  0.4534 -0.1001 -0.2186
 5265SOL    HW127254   2.744   4.156  16.032  0.9944  1.5464  0.9020
 5265SOL    HW227255   2.732   4.043  16.121  0.2028  0.5299  0.3194
 5266SOL     OW27256   3.053   0.925   7.127  0.3025 -0.1580  0.1815
 5266SOL    HW127257   3.085   1.010   7.098 -1.1300  0.2153 -0.3080
 5266SOL    HW227258   3.011   0.886   7.050 -0.5419  2.5175 -0.7431
 5267SOL     OW27259   0.182   0.620  11.488  0.2646 -0.3288 -0.6675
 5267SOL    HW127260   0.277   0.616  11.492  0.2463 -1.7116 -1.7084
 5267SOL    HW227261   0.160   0.527  11.490 -2.0560  0.2294 -0.0060
 5268SOL     OW27262   1.451   3.107   5.898 -0.3025  0.6765 -0.1777
 5268SOL    HW127263   1.485   3.054   5.827 -1.2308 -0.3709  0.1604
 5268SOL    HW227264   1.358   3.090   5.886 -0.3607 -0.9475  2.3984
 5269SOL     OW27265   1.475   0.197  13.192  0.4254  0.0875  0.0655
 5269SOL    HW127266   1.554   0.156  13.155  1.1194  0.0948  1.5654
 5269SOL    HW227267   1.471   0.276  13.138 -0.8588 -0.1493 -0.1750
 5270SOL     OW27268   1.162   3.434   7.438 -0.1581  0.1249 -0.1144
 5270SOL    HW127269   1.216   3.385   7.376  0.9328 -0.3097  1.1720
 5270SOL    HW227270   1.103   3.360   7.451 -0.1260  0.1660  0.2622
 5271SOL     OW27271   0.637   1.394   2.101 -0.4058 -0.1577 -0.4019
 5271SOL    HW127272   0.562   1.339   2.124 -0.1064  0.3159  1.6456
 5271SOL    HW227273   0.713   1.335   2.098 -2.0807 -2.2808 -0.9389
 5272SOL     OW27274   1.644   4.055   7.974  0.0554  0.4052  0.6772
 5272SOL    HW127275   1.739   4.045   7.965 -0.2396 -0.7524 -1.0720
 5272SOL    HW227276   1.618   3.962   7.974 -0.5681  0.5837 -0.8913
 5273SOL     OW27277   2.864   2.610   3.545 -0.2237  0.4527 -0.0004
 5273SOL    HW127278   2.802   2.561   3.490 -0.8034 -0.2086  1.2338
 5273SOL    HW227279   2.909   2.665   3.482 -0.7236  0.8110 -0.0424
 5274SOL     OW27280   0.207   2.585   3.871  0.8550  0.6654 -0.1146
 5274SOL    HW127281   0.230   2.503   3.827  1.4198  0.1745  1.1010
 5274SOL    HW227282   0.151   2.626   3.805 -0.9303 -1.0433  0.3230
 5275SOL     OW27283   3.971   2.015   3.736 -0.5907  0.2330  0.3087
 5275SOL    HW127284   3.893   1.992   3.785  0.3446 -1.3341  1.0565
 5275SOL    HW227285   3.994   1.934   3.691 -0.5409  0.8662 -0.8066
 5276SOL     OW27286   2.339   2.273   3.278 -0.2418  0.8174  0.0921
 5276SOL    HW127287   2.414   2.267   3.218  0.1023 -3.0224  0.9602
 5276SOL    HW227288   2.264   2.297   3.223 -1.0063 -0.0956  0.7505
 5277SOL     OW27289   3.193   1.603   5.389  0.4156 -0.3034  0.5674
 5277SOL    HW127290   3.133   1.640   5.325  1.7235 -0.9235 -1.0009
 5277SOL    HW227291   3.182   1.510   5.373  2.3203 -0.5247  0.5509
 5278SOL     OW27292   1.089   3.668  15.044 -0.6874 -0.3570  0.5382
 5278SOL    HW127293   1.077   3.578  15.073 -3.4829 -0.6326 -1.5421
 5278SOL    HW227294   1.039   3.682  14.964 -3.3575  0.4105  2.3432
 5279SOL     OW27295   3.385   3.877  15.632  0.2138 -0.1767  0.2438
 5279SOL    HW127296   3.474   3.858  15.601 -0.0527 -1.7759  0.4528
 5279SOL    HW227297   3.405   3.947  15.695  1.2130 -1.3140  1.1922
 5280SOL     OW27298   1.588   1.792   5.022 -0.1512  0.3183 -0.4140
 5280SOL    HW127299   1.599   1.887   5.022  0.5652  0.2370  0.8186
 5280SOL    HW227300   1.652   1.772   5.090  0.9511  0.0085 -1.5533
 5281SOL     OW27301   1.621   0.827  16.663  0.1125  0.1308  0.1076
 5281SOL    HW127302   1.670   0.745  16.665  0.6943  0.4991  0.8439
 5281SOL    HW227303   1.531   0.801  16.642  0.7371 -0.3662 -1.8878
 5282SOL     OW27304   0.238   2.689   1.417 -0.0866 -0.6926  0.1411
 5282SOL    HW127305   0.216   2.757   1.353 -1.8319 -1.5674 -0.1745
 5282SOL    HW227306   0.222   2.728   1.503  0.1408  0.7223 -0.4470
 5283SOL     OW27307   4.297   2.833   0.533 -0.2216  0.2190  0.4290
 5283SOL    HW127308   4.243   2.889   0.477  0.6660 -0.8413 -1.4835
 5283SOL    HW227309   4.233   2.776   0.575  0.8441 -1.3259 -0.0576
 5284SOL     OW27310   2.716   2.460  16.753 -0.1854  0.2275  0.5105
 5284SOL    HW127311   2.677   2.417  16.677 -0.9888 -0.7172  1.4557
 5284SOL    HW227312   2.708   2.404  16.830  1.0445 -0.9350 -0.2095
 5285SOL     OW27313   2.146   4.470   0.227 -0.1297 -0.4276 -0.3498
 5285SOL    HW127314   2.170   4.561   0.245 -0.3252 -0.8769  2.2463
 5285SOL    HW227315   2.136   4.440   0.318 -0.7566  1.2714  0.1488
 5286SOL     OW27316   2.402   2.396   5.706  0.6159  0.6446 -0.0634
 5286SOL    HW127317   2.383   2.404   5.799  2.9970  2.1198  0.3235
 5286SOL    HW227318   2.360   2.310   5.699  1.0284  0.3388  1.3796
 5287SOL     OW27319   1.268   4.171   8.525 -0.2435  0.1343  0.4431
 5287SOL    HW127320   1.361   4.160   8.542 -0.7422 -0.4452  2.6727
 5287SOL    HW227321   1.253   4.257   8.564 -0.3054 -0.3561  1.4920
 5288SOL     OW27322   2.989   2.971   6.731  0.0353 -0.0906 -0.3173
 5288SOL    HW127323   2.977   2.950   6.824 -1.8283 -1.0650 -0.7719
 5288SOL    HW227324   2.981   3.066   6.745  1.6013 -0.0408  0.1530
 5289SOL     OW27325   4.698   1.433   7.380  0.3681 -0.4201 -0.0067
 5289SOL    HW127326   4.624   1.395   7.333 -0.0891 -0.8037  1.0076
 5289SOL    HW227327   4.662   1.477   7.458 -2.2225 -0.6420 -1.0766
 5290SOL     OW27328   3.937   1.605   1.564  0.4097 -0.2104 -0.0959
 5290SOL    HW127329   3.958   1.518   1.598 -2.6679 -0.6856  0.5722
 5290SOL    HW227330   3.892   1.647   1.638 -1.8200 -0.0678 -1.5506
 5291SOL     OW27331   3.493   0.514  11.800 -0.4230  0.1255 -0.7768
 5291SOL    HW127332   3.545   0.526  11.879 -1.0087  3.7854 -0.9582
 5291SOL    HW227333   3.464   0.604  11.788 -1.8045 -0.2203 -0.0993
 5292SOL     OW27334   0.880   4.222   8.410  0.1544  0.1230  0.0553
 5292SOL    HW127335   0.975   4.214   8.401  0.1665  2.7907 -2.2438
 5292SOL    HW227336   0.852   4.144   8.362 -0.0836 -0.3299  0.9403
 5293SOL     OW27337   0.040   2.330  15.569  0.6042 -0.0290 -0.0460
 5293SOL    HW127338   0.072   2.416  15.595 -2.1332  0.8917  0.2761
 5293SOL    HW227339   0.053   2.278  15.649 -0.0335  0.5304  0.4232
 5294SOL     OW27340   3.696   1.257   3.372 -0.2823 -0.0100 -0.0732
 5294SOL    HW127341   3.691   1.175   3.323 -0.2425 -1.1247  1.8075
 5294SOL    HW227342   3.663   1.317   3.304  0.9826  1.5669  0.6907
 5295SOL     OW27343   1.231   1.200   2.923  0.2139 -0.0203  0.0628
 5295SOL    HW127344   1.278   1.244   2.994 -3.2338  1.7442  1.2436
 5295SOL    HW227345   1.186   1.268   2.873 -0.2699 -1.7331 -1.8096
 5296SOL     OW27346   0.313   4.724  11.021  0.0942  0.1779  0.7099
 5296SOL    HW127347   0.222   0.030  11.024 -0.0420  0.0470 -2.7413
 5296SOL    HW227348   0.361   0.079  11.046  1.1513 -0.0791 -0.5491
 5297SOL     OW27349   2.054   0.700   8.237  0.0857 -0.0305 -0.6245
 5297SOL    HW127350   1.983   0.762   8.250  0.7589  0.7628 -0.6978
 5297SOL    HW227351   2.046   0.670   8.147  2.1781  0.0707 -0.8593
 5298SOL     OW27352   3.641   0.241   3.949  0.1911  0.2385 -0.2789
 5298SOL    HW127353   3.593   0.318   3.980 -0.8356 -0.7689  0.6081
 5298SOL    HW227354   3.726   0.268   3.985  0.2914 -0.8585  0.3000
 5299SOL     OW27355   0.560   0.361   7.494  0.1220  0.2257 -0.5464
 5299SOL    HW127356   0.649   0.382   7.524 -0.0391 -0.5913  0.5055
 5299SOL    HW227357   0.582   0.319   7.411 -2.9730 -1.4496 -0.5108
 5300SOL     OW27358   2.801   1.355   9.133  0.4153  0.3069 -0.2442
 5300SOL    HW127359   2.720   1.311   9.160 -0.1148  0.2378 -1.9313
 5300SOL    HW227360   2.759   1.407   9.064 -2.6963 -1.7491  0.1036
 5301SOL     OW27361   3.553   3.398   9.122 -0.8139  0.0459  0.2129
 5301SOL    HW127362   3.634   3.347   9.115 -0.8414  0.2895 -1.8328
 5301SOL    HW227363   3.559   3.430   9.212  0.5651 -0.3905  0.2811
 5302SOL     OW27364   2.800   4.077   5.321  0.4494  0.5608 -0.0975
 5302SOL    HW127365   2.776   4.104   5.410  1.3551  0.4204  0.1890
 5302SOL    HW227366   2.783   4.156   5.270 -1.1340  1.7502  2.2225
 5303SOL     OW27367   3.418   3.449   8.363 -0.1570  0.0616  0.2458
 5303SOL    HW127368   3.368   3.526   8.337  1.2302  0.9122  0.0898
 5303SOL    HW227369   3.372   3.424   8.444 -0.6911  1.0546  0.2376
 5304SOL     OW27370   3.326   2.436   8.728  0.2830 -0.3144  1.0027
 5304SOL    HW127371   3.320   2.400   8.639 -0.7580  1.0887  0.4980
 5304SOL    HW227372   3.254   2.498   8.718 -0.3252 -1.3621 -1.2486
 5305SOL     OW27373   1.021   0.193   4.069 -0.0231  0.1604  0.0130
 5305SOL    HW127374   1.001   0.141   3.991  2.0361  0.2415 -0.5814
 5305SOL    HW227375   1.040   0.279   4.032 -2.7710  1.5964  1.9536
 5306SOL     OW27376   4.667   4.556   1.255 -0.4324 -0.1696 -1.2618
 5306SOL    HW127377   4.707   4.532   1.172  0.2922 -0.8192 -0.7277
 5306SOL    HW227378   4.625   4.639   1.231  1.1966  1.1739  0.5279
 5307SOL     OW27379   2.845   2.954  14.466 -0.2602  0.8158  0.0040
 5307SOL    HW127380   2.823   2.982  14.378 -0.6052  1.6807  0.3584
 5307SOL    HW227381   2.771   2.985  14.520 -0.3511 -1.1176  0.9710
 5308SOL     OW27382   2.094   4.431   8.032  0.0159  0.9270  0.0341
 5308SOL    HW127383   2.188   4.431   8.017  0.2269 -0.8738  1.4432
 5308SOL    HW227384   2.086   4.470   8.119  0.8164  1.3998 -0.1038
 5309SOL     OW27385   0.679   2.129  12.498 -0.6856  0.2749  0.1240
 5309SOL    HW127386   0.676   2.051  12.442 -1.5559 -0.9644  1.8867
 5309SOL    HW227387   0.588   2.160  12.496 -0.5714  0.5897 -0.2586
 5310SOL     OW27388   0.113   2.406   0.034 -0.0491 -0.6504 -0.4129
 5310SOL    HW127389   0.132   2.316   0.008  1.9994 -0.2816 -0.2104
 5310SOL    HW227390   0.038   2.398   0.092  1.1412  0.4830  1.2951
 5311SOL     OW27391   4.266   3.782   9.627  0.4672 -0.1561  0.4336
 5311SOL    HW127392   4.268   3.697   9.670 -0.3727  0.7869  2.3018
 5311SOL    HW227393   4.276   3.836   9.705 -1.6138 -0.0926  0.6392
 5312SOL     OW27394   0.514   1.143  17.677  0.5300  0.1666 -0.2191
 5312SOL    HW127395   0.592   1.177  17.633 -0.5267  1.1636 -1.3285
 5312SOL    HW227396   0.508   1.062  17.627  1.0445  0.6460 -1.0556
 5313SOL     OW27397   0.770   1.974  11.533  0.2344  0.3367  0.6340
 5313SOL    HW127398   0.767   1.881  11.557  0.8235  0.9716  3.1799
 5313SOL    HW227399   0.681   1.993  11.505  0.1986  1.1516  1.2954
 5314SOL     OW27400   1.232   3.757   2.790 -0.1553  0.0254  0.3586
 5314SOL    HW127401   1.208   3.671   2.756 -1.7913  0.9024 -0.6933
 5314SOL    HW227402   1.315   3.754   2.836 -0.2656  0.2298  0.5723
 5315SOL     OW27403   0.831   4.455   1.933  0.2503  0.4014  0.1151
 5315SOL    HW127404   0.865   4.375   1.892  2.1279 -0.0471  2.5528
 5315SOL    HW227405   0.774   4.467   1.857  0.1398  0.9150  0.2838
 5316SOL     OW27406   1.530   3.945  11.393 -0.1605 -0.4308 -0.5020
 5316SOL    HW127407   1.543   4.029  11.437 -1.0094 -0.8234  0.4870
 5316SOL    HW227408   1.436   3.932  11.392 -0.1891 -0.2003 -0.7279
 5317SOL     OW27409   0.444   4.114  12.742  0.3918 -0.1311  0.5205
 5317SOL    HW127410   0.458   4.095  12.835  1.5928  0.2200  0.4206
 5317SOL    HW227411   0.455   4.029  12.701 -2.0811  0.0211 -0.3987
 5318SOL     OW27412   3.238   0.886   2.569  0.3988  0.0285 -0.7358
 5318SOL    HW127413   3.177   0.837   2.513 -0.7237  0.9295 -0.3159
 5318SOL    HW227414   3.190   0.908   2.649  1.3885  0.5361 -0.2919
 5319SOL     OW27415   1.789   0.924   3.261 -0.5380 -0.2491  0.4202
 5319SOL    HW127416   1.781   0.892   3.171  1.2857  1.4389 -0.3390
 5319SOL    HW227417   1.849   0.863   3.303 -0.1031  0.4162  0.7736
 5320SOL     OW27418   3.225   4.317   4.700 -0.1040  0.1089  0.1850
 5320SOL    HW127419   3.139   4.352   4.677 -0.5298 -1.0628 -0.0114
 5320SOL    HW227420   3.200   4.226   4.713 -0.3936  0.0789 -0.6131
 5321SOL     OW27421   2.195   1.118   2.288  1.0819 -0.5340  0.0602
 5321SOL    HW127422   2.123   1.157   2.239  1.4282  0.6922  0.5239
 5321SOL    HW227423   2.152   1.034   2.303  0.4422 -0.5534 -1.9336
 5322SOL     OW27424   1.314   4.124   5.963  0.4557  0.2673 -0.1315
 5322SOL    HW127425   1.264   4.151   6.040 -1.3494 -0.6649 -0.9818
 5322SOL    HW227426   1.240   4.120   5.902  0.0276 -0.7332  0.4554
 5323SOL     OW27427   2.097   2.813   5.633 -0.6000 -0.5283  0.9114
 5323SOL    HW127428   2.107   2.772   5.547 -0.6270 -3.1109  2.1696
 5323SOL    HW227429   2.120   2.903   5.609 -0.8897 -0.5888  0.4068
 5324SOL     OW27430   0.846   1.015   4.098 -0.1336 -0.1783 -0.2036
 5324SOL    HW127431   0.790   1.087   4.126 -2.3795 -2.4914  1.2550
 5324SOL    HW227432   0.776   0.952   4.081 -1.2925  1.2466 -0.6877
 5325SOL     OW27433   2.273   2.087  12.903 -0.2911  0.4362 -0.0756
 5325SOL    HW127434   2.238   2.099  12.815  2.3797  0.2103 -1.1947
 5325SOL    HW227435   2.331   2.013  12.886  0.1412  0.9581 -0.8637
 5326SOL     OW27436   3.551   2.123   6.520 -0.1913  0.2124 -0.4700
 5326SOL    HW127437   3.593   2.183   6.459  1.4309 -2.1786 -1.7033
 5326SOL    HW227438   3.524   2.062   6.451  0.4559 -0.4967 -0.0935
 5327SOL     OW27439   0.312   0.900   9.849  0.1325  0.1106  0.0197
 5327SOL    HW127440   0.310   0.980   9.797  0.3130 -0.5673 -1.0312
 5327SOL    HW227441   0.307   0.936   9.938  1.2392 -0.7068  0.4133
 5328SOL     OW27442   2.226   4.189   4.280 -0.5069  0.1785 -0.0611
 5328SOL    HW127443   2.146   4.142   4.257 -0.8316  1.1516 -0.9495
 5328SOL    HW227444   2.276   4.121   4.325 -2.5536 -1.7675 -0.7022
 5329SOL     OW27445   3.686   0.464  14.240 -0.0196 -0.2990 -0.4282
 5329SOL    HW127446   3.603   0.513  14.239  1.0712  1.5781  0.7583
 5329SOL    HW227447   3.698   0.450  14.146  1.1808 -0.6104 -0.2265
 5330SOL     OW27448   4.149   4.098   4.520  0.7431  0.0881  0.1381
 5330SOL    HW127449   4.213   4.097   4.591  0.4407 -1.5836  0.3664
 5330SOL    HW227450   4.195   4.055   4.448 -0.8236 -2.1378  0.4707
 5331SOL     OW27451   0.227   1.933   8.935  0.3922 -0.0378 -0.2491
 5331SOL    HW127452   0.259   1.847   8.907 -1.9388 -1.4964  1.6080
 5331SOL    HW227453   0.223   1.912   9.028  1.6049  1.9966  0.2515
 5332SOL     OW27454   2.696   1.768  15.481  0.0997  0.2184 -0.2478
 5332SOL    HW127455   2.657   1.850  15.450  0.8926 -0.3329 -2.7547
 5332SOL    HW227456   2.726   1.732  15.397  1.1033 -1.9725  1.0340
 5333SOL     OW27457   1.414   2.403  11.534 -0.2683  0.1462 -0.2621
 5333SOL    HW127458   1.502   2.376  11.559  0.7096  1.3792 -2.3301
 5333SOL    HW227459   1.417   2.491  11.571 -1.1859  0.5222 -1.0704
 5334SOL     OW27460   2.669   1.168  17.637  0.5294  0.1578 -0.4212
 5334SOL    HW127461   2.691   1.260  17.648 -0.7894  0.5392 -1.0935
 5334SOL    HW227462   2.737   1.126  17.691  0.6191  0.2291 -0.4788
 5335SOL     OW27463   2.737   3.458   4.154  0.0444  0.3688 -0.4152
 5335SOL    HW127464   2.657   3.509   4.161  0.4294  1.1530 -1.6023
 5335SOL    HW227465   2.702   3.372   4.176  0.9769 -0.0009 -0.3454
 5336SOL     OW27466   2.164   2.348   9.177 -0.2010  0.0290  0.6672
 5336SOL    HW127467   2.115   2.426   9.203 -1.0765 -0.4362  0.3885
 5336SOL    HW227468   2.087   2.304   9.142 -0.2629  0.8239 -0.1981
 5337SOL     OW27469   2.233   1.730   4.163  0.1741  0.3870  0.2720
 5337SOL    HW127470   2.254   1.706   4.073  0.9887  2.8225 -0.1614
 5337SOL    HW227471   2.173   1.803   4.150 -1.4963 -1.0963 -0.4747
 5338SOL     OW27472   2.278   4.437   3.373  0.5236  0.0370  0.3051
 5338SOL    HW127473   2.229   4.368   3.418 -0.7234  1.5924  1.3381
 5338SOL    HW227474   2.305   4.391   3.293 -1.0076  1.6004 -1.1176
 5339SOL     OW27475   1.759   0.741  11.075 -0.2937 -0.7548  0.3967
 5339SOL    HW127476   1.834   0.775  11.124 -0.1422 -0.1207 -0.2885
 5339SOL    HW227477   1.697   0.799  11.119  0.8415  0.8039 -0.0999
 5340SOL     OW27478   4.261   1.692   8.604 -0.1847  0.6640  0.7168
 5340SOL    HW127479   4.317   1.616   8.622 -1.7204 -0.1299  2.0952
 5340SOL    HW227480   4.330   1.758   8.611  0.4178 -0.1259  2.1085
 5341SOL     OW27481   2.941   0.497  10.866  0.0128  0.0894 -0.0182
 5341SOL    HW127482   2.938   0.444  10.946  0.5653 -4.1619 -2.7670
 5341SOL    HW227483   2.974   0.429  10.806  0.6446  0.2841  0.1124
 5342SOL     OW27484   1.966   0.348   6.840  0.3972  0.4430  0.5269
 5342SOL    HW127485   1.942   0.292   6.914 -0.3949 -0.2769 -0.2879
 5342SOL    HW227486   1.975   0.434   6.882  1.6384  1.7682 -2.4404
 5343SOL     OW27487   2.274   0.916   4.518  0.4977  0.0992 -0.1268
 5343SOL    HW127488   2.337   0.884   4.583 -0.0004  1.3221  0.9716
 5343SOL    HW227489   2.302   0.894   4.429 -0.0745  0.8185 -0.4841
 5344SOL     OW27490   1.671   1.011  17.420 -0.6850 -0.0439  0.0512
 5344SOL    HW127491   1.637   0.994  17.508  1.2469 -1.3307  0.5441
 5344SOL    HW227492   1.745   1.071  17.429 -2.8970  2.5621  0.8439
 5345SOL     OW27493   4.467   0.920   1.608 -0.0969 -0.2912  0.2093
 5345SOL    HW127494   4.492   0.951   1.695  3.6866  0.2968 -1.0669
 5345SOL    HW227495   4.550   0.887   1.575 -0.2036  0.7779 -1.1317
 5346SOL     OW27496   3.140   0.557   2.062 -0.3277 -0.8158  0.3174
 5346SOL    HW127497   3.114   0.501   2.136 -0.2306 -1.7850 -0.3786
 5346SOL    HW227498   3.161   0.492   1.995  0.8156 -1.7853  1.6245
 5347SOL     OW27499   3.222   4.373   5.478 -0.5175 -0.3856 -0.3272
 5347SOL    HW127500   3.209   4.436   5.407  1.9667 -0.7114 -1.0754
 5347SOL    HW227501   3.267   4.300   5.436 -0.0292  0.1648 -0.7512
 5348SOL     OW27502   4.661   3.146   7.764 -0.3669  0.2465 -0.1964
 5348SOL    HW127503   4.615   3.214   7.814 -0.1937  0.0661  0.2166
 5348SOL    HW227504   0.005   3.119   7.827 -0.7595  0.1048  0.1691
 5349SOL     OW27505   2.194   2.275   0.053 -0.4303  0.0011  0.2282
 5349SOL    HW127506   2.139   2.204   0.086  0.1614 -0.1212  0.9272
 5349SOL    HW227507   2.270   2.276   0.111  0.4937  1.4239 -1.0059
 5350SOL     OW27508   3.702   2.226   4.907 -0.7673  0.0834  0.0996
 5350SOL    HW127509   3.694   2.182   4.822 -0.5373  0.0690  0.0863
 5350SOL    HW227510   3.750   2.161   4.958 -1.3353 -1.9241 -1.9215
 5351SOL     OW27511   3.305   1.209   8.322 -0.1073  0.2619  0.1097
 5351SOL    HW127512   3.338   1.124   8.352  2.4926  1.9456  2.0880
 5351SOL    HW227513   3.384   1.241   8.277  1.2452  1.1808  3.1419
 5352SOL     OW27514   2.599   3.635  15.852  0.7744  0.0008 -0.0201
 5352SOL    HW127515   2.646   3.643  15.935  1.4093  0.0244 -0.3747
 5352SOL    HW227516   2.506   3.624  15.871  0.6050  0.0115 -0.8243
 5353SOL     OW27517   4.204   2.946   4.432  0.2094 -0.2599  0.3581
 5353SOL    HW127518   4.174   2.867   4.476 -0.7622  0.1240  0.3981
 5353SOL    HW227519   4.189   3.008   4.504 -0.2441  0.6122 -0.4722
 5354SOL     OW27520   3.726   1.644   5.383 -0.6485  0.0476 -0.0393
 5354SOL    HW127521   3.733   1.738   5.397 -1.7115  0.0995  0.1057
 5354SOL    HW227522   3.634   1.639   5.358 -0.7880  0.2829  0.4369
 5355SOL     OW27523   1.972   0.203   8.834 -0.2860 -0.7322  0.3750
 5355SOL    HW127524   2.029   0.273   8.867 -0.5079 -0.8374  0.9831
 5355SOL    HW227525   2.012   0.125   8.873  0.2269 -0.2519  0.7994
 5356SOL     OW27526   0.818   3.958  13.716 -0.6032 -0.2144  0.2919
 5356SOL    HW127527   0.836   3.929  13.806 -2.2996 -1.6589  0.1677
 5356SOL    HW227528   0.835   4.052  13.722  2.6797 -0.8756  1.2636
 5357SOL     OW27529   4.462   2.654   8.953  0.3806 -0.4330 -0.4044
 5357SOL    HW127530   4.486   2.562   8.938 -1.5500 -0.4542 -3.4017
 5357SOL    HW227531   4.540   2.701   8.981  0.4536 -0.5002 -0.4948
 5358SOL     OW27532   1.749   0.186   6.233  0.4826 -0.3350 -0.1139
 5358SOL    HW127533   1.703   0.163   6.153  0.2291  1.4069 -0.4714
 5358SOL    HW227534   1.748   0.281   6.227  0.0145 -0.2921  0.6579
 5359SOL     OW27535   2.227   4.574   5.790  0.0287  0.0740 -0.1261
 5359SOL    HW127536   2.312   4.611   5.816  0.5494 -2.3998  1.6752
 5359SOL    HW227537   2.224   4.581   5.694 -0.2588  3.1593  0.1284
 5360SOL     OW27538   4.090   4.035   5.635  0.2824 -0.1566 -0.2413
 5360SOL    HW127539   4.090   3.958   5.693  0.4100 -0.6613 -0.9057
 5360SOL    HW227540   4.104   3.992   5.550  2.7402  1.7394 -0.8027
 5361SOL     OW27541   0.569   0.358  14.245 -0.2299  0.1388 -0.1811
 5361SOL    HW127542   0.491   0.353  14.191 -1.6178  2.0827  1.6339
 5361SOL    HW227543   0.622   0.430  14.209 -0.8338  0.5343 -0.2734
 5362SOL     OW27544   3.986   3.247   2.488 -0.5591  0.1148 -0.1920
 5362SOL    HW127545   3.911   3.190   2.476  0.1899 -0.8781 -0.1432
 5362SOL    HW227546   3.941   3.325   2.519  0.6050  0.6598  0.1484
 5363SOL     OW27547   1.525   0.324   8.322 -0.0160 -0.0499  0.0988
 5363SOL    HW127548   1.478   0.381   8.260  0.2606 -3.0081 -2.8325
 5363SOL    HW227549   1.527   0.234   8.291  3.1603  0.3268 -0.8391
 5364SOL     OW27550   2.359   4.407   8.023 -0.6738 -0.0601  0.6662
 5364SOL    HW127551   2.419   4.338   8.051  0.2817  0.6064  0.2557
 5364SOL    HW227552   2.372   4.406   7.928  0.8001 -1.7195  0.8799
 5365SOL     OW27553   0.007   3.286   7.210  0.7745 -0.5687 -0.5596
 5365SOL    HW127554   0.044   3.219   7.153 -0.0855 -0.8006 -0.8399
 5365SOL    HW227555   4.707   3.348   7.142  0.4684  0.8706  0.8421
 5366SOL     OW27556   0.091   4.347   7.817 -0.0556 -0.4077 -0.2618
 5366SOL    HW127557   0.171   4.316   7.859 -0.4488  1.8985  2.2114
 5366SOL    HW227558   0.034   4.272   7.837 -0.6415 -0.0367 -0.5440
 5367SOL     OW27559   1.193   3.133   8.088  0.0542  0.1395 -0.1772
 5367SOL    HW127560   1.260   3.162   8.151 -0.0766  2.9000 -1.2888
 5367SOL    HW227561   1.189   3.203   8.022 -0.4776  2.2510  2.0631
 5368SOL     OW27562   4.670   3.618   4.200  0.3304 -0.4716  0.6538
 5368SOL    HW127563   4.632   3.553   4.259  2.5501 -0.1764  2.3954
 5368SOL    HW227564   0.020   3.654   4.249 -1.9757  2.8017  1.7653
 5369SOL     OW27565   1.599   1.630   2.421  0.0618  0.6387  0.1229
 5369SOL    HW127566   1.519   1.621   2.473 -0.5986 -2.1890 -1.3378
 5369SOL    HW227567   1.656   1.680   2.479  1.8330  1.0360 -1.9480
 5370SOL     OW27568   3.139   2.693  15.914  0.6068 -0.0956  0.2086
 5370SOL    HW127569   3.112   2.607  15.946  1.3703 -0.9142 -1.3567
 5370SOL    HW227570   3.148   2.747  15.993 -1.2649  0.3088  0.1475
 5371SOL     OW27571   4.171   3.886   1.462 -0.2385 -0.7937  0.2770
 5371SOL    HW127572   4.087   3.906   1.502 -0.5206 -1.7546  0.1498
 5371SOL    HW227573   4.191   3.799   1.496 -1.5083 -0.4442  1.8888
 5372SOL     OW27574   2.821   4.291   1.468  0.5291 -0.4573  0.8073
 5372SOL    HW127575   2.729   4.267   1.470  0.5634 -0.7184 -0.8039
 5372SOL    HW227576   2.839   4.329   1.554  2.0819 -0.9586  0.7006
 5373SOL     OW27577   4.479   0.688   2.248  0.3075  1.0069  0.1237
 5373SOL    HW127578   4.556   0.721   2.295  1.4361 -3.3611  1.3170
 5373SOL    HW227579   4.407   0.740   2.284  1.2051  1.1538  1.7448
 5374SOL     OW27580   0.473   4.220   8.056 -0.0915  0.0452  0.7063
 5374SOL    HW127581   0.509   4.290   8.110 -1.7319 -0.3595  2.3180
 5374SOL    HW227582   0.382   4.247   8.050  0.1328  0.9201  1.2758
 5375SOL     OW27583   2.280   4.272   0.068  0.4144 -0.2158 -1.2675
 5375SOL    HW127584   2.235   4.347   0.106  0.0086 -1.5707  0.8851
 5375SOL    HW227585   2.369   4.274   0.102 -0.2848  0.2466  0.5283
 5376SOL     OW27586   4.426   4.169   5.342  0.7421 -0.2226 -0.2935
 5376SOL    HW127587   4.412   4.083   5.382  2.8469 -0.3585  0.1593
 5376SOL    HW227588   4.336   4.184   5.316  1.6664  0.9182 -2.8711
 5377SOL     OW27589   1.123   4.343   4.490  0.1060  0.3163  0.7627
 5377SOL    HW127590   1.103   4.392   4.410 -1.9514  0.8449  1.5984
 5377SOL    HW227591   1.190   4.286   4.452  0.5500 -0.4748  2.7322
 5378SOL     OW27592   0.090   3.643  17.229  0.3113 -0.3839 -0.0513
 5378SOL    HW127593   0.105   3.676  17.140 -1.6531  0.4651 -0.0753
 5378SOL    HW227594   0.163   3.676  17.281  1.2248  0.8448 -2.0911
 5379SOL     OW27595   1.301   0.843  12.623  0.6554  0.3411  0.5092
 5379SOL    HW127596   1.290   0.918  12.681 -0.2296  1.1240 -0.6746
 5379SOL    HW227597   1.374   0.796  12.663  0.7777 -0.8842 -1.1909
 5380SOL     OW27598   4.568   4.609   8.040 -0.1670 -0.3737 -0.1788
 5380SOL    HW127599   4.582   4.699   8.072  0.0622 -1.0090  1.5164
 5380SOL    HW227600   4.595   4.569   8.123 -1.8862  1.9286  1.5351
 5381SOL     OW27601   4.081   1.833   5.578 -0.0846  0.1327 -0.6919
 5381SOL    HW127602   4.080   1.927   5.593 -0.5265  0.3141 -1.8820
 5381SOL    HW227603   4.129   1.800   5.655  0.6075 -0.0540 -1.1984
 5382SOL     OW27604   4.152   1.730  12.692  0.3107  0.2543 -0.2122
 5382SOL    HW127605   4.190   1.644  12.674 -0.8708 -0.0296 -1.3990
 5382SOL    HW227606   4.058   1.714  12.702  0.5381 -1.4780 -0.7069
 5383SOL     OW27607   4.114   0.148   6.368 -0.9232  0.3884  0.4081
 5383SOL    HW127608   4.088   0.178   6.455 -0.9981 -0.3861  0.6485
 5383SOL    HW227609   4.191   0.200   6.347 -0.0768 -0.6886  0.8879
 5384SOL     OW27610   3.201   4.706   5.948 -0.3435  0.6014 -0.0561
 5384SOL    HW127611   3.211   4.652   5.870 -2.8979  0.2141 -0.1214
 5384SOL    HW227612   3.196   0.070   5.910  0.9827  0.1652 -1.2409
 5385SOL     OW27613   0.142   1.088  15.217  0.5099 -0.6471  0.0349
 5385SOL    HW127614   0.148   1.087  15.312  1.1274 -0.2779  0.0037
 5385SOL    HW227615   0.056   1.051  15.202 -0.8697  2.1070  1.1580
 5386SOL     OW27616   1.606   3.909   4.491 -0.0308 -0.3421 -0.0199
 5386SOL    HW127617   1.571   3.949   4.570 -0.6049 -0.1226 -0.3920
 5386SOL    HW227618   1.654   3.829   4.512  0.9307  0.2650  0.1334
 5387SOL     OW27619   3.982   2.591   7.637  0.1180 -0.3495 -0.2732
 5387SOL    HW127620   3.930   2.511   7.642  0.8892 -0.8522 -0.3911
 5387SOL    HW227621   4.036   2.588   7.716 -0.7908  0.4064  0.3774
 5388SOL     OW27622   0.155   0.836  12.844 -0.1440 -0.2256 -0.7444
 5388SOL    HW127623   0.157   0.810  12.936  0.0072  1.6381 -0.2163
 5388SOL    HW227624   0.249   0.843  12.827 -0.1330  1.2633 -0.0637
 5389SOL     OW27625   1.746   4.264   4.062 -0.0078  0.1109  0.3808
 5389SOL    HW127626   1.712   4.220   4.140 -0.8273  0.4887  0.2399
 5389SOL    HW227627   1.700   4.221   3.990  0.7355  0.7927 -0.4976
 5390SOL     OW27628   0.368   1.150   9.699 -0.6955  0.7519  0.4401
 5390SOL    HW127629   0.444   1.154   9.756  1.1439  2.0078 -2.0907
 5390SOL    HW227630   0.385   1.222   9.638 -0.8156 -0.1885 -0.7029
 5391SOL     OW27631   1.871   1.001   2.513  0.3920 -0.3176 -0.0234
 5391SOL    HW127632   1.776   0.989   2.517  0.4406 -0.8887 -0.4569
 5391SOL    HW227633   1.900   0.995   2.422 -0.2962  0.0685 -0.2687
 5392SOL     OW27634   4.457   4.608   6.103 -0.6035 -0.6638 -0.0977
 5392SOL    HW127635   4.403   4.589   6.180  0.8488  1.8066  1.5623
 5392SOL    HW227636   4.539   4.639   6.143 -1.2874  2.8884 -1.4234
 5393SOL     OW27637   1.380   4.071   1.298  0.3267 -0.2943 -0.2087
 5393SOL    HW127638   1.374   4.158   1.260  1.4091  0.6734  1.8345
 5393SOL    HW227639   1.377   4.094   1.391 -2.7459  3.0551 -1.1938
 5394SOL     OW27640   1.017   2.480  12.304  0.1693 -0.0125  0.1911
 5394SOL    HW127641   0.995   2.451  12.392  0.4876 -0.9092 -0.0300
 5394SOL    HW227642   1.112   2.487  12.300  0.0753  0.5492 -1.0798
 5395SOL     OW27643   4.089   0.614   2.413 -0.0346  0.7140 -0.3172
 5395SOL    HW127644   4.123   0.596   2.326 -0.2403 -1.2373  0.0176
 5395SOL    HW227645   4.030   0.541   2.432 -1.4728  1.6303 -1.2887
 5396SOL     OW27646   2.711   1.942   7.228 -0.1482 -0.4700 -0.0605
 5396SOL    HW127647   2.767   1.999   7.175 -4.1135  2.6105 -0.9115
 5396SOL    HW227648   2.635   1.931   7.171  0.9859 -0.1656 -1.6137
 5397SOL     OW27649   1.073   2.687   6.313  0.3389 -0.2504 -0.6224
 5397SOL    HW127650   1.131   2.762   6.326  0.1370  0.0048 -1.2216
 5397SOL    HW227651   0.995   2.741   6.322  1.5344  1.1827  1.3297
 5398SOL     OW27652   2.114   2.317   2.125 -0.1846 -0.1425  0.0137
 5398SOL    HW127653   2.191   2.330   2.181 -1.4140  0.4366  1.5644
 5398SOL    HW227654   2.156   2.289   2.043 -0.4549 -0.0728 -0.1509
 5399SOL     OW27655   1.720   0.450  15.236 -0.8745 -0.2861  0.3016
 5399SOL    HW127656   1.732   0.360  15.205  0.7344 -0.2210  0.7256
 5399SOL    HW227657   1.738   0.482  15.148 -0.7666 -0.2251  0.3461
 5400SOL     OW27658   1.244   2.297   4.147 -0.0771 -0.0942  0.4291
 5400SOL    HW127659   1.184   2.269   4.079 -0.5333  0.6045  0.5370
 5400SOL    HW227660   1.195   2.374   4.179 -0.9876 -1.1962  1.6960
 5401SOL     OW27661   1.625   4.358  10.765 -0.3453 -0.2246  0.1663
 5401SOL    HW127662   1.707   4.403  10.789 -0.4819 -0.8460  1.8289
 5401SOL    HW227663   1.568   4.431  10.740  1.0189  1.1192  0.9582
 5402SOL     OW27664   0.077   4.266   2.566 -0.4701  0.0173  0.2309
 5402SOL    HW127665   0.151   4.306   2.520 -0.2992 -0.6458 -0.0741
 5402SOL    HW227666   0.060   4.196   2.503 -2.3746  1.3200 -0.6809
 5403SOL     OW27667   4.362   4.564   6.609  0.0395  0.3099  0.1673
 5403SOL    HW127668   4.430   4.541   6.672  0.8822  0.7540 -0.5854
 5403SOL    HW227669   4.300   4.613   6.663 -0.7859 -1.2158  0.5815
 5404SOL     OW27670   0.513   1.682   2.648 -0.2885 -0.5506 -0.1318
 5404SOL    HW127671   0.520   1.587   2.639 -2.1375 -0.8415  1.4489
 5404SOL    HW227672   0.501   1.708   2.557 -0.4929  0.5318  0.2116
 5405SOL     OW27673   2.151   1.800  16.457 -0.7628 -0.5362 -0.1432
 5405SOL    HW127674   2.190   1.803  16.370 -0.9621 -0.5233 -0.2325
 5405SOL    HW227675   2.063   1.772  16.434 -0.4338 -0.6510 -1.2372
 5406SOL     OW27676   0.829   3.065  16.559 -0.2370 -0.7152  0.3388
 5406SOL    HW127677   0.865   3.152  16.579 -3.1475  0.1802  1.6607
 5406SOL    HW227678   0.736   3.072  16.578 -0.1084  0.2327  0.6494
 5407SOL     OW27679   4.371   1.147  10.352  0.2020  0.3060  0.0598
 5407SOL    HW127680   4.438   1.151  10.283  0.8133 -0.6479  0.5950
 5407SOL    HW227681   4.376   1.234  10.390 -1.4772  0.6335 -0.4702
 5408SOL     OW27682   0.789   4.217  13.801  0.3501  0.1524  0.5053
 5408SOL    HW127683   0.697   4.192  13.812  0.2629 -0.8905 -2.6460
 5408SOL    HW227684   0.794   4.281  13.872 -0.4288 -0.4083  1.0609
 5409SOL     OW27685   0.489   3.399  12.476  0.2338  0.3912 -0.0806
 5409SOL    HW127686   0.395   3.417  12.482  0.4252  1.5155 -0.4321
 5409SOL    HW227687   0.513   3.438  12.392  1.9721 -1.8539 -0.6025
 5410SOL     OW27688   0.410   3.049   5.710  0.0913 -1.1624 -0.0048
 5410SOL    HW127689   0.378   3.027   5.797  0.2919 -0.1852  0.3220
 5410SOL    HW227690   0.381   3.140   5.706 -0.0165 -1.1489  1.0056
 5411SOL     OW27691   2.893   1.146   8.464  0.4261  0.0490 -0.0542
 5411SOL    HW127692   2.897   1.131   8.370  3.4595 -0.2047  0.1271
 5411SOL    HW227693   2.810   1.108   8.492  1.0293  0.1510  1.8662
 5412SOL     OW27694   3.211   0.297   1.956 -0.4065  0.5637 -0.4293
 5412SOL    HW127695   3.299   0.282   1.923 -0.0176 -2.3109  1.8290
 5412SOL    HW227696   3.226   0.271   2.047 -2.4564 -0.6821 -0.4439
 5413SOL     OW27697   1.096   1.262   4.907  0.0748 -0.1030 -0.4199
 5413SOL    HW127698   1.080   1.213   4.827  0.5411  0.0625 -0.6177
 5413SOL    HW227699   1.007   1.272   4.942  0.7883 -0.3378  1.4952
 5414SOL     OW27700   0.185   0.577   7.467 -0.3302 -0.1912 -0.2741
 5414SOL    HW127701   0.154   0.487   7.475  3.0273 -1.5945 -3.2602
 5414SOL    HW227702   0.272   0.562   7.505  0.0106  2.4327  0.0233
 5415SOL     OW27703   2.262   1.985  15.255  0.5248  0.0100 -0.1043
 5415SOL    HW127704   2.227   2.055  15.201 -1.9607 -0.6992  0.5677
 5415SOL    HW227705   2.178   1.972  15.300 -0.4289 -1.1801 -2.2041
 5416SOL     OW27706   0.247   4.193  13.825 -0.2575 -0.2016  0.3220
 5416SOL    HW127707   0.233   4.268  13.768 -0.4988 -0.4007  0.1215
 5416SOL    HW227708   0.159   4.157  13.834 -1.0246  1.3813 -0.9371
 5417SOL     OW27709   2.981   1.733   3.412 -0.5058  0.1851 -0.0737
 5417SOL    HW127710   2.885   1.734   3.414 -0.4817  0.8848  0.5776
 5417SOL    HW227711   2.999   1.784   3.491 -0.2573 -1.0931  0.6821
 5418SOL     OW27712   2.425   2.836  14.403 -0.5111 -0.3730 -0.1963
 5418SOL    HW127713   2.478   2.906  14.364 -1.9317  0.9747  0.2947
 5418SOL    HW227714   2.393   2.788  14.327  0.3966 -1.1942 -0.0679
 5419SOL     OW27715   0.746   1.807   3.332  0.0867 -0.0850  0.1185
 5419SOL    HW127716   0.719   1.725   3.373  4.1886 -1.3080  0.3874
 5419SOL    HW227717   0.773   1.777   3.245 -0.2500 -2.8897  0.9918
 5420SOL     OW27718   3.462   3.112   5.977 -0.0993  0.5538 -0.2061
 5420SOL    HW127719   3.485   3.044   6.041  3.4899  1.0582 -0.9443
 5420SOL    HW227720   3.520   3.183   6.008  0.0779 -0.1693  1.1339
 5421SOL     OW27721   4.380   0.471   1.193  0.3899 -0.2809 -0.3540
 5421SOL    HW127722   4.422   0.433   1.270 -1.2078  0.0234  0.6615
 5421SOL    HW227723   4.424   0.419   1.125  0.8263 -0.1692 -0.1544
 5422SOL     OW27724   4.181   3.417   7.846 -0.4348  0.0502 -0.0429
 5422SOL    HW127725   4.092   3.384   7.858  0.6958 -2.2548  2.0701
 5422SOL    HW227726   4.201   3.362   7.769  1.0031 -0.0542  0.3976
 5423SOL     OW27727   4.003   3.084   7.583  0.2149  0.3804  0.0089
 5423SOL    HW127728   4.060   3.159   7.566 -1.3664  1.8845  1.3236
 5423SOL    HW227729   4.051   3.055   7.661 -0.6816 -1.0692  0.0135
 5424SOL     OW27730   1.902   3.698   5.922  0.1510  0.2565 -0.0109
 5424SOL    HW127731   1.863   3.776   5.881  0.8353  0.1262 -0.8934
 5424SOL    HW227732   1.972   3.667   5.865 -0.2302  0.0221 -0.3488
 5425SOL     OW27733   0.786   4.096   6.114 -0.4065  0.3168 -0.3583
 5425SOL    HW127734   0.750   4.174   6.155  2.7578  0.9889  1.1885
 5425SOL    HW227735   0.715   4.060   6.061  1.7649 -2.4506 -1.4192
 5426SOL     OW27736   2.543   3.357   8.990 -0.2658  0.0158 -0.4415
 5426SOL    HW127737   2.548   3.315   8.904 -3.4046 -2.3171  0.4969
 5426SOL    HW227738   2.596   3.289   9.031  0.3455  0.4246 -0.5503
 5427SOL     OW27739   4.316   1.336   4.413 -1.0466  0.1409 -0.1356
 5427SOL    HW127740   4.368   1.417   4.418  1.2446 -1.3209 -0.2462
 5427SOL    HW227741   4.340   1.319   4.322  0.5974  0.5180  0.2340
 5428SOL     OW27742   0.471   2.640   5.033  0.2294 -0.5022  0.4748
 5428SOL    HW127743   0.380   2.639   5.004  0.3035  3.9203  0.0816
 5428SOL    HW227744   0.475   2.711   5.097 -1.8676 -0.3150  0.4138
 5429SOL     OW27745   2.294   3.338   8.018 -0.2246  0.3304 -0.6325
 5429SOL    HW127746   2.341   3.259   8.044  0.5293  1.3193  1.0399
 5429SOL    HW227747   2.252   3.312   7.936 -1.4363  1.1887 -0.2844
 5430SOL     OW27748   3.252   0.961  12.634 -0.4837 -0.6633 -0.2566
 5430SOL    HW127749   3.333   0.914  12.651 -1.6323 -1.6906  2.3255
 5430SOL    HW227750   3.211   0.895  12.578  1.4332 -1.0920 -1.1445
 5431SOL     OW27751   3.504   3.287   9.712  0.0414  0.0951 -0.1307
 5431SOL    HW127752   3.568   3.356   9.730  1.9226 -1.8800  0.7022
 5431SOL    HW227753   3.512   3.230   9.789  0.6265  1.8838  1.1559
 5432SOL     OW27754   4.530   4.116  14.618 -0.1902 -0.6472  0.2792
 5432SOL    HW127755   4.514   4.207  14.592  2.4309 -0.3379 -0.2651
 5432SOL    HW227756   4.504   4.074  14.536 -1.3322  2.5859 -1.0240
 5433SOL     OW27757   3.881   2.840   7.504  0.3776 -0.2860 -0.0078
 5433SOL    HW127758   3.936   2.770   7.541 -0.4803 -1.5059 -1.0305
 5433SOL    HW227759   3.928   2.919   7.530 -0.6940  0.2005  0.4655
 5434SOL     OW27760   0.828   3.018   2.067 -0.2584 -0.0955 -0.9455
 5434SOL    HW127761   0.794   2.958   2.000 -2.6250 -1.4089  1.4144
 5434SOL    HW227762   0.921   3.000   2.052 -0.3331 -0.1208 -1.3816
 5435SOL     OW27763   1.216   1.664  14.438 -0.0568  0.4302  0.5240
 5435SOL    HW127764   1.229   1.578  14.478 -0.2735 -0.1543 -0.6411
 5435SOL    HW227765   1.279   1.722  14.481  0.6625 -0.7497  1.0660
 5436SOL     OW27766   2.871   2.171   2.195 -0.0771 -0.2641  0.5866
 5436SOL    HW127767   2.849   2.095   2.142  1.5015 -0.0794 -0.3320
 5436SOL    HW227768   2.896   2.235   2.128 -0.4826 -0.2903  0.4094
 5437SOL     OW27769   3.823   1.589   5.928  0.5347 -0.3157  0.2886
 5437SOL    HW127770   3.879   1.654   5.969 -0.0038 -0.5445  1.4077
 5437SOL    HW227771   3.853   1.603   5.839 -3.2285  1.1062 -0.7254
 5438SOL     OW27772   2.531   0.435   5.680 -0.2588 -0.3665  0.0119
 5438SOL    HW127773   2.572   0.521   5.688  1.3107 -1.2460  1.4379
 5438SOL    HW227774   2.453   0.462   5.632 -0.0323  0.1540 -0.0608
 5439SOL     OW27775   2.142   1.235   7.468 -0.3754 -0.4909 -0.1097
 5439SOL    HW127776   2.121   1.163   7.408  2.0432 -0.4514 -1.0223
 5439SOL    HW227777   2.177   1.190   7.545  0.1213 -0.8127 -0.5222
 5440SOL     OW27778   3.816   0.405  11.958  0.1311 -0.6498  0.3816
 5440SOL    HW127779   3.834   0.353  12.036 -0.0166  0.9488  1.4960
 5440SOL    HW227780   3.735   0.446  11.990 -0.9516 -2.5094 -0.0154
 5441SOL     OW27781   1.247   0.419  11.162  0.0831  0.8461  0.3529
 5441SOL    HW127782   1.281   0.331  11.146 -0.6166  0.6234  0.0833
 5441SOL    HW227783   1.203   0.410  11.246  0.7614 -0.5340  0.5583
 5442SOL     OW27784   4.686   2.299   3.850 -0.2878  0.0574 -0.0357
 5442SOL    HW127785   4.644   2.213   3.841 -2.9438  1.3029  0.3809
 5442SOL    HW227786   0.046   2.279   3.891 -0.7223  0.1681  0.9050
 5443SOL     OW27787   1.239   1.806   5.801  1.2364  0.1896 -0.3705
 5443SOL    HW127788   1.228   1.725   5.751 -1.4469  0.1489  0.2954
 5443SOL    HW227789   1.208   1.871   5.738  2.2316 -1.1043 -2.2054
 5444SOL     OW27790   3.563   1.668  13.644  0.3689 -0.1478 -0.1229
 5444SOL    HW127791   3.503   1.600  13.611  1.0081 -0.2047 -1.1966
 5444SOL    HW227792   3.648   1.642  13.607  0.4811 -0.0764  0.0843
 5445SOL     OW27793   3.287   2.043   7.731  0.2141 -0.2513 -0.0835
 5445SOL    HW127794   3.291   2.057   7.826  0.1029 -3.5385  0.4040
 5445SOL    HW227795   3.376   2.068   7.708 -0.3222 -0.0740 -1.9726
 5446SOL     OW27796   0.207   1.512   9.411 -0.3341 -0.4558  0.0577
 5446SOL    HW127797   0.164   1.434   9.376  1.0676 -0.4522 -1.6690
 5446SOL    HW227798   0.147   1.545   9.478  0.8515  0.9035  0.4544
 5447SOL     OW27799   0.110   1.027  17.343  0.1292 -0.2088  0.3132
 5447SOL    HW127800   0.084   0.938  17.369  0.3275 -0.4174 -0.2139
 5447SOL    HW227801   0.131   1.069  17.427 -0.4292 -2.0513  1.3815
 5448SOL     OW27802   3.314   4.565  10.832 -0.2448  0.5219  0.0227
 5448SOL    HW127803   3.363   4.495  10.788 -0.4725 -0.8718  1.9530
 5448SOL    HW227804   3.354   4.644  10.796  0.9234  1.1293  2.6219
 5449SOL     OW27805   4.236   1.564  17.193 -0.4888  0.0122  0.5302
 5449SOL    HW127806   4.185   1.644  17.202  1.4115  1.2792  0.0690
 5449SOL    HW227807   4.316   1.605  17.160  0.4387 -2.8646 -0.7975
 5450SOL     OW27808   0.924   0.653   3.880  0.3680  0.2858 -0.4834
 5450SOL    HW127809   0.897   0.720   3.943 -0.6618 -0.1521 -0.4584
 5450SOL    HW227810   0.925   0.711   3.803  2.1647  1.2509  0.2673
 5451SOL     OW27811   2.719   1.826   8.488 -0.0297 -0.5643 -0.5605
 5451SOL    HW127812   2.748   1.866   8.406  1.6154  2.5282  1.5134
 5451SOL    HW227813   2.697   1.736   8.465  0.2723 -1.0716  1.1213
 5452SOL     OW27814   1.838   4.210   2.765  0.5264 -0.3438 -0.2710
 5452SOL    HW127815   1.784   4.289   2.761  2.0166  0.6433 -0.5504
 5452SOL    HW227816   1.892   4.244   2.836  2.6050  2.0792 -3.0242
 5453SOL     OW27817   2.491   3.524   5.671  0.1675 -0.0989 -0.7378
 5453SOL    HW127818   2.533   3.450   5.628 -1.8340 -0.3999 -2.1843
 5453SOL    HW227819   2.568   3.563   5.713  0.2413  0.1335 -1.0919
 5454SOL     OW27820   3.120   4.320  11.960  0.1937 -0.7975  0.3454
 5454SOL    HW127821   3.041   4.272  11.983 -1.5059  1.4165 -0.8301
 5454SOL    HW227822   3.107   4.399  12.014  1.4390 -1.5326  1.7229
 5455SOL     OW27823   2.952   3.875  15.053 -0.3633  0.2627 -0.3302
 5455SOL    HW127824   3.027   3.836  15.008 -1.1208 -0.5413 -0.8980
 5455SOL    HW227825   2.954   3.813  15.126  0.3960  2.0894  1.2102
 5456SOL     OW27826   1.817   2.058   4.875  0.2149 -0.1276 -0.1375
 5456SOL    HW127827   1.799   2.101   4.959 -0.7510  1.1209 -0.9818
 5456SOL    HW227828   1.890   2.000   4.895  0.0306 -0.2882  0.0766
 5457SOL     OW27829   3.461   2.660   8.305  0.1054  0.3533  0.2678
 5457SOL    HW127830   3.522   2.602   8.260  0.3454  0.4993  0.4070
 5457SOL    HW227831   3.506   2.654   8.389 -0.5438 -0.6986  0.5487
 5458SOL     OW27832   4.552   2.926   2.070  0.5851  0.6941  0.2842
 5458SOL    HW127833   4.470   2.972   2.091 -1.4014 -2.3818 -0.7078
 5458SOL    HW227834   4.545   2.855   2.134  1.1178 -0.6020 -1.0981
 5459SOL     OW27835   4.714   1.695   3.881  0.0531  0.4121  0.2804
 5459SOL    HW127836   4.705   1.765   3.817 -0.3622  0.3859  0.3115
 5459SOL    HW227837   4.702   1.745   3.962  0.1889 -0.1386  0.6388
 5460SOL     OW27838   1.262   0.846  13.268 -0.1382  0.2433  0.6030
 5460SOL    HW127839   1.172   0.865  13.242 -0.6400 -0.2873  1.9393
 5460SOL    HW227840   1.294   0.798  13.191  0.7918 -2.1678  2.4934
 5461SOL     OW27841   4.021   3.390   7.232  0.5064  0.2136  0.1278
 5461SOL    HW127842   4.089   3.323   7.235 -1.7545 -2.1136 -1.1534
 5461SOL    HW227843   4.069   3.461   7.275  1.6784 -1.1562  1.0894
 5462SOL     OW27844   2.962   2.977  11.688  0.5648  0.1501 -0.1338
 5462SOL    HW127845   2.993   3.038  11.621 -0.9978 -1.3109 -2.1630
 5462SOL    HW227846   2.969   3.032  11.767  0.7103 -0.8592  0.5541
 5463SOL     OW27847   2.102   0.384   5.334  0.0455 -0.2740  0.1294
 5463SOL    HW127848   2.108   0.474   5.366  1.3292  0.4701 -2.2023
 5463SOL    HW227849   2.015   0.354   5.360 -0.1699  0.7431  0.5822
 5464SOL     OW27850   2.097   0.986   9.184 -0.1327 -0.3107  0.1823
 5464SOL    HW127851   2.042   1.022   9.254  0.2822 -1.5873  1.1748
 5464SOL    HW227852   2.167   0.955   9.242 -1.2264 -0.5569  1.3873
 5465SOL     OW27853   2.608   3.849   8.532  0.3357 -0.4622  0.3369
 5465SOL    HW127854   2.659   3.929   8.543  1.7682 -1.2026 -0.9961
 5465SOL    HW227855   2.682   3.799   8.499  1.3520  1.5296 -0.3840
 5466SOL     OW27856   4.206   2.339  14.654  0.3402 -0.1356  0.3340
 5466SOL    HW127857   4.289   2.299  14.679 -0.1700 -1.9671 -0.8577
 5466SOL    HW227858   4.217   2.434  14.645 -3.1245  0.0610 -1.8209
 5467SOL     OW27859   0.171   3.854   1.209  0.2433  0.2665  0.0273
 5467SOL    HW127860   0.258   3.876   1.176  1.6750  0.2174  3.8040
 5467SOL    HW227861   0.174   3.766   1.172  0.0117  1.7396 -3.4715
 5468SOL     OW27862   0.887   3.593   3.271 -0.3038 -0.7402  0.1816
 5468SOL    HW127863   0.841   3.518   3.308 -2.9039  0.4240 -0.7369
 5468SOL    HW227864   0.974   3.554   3.260  0.7864  2.1835 -1.5653
 5469SOL     OW27865   1.541   0.302   2.644  0.2133 -0.1527 -0.1497
 5469SOL    HW127866   1.476   0.344   2.701  1.5772  0.8360  0.6581
 5469SOL    HW227867   1.539   0.220   2.693  0.9831  0.7291  1.3518
 5470SOL     OW27868   1.601   4.324   9.283  0.2334  0.0553 -0.1232
 5470SOL    HW127869   1.577   4.409   9.319  1.5210  0.2649  0.2448
 5470SOL    HW227870   1.536   4.266   9.324 -0.0737  0.0957 -0.5474
 5471SOL     OW27871   4.668   0.443   1.702  0.0627  0.2584  0.2631
 5471SOL    HW127872   4.723   0.367   1.680  0.1161  0.7120 -1.1508
 5471SOL    HW227873   4.662   0.427   1.796 -0.2741  1.9298  0.5221
 5472SOL     OW27874   4.312   4.685  13.779  0.0867 -0.3905 -0.2994
 5472SOL    HW127875   4.337   4.616  13.718 -0.8110  1.1557 -2.4266
 5472SOL    HW227876   4.286   0.029  13.716 -0.2356  0.3715  0.6356
 5473SOL     OW27877   3.494   1.241  12.686  0.6194 -0.8475  0.0961
 5473SOL    HW127878   3.491   1.259  12.592  0.1927 -1.8208 -0.0775
 5473SOL    HW227879   3.528   1.152  12.689 -1.1137 -1.4847  0.8124
 5474SOL     OW27880   2.587   1.916   6.183  0.8737  0.0758 -0.1152
 5474SOL    HW127881   2.532   1.981   6.140 -1.5839  0.0041  2.9839
 5474SOL    HW227882   2.523   1.865   6.231  2.0185 -0.4019  0.9100
 5475SOL     OW27883   2.657   4.617   1.860  0.2453  0.5094 -0.5606
 5475SOL    HW127884   2.680   4.526   1.879 -1.0538 -0.3392 -2.9929
 5475SOL    HW227885   2.565   4.609   1.887  0.7975 -3.0709  0.1825
 5476SOL     OW27886   2.471   0.056   5.402 -0.0271  0.1357  0.6991
 5476SOL    HW127887   2.456   0.023   5.313 -0.0207  0.6262  0.5158
 5476SOL    HW227888   2.518   0.138   5.387  0.3958 -0.2237  0.0971
 5477SOL     OW27889   1.557   4.248   8.419 -0.1279  0.0464 -0.1234
 5477SOL    HW127890   1.562   4.269   8.512 -1.6178  1.0551 -0.2793
 5477SOL    HW227891   1.483   4.300   8.390 -0.0342  0.1245 -0.2225
 5478SOL     OW27892   4.330   4.596  14.265 -0.3879 -0.4907 -0.0828
 5478SOL    HW127893   4.305   4.581  14.174  0.7751  1.8806 -0.7971
 5478SOL    HW227894   4.391   4.670  14.261  1.4105 -1.8024  2.7873
 5479SOL     OW27895   0.856   4.047   5.032 -0.1059 -0.2982  0.2283
 5479SOL    HW127896   0.909   3.968   5.044  1.8193  1.2562  1.8563
 5479SOL    HW227897   0.839   4.053   5.126  0.0131  2.1132  0.0965
 5480SOL     OW27898   3.933   1.679   1.301 -0.2385 -0.3425 -0.3129
 5480SOL    HW127899   3.930   1.673   1.397 -0.5799  1.7517 -0.1902
 5480SOL    HW227900   3.898   1.592   1.285  1.2099 -1.2165  1.2333
 5481SOL     OW27901   3.291   0.085   5.448 -0.4477  0.0245 -0.2328
 5481SOL    HW127902   3.204   0.069   5.486 -0.2819 -0.1824  0.0600
 5481SOL    HW227903   3.282   0.039   5.364 -2.4903  0.6153 -0.3497
 5482SOL     OW27904   3.662   1.107   5.499 -0.4456  0.3135 -0.0664
 5482SOL    HW127905   3.635   1.061   5.579 -0.6969 -1.4240 -1.1544
 5482SOL    HW227906   3.596   1.061   5.447  0.4412  0.2677 -1.1513
 5483SOL     OW27907   1.236   0.902   2.176 -0.0244 -0.0942  0.0917
 5483SOL    HW127908   1.173   0.879   2.108 -0.1154 -3.4846  1.3337
 5483SOL    HW227909   1.282   0.970   2.126 -1.1329 -1.2667 -2.5020
 5484SOL     OW27910   4.711   1.244  17.565  0.1879  0.0995 -0.5329
 5484SOL    HW127911   0.041   1.169  17.588  1.8506  1.2073 -0.7942
 5484SOL    HW227912   4.628   1.204  17.592 -0.8634  3.1766  0.8661
 5485SOL     OW27913   3.812   0.476  14.978 -0.2357  0.0876 -0.0617
 5485SOL    HW127914   3.886   0.496  14.922  1.0301 -0.9250  1.2686
 5485SOL    HW227915   3.749   0.513  14.916 -2.0920  1.1895  2.4544
 5486SOL     OW27916   1.643   4.716   8.981  0.1892  0.1124 -0.0088
 5486SOL    HW127917   1.664   4.673   9.064 -0.4124  0.9866  0.5999
 5486SOL    HW227918   1.627   0.083   9.007  0.1816 -0.5341  2.3014
 5487SOL     OW27919   0.401   3.977   0.235 -0.6808  0.6490  0.5850
 5487SOL    HW127920   0.394   3.892   0.193  0.6276  0.5747  0.5274
 5487SOL    HW227921   0.359   4.036   0.173  1.0665 -0.1610 -1.3612
 5488SOL     OW27922   0.053   0.330   2.699 -0.4475  0.8511 -0.1971
 5488SOL    HW127923   0.034   0.291   2.614  0.0856 -1.5667  0.7975
 5488SOL    HW227924   0.137   0.371   2.678  1.0600 -1.2019  1.8610
 5489SOL     OW27925   2.950   0.368   2.464  0.2391 -0.7224 -0.0535
 5489SOL    HW127926   3.002   0.367   2.545 -0.1753 -0.7399  0.2136
 5489SOL    HW227927   2.905   0.284   2.469 -0.0784 -0.7193 -2.9482
 5490SOL     OW27928   3.239   2.336  14.190 -0.3739 -0.3026 -0.1984
 5490SOL    HW127929   3.189   2.417  14.191  0.0996 -0.0094 -0.2998
 5490SOL    HW227930   3.287   2.338  14.273 -0.7025  1.1867 -0.0456
 5491SOL     OW27931   4.010   3.329   5.999 -0.2808  0.0582 -0.0198
 5491SOL    HW127932   3.960   3.272   5.940 -0.5529  1.1891 -0.8709
 5491SOL    HW227933   4.095   3.320   5.955 -0.6856  2.2146 -1.2530
 5492SOL     OW27934   3.473   3.450   6.575  0.2724 -0.3448 -0.1216
 5492SOL    HW127935   3.487   3.422   6.484 -1.4153 -0.1947 -0.4258
 5492SOL    HW227936   3.385   3.488   6.575 -0.2780 -1.6550  1.8116
 5493SOL     OW27937   2.797   4.019   2.250 -0.2151  0.1568 -0.1801
 5493SOL    HW127938   2.874   4.075   2.240 -0.7739  0.6190 -1.8506
 5493SOL    HW227939   2.825   3.942   2.200  0.2180 -0.7817  1.4943
 5494SOL     OW27940   0.293   4.391   3.392 -0.2111  0.2261 -0.0508
 5494SOL    HW127941   0.374   4.430   3.424  0.1333  0.4779 -1.2533
 5494SOL    HW227942   0.245   4.374   3.473  0.7421 -1.6218  0.1201
 5495SOL     OW27943   4.576   2.247   2.534  0.3568 -0.5049  0.1284
 5495SOL    HW127944   4.557   2.201   2.453  1.2540 -2.3030  0.9345
 5495SOL    HW227945   4.660   2.207   2.555  1.3581  0.1511 -2.6644
 5496SOL     OW27946   3.112   2.916  14.533  0.2982  0.2604  0.0766
 5496SOL    HW127947   3.025   2.948  14.508  0.5718  0.7798 -0.2093
 5496SOL    HW227948   3.157   3.000  14.540  2.1933 -0.6094 -1.5058
 5497SOL     OW27949   1.848   4.505   2.352 -0.1754 -0.0049  0.3266
 5497SOL    HW127950   1.819   4.415   2.342  2.7191 -0.8785 -0.1923
 5497SOL    HW227951   1.862   4.524   2.259 -0.2490  1.6159  0.6431
 5498SOL     OW27952   3.904   0.785   3.096  0.4029 -0.0523 -0.1221
 5498SOL    HW127953   3.865   0.863   3.056 -0.0814 -0.2524 -0.0457
 5498SOL    HW227954   3.901   0.805   3.189  3.0834  0.6098 -0.1805
 5499SOL     OW27955   1.104   2.173   7.548 -0.2731 -0.6840 -0.1553
 5499SOL    HW127956   1.104   2.267   7.532 -0.6118 -0.8495 -1.1627
 5499SOL    HW227957   1.013   2.148   7.564 -1.1649  2.4686 -0.3071
 5500SOL     OW27958   4.536   1.543   8.215  0.1211 -0.2041  0.6583
 5500SOL    HW127959   4.476   1.472   8.237 -1.4414  0.7552 -0.5735
 5500SOL    HW227960   4.613   1.496   8.182  1.4274  1.7550  0.8792
 5501SOL     OW27961   0.026   1.073   3.970 -0.2255 -0.3268 -0.1014
 5501SOL    HW127962   4.682   1.126   4.012 -0.1728  0.2580 -0.7490
 5501SOL    HW227963   0.065   1.029   4.045  1.8634  0.8545 -0.4913
 5502SOL     OW27964   3.910   0.767   4.675  0.3063  0.0957 -0.8776
 5502SOL    HW127965   3.841   0.702   4.679  0.7180 -0.2194  1.0378
 5502SOL    HW227966   3.887   0.813   4.594 -1.1641  2.7237  1.0278
 5503SOL     OW27967   2.749   3.372   8.537  0.4726  0.3413 -0.2454
 5503SOL    HW127968   2.816   3.372   8.469  2.0371  2.3214  1.3181
 5503SOL    HW227969   2.800   3.393   8.615  1.5493  0.1019 -0.8788
 5504SOL     OW27970   2.664   1.707   2.156 -0.1993 -0.5988 -0.1236
 5504SOL    HW127971   2.594   1.676   2.214 -0.4019 -0.2551 -0.1824
 5504SOL    HW227972   2.689   1.628   2.109  0.1547 -1.3531  1.3338
 5505SOL     OW27973   4.590   2.393   2.233 -0.1154  0.2343  0.2423
 5505SOL    HW127974   4.532   2.391   2.157  1.3886  1.8341 -0.9384
 5505SOL    HW227975   4.593   2.300   2.257  1.1892  0.1950 -0.0592
 5506SOL     OW27976   3.028   2.192   2.424  0.0401  0.4655 -0.0723
 5506SOL    HW127977   2.971   2.180   2.348 -0.4285 -0.6723  0.4599
 5506SOL    HW227978   3.102   2.246   2.399 -2.4242  2.5140 -2.8966
 5507SOL     OW27979   0.513   0.405   4.812 -0.2766  0.0939  0.0732
 5507SOL    HW127980   0.548   0.411   4.723 -0.8871 -0.5514 -0.2072
 5507SOL    HW227981   0.546   0.488   4.845  0.9136 -1.2504  2.2887
 5508SOL     OW27982   4.302   2.772  13.974  0.2430 -0.5845  0.1055
 5508SOL    HW127983   4.348   2.834  14.030  1.3449 -0.2807 -1.1389
 5508SOL    HW227984   4.318   2.810  13.888 -0.2325 -0.7185 -0.0395
 5509SOL     OW27985   4.614   1.100   0.567 -0.0834  0.7441  0.0408
 5509SOL    HW127986   4.585   1.175   0.516 -1.9802 -0.0300 -0.0207
 5509SOL    HW227987   4.615   1.154   0.646  1.1390 -2.5657  2.2875
 5510SOL     OW27988   4.082   1.397   4.924  0.7771  0.1268  0.3590
 5510SOL    HW127989   4.147   1.391   4.854  0.6207 -0.7287  0.2855
 5510SOL    HW227990   4.118   1.335   4.987 -1.1530  0.0015  1.3548
 5511SOL     OW27991   1.221   2.222  16.241 -0.6629 -0.1966 -0.3504
 5511SOL    HW127992   1.257   2.144  16.199  0.1046 -0.2528  0.4055
 5511SOL    HW227993   1.282   2.287  16.206  0.8937 -0.7756  1.3219
 5512SOL     OW27994   1.467   2.561  15.287  0.0404  0.3049  0.2135
 5512SOL    HW127995   1.431   2.632  15.234 -0.7372 -0.0135  0.3174
 5512SOL    HW227996   1.512   2.612  15.354 -0.0740 -1.6513  1.7741
 5513SOL     OW27997   2.337   3.883  16.308  0.1368 -0.3457  0.0446
 5513SOL    HW127998   2.341   3.944  16.381  3.5855  0.3382 -0.7161
 5513SOL    HW227999   2.296   3.938  16.241  2.2034 -1.4501 -2.1624
 5514SOL     OW28000   0.142   1.082   7.643 -0.5167 -0.0554 -0.5037
 5514SOL    HW128001   0.177   1.003   7.685 -0.7900  0.7885  1.3195
 5514SOL    HW228002   0.225   1.127   7.627 -0.6912  0.2550 -0.5256
 5515SOL     OW28003   4.294   3.096   8.977 -0.0370 -0.5321 -0.1534
 5515SOL    HW128004   4.280   3.189   8.994 -0.7198 -0.6970  0.1903
 5515SOL    HW228005   4.241   3.064   9.050 -1.1790  0.4273 -0.5576
 5516SOL     OW28006   0.762   4.472   7.470 -0.3207  0.5465  0.8647
 5516SOL    HW128007   0.734   4.400   7.526  2.5288 -0.9323  0.4049
 5516SOL    HW228008   0.728   4.451   7.383  0.8961 -0.1013  0.5428
 5517SOL     OW28009   4.009   1.711   7.592 -0.1561 -0.4962  0.1187
 5517SOL    HW128010   4.043   1.666   7.669  2.8916 -0.4292 -1.2119
 5517SOL    HW228011   3.947   1.775   7.627  0.2512  1.4486 -2.6536
 5518SOL     OW28012   4.145   2.133   3.950 -0.4868 -0.1446 -0.2136
 5518SOL    HW128013   4.154   2.224   3.922  0.7160 -0.0174  0.5923
 5518SOL    HW228014   4.095   2.095   3.878  0.9788  0.3083 -1.4631
 5519SOL     OW28015   2.572   0.267   2.456  0.5466  0.0007  0.0318
 5519SOL    HW128016   2.585   0.304   2.369  1.4860 -1.2953 -0.3812
 5519SOL    HW228017   2.591   0.174   2.444  0.7687 -0.0583  0.8357
 5520SOL     OW28018   3.754   4.586  10.238 -0.2119 -0.5365  0.0348
 5520SOL    HW128019   3.661   4.610  10.235 -0.8726 -2.4441  5.3089
 5520SOL    HW228020   3.756   4.517  10.303 -1.6294 -0.7474 -0.1270
 5521SOL     OW28021   1.928   2.631  10.458  0.5948 -0.9371 -0.1454
 5521SOL    HW128022   1.846   2.626  10.409  0.7589  0.6674 -0.5910
 5521SOL    HW228023   1.928   2.720  10.493  1.4933 -0.8934 -0.2519
 5522SOL     OW28024   4.500   3.264   6.139 -0.0210  0.6228  0.5497
 5522SOL    HW128025   4.531   3.338   6.087  0.4723 -0.6485 -0.9780
 5522SOL    HW228026   4.544   3.195   6.089 -0.8524  1.1888 -0.9667
 5523SOL     OW28027   3.217   2.299  11.779 -0.2002 -0.4653 -0.1760
 5523SOL    HW128028   3.250   2.382  11.744  0.0009 -1.0686 -1.4179
 5523SOL    HW228029   3.128   2.288  11.745  0.3241  0.7459 -1.9353
 5524SOL     OW28030   4.322   1.442   4.729  0.3445  0.3348  0.0356
 5524SOL    HW128031   4.303   1.531   4.759 -0.6334 -0.2629  1.1685
 5524SOL    HW228032   4.267   1.438   4.651  1.2975  1.0276 -0.6670
 5525SOL     OW28033   0.762   0.637   8.676  0.1187 -0.3441 -0.6589
 5525SOL    HW128034   0.669   0.658   8.666 -0.0610  0.1732  1.9461
 5525SOL    HW228035   0.749   0.542   8.673  0.4606 -0.4060 -0.2520
 5526SOL     OW28036   1.993   3.403   9.004  0.3059  0.8092 -0.2735
 5526SOL    HW128037   1.955   3.486   8.975 -2.6660 -0.6104 -0.4095
 5526SOL    HW228038   2.085   3.418   9.027  0.8214 -2.7112 -0.0651
 5527SOL     OW28039   2.856   4.387   8.778  0.1888  0.4602  0.1384
 5527SOL    HW128040   2.923   4.375   8.711  0.0121 -1.5997  0.3290
 5527SOL    HW228041   2.920   4.368   8.847  0.7158 -0.7388 -0.6865
 5528SOL     OW28042   3.044   2.984   1.058 -0.5827 -0.0181  0.1014
 5528SOL    HW128043   2.962   2.935   1.053 -0.0341 -0.9031 -0.4018
 5528SOL    HW228044   3.047   3.003   1.151  0.7564 -0.7070  0.2071
 5529SOL     OW28045   3.594   1.289   7.830 -0.3392 -0.1471 -0.3374
 5529SOL    HW128046   3.556   1.364   7.875 -0.5460 -1.1820  1.2042
 5529SOL    HW228047   3.630   1.337   7.755 -0.2581  1.9296  1.0273
 5530SOL     OW28048   0.460   4.045   6.679  0.4380 -0.3984  0.2897
 5530SOL    HW128049   0.527   3.995   6.632  1.0282  0.9357 -0.3041
 5530SOL    HW228050   0.393   3.979   6.694  0.7916 -0.6683  0.6590
 5531SOL     OW28051   0.760   2.865   2.664  0.3536 -0.2958 -0.5311
 5531SOL    HW128052   0.744   2.948   2.708 -0.0197  0.0913 -1.3893
 5531SOL    HW228053   0.708   2.864   2.584  0.6764 -0.5073 -0.7387
 5532SOL     OW28054   1.159   0.098   4.547 -0.4898 -0.2701  0.0619
 5532SOL    HW128055   1.144   0.085   4.454  0.2066 -1.6423  0.1479
 5532SOL    HW228056   1.103   0.175   4.561 -1.4263 -1.3803  2.5143
 5533SOL     OW28057   4.627   2.270   5.627 -0.3356  0.3376  0.0632
 5533SOL    HW128058   4.645   2.229   5.711 -0.2581  1.4592  0.5877
 5533SOL    HW228059   4.713   2.303   5.600 -0.6231  0.7950 -0.2821
 5534SOL     OW28060   3.812   1.382   4.736 -0.3644 -0.1674 -0.0143
 5534SOL    HW128061   3.894   1.382   4.688  0.5620  1.2020  1.5625
 5534SOL    HW228062   3.783   1.293   4.715 -0.3164 -0.6015  1.7608
 5535SOL     OW28063   1.022   4.064  16.689 -0.2013 -0.9899  0.0843
 5535SOL    HW128064   0.956   3.995  16.703 -1.3416  0.7531  3.3004
 5535SOL    HW228065   1.084   4.008  16.642  1.2413  1.0597 -0.4114
 5536SOL     OW28066   3.481   3.785   7.681 -0.1307 -0.7188 -0.4828
 5536SOL    HW128067   3.470   3.755   7.771 -2.3823  1.8837  0.0933
 5536SOL    HW228068   3.562   3.835   7.694  0.0598 -0.9701 -0.6960
 5537SOL     OW28069   4.233   3.506  16.305 -0.0663  0.2340  0.1495
 5537SOL    HW128070   4.269   3.478  16.221  0.7268 -0.6953  0.8025
 5537SOL    HW228071   4.307   3.558  16.337  1.2472 -1.0525 -0.8202
 5538SOL     OW28072   1.299   1.367   3.142  0.3070  0.3692 -0.7647
 5538SOL    HW128073   1.296   1.450   3.094  1.2534  1.4430  1.0044
 5538SOL    HW228074   1.326   1.403   3.227 -0.7597  0.1502 -0.3367
 5539SOL     OW28075   3.383   3.461   7.320  0.1947 -0.7263  0.0251
 5539SOL    HW128076   3.456   3.521   7.334  1.2523 -2.6776  2.9199
 5539SOL    HW228077   3.318   3.525   7.290  0.3818 -0.1507  0.8443
 5540SOL     OW28078   1.222   1.944   3.278 -0.3424  0.1571  0.1707
 5540SOL    HW128079   1.219   1.935   3.373  0.1583  0.4646  0.2158
 5540SOL    HW228080   1.316   1.955   3.266 -0.0002 -0.7550  1.9669
 5541SOL     OW28081   0.652   0.459  11.670  0.0895  0.0493  0.5030
 5541SOL    HW128082   0.606   0.531  11.626  0.0010 -0.8515 -0.8576
 5541SOL    HW228083   0.593   0.386  11.657 -1.2133  1.1847  0.0977
 5542SOL     OW28084   0.370   3.365  17.186  0.2878  0.2130 -0.5008
 5542SOL    HW128085   0.332   3.365  17.274  1.1794  0.5388 -0.1136
 5542SOL    HW228086   0.419   3.282  17.186  2.3340  1.4219  3.7123
 5543SOL     OW28087   0.093   0.767   8.177 -0.4290 -0.4070  0.4986
 5543SOL    HW128088   0.065   0.797   8.264 -0.7355 -0.6013  0.4635
 5543SOL    HW228089   0.182   0.738   8.200 -1.0578 -1.2763  1.8057
 5544SOL     OW28090   0.237   2.506   4.665  0.0794  0.2579  0.0546
 5544SOL    HW128091   0.150   2.540   4.685  0.1410  0.4798 -0.0546
 5544SOL    HW228092   0.240   2.541   4.576  2.1519  1.1726  0.4706
 5545SOL     OW28093   1.380   2.514   5.117 -0.1557  0.4627 -0.8457
 5545SOL    HW128094   1.368   2.450   5.047  0.5363 -1.3957  0.7220
 5545SOL    HW228095   1.324   2.481   5.187  3.2116  0.2399  1.7704
 5546SOL     OW28096   3.203   2.524   4.162  0.4707 -0.4907 -0.1535
 5546SOL    HW128097   3.200   2.517   4.257 -1.2701  1.2306 -0.0596
 5546SOL    HW228098   3.290   2.493   4.140  0.1261 -1.6502  0.1245
 5547SOL     OW28099   2.308   1.264  10.626 -0.2364 -0.7215 -0.9361
 5547SOL    HW128100   2.258   1.321  10.567 -0.8965 -0.4668 -0.1376
 5547SOL    HW228101   2.394   1.285  10.590  1.0552 -3.9569  0.2349
 5548SOL     OW28102   1.753   0.774   8.110 -0.4808 -0.3025 -0.2792
 5548SOL    HW128103   1.820   0.810   8.051  0.3294 -0.8482  0.3204
 5548SOL    HW228104   1.790   0.814   8.189  0.7734  2.4812 -2.2605
 5549SOL     OW28105   3.781   0.916   8.876  0.3074 -0.4042  0.7769
 5549SOL    HW128106   3.719   0.964   8.931  0.8515  0.1286  0.9381
 5549SOL    HW228107   3.745   0.828   8.874 -2.6477  0.8277 -0.0724
 5550SOL     OW28108   2.287   0.823   8.212 -0.3277  0.1975 -0.5735
 5550SOL    HW128109   2.211   0.766   8.224 -1.6694  1.7768 -1.5991
 5550SOL    HW228110   2.248   0.910   8.201  3.1489  2.3213  3.7883
 5551SOL     OW28111   3.565   4.562  16.962  0.3787 -0.0472  0.1972
 5551SOL    HW128112   3.611   4.640  16.930 -1.0162  1.0405  0.8386
 5551SOL    HW228113   3.560   4.569  17.058 -0.9975  1.1605  0.0349
 5552SOL     OW28114   3.419   3.487   8.893  0.1094 -0.0764 -0.1417
 5552SOL    HW128115   3.330   3.461   8.918 -0.0610 -0.9449 -1.6684
 5552SOL    HW228116   3.475   3.459   8.966 -0.9620 -1.0576  0.3249
 5553SOL     OW28117   2.072   0.643   0.114 -0.1199 -0.7255  0.0585
 5553SOL    HW128118   2.003   0.702   0.146  0.3284 -0.8066  1.1898
 5553SOL    HW228119   2.026   0.559   0.117 -2.3163  0.4625 -0.3862
 5554SOL     OW28120   4.574   2.032   6.703  0.5781  0.3171 -0.3829
 5554SOL    HW128121   4.556   1.996   6.617 -1.0370 -0.3723  0.2410
 5554SOL    HW228122   4.618   1.952   6.731 -0.9440  0.0193  1.1265
 5555SOL     OW28123   3.929   0.082  12.102  0.4841 -0.0473 -0.1173
 5555SOL    HW128124   4.016   0.122  12.096 -0.4364  1.8630 -0.7517
 5555SOL    HW228125   3.904   0.075  12.010 -0.0781 -0.8808  0.1060
 5556SOL     OW28126   4.591   2.708  10.991 -0.3018  0.1606 -0.0420
 5556SOL    HW128127   4.543   2.626  10.999  0.6451 -0.3437  0.4806
 5556SOL    HW228128   4.524   2.757  10.945 -0.8419  0.8383  1.4699
 5557SOL     OW28129   0.247   1.766   6.265 -0.4920 -0.8130  0.0580
 5557SOL    HW128130   0.312   1.780   6.333 -1.3372  1.8617  0.3146
 5557SOL    HW228131   0.228   1.672   6.269 -1.5342 -0.5773  0.7116
 5558SOL     OW28132   4.560   4.379   2.784  0.2082  0.2160 -0.2899
 5558SOL    HW128133   4.636   4.434   2.807 -0.3595  1.2100 -0.7837
 5558SOL    HW228134   4.489   4.430   2.823 -1.0490 -0.2065 -2.0352
 5559SOL     OW28135   2.957   4.676   6.122 -0.1316 -0.5328 -0.2251
 5559SOL    HW128136   3.052   4.681   6.108 -0.1897  2.5768  0.5025
 5559SOL    HW228137   2.934   4.632   6.041 -1.0505 -1.2412  0.4276
 5560SOL     OW28138   0.485   1.593   2.366 -0.0582 -1.0194  0.0115
 5560SOL    HW128139   0.428   1.603   2.289 -0.4877 -0.6683  0.3749
 5560SOL    HW228140   0.431   1.538   2.422 -1.7335  2.8463  2.1244
 5561SOL     OW28141   3.888   2.548   2.551  0.4168 -0.1786 -0.5479
 5561SOL    HW128142   3.838   2.627   2.566 -0.8460 -1.0676 -0.0772
 5561SOL    HW228143   3.816   2.485   2.551  1.0685 -0.9468 -1.4651
 5562SOL     OW28144   1.350   3.232   8.294  0.2161  0.2938  0.0315
 5562SOL    HW128145   1.352   3.315   8.343 -0.1841  1.4773 -1.9756
 5562SOL    HW228146   1.444   3.225   8.277  0.4629  0.4969  1.2882
 5563SOL     OW28147   0.411   3.839   5.467  0.2753 -0.2085  0.8203
 5563SOL    HW128148   0.451   3.871   5.547 -4.5068  2.7788  2.0004
 5563SOL    HW228149   0.380   3.752   5.492  1.0850 -0.8541 -0.3561
 5564SOL     OW28150   3.344   4.667   3.804  0.3273 -0.5848  0.0629
 5564SOL    HW128151   3.284   0.018   3.803  1.1112  0.0125 -1.3897
 5564SOL    HW228152   3.340   4.635   3.714 -1.1279 -0.4696  0.0865
 5565SOL     OW28153   3.928   3.137   3.999  0.0410 -0.6540 -0.2643
 5565SOL    HW128154   3.986   3.175   4.064 -0.9354  2.6791 -1.3360
 5565SOL    HW228155   3.850   3.127   4.054  0.3932 -2.2598 -0.0413
 5566SOL     OW28156   3.158   4.573  10.520  0.1272  0.1394  0.4970
 5566SOL    HW128157   3.111   4.582  10.604 -1.5782 -1.5032 -0.2713
 5566SOL    HW228158   3.112   4.632  10.461 -0.1324  0.7551  1.3073
 5567SOL     OW28159   0.761   4.395   5.025  0.7748 -0.1287 -0.2824
 5567SOL    HW128160   0.743   4.439   4.942  2.2495  0.4088 -0.3187
 5567SOL    HW228161   0.852   4.422   5.038  0.5881 -0.0825  0.9802
 5568SOL     OW28162   0.519   0.099   1.336  0.0345 -0.1993 -0.2122
 5568SOL    HW128163   0.567   0.030   1.382  0.3393  0.3022  0.2264
 5568SOL    HW228164   0.489   0.157   1.407 -1.0664  0.4560 -1.2062
 5569SOL     OW28165   4.645   4.102   5.563  0.0312 -0.3090 -0.4231
 5569SOL    HW128166   4.611   4.187   5.589  0.0373 -0.3315 -0.3405
 5569SOL    HW228167   4.648   4.116   5.469 -1.4994  0.1091 -0.4005
 5570SOL     OW28168   3.691   3.195   0.523 -0.1384 -0.1861  0.2363
 5570SOL    HW128169   3.781   3.208   0.552  0.3859 -1.3986 -0.8650
 5570SOL    HW228170   3.693   3.121   0.463  1.0464  0.3306 -0.3575
 5571SOL     OW28171   4.272   2.110  15.343  0.3551  0.2469  0.1012
 5571SOL    HW128172   4.282   2.193  15.296 -0.9061  0.4859  0.2658
 5571SOL    HW228173   4.297   2.139  15.431 -0.8894  2.0829 -0.1554
 5572SOL     OW28174   3.136   0.973   6.712 -0.1431 -0.4472 -0.7204
 5572SOL    HW128175   3.205   0.910   6.692  0.0537 -0.8778  1.3318
 5572SOL    HW228176   3.194   1.049   6.704  0.4575 -0.5817  2.2118
 5573SOL     OW28177   4.544   3.358   9.094  0.9686 -0.3381 -0.7793
 5573SOL    HW128178   4.452   3.351   9.070  0.8186  1.9331 -0.8662
 5573SOL    HW228179   4.579   3.439   9.058  0.0739  1.1449  1.7651
 5574SOL     OW28180   3.582   1.191  10.116 -0.4401  0.0522  0.2654
 5574SOL    HW128181   3.676   1.209  10.114 -0.1935 -1.4255 -1.4157
 5574SOL    HW228182   3.587   1.096  10.107  0.0062  0.1596 -0.6627
 5575SOL     OW28183   0.430   4.450   9.446  0.3657  0.1331 -0.6127
 5575SOL    HW128184   0.436   4.525   9.387 -3.3025  0.0233 -1.0860
 5575SOL    HW228185   0.518   4.425   9.476  0.0997 -0.4415 -0.3118
 5576SOL     OW28186   1.351   2.013   7.231  0.5048  0.4075 -0.5601
 5576SOL    HW128187   1.310   1.974   7.308  1.2578  1.2504  0.2816
 5576SOL    HW228188   1.433   2.040   7.272 -0.3140 -0.0298  1.3518
 5577SOL     OW28189   4.707   0.410   7.072 -0.1155  0.8031 -0.1310
 5577SOL    HW128190   0.041   0.416   6.995  0.7976  0.5004  0.5307
 5577SOL    HW228191   4.686   0.317   7.074  1.4739  0.4758  1.4255
 5578SOL     OW28192   2.697   0.223   5.285 -0.3859  0.4501 -0.4103
 5578SOL    HW128193   2.695   0.288   5.215 -1.2698  1.5406  0.6118
 5578SOL    HW228194   2.731   0.152   5.231 -1.5902 -1.1372  0.9412
 5579SOL     OW28195   3.960   1.057   9.361 -0.1250  0.4232  0.5421
 5579SOL    HW128196   3.902   1.021   9.428  0.8970  0.1657  1.2947
 5579SOL    HW228197   3.927   1.014   9.282  1.5491  2.6593 -1.3420
 5580SOL     OW28198   3.128   4.330   7.446 -0.6098 -0.0711 -0.0511
 5580SOL    HW128199   3.144   4.407   7.392 -0.4383 -0.4258 -0.5042
 5580SOL    HW228200   3.050   4.295   7.404 -0.0942  0.7072 -1.6335
 5581SOL     OW28201   0.296   2.950   0.568 -0.3672  0.5449 -0.1570
 5581SOL    HW128202   0.248   3.013   0.621 -1.5203 -2.0129  1.8270
 5581SOL    HW228203   0.225   2.897   0.529 -0.3015 -0.8234  1.6080
 5582SOL     OW28204   4.368   3.213   8.370 -0.2296 -0.2784  0.2831
 5582SOL    HW128205   4.345   3.185   8.458 -0.8207 -0.3060  0.1243
 5582SOL    HW228206   4.430   3.283   8.393  1.7926 -1.3952 -1.7758
 5583SOL     OW28207   4.581   1.469   5.829 -0.0912 -0.3116  0.4549
 5583SOL    HW128208   4.555   1.433   5.913 -0.3236  1.7501  1.2853
 5583SOL    HW228209   4.509   1.532   5.818 -0.8546 -1.4054 -0.8534
 5584SOL     OW28210   4.406   1.643   5.488 -0.0436 -0.6089  0.2304
 5584SOL    HW128211   4.337   1.668   5.425  0.5627 -2.7203 -1.2719
 5584SOL    HW228212   4.364   1.603   5.564  1.3834 -0.8284  0.8989
 5585SOL     OW28213   3.801   3.107   3.265  0.5549  0.4298 -0.1230
 5585SOL    HW128214   3.869   3.090   3.200 -0.4065 -1.8430 -0.5268
 5585SOL    HW228215   3.797   3.201   3.248 -0.3881  0.0411 -2.0343
 5586SOL     OW28216   0.263   3.466   6.130 -0.1592  0.2087 -0.3480
 5586SOL    HW128217   0.197   3.398   6.119 -1.0640  0.7915  1.4517
 5586SOL    HW228218   0.334   3.427   6.080 -1.3729 -2.4977  0.0639
 5587SOL     OW28219   0.642   1.364   9.356 -0.1606 -0.1208 -0.3514
 5587SOL    HW128220   0.560   1.391   9.398 -0.5308 -3.0175  0.8415
 5587SOL    HW228221   0.681   1.448   9.333  1.7138 -0.4122  1.7287
 5588SOL     OW28222   3.259   3.817  12.496  0.5813  0.0009 -0.1424
 5588SOL    HW128223   3.239   3.803  12.404 -0.8395  0.8332  0.0391
 5588SOL    HW228224   3.183   3.873  12.515  1.2446  0.5728  0.8680
 5589SOL     OW28225   3.993   1.539   1.889 -0.0349  0.1599 -0.2005
 5589SOL    HW128226   4.072   1.589   1.866 -0.8961  1.5058 -0.2544
 5589SOL    HW228227   3.970   1.563   1.978 -1.1676  1.2440 -0.7871
 5590SOL     OW28228   0.635   4.566   6.297  0.2600 -0.0487 -0.2597
 5590SOL    HW128229   0.581   4.544   6.373  0.4307  2.2010  0.5341
 5590SOL    HW228230   0.648   4.660   6.313 -0.0723  0.1820 -1.4064
 5591SOL     OW28231   1.640   4.582   4.327 -0.0751 -0.9086  0.0655
 5591SOL    HW128232   1.639   4.555   4.235  0.6996  0.6590 -0.4012
 5591SOL    HW228233   1.735   4.581   4.340 -0.3245 -2.2360  1.8772
 5592SOL     OW28234   4.271   2.494  17.668  0.1532  0.2266  0.0919
 5592SOL    HW128235   4.337   2.459  17.609  1.4755 -0.3988  1.9262
 5592SOL    HW228236   4.319   2.564   0.016 -1.1998  1.8381 -1.0059
 5593SOL     OW28237   3.606   4.500   1.843  0.1665  0.3938  0.2115
 5593SOL    HW128238   3.699   4.482   1.825  0.4323 -0.4990  2.4808
 5593SOL    HW228239   3.599   4.449   1.923  0.1314  0.0412 -0.0199
 5594SOL     OW28240   0.476   3.467   2.261  0.2135 -0.2777  0.5157
 5594SOL    HW128241   0.452   3.406   2.192  1.3200  0.6111 -0.6476
 5594SOL    HW228242   0.424   3.546   2.244  3.1847  1.7015  0.5990
 5595SOL     OW28243   1.587   0.651  14.431 -0.4928  0.7588  0.1059
 5595SOL    HW128244   1.515   0.593  14.404  1.3628 -0.5835 -1.9438
 5595SOL    HW228245   1.556   0.738  14.405 -0.3571  1.2809  1.6815
 5596SOL     OW28246   3.243   4.504   4.132  0.4720  0.1865 -0.2939
 5596SOL    HW128247   3.325   4.456   4.143  0.5325  0.7828  1.7643
 5596SOL    HW228248   3.222   4.492   4.039 -2.7303 -0.8579  0.5799
 5597SOL     OW28249   0.477   4.027   8.244  0.1714  0.2062 -0.6414
 5597SOL    HW128250   0.457   4.094   8.178 -0.8201  0.4700 -0.0757
 5597SOL    HW228251   0.438   3.956   8.193 -1.8569  1.0160 -0.2166
 5598SOL     OW28252   3.629   2.277  14.335 -0.5011  0.6021 -0.9398
 5598SOL    HW128253   3.719   2.254  14.312 -0.4393  0.2915 -0.3978
 5598SOL    HW228254   3.594   2.290  14.247 -1.1525 -1.0109 -0.9248
 5599SOL     OW28255   1.599   2.180   4.187  0.2735 -0.3316 -0.4562
 5599SOL    HW128256   1.575   2.269   4.158  0.9305  0.1720  0.5484
 5599SOL    HW228257   1.685   2.178   4.145  0.3727  1.3117 -0.3516
 5600SOL     OW28258   2.473   3.347   0.892  0.1538 -0.2875 -0.1201
 5600SOL    HW128259   2.414   3.329   0.818  0.0035  0.3309 -0.1526
 5600SOL    HW228260   2.450   3.439   0.907 -1.2602 -0.3074 -2.0941
 5601SOL     OW28261   4.602   3.655  10.868 -0.4416 -0.2883 -0.2984
 5601SOL    HW128262   4.561   3.674  10.953 -0.0483  0.2151 -0.2177
 5601SOL    HW228263   4.588   3.741  10.827 -1.5784 -1.1606 -1.6985
 5602SOL     OW28264   2.770   1.282   5.096  0.2443 -0.2356  0.2041
 5602SOL    HW128265   2.758   1.327   5.013 -0.7285 -2.3936 -0.8241
 5602SOL    HW228266   2.788   1.201   5.047  0.7384  0.0638 -0.1044
 5603SOL     OW28267   2.241   4.719   3.146  0.1046  0.2271  0.0992
 5603SOL    HW128268   2.206   0.078   3.113 -0.2196  0.5834  1.3191
 5603SOL    HW228269   2.168   4.659   3.133  0.9873 -0.7767 -0.2228
 5604SOL     OW28270   3.069   4.320   8.348  0.0220  0.0663 -0.1844
 5604SOL    HW128271   3.130   4.393   8.358 -0.0340  0.4096 -2.3346
 5604SOL    HW228272   3.083   4.301   8.255  0.4841  0.1264 -0.1297
 5605SOL     OW28273   0.482   2.866   4.144 -0.4469  0.4353  0.1954
 5605SOL    HW128274   0.552   2.801   4.140 -1.4848 -0.7750  1.3168
 5605SOL    HW228275   0.411   2.804   4.164 -0.0103  0.1859  0.9952
 5606SOL     OW28276   4.162   0.667   3.023 -0.3512  0.8446 -0.1169
 5606SOL    HW128277   4.150   0.671   2.928 -0.8714  1.2965 -0.0312
 5606SOL    HW228278   4.071   0.691   3.040 -0.3039 -0.3139  1.8296
 5607SOL     OW28279   2.864   3.097   7.218  0.0391 -0.0709 -0.1037
 5607SOL    HW128280   2.804   3.057   7.282 -0.3979  3.2740  1.5657
 5607SOL    HW228281   2.802   3.128   7.153 -0.1072 -0.5243 -0.1769
 5608SOL     OW28282   4.514   3.861   4.125  0.0639  0.1500 -0.1363
 5608SOL    HW128283   4.474   3.814   4.052  2.0541  2.0327 -2.4148
 5608SOL    HW228284   4.555   3.779   4.152  0.5498  0.3036 -0.4162
 5609SOL     OW28285   1.437   0.874   6.337  0.0146  0.5672  0.5382
 5609SOL    HW128286   1.423   0.790   6.382 -2.8581  1.5800  1.5665
 5609SOL    HW228287   1.497   0.913   6.401  0.6778 -0.1621  0.3588
 5610SOL     OW28288   4.391   1.337   8.307 -0.2606 -0.1786 -0.8903
 5610SOL    HW128289   4.373   1.287   8.228  0.5413 -2.3993  0.3547
 5610SOL    HW228290   4.429   1.271   8.365  0.3205 -0.0223 -1.0958
 5611SOL     OW28291   3.585   3.748   3.693 -0.1790  0.0506 -0.4976
 5611SOL    HW128292   3.523   3.757   3.766 -0.9046 -1.5057 -0.9272
 5611SOL    HW228293   3.538   3.800   3.628  0.4259  2.0111  0.6322
 5612SOL     OW28294   2.212   2.366   8.823  0.1335 -0.2767 -0.5816
 5612SOL    HW128295   2.150   2.429   8.859 -0.1509 -0.4950 -0.6886
 5612SOL    HW228296   2.151   2.304   8.783  0.8269 -2.2980  1.5212
 5613SOL     OW28297   0.230   2.761   8.896  0.0967  0.0306  0.1580
 5613SOL    HW128298   0.174   2.838   8.894  0.5030  0.3235 -0.0205
 5613SOL    HW228299   0.193   2.700   8.959  2.1557  0.2338  1.5864
 5614SOL     OW28300   0.747   0.894   1.267 -0.7026 -0.0758  1.3703
 5614SOL    HW128301   0.764   0.817   1.213 -0.1431  0.4071  0.8506
 5614SOL    HW228302   0.835   0.911   1.302 -0.3698 -0.7144  0.8337
 5615SOL     OW28303   0.811   1.776   7.006 -0.5160  0.1092 -0.0025
 5615SOL    HW128304   0.751   1.821   6.946  0.5770  0.8662 -0.5180
 5615SOL    HW228305   0.888   1.767   6.949 -0.0632 -0.8334  0.7487
 5616SOL     OW28306   1.200   1.208   5.762  0.7716  0.6422 -0.3969
 5616SOL    HW128307   1.153   1.238   5.684 -0.0589  0.2602 -0.0372
 5616SOL    HW228308   1.128   1.211   5.824  0.1129 -0.3398 -1.1106
 5617SOL     OW28309   4.687   2.767   0.756 -0.1733 -0.7820  0.2534
 5617SOL    HW128310   4.594   2.759   0.777 -0.0305  0.0230  1.1682
 5617SOL    HW228311   4.716   2.677   0.773 -0.7481 -1.5276 -2.5813
 5618SOL     OW28312   1.469   2.871  13.384 -0.3183  0.2496  0.2276
 5618SOL    HW128313   1.464   2.836  13.473  1.5462  1.9534  0.9738
 5618SOL    HW228314   1.540   2.824  13.341 -0.3331 -1.1219  1.7060
 5619SOL     OW28315   4.506   2.772   8.138  0.6556 -0.0828  0.7078
 5619SOL    HW128316   4.508   2.808   8.049  2.0682 -1.0686  0.3402
 5619SOL    HW228317   4.590   2.726   8.131  1.7966  2.1846 -0.4435
 5620SOL     OW28318   3.406   4.490   3.360 -0.0924 -0.0050  0.3242
 5620SOL    HW128319   3.430   4.497   3.268  0.7747  0.4844  0.5913
 5620SOL    HW228320   3.408   4.394   3.353  0.9436  0.0018  0.5547
 5621SOL     OW28321   1.482   4.136   7.759  0.1763 -0.3470 -0.0706
 5621SOL    HW128322   1.514   4.226   7.769  0.4621 -0.5052  0.4357
 5621SOL    HW228323   1.512   4.101   7.842  0.0497 -0.8985 -0.2563
 5622SOL     OW28324   0.438   3.066   3.171  0.0194  0.4511 -0.4261
 5622SOL    HW128325   0.392   3.080   3.088 -2.4107 -1.7209  0.5400
 5622SOL    HW228326   0.404   2.986   3.213  0.1709 -0.0345 -1.2295
 5623SOL     OW28327   1.158   3.382   6.385  0.0698  0.0332 -0.5546
 5623SOL    HW128328   1.188   3.462   6.343 -0.0032  1.1606  1.5658
 5623SOL    HW228329   1.206   3.384   6.468  1.2320 -3.6752 -1.1347
 5624SOL     OW28330   0.351   0.086   3.564 -0.0249  0.1427  0.3294
 5624SOL    HW128331   0.370   0.051   3.477  1.1802  0.9868  0.2491
 5624SOL    HW228332   0.391   0.172   3.554  2.4524 -0.9170  0.9570
 5625SOL     OW28333   3.938   0.789   9.093  0.3105  0.1000  0.2334
 5625SOL    HW128334   3.878   0.716   9.109 -0.6998  0.5977 -1.1784
 5625SOL    HW228335   3.897   0.845   9.027  2.1399  0.3602 -0.6606
 5626SOL     OW28336   0.109   2.864   1.253 -0.1864  0.3192 -0.3473
 5626SOL    HW128337   0.110   2.862   1.157  0.3582  0.6660 -0.3424
 5626SOL    HW228338   0.070   2.948   1.275  0.9992  1.0087 -0.9144
 5627SOL     OW28339   1.329   1.425   5.087  0.3832 -0.2108 -0.4331
 5627SOL    HW128340   1.406   1.385   5.127 -0.8207 -0.7860  1.3439
 5627SOL    HW228341   1.262   1.357   5.083 -0.1011  0.2585 -0.4035
 5628SOL     OW28342   2.089   2.510   1.779 -0.0030 -0.1284  0.5515
 5628SOL    HW128343   2.052   2.540   1.862  2.0205 -0.0944  1.4542
 5628SOL    HW228344   2.058   2.420   1.770 -1.8293  0.6880 -1.2877
 5629SOL     OW28345   3.943   1.745   0.392 -0.1420 -0.0138 -0.1521
 5629SOL    HW128346   3.864   1.795   0.414 -0.0275  1.2964 -2.7362
 5629SOL    HW228347   3.985   1.734   0.477 -0.1059  1.4879  0.0308
 5630SOL     OW28348   1.210   3.497   6.891  0.0853  0.2494  0.4764
 5630SOL    HW128349   1.275   3.562   6.916  0.8860 -0.3422 -0.0448
 5630SOL    HW228350   1.216   3.431   6.960 -0.5461 -2.3344 -1.9016
 5631SOL     OW28351   2.229   4.701   7.020  0.4774  0.4722  0.1632
 5631SOL    HW128352   2.251   4.648   6.943 -1.4062 -1.4639  0.9581
 5631SOL    HW228353   2.211   4.634   7.086  0.6955 -1.4746 -1.7357
 5632SOL     OW28354   4.718   1.741   4.190  0.5120  0.3253  0.1548
 5632SOL    HW128355   4.649   1.806   4.201  0.3642  0.3572 -0.9525
 5632SOL    HW228356   0.043   1.767   4.269  0.8491  0.9972 -0.2751
 5633SOL     OW28357   0.671   3.922  13.147  0.4927 -0.6259 -0.0127
 5633SOL    HW128358   0.742   3.967  13.192  0.0069  0.2003 -0.0788
 5633SOL    HW228359   0.689   3.831  13.173  2.5565 -0.3014 -0.3384
 5634SOL     OW28360   0.204   4.337   5.949 -0.2105 -0.2501 -0.6370
 5634SOL    HW128361   0.152   4.413   5.922 -2.0429 -1.2508  0.0443
 5634SOL    HW228362   0.178   4.322   6.040 -0.2263  2.7759 -0.1247
 5635SOL     OW28363   4.295   3.646   7.945 -0.3417  0.5025  0.5239
 5635SOL    HW128364   4.268   3.584   7.877 -0.5915  0.1640  0.9379
 5635SOL    HW228365   4.243   3.618   8.020  0.6773 -0.4260  0.8824
 5636SOL     OW28366   2.800   2.993   2.756 -0.0968 -0.0745  0.1704
 5636SOL    HW128367   2.813   3.075   2.802  0.7965 -1.4047  2.2827
 5636SOL    HW228368   2.707   2.991   2.736 -0.3566 -0.7722  1.5083
 5637SOL     OW28369   0.626   2.289   3.383  0.0818  0.1085 -0.4231
 5637SOL    HW128370   0.633   2.339   3.464 -0.0779  2.5022 -1.8892
 5637SOL    HW228371   0.535   2.262   3.386  0.4027 -0.7086  1.4364
 5638SOL     OW28372   4.347   3.991   2.505 -0.5280  0.2386  0.0255
 5638SOL    HW128373   4.382   4.013   2.419  1.5849  2.9921  1.6151
 5638SOL    HW228374   4.409   4.024   2.570 -0.0497 -0.9940  0.1962
 5639SOL     OW28375   1.148   4.679  16.586  0.0158  0.1423  0.6692
 5639SOL    HW128376   1.060   4.680  16.549  0.9273 -1.0637 -1.5064
 5639SOL    HW228377   1.156   0.043  16.624 -0.9927  1.2316 -1.6290
 5640SOL     OW28378   2.898   0.555   0.876 -0.5033  0.1602  0.0606
 5640SOL    HW128379   2.872   0.462   0.878 -0.3231  0.0615 -1.4689
 5640SOL    HW228380   2.845   0.585   0.950  0.3806  0.1236  0.7001
 5641SOL     OW28381   3.975   2.736   1.083 -0.3905  0.4479  0.2907
 5641SOL    HW128382   4.043   2.705   1.143  0.4710  0.9343 -0.4302
 5641SOL    HW228383   3.930   2.797   1.140  0.6668  0.7147  0.8313
 5642SOL     OW28384   0.611   4.632   8.799 -0.2652 -0.5076  0.2843
 5642SOL    HW128385   0.613   4.561   8.864  0.2081  0.2466  1.0912
 5642SOL    HW228386   0.699   4.625   8.760 -1.1782 -1.1606 -1.6570
 5643SOL     OW28387   1.991   0.124  16.955  0.5944 -0.0155  0.7541
 5643SOL    HW128388   1.969   0.031  16.950 -0.0055  0.2171 -0.9378
 5643SOL    HW228389   2.004   0.143  16.861  2.4504  0.6458  1.1275
 5644SOL     OW28390   3.508   1.234   9.181 -0.4743 -0.2720  0.0439
 5644SOL    HW128391   3.429   1.275   9.218 -1.6158 -2.0118 -0.5021
 5644SOL    HW228392   3.581   1.259   9.238  1.3561 -2.5356 -1.3201
 5645SOL     OW28393   4.007   0.871   5.151  0.4161  0.2875  0.8322
 5645SOL    HW128394   3.925   0.880   5.102  0.2420  1.7094  1.3784
 5645SOL    HW228395   3.996   0.777   5.159  3.0555 -0.2385 -1.8212
 5646SOL     OW28396   2.437   3.554   1.549  0.3428  0.8209  0.4363
 5646SOL    HW128397   2.480   3.499   1.483  0.5925  2.2898 -0.6445
 5646SOL    HW228398   2.401   3.485   1.604 -0.5703  1.5633  0.7777
 5647SOL     OW28399   3.352   0.221   1.537  0.2358 -0.1663  0.5537
 5647SOL    HW128400   3.368   0.285   1.468  0.4941  0.5657  1.2983
 5647SOL    HW228401   3.381   0.260   1.619 -2.0979  0.6770  0.9631
 5648SOL     OW28402   3.428   1.256  16.430 -0.2359  0.4509 -0.4551
 5648SOL    HW128403   3.446   1.330  16.371  0.3874 -0.2866 -1.2013
 5648SOL    HW228404   3.514   1.229  16.461 -1.5060 -0.9625  1.7483
 5649SOL     OW28405   4.298   3.613  13.713 -0.2472 -0.4837  0.1762
 5649SOL    HW128406   4.300   3.518  13.730  0.0700 -0.3675  0.7942
 5649SOL    HW228407   4.330   3.648  13.796 -0.5497 -0.3046  0.2154
 5650SOL     OW28408   0.805   3.722   6.888  0.1641 -0.3598  0.9064
 5650SOL    HW128409   0.759   3.806   6.896 -2.9283 -1.8736 -0.9522
 5650SOL    HW228410   0.726   3.667   6.885  0.6838 -1.0610  0.0029
 5651SOL     OW28411   4.533   1.435   2.639  0.3505  0.0627  0.7827
 5651SOL    HW128412   4.463   1.374   2.619 -0.1369  0.6238  0.7905
 5651SOL    HW228413   4.478   1.507   2.668  0.5041  0.0685  1.0667
 5652SOL     OW28414   3.498   2.078   5.793 -0.1484 -0.0257  0.1579
 5652SOL    HW128415   3.553   2.001   5.804  1.3675  1.0962  0.3668
 5652SOL    HW228416   3.502   2.080   5.697  1.9980  1.6702  0.2767
 5653SOL     OW28417   0.599   1.020   7.173 -0.0592 -0.2538  0.2609
 5653SOL    HW128418   0.517   1.069   7.177 -0.3266 -0.5682 -1.2100
 5653SOL    HW228419   0.608   1.013   7.078  2.0950  0.5303  0.4025
 5654SOL     OW28420   3.577   0.491   6.044 -0.1051  0.2136  0.4639
 5654SOL    HW128421   3.523   0.502   5.966 -0.8081  0.9883  1.0555
 5654SOL    HW228422   3.605   0.400   6.035  0.0017  0.1801  1.1887
 5655SOL     OW28423   0.518   4.161  14.148 -0.5203  0.1336 -0.5086
 5655SOL    HW128424   0.523   4.254  14.174  2.4081 -0.0028 -0.5997
 5655SOL    HW228425   0.530   4.159  14.053 -3.1232 -2.3803 -0.7622
 5656SOL     OW28426   3.474   2.949   6.208 -0.4856  0.6097 -0.0016
 5656SOL    HW128427   3.442   2.860   6.190  0.2601  0.4895 -0.7169
 5656SOL    HW228428   3.555   2.928   6.253 -0.9758 -2.0840 -0.3474
 5657SOL     OW28429   2.698   1.526  16.476 -0.3134  0.0979 -0.0258
 5657SOL    HW128430   2.702   1.448  16.530 -0.7754  0.1378  0.0673
 5657SOL    HW228431   2.604   1.544  16.478 -0.0651  1.3650  0.5138
 5658SOL     OW28432   2.820   0.973  12.840  0.0326  0.2806  0.1384
 5658SOL    HW128433   2.827   0.937  12.751  0.2270 -2.3783  1.2297
 5658SOL    HW228434   2.867   0.919  12.903 -0.5820 -1.3469 -0.8127
 5659SOL     OW28435   2.607   2.728   0.163 -0.3539 -0.0241 -0.1516
 5659SOL    HW128436   2.628   2.685   0.246 -1.4684 -0.4379 -0.0815
 5659SOL    HW228437   2.588   2.649   0.114  1.9995  1.2211 -3.0776
 5660SOL     OW28438   2.985   4.120   6.853 -0.2129 -0.5536 -0.0015
 5660SOL    HW128439   3.061   4.178   6.859 -1.0033  0.5844 -1.0046
 5660SOL    HW228440   2.946   4.154   6.772 -1.7767 -2.7013 -0.1317
 5661SOL     OW28441   1.583   1.612  15.587  0.5265  0.2260 -0.0077
 5661SOL    HW128442   1.537   1.691  15.560 -1.2203  0.0145  2.3438
 5661SOL    HW228443   1.675   1.639  15.584 -0.1280  2.3446 -0.3724
 5662SOL     OW28444   1.922   4.221   8.049  0.2431 -0.1800 -0.5870
 5662SOL    HW128445   1.988   4.289   8.046  1.4511 -1.2732  1.4434
 5662SOL    HW228446   1.849   4.277   8.078  2.5051  1.3148  2.2549
 5663SOL     OW28447   3.406   4.127   3.924  0.2839 -0.0470 -0.3227
 5663SOL    HW128448   3.395   4.160   4.014 -1.0854  0.5908 -0.7288
 5663SOL    HW228449   3.405   4.209   3.875  1.2323  1.3812  2.0064
 5664SOL     OW28450   0.137   3.332  16.364 -0.3562 -0.5459  0.3671
 5664SOL    HW128451   0.191   3.342  16.285 -1.1091 -2.4591 -0.4012
 5664SOL    HW228452   0.140   3.423  16.393  0.6851 -0.7731  0.9805
 5665SOL     OW28453   0.048   1.803   5.664  0.3104 -0.3206  0.5629
 5665SOL    HW128454   0.111   1.840   5.726  0.2198  3.0092 -1.3687
 5665SOL    HW228455   0.089   1.716   5.653 -3.3500 -2.1812  1.6734
 5666SOL     OW28456   3.594   2.872   7.328  0.5390 -0.3313  0.1518
 5666SOL    HW128457   3.596   2.796   7.270  1.0272  1.1969 -1.8339
 5666SOL    HW228458   3.685   2.902   7.323  1.3628 -2.9003 -0.4542
 5667SOL     OW28459   3.071   0.277   1.733 -0.3674  0.3924  0.1052
 5667SOL    HW128460   3.124   0.285   1.813 -0.3072  1.1955 -0.0065
 5667SOL    HW228461   3.003   0.341   1.757  0.3007  0.8872  0.7052
 5668SOL     OW28462   1.289   2.382   7.715 -0.4052  0.1678 -0.2310
 5668SOL    HW128463   1.302   2.470   7.751 -0.9520  0.3090 -0.3829
 5668SOL    HW228464   1.329   2.385   7.628 -1.4833 -2.2048 -0.7973
 5669SOL     OW28465   1.632   1.966   4.020 -0.8242 -0.8811  0.3179
 5669SOL    HW128466   1.585   2.004   4.094 -0.4761 -2.0706  1.1468
 5669SOL    HW228467   1.630   1.880   4.061 -1.3375 -0.2917  1.5399
 5670SOL     OW28468   3.915   2.177  14.482  0.0644 -0.5758 -0.2637
 5670SOL    HW128469   3.900   2.157  14.390  0.3697 -1.2806 -0.1602
 5670SOL    HW228470   3.903   2.095  14.530 -1.6145 -0.1536  0.0621
 5671SOL     OW28471   1.140   0.106   4.883 -0.4696  0.0233 -0.2003
 5671SOL    HW128472   1.069   0.049   4.912 -0.1706  0.0549  0.5947
 5671SOL    HW228473   1.106   0.196   4.884  0.2239  0.2918 -0.3684
 5672SOL     OW28474   0.412   3.616   0.946 -0.3426  0.5306 -0.3910
 5672SOL    HW128475   0.404   3.526   0.916 -0.6735  0.1037  0.9703
 5672SOL    HW228476   0.349   3.667   0.896 -1.3664  0.1353  0.4946
 5673SOL     OW28477   1.088   4.097   3.420  0.2010  0.0465 -0.0296
 5673SOL    HW128478   1.130   4.035   3.480  1.7309  2.8246  1.8204
 5673SOL    HW228479   1.104   4.180   3.466 -1.9484  0.6693 -0.4221
 5674SOL     OW28480   0.692   0.113   9.086 -0.0492  0.1459 -0.2042
 5674SOL    HW128481   0.758   0.165   9.132 -1.0368 -0.3498  1.7781
 5674SOL    HW228482   0.737   0.078   9.009  0.5802 -1.7076  0.9960
 5675SOL     OW28483   1.978   4.718   0.116 -0.2159  0.2003  0.6782
 5675SOL    HW128484   2.061   0.019   0.156  1.5962 -2.5220 -1.4042
 5675SOL    HW228485   1.942   4.655   0.179 -0.6522  0.5193  0.7522
 5676SOL     OW28486   1.498   1.756   3.264  0.4596 -0.2057  0.7760
 5676SOL    HW128487   1.558   1.687   3.293 -0.8646 -0.8485  2.0029
 5676SOL    HW228488   1.543   1.833   3.298  0.8108  0.0468 -0.2761
 5677SOL     OW28489   1.703   1.368   2.373 -0.2830 -0.0009 -0.0881
 5677SOL    HW128490   1.670   1.456   2.393 -2.6583 -0.5309 -1.6566
 5677SOL    HW228491   1.787   1.397   2.337 -0.3801 -0.2049 -0.4850
 5678SOL     OW28492   0.178   3.642  10.968 -0.1201  0.1545 -0.4812
 5678SOL    HW128493   0.088   3.663  10.940 -1.1248 -1.4659  1.5544
 5678SOL    HW228494   0.200   3.730  11.000  0.9489  0.2060 -1.3456
 5679SOL     OW28495   2.888   3.308   8.308 -0.0514  0.2280 -0.0110
 5679SOL    HW128496   2.878   3.216   8.281 -0.6352  0.1147  0.5985
 5679SOL    HW228497   2.981   3.330   8.306  0.2684 -1.1481 -0.5790
 5680SOL     OW28498   4.592   0.665  17.642  0.2872  0.6795 -0.6263
 5680SOL    HW128499   4.661   0.649   0.010 -1.7282 -2.7606  0.6740
 5680SOL    HW228500   4.551   0.578  17.635 -0.4717  1.1255 -1.8325
 5681SOL     OW28501   2.827   3.729  16.243  0.5730  0.4980 -0.6002
 5681SOL    HW128502   2.798   3.722  16.334  0.5992  3.0274 -0.3914
 5681SOL    HW228503   2.918   3.759  16.241  1.1771 -1.2334  1.9274
 5682SOL     OW28504   1.710   1.118   2.244  0.3036 -0.0819 -0.3111
 5682SOL    HW128505   1.711   1.201   2.293  2.1344 -0.9809  1.1808
 5682SOL    HW228506   1.616   1.101   2.243  0.6726 -1.9550 -1.6876
 5683SOL     OW28507   4.409   0.201   6.280 -0.2015 -0.5272 -0.3765
 5683SOL    HW128508   4.443   0.128   6.229 -1.8238 -1.0902 -0.6632
 5683SOL    HW228509   4.338   0.231   6.223 -0.0892 -1.7639 -1.1589
 5684SOL     OW28510   4.609   3.218  16.296  0.3390  0.2715 -0.1728
 5684SOL    HW128511   4.639   3.281  16.231  1.0620 -0.3486 -0.4381
 5684SOL    HW228512   4.693   3.207  16.341  0.1865 -0.5355 -0.0892
 5685SOL     OW28513   2.763   4.153   5.618  0.0439  0.4109  0.3175
 5685SOL    HW128514   2.761   4.143   5.713 -1.7535  0.6868  0.3125
 5685SOL    HW228515   2.752   4.248   5.612 -0.1651  0.5893  3.6626
 5686SOL     OW28516   4.338   0.275   2.110 -0.0891  0.3262 -0.2215
 5686SOL    HW128517   4.424   0.299   2.073  0.9792 -0.4897  1.7555
 5686SOL    HW228518   4.333   0.347   2.173  0.9704  1.8324 -1.8318
 5687SOL     OW28519   2.279   4.378  16.454  0.3669 -0.0261  0.4146
 5687SOL    HW128520   2.333   4.410  16.527  0.0395 -1.0261  1.0906
 5687SOL    HW228521   2.311   4.432  16.382  0.8165 -0.0987  0.5591
 5688SOL     OW28522   3.102   2.312  16.427  0.1225  0.4383  0.5809
 5688SOL    HW128523   3.032   2.356  16.378 -0.1673  0.3448  0.9044
 5688SOL    HW228524   3.070   2.328  16.516  0.8447  5.0585  0.0429
 5689SOL     OW28525   3.361   2.020   7.995 -0.3301 -0.1705  0.4731
 5689SOL    HW128526   3.361   2.102   8.044  2.8185  0.8135 -1.2281
 5689SOL    HW228527   3.451   1.987   8.001  0.6584  1.9016 -3.1066
 5690SOL     OW28528   4.110   1.391   8.659 -0.1114 -0.8174 -0.0265
 5690SOL    HW128529   4.137   1.420   8.572  0.3616  1.6541  0.9499
 5690SOL    HW228530   4.019   1.363   8.651 -0.3897 -0.1011  0.6769
 5691SOL     OW28531   2.691   3.855  13.520 -0.3508 -0.3243 -0.2538
 5691SOL    HW128532   2.662   3.941  13.550  2.8655  0.5062  0.4752
 5691SOL    HW228533   2.776   3.838  13.561 -1.5065 -0.8165  1.9869
 5692SOL     OW28534   2.720   2.528   6.398 -0.0181  0.2633 -0.2299
 5692SOL    HW128535   2.713   2.588   6.471  2.1801  1.5224 -1.0299
 5692SOL    HW228536   2.783   2.458   6.415  0.4785  0.7104 -0.2180
 5693SOL     OW28537   2.338   2.135   5.756 -0.2514  0.2201 -0.1847
 5693SOL    HW128538   2.306   2.048   5.731  0.2887  0.0767 -0.3658
 5693SOL    HW228539   2.420   2.127   5.708 -0.4800 -0.6668 -0.4184
 5694SOL     OW28540   0.698   1.968   3.545 -0.1128 -0.3011  0.2298
 5694SOL    HW128541   0.743   1.936   3.467 -1.2989  0.5844 -0.8108
 5694SOL    HW228542   0.635   2.032   3.512  1.5622  1.9557  1.4317
 5695SOL     OW28543   1.763   2.226  14.175 -0.4610  0.1795  0.5126
 5695SOL    HW128544   1.857   2.242  14.188 -0.3875  0.2350 -0.0983
 5695SOL    HW228545   1.726   2.226  14.263 -0.3082  1.1420  0.5745
 5696SOL     OW28546   3.548   0.445   4.346 -0.2694 -0.4680 -0.4982
 5696SOL    HW128547   3.632   0.404   4.369  0.3050  0.2782 -1.2541
 5696SOL    HW228548   3.513   0.462   4.433 -0.0020  0.6796 -0.6175
 5697SOL     OW28549   1.073   3.724   5.328 -0.3298  0.4066  0.7268
 5697SOL    HW128550   1.150   3.668   5.314 -1.3508 -0.8355  0.0955
 5697SOL    HW228551   1.017   3.647   5.331  0.4958 -0.2342 -0.2837
 5698SOL     OW28552   2.241   3.674   1.404  0.3294  0.6836  0.0199
 5698SOL    HW128553   2.318   3.630   1.440 -0.8965 -1.0237  0.5595
 5698SOL    HW228554   2.216   3.606   1.342 -0.0117  1.2254 -0.4434
 5699SOL     OW28555   3.935   0.703   9.904  0.2205 -0.4113 -0.1200
 5699SOL    HW128556   3.978   0.652   9.973 -1.4898 -0.7936  0.6678
 5699SOL    HW228557   4.001   0.762   9.867  0.7303 -0.6137  0.4540
 5700SOL     OW28558   0.112   0.981  12.606 -0.9676  0.0955 -0.5736
 5700SOL    HW128559   0.119   0.960  12.699 -0.1060 -3.3379 -1.4193
 5700SOL    HW228560   0.128   0.896  12.565 -0.8252 -0.0842 -0.1389
 5701SOL     OW28561   3.569   3.539   6.286  0.2304 -0.2232  0.0779
 5701SOL    HW128562   3.614   3.615   6.322 -0.4031  0.5721 -0.8328
 5701SOL    HW228563   3.485   3.584   6.282  1.4823  2.1251  0.1460
 5702SOL     OW28564   1.972   1.424   6.148  0.2856  0.0640 -0.4302
 5702SOL    HW128565   1.879   1.445   6.143  0.4546  0.6064 -1.2814
 5702SOL    HW228566   1.994   1.414   6.241 -1.7156 -0.4730 -0.0210
 5703SOL     OW28567   1.590   2.778   7.437 -0.1468 -0.3952 -0.4291
 5703SOL    HW128568   1.589   2.802   7.530 -1.5480  1.2228 -0.8588
 5703SOL    HW228569   1.677   2.738   7.429 -0.1786 -0.3322 -1.0769
 5704SOL     OW28570   3.024   4.585   6.787  0.1811  0.0094  0.2447
 5704SOL    HW128571   2.975   4.666   6.776  1.3622  0.7289  0.2892
 5704SOL    HW228572   2.992   4.533   6.714 -0.3105  0.3751  0.1988
 5705SOL     OW28573   0.916   1.473   5.998 -0.1341 -0.8226 -0.0511
 5705SOL    HW128574   0.958   1.388   6.009  0.4200 -0.5444  0.0189
 5705SOL    HW228575   0.866   1.452   5.919  0.4718 -0.6307 -0.4934
 5706SOL     OW28576   3.267   2.453   3.049 -0.6043 -0.3442  0.5383
 5706SOL    HW128577   3.291   2.404   2.969 -2.9935 -0.4875 -0.0698
 5706SOL    HW228578   3.307   2.538   3.032  1.6363 -1.5306 -0.2327
 5707SOL     OW28579   3.382   3.323   5.392  0.1396 -0.1946 -0.0461
 5707SOL    HW128580   3.452   3.262   5.413 -0.5798  0.2039  3.4669
 5707SOL    HW228581   3.354   3.347   5.480  0.4459 -0.5595  0.1528
 5708SOL     OW28582   3.019   0.378   7.626 -0.1021 -0.1477  0.0935
 5708SOL    HW128583   3.046   0.403   7.714 -0.4854 -0.4664  0.3044
 5708SOL    HW228584   2.979   0.292   7.640 -0.6836  0.2313  0.7563
 5709SOL     OW28585   4.464   0.608  15.666  0.0613  0.1334 -0.4105
 5709SOL    HW128586   4.515   0.629  15.588  1.6006  1.3661  0.9314
 5709SOL    HW228587   4.445   0.516  15.645 -0.0719 -0.1634  1.0081
 5710SOL     OW28588   3.791   2.765   4.557  1.0718 -0.3460  0.4606
 5710SOL    HW128589   3.722   2.708   4.523 -0.5283  0.6627  1.9824
 5710SOL    HW228590   3.825   2.821   4.487 -0.5423 -0.8826 -0.7526
 5711SOL     OW28591   2.903   4.661  12.615 -0.3995  0.1526  0.2303
 5711SOL    HW128592   2.908   4.565  12.623  0.4454 -0.0772 -2.7760
 5711SOL    HW228593   2.928   4.699  12.699  0.0185  1.7427 -0.6184
 5712SOL     OW28594   4.336   2.430   6.148 -0.0741  0.7635  0.2678
 5712SOL    HW128595   4.382   2.482   6.082  1.3105 -0.6398  0.1147
 5712SOL    HW228596   4.402   2.427   6.218  0.6366  1.9547 -0.3496
 5713SOL     OW28597   1.219   4.688   0.893  0.0408  0.0233  0.1826
 5713SOL    HW128598   1.212   4.593   0.886 -0.3384  0.2979 -3.1966
 5713SOL    HW228599   1.299   4.710   0.845  0.4495  1.1658  1.3950
 5714SOL     OW28600   3.620   0.142   4.575 -0.1740  0.2446 -0.1079
 5714SOL    HW128601   3.660   0.212   4.524 -1.0234  1.5004  0.9775
 5714SOL    HW228602   3.686   0.074   4.558 -0.8082 -0.3653 -0.1177
 5715SOL     OW28603   3.304   2.297  13.343 -0.4695 -0.6305 -0.2159
 5715SOL    HW128604   3.245   2.331  13.411 -1.0284 -2.0045 -0.0214
 5715SOL    HW228605   3.379   2.269  13.395 -0.4298  2.1446  1.2272
 5716SOL     OW28606   3.247   0.026   1.797 -0.4347  0.0341 -0.0302
 5716SOL    HW128607   3.297   4.671   1.820  1.0793  1.4744  1.6315
 5716SOL    HW228608   3.332   0.070   1.792  1.2654 -3.2754  0.2502
 5717SOL     OW28609   4.304   4.668   9.537 -0.6508 -0.5487  0.1731
 5717SOL    HW128610   4.339   0.031   9.515 -1.2041 -0.9133 -2.1848
 5717SOL    HW228611   4.335   4.616   9.463  1.6608  0.6993  0.2484
 5718SOL     OW28612   4.711   2.213   7.490 -0.2501  0.5620 -0.1533
 5718SOL    HW128613   0.042   2.157   7.434  1.0944  1.1872  0.5340
 5718SOL    HW228614   4.658   2.148   7.536 -1.0464  0.2637 -1.4872
 5719SOL     OW28615   2.555   1.447   3.156 -0.3694  0.1003 -0.0273
 5719SOL    HW128616   2.505   1.376   3.197  0.0135  1.6518  3.1728
 5719SOL    HW228617   2.489   1.505   3.120  0.9544  1.1469 -0.7806
 5720SOL     OW28618   0.108   1.962   0.023 -0.0458 -0.1204 -0.4267
 5720SOL    HW128619   0.037   1.897   0.025 -1.5135  1.5205  1.5269
 5720SOL    HW228620   0.072   2.036   0.071  1.0327 -0.7366  1.3253
 5721SOL     OW28621   3.628   2.861   8.708 -0.2042  0.4269 -0.4317
 5721SOL    HW128622   3.579   2.823   8.781  0.2668  1.8177  0.5940
 5721SOL    HW228623   3.622   2.953   8.735 -2.6378 -0.8838  3.5686
 5722SOL     OW28624   2.550   2.481  17.202 -0.1848 -0.6973 -0.2237
 5722SOL    HW128625   2.469   2.441  17.235  1.1105 -2.4236  0.8763
 5722SOL    HW228626   2.602   2.489  17.282  0.1576 -0.4922 -0.4683
 5723SOL     OW28627   3.756   3.516  10.076 -0.3768  0.0893  0.0739
 5723SOL    HW128628   3.822   3.581  10.099 -0.4842  0.0697  0.4388
 5723SOL    HW228629   3.751   3.463  10.155 -0.7921 -1.2651 -0.8484
 5724SOL     OW28630   4.172   1.499   8.411 -0.2114  0.3728  0.9861
 5724SOL    HW128631   4.200   1.590   8.423 -0.6309  0.7243 -0.6634
 5724SOL    HW228632   4.243   1.466   8.356 -1.2202  1.7690 -1.1460
 5725SOL     OW28633   1.224   1.785   7.751 -0.5435 -0.5555 -0.2572
 5725SOL    HW128634   1.132   1.782   7.728 -1.1239 -0.7169  2.0506
 5725SOL    HW228635   1.219   1.797   7.846  0.8966  0.2076 -0.2774
 5726SOL     OW28636   0.720   3.490   6.055 -0.0204  0.3734  0.2562
 5726SOL    HW128637   0.724   3.585   6.069 -0.4443  0.1596  1.8651
 5726SOL    HW228638   0.781   3.446   6.115  0.5153 -0.8907 -1.1969
 5727SOL     OW28639   1.154   1.973   6.221 -0.7300 -0.2022 -0.2098
 5727SOL    HW128640   1.195   1.909   6.279  2.0920  1.4608 -0.3768
 5727SOL    HW228641   1.095   2.014   6.285  0.2461 -0.2901  0.7545
 5728SOL     OW28642   3.271   1.216   6.711  0.7169  0.0884  0.3525
 5728SOL    HW128643   3.365   1.207   6.694  0.4814  0.2460 -1.0237
 5728SOL    HW228644   3.245   1.293   6.661 -0.0554 -0.8996 -0.7618
 5729SOL     OW28645   0.159   2.964  16.641 -0.2267  0.0754  0.5069
 5729SOL    HW128646   0.065   2.979  16.642 -0.0279  1.2917  0.1564
 5729SOL    HW228647   0.160   2.893  16.576  0.5012  0.9426 -0.4307
 5730SOL     OW28648   3.940   3.933  12.769  0.1757  0.2572 -0.4055
 5730SOL    HW128649   3.998   3.983  12.827 -0.2125 -0.2793  0.4370
 5730SOL    HW228650   3.905   3.853  12.808  0.3897  1.1313  1.5676
 5731SOL     OW28651   0.475   4.390   8.319 -0.7988 -0.7212  0.1946
 5731SOL    HW128652   0.427   4.456   8.369  1.4721 -0.4281  1.9758
 5731SOL    HW228653   0.562   4.405   8.354  0.2947 -1.0627 -2.4051
 5732SOL     OW28654   2.020   1.999  16.153  0.1922  0.4299  0.1448
 5732SOL    HW128655   1.968   1.965  16.080  3.8500 -0.0079 -2.2530
 5732SOL    HW228656   1.965   2.076  16.166 -0.2537 -0.5201  3.9440
 5733SOL     OW28657   3.026   4.430   5.662 -0.7317 -0.3740 -0.5246
 5733SOL    HW128658   3.088   4.397   5.598  1.2204  0.3364  0.9970
 5733SOL    HW228659   2.940   4.428   5.618 -0.9909  0.0712 -0.0417
 5734SOL     OW28660   4.053   2.091   4.198  0.0383  0.6101 -0.2685
 5734SOL    HW128661   4.101   2.115   4.119  0.0510  0.1542 -0.3966
 5734SOL    HW228662   3.965   2.128   4.190 -0.1912  0.9093  3.6513
 5735SOL     OW28663   3.083   1.339   8.441  0.4425  0.3651 -0.0219
 5735SOL    HW128664   3.166   1.296   8.420  0.9627  0.8045  1.1233
 5735SOL    HW228665   3.022   1.266   8.447  1.1364 -0.0884  1.6708
 5736SOL     OW28666   0.101   3.179   4.626  0.3527 -0.5077  0.2362
 5736SOL    HW128667   0.114   3.116   4.554  1.3375 -1.5947  1.3546
 5736SOL    HW228668   0.017   3.208   4.591 -0.0933  0.6151  2.2395
 5737SOL     OW28669   2.243   3.987  15.466 -0.2375  0.0579 -0.2597
 5737SOL    HW128670   2.196   4.015  15.387 -1.1324 -0.6622  0.0305
 5737SOL    HW228671   2.289   3.915  15.424 -0.2262 -0.7696  1.1910
 5738SOL     OW28672   1.591   3.685   3.207  0.1868 -0.7964 -0.1126
 5738SOL    HW128673   1.666   3.715   3.157 -0.5671 -0.3894 -0.9918
 5738SOL    HW228674   1.541   3.765   3.221 -0.0354 -0.9049 -0.2783
 5739SOL     OW28675   1.224   1.267   2.068  0.1674  0.1426 -0.0071
 5739SOL    HW128676   1.181   1.200   2.015  1.4302  0.0031 -0.8304
 5739SOL    HW228677   1.205   1.332   2.001 -0.6865 -0.1168 -0.0218
 5740SOL     OW28678   3.708   1.483   2.099 -0.0631  0.2319  0.4508
 5740SOL    HW128679   3.751   1.557   2.142  0.2367 -0.0868  0.7042
 5740SOL    HW228680   3.619   1.504   2.127 -0.7888 -1.0936 -0.8985
 5741SOL     OW28681   2.958   2.395  13.986 -0.0114 -0.3893  0.9063
 5741SOL    HW128682   2.969   2.479  14.031 -0.4602 -0.7824  1.7505
 5741SOL    HW228683   2.950   2.345  14.068  0.6942  1.1360  1.9109
 5742SOL     OW28684   2.725   2.455  11.325  0.5284  0.1377  0.2739
 5742SOL    HW128685   2.732   2.370  11.368  0.2126  0.9931  2.0246
 5742SOL    HW228686   2.632   2.478  11.333  0.5754 -0.1400  1.6195
 5743SOL     OW28687   3.762   4.182   5.384  0.2422 -0.1750 -0.0933
 5743SOL    HW128688   3.723   4.096   5.400 -0.0482  0.0237  0.2740
 5743SOL    HW228689   3.833   4.189   5.448  1.7618  3.1936 -2.1344
 5744SOL     OW28690   2.125   4.608   9.125  0.0945  0.1449  0.0541
 5744SOL    HW128691   2.166   4.692   9.145 -2.5475  1.3172  0.5569
 5744SOL    HW228692   2.107   4.623   9.032  1.0636 -0.7257 -0.2733
 5745SOL     OW28693   3.879   2.120  15.221  0.0800  0.3603  0.1303
 5745SOL    HW128694   3.916   2.197  15.177 -0.2695  1.1606  1.2484
 5745SOL    HW228695   3.831   2.157  15.295  0.6002  0.9533  0.1751
 5746SOL     OW28696   0.091   4.050   8.146 -0.3032  0.4244 -0.0843
 5746SOL    HW128697   0.113   3.982   8.083  0.1068 -0.8485  1.4606
 5746SOL    HW228698   0.008   4.013   8.176  0.7603 -0.7564  1.3854
 5747SOL     OW28699   3.332   1.367   5.772 -0.1976 -0.7724 -0.7643
 5747SOL    HW128700   3.376   1.448   5.747 -0.6069 -0.3595 -0.1507
 5747SOL    HW228701   3.394   1.334   5.836 -1.7269 -1.9617  0.0882
 5748SOL     OW28702   3.682   4.526   3.083 -0.0971  0.1356 -0.2963
 5748SOL    HW128703   3.710   4.437   3.061  0.7512  0.1698  0.6601
 5748SOL    HW228704   3.687   4.531   3.178 -0.2358  0.0702 -0.2850
 5749SOL     OW28705   1.487   4.657  11.260 -0.0729 -0.5027 -0.4512
 5749SOL    HW128706   1.567   4.612  11.234 -1.4999 -3.7019  0.5983
 5749SOL    HW228707   1.466   4.612  11.343 -0.7510  0.3544 -0.1559
 5750SOL     OW28708   0.884   1.487   4.754  0.3848  0.3635  0.1585
 5750SOL    HW128709   0.846   1.401   4.774 -1.5994  1.1170 -0.3046
 5750SOL    HW228710   0.822   1.541   4.704 -1.8171 -0.7663  1.7055
 5751SOL     OW28711   3.685   4.297  15.770 -0.2077 -0.1342 -0.0167
 5751SOL    HW128712   3.649   4.385  15.775  1.1073  0.4525 -0.7825
 5751SOL    HW228713   3.727   4.299  15.856  1.4607  0.6107 -0.8310
 5752SOL     OW28714   1.543   1.386  15.814 -0.7544  0.4675 -0.0778
 5752SOL    HW128715   1.532   1.479  15.798 -0.8474  0.7690  1.6858
 5752SOL    HW228716   1.595   1.354  15.740  0.4052  1.5360  0.2814
 5753SOL     OW28717   1.047   0.255   7.690 -0.0112  0.2790  0.0413
 5753SOL    HW128718   1.051   0.303   7.772 -1.3191  0.3372  0.0776
 5753SOL    HW228719   1.090   0.175   7.719  1.8645  0.8709 -1.1270
 5754SOL     OW28720   2.987   1.206   5.422  0.5212 -0.4432 -0.1493
 5754SOL    HW128721   3.045   1.246   5.486  0.5322 -0.4752 -0.1389
 5754SOL    HW228722   2.958   1.289   5.386  0.8368  0.5994  2.0243
 5755SOL     OW28723   4.543   0.220   7.802 -0.1502 -0.3786 -0.1353
 5755SOL    HW128724   4.613   0.161   7.775  0.1350 -0.5037  0.8833
 5755SOL    HW228725   4.574   0.246   7.888  0.1638 -3.1007  0.5852
 5756SOL     OW28726   0.160   0.977   6.021  0.0400 -0.0216 -0.2314
 5756SOL    HW128727   0.237   0.933   5.985  1.2306  1.1378  0.9069
 5756SOL    HW228728   0.114   0.901   6.056 -1.9999  1.6498  0.7235
 5757SOL     OW28729   2.210   2.345   4.783  0.2816 -0.7409  0.2118
 5757SOL    HW128730   2.163   2.342   4.699 -0.5634 -0.9436  0.6917
 5757SOL    HW228731   2.187   2.259   4.818 -0.9607  0.5892  2.6906
 5758SOL     OW28732   2.672   3.784   7.368 -0.1483  0.2548 -0.0581
 5758SOL    HW128733   2.712   3.831   7.440 -1.8661 -1.5792  2.1026
 5758SOL    HW228734   2.585   3.772   7.407  0.2674 -1.3009  0.3852
 5759SOL     OW28735   2.626   3.600   5.160  0.5178  0.7944  0.0681
 5759SOL    HW128736   2.585   3.640   5.083 -1.0691  1.3410  1.2130
 5759SOL    HW228737   2.549   3.573   5.209  1.5575 -0.0176  1.2461
 5760SOL     OW28738   4.247   3.533   9.743 -0.1165  0.3381  0.0701
 5760SOL    HW128739   4.276   3.470   9.810  0.5879 -1.4252 -1.9075
 5760SOL    HW228740   4.156   3.507   9.728 -0.6055  1.0133  1.7476
 5761SOL     OW28741   4.645   4.084   8.797  0.2408 -0.5503  0.0843
 5761SOL    HW128742   4.595   4.038   8.865 -0.4645 -0.0454 -0.1061
 5761SOL    HW228743   4.692   4.147   8.853  0.9478 -0.9881 -0.0107
 5762SOL     OW28744   0.675   3.432   0.389 -0.2901 -0.5688 -0.7443
 5762SOL    HW128745   0.675   3.523   0.419  0.3153 -0.3617 -1.3590
 5762SOL    HW228746   0.608   3.390   0.443  0.9373  0.0697  1.3060
 5763SOL     OW28747   0.131   4.558   7.630 -0.0116  0.0416 -0.1937
 5763SOL    HW128748   0.064   4.534   7.567 -1.2036  0.6544  0.8283
 5763SOL    HW228749   0.132   4.490   7.698  1.8879 -1.2447 -1.5130
 5764SOL     OW28750   4.498   3.559  10.260 -0.3696  0.5795  0.1812
 5764SOL    HW128751   4.509   3.598  10.346 -1.5518  0.2780  0.4753
 5764SOL    HW228752   4.473   3.633  10.206 -0.8636  1.6750  1.9115
 5765SOL     OW28753   0.338   0.523   1.908 -0.6586 -0.2476  0.0486
 5765SOL    HW128754   0.416   0.491   1.863 -0.7048 -0.6255  0.2404
 5765SOL    HW228755   0.348   0.613   1.876  2.7625 -0.5459  0.2934
 5766SOL     OW28756   2.787   2.548   0.307 -0.3689  0.5297  0.5831
 5766SOL    HW128757   2.788   2.465   0.260 -1.4043 -0.4213  2.2574
 5766SOL    HW228758   2.880   2.564   0.292 -0.4336  0.2299 -0.1618
 5767SOL     OW28759   1.628   1.241   4.139 -0.5327  0.1586  0.1659
 5767SOL    HW128760   1.599   1.331   4.127  0.3675  0.3210 -0.7909
 5767SOL    HW228761   1.580   1.224   4.220  0.4016  0.1310  0.7035
 5768SOL     OW28762   1.551   0.717   6.999 -0.3099  0.0281  0.3771
 5768SOL    HW128763   1.532   0.716   7.092  1.8445 -0.6337  0.8148
 5768SOL    HW228764   1.640   0.681   6.996  0.5686  2.1486  1.0296
 5769SOL     OW28765   2.835   4.382  16.843 -0.2159 -0.5060  1.2203
 5769SOL    HW128766   2.857   4.297  16.803 -1.0083  0.3104 -0.9413
 5769SOL    HW228767   2.910   4.384  16.903 -1.3306  1.4013  2.5150
 5770SOL     OW28768   1.988   4.618   4.741  0.3182 -0.0471 -0.3051
 5770SOL    HW128769   1.972   4.692   4.682 -0.4119  0.0080 -0.0474
 5770SOL    HW228770   1.915   4.640   4.800  2.2001 -0.2376  2.0851
 5771SOL     OW28771   0.110   2.237  10.432  0.6998 -0.6438 -0.5415
 5771SOL    HW128772   0.116   2.303  10.362 -0.8001 -0.6713 -0.7001
 5771SOL    HW228773   0.153   2.277  10.507  0.0482 -0.4446 -0.2750
 5772SOL     OW28774   3.828   0.453  11.587  0.0851  0.7566  0.5157
 5772SOL    HW128775   3.739   0.476  11.560  0.1751  0.5788  0.0687
 5772SOL    HW228776   3.862   0.542  11.591  2.9193 -0.3768  1.9377
 5773SOL     OW28777   3.329   2.857   7.380 -0.1534 -0.5098 -0.5870
 5773SOL    HW128778   3.424   2.866   7.373 -0.4747  1.2634 -2.5363
 5773SOL    HW228779   3.304   2.924   7.316 -1.8632 -0.1081  0.4873
 5774SOL     OW28780   4.116   3.022   3.813  0.0133 -0.0072  0.3501
 5774SOL    HW128781   4.177   3.095   3.818 -1.8647  1.5652  0.4484
 5774SOL    HW228782   4.062   3.032   3.892 -0.0634 -2.4363  0.6088
 5775SOL     OW28783   3.286   4.521   8.697  0.0647 -0.0746  0.1136
 5775SOL    HW128784   3.316   4.513   8.788  0.5654 -0.2696 -0.0643
 5775SOL    HW228785   3.195   4.494   8.697  0.0021  0.1380  0.1759
 5776SOL     OW28786   4.217   0.388   3.051 -0.1571  0.4672  0.0555
 5776SOL    HW128787   4.286   0.454   3.046  0.7157 -0.4884 -0.5244
 5776SOL    HW228788   4.158   0.462   3.066 -2.9050 -1.6157 -0.6126
 5777SOL     OW28789   2.989   1.980   7.900  0.3217 -0.1242  0.2235
 5777SOL    HW128790   2.993   1.884   7.897 -3.8023 -0.3025  0.5239
 5777SOL    HW228791   3.081   2.003   7.910 -0.6167  3.2633  1.1923
 5778SOL     OW28792   1.067   0.504  17.565 -0.5531 -0.3137 -0.2270
 5778SOL    HW128793   1.143   0.446  17.555 -1.1958 -1.5508  2.1858
 5778SOL    HW228794   1.022   0.488  17.483  0.4891  1.2138 -1.0991
 5779SOL     OW28795   3.711   3.281   0.266 -0.1704  0.2000  0.1975
 5779SOL    HW128796   3.753   3.362   0.237  1.4772 -0.2260  1.4372
 5779SOL    HW228797   3.723   3.283   0.361 -0.4486  0.2552  0.2309
 5780SOL     OW28798   4.308   3.906   4.354 -0.7032  0.1461 -0.7007
 5780SOL    HW128799   4.236   3.908   4.290 -1.0357  0.4163 -0.3237
 5780SOL    HW228800   4.372   3.860   4.301  0.0131 -0.4357  0.6827
 5781SOL     OW28801   3.340   4.212  11.849  0.5130  0.3142 -0.2198
 5781SOL    HW128802   3.269   4.260  11.891  1.7824  2.4642 -0.5588
 5781SOL    HW228803   3.414   4.267  11.824  2.0447 -1.4191  0.4812
 5782SOL     OW28804   4.558   1.521  14.315  0.0460  0.0130  0.0492
 5782SOL    HW128805   4.593   1.517  14.404 -0.3659  2.5798  0.3222
 5782SOL    HW228806   4.479   1.575  14.327 -0.5436 -0.5564 -1.3315
 5783SOL     OW28807   0.831   4.498   8.995  0.4065  0.1998  0.1291
 5783SOL    HW128808   0.901   4.449   8.952 -1.0041 -1.0522 -0.7546
 5783SOL    HW228809   0.886   4.558   9.044  0.4867 -1.8423  2.5196
 5784SOL     OW28810   2.420   1.605   0.144 -0.2666  0.1447 -0.0940
 5784SOL    HW128811   2.373   1.592   0.061 -2.0132  0.8559  0.7726
 5784SOL    HW228812   2.345   1.623   0.201  0.5774  1.0053  0.7517
 5785SOL     OW28813   4.609   0.843  11.450 -0.1925 -0.3678 -0.3469
 5785SOL    HW128814   4.554   0.783  11.500  1.1396 -1.3061 -0.0307
 5785SOL    HW228815   4.571   0.927  11.474  1.9612  0.5245 -0.0942
 5786SOL     OW28816   2.632   0.806   4.117 -0.1529  0.4094 -1.1094
 5786SOL    HW128817   2.620   0.888   4.166 -0.2991 -1.1224  1.4283
 5786SOL    HW228818   2.637   0.833   4.026  0.1624  0.2741 -1.1327
 5787SOL     OW28819   0.390   4.300   6.788 -0.2322  0.4442  0.4150
 5787SOL    HW128820   0.335   4.325   6.714 -1.5334 -1.0499  0.8733
 5787SOL    HW228821   0.410   4.212   6.757  2.4122  2.0497 -2.3825
 5788SOL     OW28822   1.653   4.043  11.123  0.2162  0.7530  0.4071
 5788SOL    HW128823   1.607   4.037  11.206 -0.1253  1.2989  0.2558
 5788SOL    HW228824   1.651   4.136  11.102 -1.2484  0.0858 -2.4272
 5789SOL     OW28825   2.454   2.932   4.760 -0.2907  0.5949  0.3630
 5789SOL    HW128826   2.418   2.875   4.692 -0.5007  0.4630  0.5828
 5789SOL    HW228827   2.369   2.971   4.782 -1.1745 -1.6094  0.8290
 5790SOL     OW28828   3.638   0.887  16.745 -0.6321 -0.2431  0.1412
 5790SOL    HW128829   3.706   0.903  16.680 -0.5392  0.4710  0.4218
 5790SOL    HW228830   3.683   0.915  16.824 -1.0171  1.0895 -0.1266
 5791SOL     OW28831   3.380   0.893  16.708  0.1375  0.1245  0.2752
 5791SOL    HW128832   3.355   0.977  16.746 -0.7190  0.0899 -0.2198
 5791SOL    HW228833   3.476   0.896  16.713  0.1263  1.1707 -0.0760
 5792SOL     OW28834   1.109   1.342   6.847 -0.3026 -0.2197  0.0676
 5792SOL    HW128835   1.152   1.421   6.879  0.2111  0.8394 -3.2958
 5792SOL    HW228836   1.081   1.294   6.925 -1.8631  2.8686  1.4137
 5793SOL     OW28837   1.590   2.466  14.099 -0.8587  0.3638  0.0470
 5793SOL    HW128838   1.627   2.379  14.110 -2.0613 -0.1179  0.2888
 5793SOL    HW228839   1.623   2.507  14.179 -0.9652  0.0003  0.2776
 5794SOL     OW28840   3.415   3.449  13.651 -0.2565 -0.1378 -0.0916
 5794SOL    HW128841   3.464   3.502  13.588 -0.4453  1.3925  1.0351
 5794SOL    HW228842   3.374   3.393  13.585  1.9125  0.2789 -1.7751
 5795SOL     OW28843   3.229   2.252   3.825 -0.4880  0.8140 -0.0264
 5795SOL    HW128844   3.168   2.230   3.896 -2.4022  0.9132 -1.6126
 5795SOL    HW228845   3.162   2.275   3.760  1.0416 -0.1021 -1.9020
 5796SOL     OW28846   3.605   0.235  11.367  0.1956  0.2155  0.7735
 5796SOL    HW128847   3.573   0.218  11.279  2.5203 -2.2479  0.4273
 5796SOL    HW228848   3.674   0.297  11.344 -0.6783  0.4402 -1.2369
 5797SOL     OW28849   0.332   1.733  10.931 -0.2321 -0.0303 -0.0801
 5797SOL    HW128850   0.406   1.683  10.965 -0.9042 -1.2745 -0.4633
 5797SOL    HW228851   0.368   1.771  10.851  1.3964 -1.8437 -0.2182
 5798SOL     OW28852   0.617   3.153   6.377  0.0788  0.4453  0.4058
 5798SOL    HW128853   0.703   3.174   6.414 -0.6230  0.3714  2.0833
 5798SOL    HW228854   0.594   3.240   6.345  1.3671  0.9961  0.9516
 5799SOL     OW28855   1.026   2.327   2.028 -0.4019 -0.0654 -0.3288
 5799SOL    HW128856   1.087   2.386   2.073  0.5306 -1.5095  0.2736
 5799SOL    HW228857   1.070   2.244   2.013  0.9312  0.8302 -1.3236
 5800SOL     OW28858   0.660   1.551   7.063 -0.5912 -0.4502  0.1948
 5800SOL    HW128859   0.694   1.492   6.996  0.7767  1.1729 -0.5288
 5800SOL    HW228860   0.700   1.635   7.042 -0.5425 -0.1328  1.5622
 5801SOL     OW28861   4.531   0.254   3.862  0.2254  0.1016 -0.3242
 5801SOL    HW128862   4.587   0.325   3.833  0.6767  0.2734  0.9662
 5801SOL    HW228863   4.448   0.286   3.898  1.6638  1.6665  1.5906
 5802SOL     OW28864   4.162   0.628   1.185  0.0850 -0.0956  0.7894
 5802SOL    HW128865   4.179   0.645   1.092 -3.4546  2.7164  0.6820
 5802SOL    HW228866   4.244   0.582   1.203  0.7896  0.2838 -1.5038
 5803SOL     OW28867   2.348   3.324   7.574 -0.8194 -0.3588  0.0322
 5803SOL    HW128868   2.283   3.292   7.636  0.1334 -0.1224  1.1633
 5803SOL    HW228869   2.297   3.400   7.547  0.0108 -0.6289 -2.3568
 5804SOL     OW28870   1.712   0.910   5.013 -0.2275  0.2251  0.3869
 5804SOL    HW128871   1.801   0.923   4.980 -1.0224 -0.1114 -1.8538
 5804SOL    HW228872   1.730   0.915   5.107 -2.2259 -1.7197  0.8811
 5805SOL     OW28873   2.190   2.740   2.483  0.4512 -0.1858  0.0021
 5805SOL    HW128874   2.155   2.810   2.427  0.4816  0.7177  1.1195
 5805SOL    HW228875   2.223   2.677   2.419  0.4866 -0.5033  0.3357
 5806SOL     OW28876   1.289   2.317   4.950 -0.0164 -0.0530  0.0381
 5806SOL    HW128877   1.374   2.274   4.962  1.3553  1.9421 -2.4639
 5806SOL    HW228878   1.278   2.301   4.856 -2.0997 -1.1038  0.4629
 5807SOL     OW28879   4.168   1.659  15.271 -0.2231  0.1527 -0.6023
 5807SOL    HW128880   4.128   1.738  15.233 -1.0019 -0.6054 -1.3501
 5807SOL    HW228881   4.259   1.686  15.282  0.0263 -1.3775  0.8762
 5808SOL     OW28882   0.089   2.036   8.017 -0.3309 -0.2932  0.0254
 5808SOL    HW128883   0.179   2.003   8.017  0.0874  0.8577 -1.5046
 5808SOL    HW228884   0.043   2.006   7.939 -0.5547  2.0583 -0.7613
 5809SOL     OW28885   3.434   0.866   2.041  0.1038 -0.1849 -0.3828
 5809SOL    HW128886   3.458   0.773   2.043  0.7581 -0.0287 -1.0989
 5809SOL    HW228887   3.506   0.917   2.078 -0.7822  0.7398  0.0619
 5810SOL     OW28888   0.965   0.267   3.710 -0.0886 -0.1279 -0.1750
 5810SOL    HW128889   0.920   0.213   3.774 -1.3495  0.6749 -0.3664
 5810SOL    HW228890   1.004   0.337   3.761  0.1446 -0.3548 -0.0460
 5811SOL     OW28891   1.520   0.400   7.955  0.4982  0.2495 -0.4307
 5811SOL    HW128892   1.577   0.433   7.885 -0.1108 -2.4037 -2.1919
 5811SOL    HW228893   1.431   0.419   7.925 -0.0532 -0.6599  0.6287
 5812SOL     OW28894   1.800   3.526  17.072 -0.1134  0.1935  0.2185
 5812SOL    HW128895   1.892   3.508  17.054 -0.1352  1.4918 -1.2508
 5812SOL    HW228896   1.801   3.617  17.041 -1.5242  0.4195  0.8283
 5813SOL     OW28897   1.001   0.476   2.887 -0.0782 -0.3813  0.2865
 5813SOL    HW128898   0.993   0.386   2.920 -1.1689  0.1955  1.6368
 5813SOL    HW228899   1.084   0.505   2.925 -0.2870  0.3059  0.2148
 5814SOL     OW28900   1.800   1.601   1.749  0.2897  0.4566 -0.5167
 5814SOL    HW128901   1.839   1.652   1.820  0.2849  3.1085 -2.4349
 5814SOL    HW228902   1.875   1.553   1.715 -0.4165 -1.0730  0.0948
 5815SOL     OW28903   2.000   2.992   1.445 -0.0417 -0.0685  0.0920
 5815SOL    HW128904   1.955   3.077   1.444  1.9955  1.0186  0.3971
 5815SOL    HW228905   2.050   3.004   1.526  1.2530 -0.4287 -0.6478
 5816SOL     OW28906   2.103   2.181   7.165  0.1000 -0.2209 -0.4610
 5816SOL    HW128907   2.136   2.091   7.170  0.0624 -0.1876  0.3820
 5816SOL    HW228908   2.015   2.172   7.204  0.9575 -1.4400  1.2276
 5817SOL     OW28909   0.641   2.115   6.455 -0.1572  0.2606 -0.5112
 5817SOL    HW128910   0.634   2.205   6.422 -0.5858 -1.0517 -4.0025
 5817SOL    HW228911   0.596   2.107   6.538 -1.1800  0.2466 -1.0697
 5818SOL     OW28912   0.086   2.934   0.963  0.1155  0.4428  0.4405
 5818SOL    HW128913   0.029   2.917   0.888  1.8693 -0.4588 -0.7095
 5818SOL    HW228914   0.021   2.977   1.018  1.2761  0.4236  1.8479
 5819SOL     OW28915   4.127   3.688  10.634  0.1601  0.0844 -0.1171
 5819SOL    HW128916   4.113   3.747  10.560  1.1827 -0.3469 -0.6653
 5819SOL    HW228917   4.065   3.617  10.615 -0.0201 -0.2375  1.7311
 5820SOL     OW28918   2.269   2.542  15.832 -0.7504 -0.0019  0.0493
 5820SOL    HW128919   2.256   2.632  15.801 -2.2490 -0.7710 -1.5038
 5820SOL    HW228920   2.287   2.493  15.753  0.7512  0.3233  0.1852
 5821SOL     OW28921   4.314   1.871   7.615  0.1366  0.2561  0.1543
 5821SOL    HW128922   4.255   1.796   7.612  1.7718 -0.9822 -1.3069
 5821SOL    HW228923   4.290   1.900   7.527 -0.6064 -0.4951  0.1069
 5822SOL     OW28924   1.291   1.915  17.328  0.0117 -0.8203 -0.5578
 5822SOL    HW128925   1.283   1.829  17.368 -1.7847 -0.4217 -0.0269
 5822SOL    HW228926   1.200   1.939  17.311  0.2591  1.7742  1.6337
 5823SOL     OW28927   1.739   1.275   8.680  0.3798 -0.4893 -0.3484
 5823SOL    HW128928   1.744   1.358   8.728 -4.2920  0.0930 -0.8388
 5823SOL    HW228929   1.677   1.231   8.738  1.5257 -0.2567  1.0745
 5824SOL     OW28930   4.020   3.130   4.278 -0.3505  0.1881  0.1259
 5824SOL    HW128931   4.068   3.211   4.261 -0.2784 -0.0618 -0.8600
 5824SOL    HW228932   4.078   3.097   4.347 -1.0967  0.0115  0.6624
 5825SOL     OW28933   1.986   3.945   4.277  0.9339  0.2626 -0.3993
 5825SOL    HW128934   1.928   3.979   4.208 -1.8300 -0.9751  1.3013
 5825SOL    HW228935   2.035   3.882   4.224 -0.6437 -0.8386 -0.5855
 5826SOL     OW28936   3.940   0.256  14.133 -0.3550  0.3054  0.1399
 5826SOL    HW128937   3.899   0.312  14.067 -1.3219  0.5993  0.9889
 5826SOL    HW228938   4.001   0.212  14.073 -1.6017 -2.1777  0.6851
 5827SOL     OW28939   4.690   0.999  14.725  0.7838 -0.9112 -0.5594
 5827SOL    HW128940   0.047   1.005  14.776 -0.1706  0.4050  0.7618
 5827SOL    HW228941   4.646   1.081  14.748 -0.3063 -1.6666  0.0738
 5828SOL     OW28942   4.116   2.630   7.017  0.1435 -0.1638 -0.7482
 5828SOL    HW128943   4.123   2.554   7.075 -0.9459 -0.3055 -0.8161
 5828SOL    HW228944   4.186   2.688   7.047 -0.5557  0.6949 -0.7955
 5829SOL     OW28945   3.369   3.595   1.905 -0.3664  0.2462  0.1601
 5829SOL    HW128946   3.464   3.592   1.921 -0.3680 -2.4044 -0.2387
 5829SOL    HW228947   3.341   3.521   1.852 -0.5776 -0.7085  1.5970
 5830SOL     OW28948   3.385   0.312   3.824  0.1113 -0.7478  0.2237
 5830SOL    HW128949   3.386   0.358   3.908 -0.6993  0.4714 -0.4268
 5830SOL    HW228950   3.424   0.227   3.844  1.3369 -0.5201 -1.1950
 5831SOL     OW28951   0.927   1.831   8.496 -0.5493  0.4897 -0.6173
 5831SOL    HW128952   0.978   1.786   8.428  1.0385  0.9276  0.2777
 5831SOL    HW228953   0.984   1.811   8.571 -1.4924 -1.3207 -0.3944
 5832SOL     OW28954   1.254   2.129   3.862  0.1623  0.0500  0.2676
 5832SOL    HW128955   1.310   2.052   3.852  2.4671  1.8833 -0.9928
 5832SOL    HW228956   1.304   2.190   3.807 -0.0293 -0.4302 -0.4363
 5833SOL     OW28957   0.472   1.916  11.718 -0.2844  0.2411  0.1895
 5833SOL    HW128958   0.471   1.821  11.727  1.8436  0.1380 -0.5938
 5833SOL    HW228959   0.560   1.935  11.751  0.0985  0.9070 -1.2256
 5834SOL     OW28960   2.312   1.647  15.071  0.3529 -0.3756 -0.0449
 5834SOL    HW128961   2.270   1.700  15.004 -0.3518 -2.7803 -1.5249
 5834SOL    HW228962   2.245   1.579  15.080 -0.7004  0.8440  1.2281
 5835SOL     OW28963   1.598   1.920   9.928 -0.6192  0.9107 -0.3867
 5835SOL    HW128964   1.552   1.911   9.845  0.4582 -0.2730 -0.8649
 5835SOL    HW228965   1.610   2.015   9.923  0.0121  0.8504  0.0432
 5836SOL     OW28966   3.152   1.662   8.902  0.4500 -0.1867 -0.1702
 5836SOL    HW128967   3.168   1.593   8.838 -0.6813  0.3787 -1.0658
 5836SOL    HW228968   3.182   1.621   8.983  2.3340  0.1314 -0.7212
 5837SOL     OW28969   2.323   2.563   1.942  0.0913  0.2442  0.1973
 5837SOL    HW128970   2.259   2.542   1.874  0.6960  1.8211 -0.8625
 5837SOL    HW228971   2.321   2.488   2.001 -0.4925  0.5763  0.6029
 5838SOL     OW28972   0.947   1.370   6.599  0.4968  0.1159  0.9117
 5838SOL    HW128973   1.027   1.361   6.651  0.6526 -0.3845  0.5860
 5838SOL    HW228974   0.938   1.276   6.582  0.7059 -0.0205  1.5652
 5839SOL     OW28975   2.768   1.028  11.227 -0.0349  0.3510  0.1263
 5839SOL    HW128976   2.729   0.943  11.205 -2.4949  1.4479  0.1488
 5839SOL    HW228977   2.846   0.989  11.265  0.4111  0.3686 -0.7756
 5840SOL     OW28978   1.476   4.003   5.748 -0.2207  0.2103  0.1992
 5840SOL    HW128979   1.541   4.069   5.770  0.7944  0.3970 -3.2817
 5840SOL    HW228980   1.409   4.021   5.814 -0.6570 -0.1675 -0.1347
 5841SOL     OW28981   2.187   2.341   3.048  0.1387  0.0938  0.1013
 5841SOL    HW128982   2.171   2.368   2.958 -1.0381  0.6492  0.4745
 5841SOL    HW228983   2.154   2.252   3.036 -1.4689  0.8288 -0.9048
 5842SOL     OW28984   0.301   1.133  15.750  0.3993 -0.0966  0.3579
 5842SOL    HW128985   0.318   1.042  15.776  2.7640  0.0147 -0.8331
 5842SOL    HW228986   0.379   1.174  15.786  0.5328 -0.4616  0.4888
 5843SOL     OW28987   0.053   0.655   6.693  0.2447  0.1970 -0.0444
 5843SOL    HW128988   0.126   0.704   6.656  0.7266 -0.2798  0.2598
 5843SOL    HW228989   0.104   0.576   6.715 -1.5704 -0.4571  1.8041
 5844SOL     OW28990   4.435   1.367   6.799 -0.0468 -0.2429 -0.0030
 5844SOL    HW128991   4.435   1.298   6.733 -2.0934  1.1884 -1.4968
 5844SOL    HW228992   4.436   1.443   6.741 -2.1951 -0.7683 -0.7134
 5845SOL     OW28993   3.591   0.667  11.167  0.0281 -0.3043  0.6251
 5845SOL    HW128994   3.652   0.737  11.145 -0.9116  0.8893  1.8111
 5845SOL    HW228995   3.520   0.721  11.201  0.4492  1.0475 -0.6306
 5846SOL     OW28996   4.615   0.244  16.846 -0.1896 -0.2273  0.2414
 5846SOL    HW128997   4.648   0.296  16.919 -2.5486 -1.2905  2.0757
 5846SOL    HW228998   4.674   0.169  16.843 -1.3232 -1.1487  0.8886
 5847SOL     OW28999   2.890   1.667   3.805 -0.5159 -0.0911 -0.1712
 5847SOL    HW129000   2.811   1.635   3.762 -1.3192  0.1941  1.1004
 5847SOL    HW229001   2.924   1.737   3.749  1.5363 -0.0017  1.1684
 5848SOL     OW29002   4.703   3.340   8.169  0.1955 -0.1100 -0.1600
 5848SOL    HW129003   4.644   3.407   8.203  0.7369  0.0405  0.4917
 5848SOL    HW229004   4.675   3.256   8.206  1.0381  0.9008  2.7032
 5849SOL     OW29005   1.742   4.654   8.158  0.0385 -0.1614 -0.0280
 5849SOL    HW129006   1.696   4.715   8.100  1.8133 -1.0196 -2.3682
 5849SOL    HW229007   1.805   4.716   8.194 -1.0566 -0.4970  2.4157
 5850SOL     OW29008   0.652   3.692  16.392  0.4901 -1.0218 -0.0797
 5850SOL    HW129009   0.597   3.679  16.315 -0.3946  2.2464 -0.0113
 5850SOL    HW229010   0.629   3.618  16.447  0.3992 -0.7605  0.2356
 5851SOL     OW29011   0.279   2.355   3.731  0.0774 -0.4419  0.3536
 5851SOL    HW129012   0.231   2.274   3.711  0.0916 -0.4564  0.3780
 5851SOL    HW229013   0.366   2.321   3.753  0.5700  1.1847  0.8786
 5852SOL     OW29014   0.103   1.251   4.671 -0.2859  0.1677  0.2029
 5852SOL    HW129015   0.019   1.211   4.696 -0.3359  0.5755  0.6934
 5852SOL    HW229016   0.078   1.323   4.613  0.3701  0.1789 -0.0640
 5853SOL     OW29017   1.772   1.271   3.634  0.3816 -0.3336 -0.2964
 5853SOL    HW129018   1.700   1.280   3.572  0.1693  1.7297  0.2315
 5853SOL    HW229019   1.846   1.282   3.574 -0.9120 -2.3906 -2.2277
 5854SOL     OW29020   3.050   2.931   2.855 -0.6148 -0.2514 -0.3359
 5854SOL    HW129021   2.969   2.940   2.805  1.0867  2.7118 -2.5040
 5854SOL    HW229022   3.039   3.014   2.902  1.0537  0.7711 -1.7438
 5855SOL     OW29023   4.472   2.690   4.939  0.0113  0.1924 -0.2724
 5855SOL    HW129024   4.535   2.651   4.878 -0.5384  0.3768 -0.9636
 5855SOL    HW229025   4.391   2.661   4.897 -0.2027  1.6784 -0.8814
 5856SOL     OW29026   4.114   2.486   5.680  0.4420  0.2880  0.5211
 5856SOL    HW129027   4.182   2.467   5.745  0.1707  0.7706  0.9403
 5856SOL    HW229028   4.096   2.580   5.680 -0.6339  0.0802  2.2567
 5857SOL     OW29029   1.706   1.882  16.280 -0.3780 -0.0439 -0.0731
 5857SOL    HW129030   1.639   1.939  16.241 -0.1353 -0.3295 -0.9079
 5857SOL    HW229031   1.746   1.937  16.347  0.6491  0.1350 -0.8478
 5858SOL     OW29032   4.431   0.499   5.269  0.2760  0.1097 -0.4737
 5858SOL    HW129033   4.526   0.493   5.271  0.3280  0.2893 -2.0286
 5858SOL    HW229034   4.393   0.411   5.268  0.8807 -0.1509  0.0822
 5859SOL     OW29035   4.632   3.169  13.410 -0.3001  0.4145  0.0061
 5859SOL    HW129036   4.700   3.201  13.351  1.1035 -2.1444  0.2327
 5859SOL    HW229037   4.653   3.188  13.502  1.3019 -1.4744  0.0377
 5860SOL     OW29038   4.446   4.126   3.123  0.7088 -0.8842  0.3577
 5860SOL    HW129039   4.404   4.104   3.207 -1.0489 -0.8534 -0.5159
 5860SOL    HW229040   4.378   4.104   3.059  0.9708 -2.6750  0.7166
 5861SOL     OW29041   0.821   4.303  16.721 -0.3111 -0.1015  0.0528
 5861SOL    HW129042   0.799   4.234  16.659 -1.0442 -0.5991  0.8700
 5861SOL    HW229043   0.817   4.371  16.653 -0.4800 -1.7985 -1.6371
 5862SOL     OW29044   3.236   0.326   7.846 -0.2118  0.8206  0.0953
 5862SOL    HW129045   3.285   0.378   7.783 -0.8675  1.0507 -0.2250
 5862SOL    HW229046   3.263   0.363   7.930 -0.2772  0.7136  0.1642
 5863SOL     OW29047   2.547   2.575   4.770  0.4529  0.0598 -0.2435
 5863SOL    HW129048   2.481   2.505   4.765  1.1580 -0.7398  1.5444
 5863SOL    HW229049   2.514   2.640   4.708  0.5090  2.1683  1.9745
 5864SOL     OW29050   3.914   0.954   6.677  0.1796 -0.0324  0.9014
 5864SOL    HW129051   3.920   0.970   6.583 -1.2977 -0.1774  0.7838
 5864SOL    HW229052   4.005   0.961   6.708  0.7661  0.4695 -0.9391
 5865SOL     OW29053   0.211   1.766  15.852 -0.5823  0.2056  0.0878
 5865SOL    HW129054   0.259   1.775  15.769 -1.1639  0.9666 -0.1624
 5865SOL    HW229055   0.117   1.777  15.838 -0.4480 -0.9469 -1.7729
 5866SOL     OW29056   1.576   1.485   9.782 -0.5554  0.0105 -0.1742
 5866SOL    HW129057   1.529   1.550   9.730 -1.2825 -1.7522 -1.6722
 5866SOL    HW229058   1.541   1.402   9.751 -0.1076  0.3987 -1.7344
 5867SOL     OW29059   3.585   2.287  13.145  0.3223  0.1539  0.8842
 5867SOL    HW129060   3.538   2.360  13.103  0.4282 -0.8686 -0.9990
 5867SOL    HW229061   3.529   2.214  13.120  1.0908  0.4386 -1.6630
 5868SOL     OW29062   4.336   2.839   6.833  0.2606 -0.4949  0.3896
 5868SOL    HW129063   4.337   2.745   6.814 -1.8059 -0.4619  0.0818
 5868SOL    HW229064   4.333   2.867   6.741  3.9215 -0.7601  0.2157
 5869SOL     OW29065   0.625   0.646  12.630 -0.4043  0.3701  0.0581
 5869SOL    HW129066   0.702   0.700  12.645  0.0934  0.0954 -1.5422
 5869SOL    HW229067   0.637   0.589  12.706  0.1280  1.4384  0.7703
 5870SOL     OW29068   1.190   0.639  11.024 -0.4002 -0.6656  0.4521
 5870SOL    HW129069   1.229   0.559  11.060 -1.0588 -0.4280  1.7001
 5870SOL    HW229070   1.152   0.682  11.101 -0.6596 -0.2016  0.0672
 5871SOL     OW29071   0.943   1.434   0.181  0.4195  0.0605 -0.1344
 5871SOL    HW129072   0.987   1.356   0.215  0.6932  0.3016  0.0636
 5871SOL    HW229073   0.974   1.439   0.091 -2.2897  1.1331 -0.9877
 5872SOL     OW29074   0.639   3.575   4.748  0.6943 -0.0522  0.6337
 5872SOL    HW129075   0.562   3.531   4.715  1.5320 -1.6453  0.8221
 5872SOL    HW229076   0.638   3.655   4.694 -0.8084 -0.2919  0.3183
 5873SOL     OW29077   1.990   1.475  16.630 -0.6234 -0.3410  0.4957
 5873SOL    HW129078   1.949   1.533  16.566  1.6874  1.4373  0.5924
 5873SOL    HW229079   1.922   1.411  16.650 -0.5308 -0.8263 -0.7905
 5874SOL     OW29080   4.393   3.326   4.049 -0.1026 -0.0049 -0.1966
 5874SOL    HW129081   4.449   3.276   3.990  0.2547 -1.1289  1.1079
 5874SOL    HW229082   4.389   3.402   3.990 -0.0701  0.4509  0.3869
 5875SOL     OW29083   0.618   1.334  16.490 -0.0182  0.1556  0.2712
 5875SOL    HW129084   0.523   1.341  16.494 -0.1020 -0.5527 -0.5012
 5875SOL    HW229085   0.633   1.248  16.530 -1.1830  0.3105  1.0249
 5876SOL     OW29086   2.593   2.231  17.616  0.2438 -0.2978 -0.0741
 5876SOL    HW129087   2.529   2.206  17.548 -1.0630  2.3983  0.1757
 5876SOL    HW229088   2.616   2.142  17.642  3.3914  0.0096 -1.8386
 5877SOL     OW29089   4.547   0.905   9.199 -0.7503 -0.0417  0.6588
 5877SOL    HW129090   4.479   0.918   9.265 -2.5987  1.6349 -1.6021
 5877SOL    HW229091   4.625   0.936   9.245 -0.0197 -1.1227  0.1559
 5878SOL     OW29092   2.694   0.981   9.140  0.1047  0.3313  0.1078
 5878SOL    HW129093   2.642   1.044   9.191 -0.8210  1.2071 -1.9171
 5878SOL    HW229094   2.656   0.978   9.053 -1.2267 -0.7836  0.7365
 5879SOL     OW29095   1.235   2.424   2.204 -0.8401 -0.2545  0.1616
 5879SOL    HW129096   1.322   2.405   2.241 -0.8033 -1.3527 -0.4786
 5879SOL    HW229097   1.189   2.370   2.268 -0.6332 -0.1270  0.4163
 5880SOL     OW29098   1.902   0.428   3.564 -0.0456 -0.0147  0.3108
 5880SOL    HW129099   1.917   0.425   3.469 -0.3264  0.0405  0.2655
 5880SOL    HW229100   1.902   0.521   3.585 -0.6617 -0.3354  1.6762
 5881SOL     OW29101   1.664   3.730  11.088  0.5061  0.0439  0.0230
 5881SOL    HW129102   1.703   3.789  11.023 -0.4376 -0.4741 -1.0161
 5881SOL    HW229103   1.688   3.771  11.171 -0.2968 -0.4290  0.4911
 5882SOL     OW29104   2.397   0.937   2.605 -0.2230 -0.0709  0.1211
 5882SOL    HW129105   2.426   0.950   2.515 -0.6502  0.0466  0.0025
 5882SOL    HW229106   2.469   0.887   2.644  1.4754  2.0117 -0.3242
 5883SOL     OW29107   2.126   0.236   3.112 -0.0207 -0.0547 -0.1567
 5883SOL    HW129108   2.121   0.226   3.207 -1.2444 -1.8272 -0.4139
 5883SOL    HW229109   2.042   0.278   3.090 -1.3182 -1.0756  2.8378
 5884SOL     OW29110   4.589   0.240   5.821 -0.5422 -0.5177 -0.6755
 5884SOL    HW129111   4.494   0.238   5.814 -0.6068 -0.6568  0.2183
 5884SOL    HW229112   4.604   0.147   5.838  1.1548 -0.0965  0.1810
 5885SOL     OW29113   2.119   2.228   3.882  0.0218 -0.2901 -0.3586
 5885SOL    HW129114   2.055   2.167   3.846  1.3111 -0.9899 -1.4349
 5885SOL    HW229115   2.142   2.272   3.800 -0.6412 -0.3030 -0.5580
 5886SOL     OW29116   4.068   0.144   1.741  0.3984 -0.3794  0.3086
 5886SOL    HW129117   4.102   0.191   1.817 -1.3283  0.7440  0.3931
 5886SOL    HW229118   4.103   0.056   1.757  0.1696 -0.5576 -0.1907
 5887SOL     OW29119   2.466   4.628  10.257 -0.2761 -0.0186  0.2600
 5887SOL    HW129120   2.480   4.559  10.192  0.9223 -0.1690  0.6765
 5887SOL    HW229121   2.415   4.685  10.199 -0.8432  0.3497  1.1201
 5888SOL     OW29122   0.068   0.683   0.129 -0.7562  0.5908 -0.1989
 5888SOL    HW129123   0.057   0.588   0.138 -0.0149  0.4917 -0.3242
 5888SOL    HW229124   0.075   0.714   0.219  2.1127  0.5722 -0.4153
 5889SOL     OW29125   2.543   0.068  13.653  0.2458  0.1374 -0.0258
 5889SOL    HW129126   2.612   0.118  13.695  0.9747 -1.0462  0.1896
 5889SOL    HW229127   2.494   0.141  13.615  1.1546  0.5400 -0.4005
 5890SOL     OW29128   0.286   2.473   1.308  0.0081 -0.0796 -0.5041
 5890SOL    HW129129   0.379   2.484   1.288 -0.0140 -0.9922 -1.0948
 5890SOL    HW229130   0.270   2.556   1.352  0.5433 -1.3409  2.0679
 5891SOL     OW29131   0.164   3.572  16.508 -0.0813 -0.7408  0.3606
 5891SOL    HW129132   0.245   3.614  16.537 -0.7587  1.1177 -0.4015
 5891SOL    HW229133   0.151   3.507  16.576  1.2383 -1.4264 -0.0403
 5892SOL     OW29134   2.888   4.062   8.811 -0.5298 -0.4877  0.0015
 5892SOL    HW129135   2.869   4.137   8.867 -0.0710  0.9207 -1.7210
 5892SOL    HW229136   2.879   3.994   8.878 -0.4265  1.7690  2.2699
 5893SOL     OW29137   3.212   1.279   3.840 -0.0669  0.0315  0.1813
 5893SOL    HW129138   3.252   1.329   3.911 -0.1892 -0.1311  0.3634
 5893SOL    HW229139   3.289   1.233   3.806  0.0497 -0.4250  1.0763
 5894SOL     OW29140   2.498   4.557   9.746 -0.3098  0.4594 -0.3290
 5894SOL    HW129141   2.424   4.498   9.732 -0.4701  0.4375  0.6501
 5894SOL    HW229142   2.450   4.636   9.772  0.2785  0.2407  1.4266
 5895SOL     OW29143   3.160   0.491   3.012  0.0454  0.2726 -0.0997
 5895SOL    HW129144   3.105   0.425   3.054  0.1909  0.1598 -0.0866
 5895SOL    HW229145   3.228   0.485   3.079  1.1608  2.0379 -1.0563
 5896SOL     OW29146   1.600   1.568   7.036  0.2602  0.6387 -0.2200
 5896SOL    HW129147   1.533   1.608   6.982 -0.7008 -0.1026  0.4294
 5896SOL    HW229148   1.679   1.616   7.012  0.3885  0.8796  0.6836
 5897SOL     OW29149   2.487   4.267  11.792 -0.7605 -0.0210 -0.0046
 5897SOL    HW129150   2.532   4.182  11.789 -1.4861 -0.3053 -2.2377
 5897SOL    HW229151   2.418   4.250  11.728  0.5377  1.6627 -1.8523
 5898SOL     OW29152   4.377   3.029  15.117 -0.2373 -0.3665  0.4164
 5898SOL    HW129153   4.325   2.996  15.190  0.1353 -0.2435  0.7420
 5898SOL    HW229154   4.401   2.953  15.064 -1.4447 -0.6406  0.2834
 5899SOL     OW29155   1.834   2.748   7.766  0.4132  0.2618  0.0021
 5899SOL    HW129156   1.842   2.662   7.723  1.6596 -0.0093  0.7841
 5899SOL    HW229157   1.739   2.758   7.768  0.3947  0.5347 -2.6370
 5900SOL     OW29158   1.654   1.570   1.287 -0.3947  0.2987  0.0404
 5900SOL    HW129159   1.719   1.640   1.297 -0.8978  1.0768 -2.0776
 5900SOL    HW229160   1.574   1.617   1.266  0.5038  2.7942  2.2290
 5901SOL     OW29161   3.987   0.080   7.737 -0.0618  0.5977  0.3719
 5901SOL    HW129162   3.935   0.057   7.814  1.3926 -0.8491  0.9291
 5901SOL    HW229163   4.076   0.061   7.765 -1.2979 -2.5923  2.1980
 5902SOL     OW29164   2.165   3.247  11.333 -0.2288 -0.3667  0.4889
 5902SOL    HW129165   2.181   3.341  11.330  2.7945 -1.0014 -2.6942
 5902SOL    HW229166   2.134   3.227  11.245  0.2894  2.3044 -0.3005
 5903SOL     OW29167   2.195   0.804  16.762  0.0068 -0.3882 -0.4514
 5903SOL    HW129168   2.117   0.755  16.787  0.1089  0.6293  1.8659
 5903SOL    HW229169   2.163   0.840  16.679 -2.0631 -1.7218 -0.2306
 5904SOL     OW29170   2.818   2.608  11.583  0.2662 -0.4305  0.3834
 5904SOL    HW129171   2.783   2.681  11.635 -1.2560 -0.7253 -0.2106
 5904SOL    HW229172   2.800   2.647  11.497 -1.5533 -0.4977  0.7247
 5905SOL     OW29173   0.382   1.285   5.883  0.4225  0.0905 -0.0332
 5905SOL    HW129174   0.414   1.195   5.895  1.3724  0.3142 -0.9621
 5905SOL    HW229175   0.464   1.332   5.898  1.5664 -1.1696 -2.2165
 5906SOL     OW29176   1.540   2.149   8.181  0.6607  0.1056 -0.3191
 5906SOL    HW129177   1.631   2.172   8.159  0.5419 -0.2793 -1.2129
 5906SOL    HW229178   1.506   2.132   8.093 -0.8987  2.1884 -0.1108
 5907SOL     OW29179   3.118   3.193   8.845  0.0084 -0.1114 -0.1637
 5907SOL    HW129180   3.107   3.124   8.911 -2.0741 -0.8066 -1.2498
 5907SOL    HW229181   3.101   3.139   8.767  3.5337 -0.5458 -0.6402
 5908SOL     OW29182   2.476   4.652   2.816  0.0166 -0.3821 -0.0586
 5908SOL    HW129183   2.536   4.610   2.755  0.8513  1.3124 -0.4114
 5908SOL    HW229184   2.392   4.613   2.792  0.0872 -1.0173  0.7185
 5909SOL     OW29185   3.158   3.245   5.201 -0.1524  0.6571  0.6715
 5909SOL    HW129186   3.122   3.327   5.168 -2.1560 -0.2774  0.5481
 5909SOL    HW229187   3.206   3.264   5.282  1.8367  2.1775 -0.8521
 5910SOL     OW29188   3.936   3.798   5.198  0.0678 -0.6676  0.4847
 5910SOL    HW129189   3.996   3.861   5.237 -1.4023  0.5423  0.7867
 5910SOL    HW229190   3.993   3.745   5.141  2.8598  2.0745  0.7666
 5911SOL     OW29191   3.485   3.526   4.418  0.0931 -0.4778 -0.1488
 5911SOL    HW129192   3.432   3.512   4.339  0.6915 -0.1652 -0.6036
 5911SOL    HW229193   3.425   3.553   4.488  1.2358 -0.5370  0.8413
 5912SOL     OW29194   2.869   0.129   3.008 -0.3630 -0.5655 -0.5391
 5912SOL    HW129195   2.805   0.142   2.938 -0.8887  2.7114  0.5516
 5912SOL    HW229196   2.816   0.094   3.080  1.0386 -1.4622  0.0424
 5913SOL     OW29197   4.320   4.387  16.424  0.1782  0.0159  0.2656
 5913SOL    HW129198   4.319   4.482  16.412 -0.0596 -0.1185 -0.8380
 5913SOL    HW229199   4.227   4.376  16.446  0.1208  0.2933  0.1620
 5914SOL     OW29200   4.053   3.780  11.956  0.7927  0.2030  0.2764
 5914SOL    HW129201   3.965   3.776  11.992  0.7227  2.6346  0.3199
 5914SOL    HW229202   4.017   3.766  11.868  0.6188  0.7605  0.2628
 5915SOL     OW29203   2.365   4.340   5.240  0.0260  0.0385 -0.5517
 5915SOL    HW129204   2.392   4.432   5.235 -1.6128  0.6054  1.0084
 5915SOL    HW229205   2.303   4.323   5.169 -0.1398 -2.9963  0.3021
 5916SOL     OW29206   4.194   2.366   7.108 -0.4761 -0.3490 -0.1805
 5916SOL    HW129207   4.253   2.304   7.151 -0.1486  0.3098  0.3262
 5916SOL    HW229208   4.110   2.324   7.128 -2.1207  3.2429  0.5698
 5917SOL     OW29209   2.810   3.694   8.009 -0.4004 -0.2181 -0.4607
 5917SOL    HW129210   2.867   3.759   7.966  0.2595 -1.0235 -0.8176
 5917SOL    HW229211   2.765   3.657   7.933  0.6721  1.0714 -1.7376
 5918SOL     OW29212   4.359   4.528   4.492  0.3058  0.4237  0.1062
 5918SOL    HW129213   4.301   4.453   4.480  1.7141 -0.8810  1.4379
 5918SOL    HW229214   4.442   4.488   4.518  1.3949  0.4884 -3.2318
 5919SOL     OW29215   4.025   0.345   6.826  0.0121  0.0346 -0.6453
 5919SOL    HW129216   3.962   0.413   6.803 -0.4164  0.3182  1.3813
 5919SOL    HW229217   3.984   0.286   6.889  0.0978  0.9490  0.2650
 5920SOL     OW29218   3.359   2.289   6.229 -0.5981  0.4007  0.0811
 5920SOL    HW129219   3.375   2.341   6.150  1.5994 -0.7762 -0.2339
 5920SOL    HW229220   3.424   2.333   6.284  1.0460 -1.9487  0.0217
 5921SOL     OW29221   0.726   3.916   5.814 -0.1718 -0.7590 -0.5272
 5921SOL    HW129222   0.637   3.881   5.807  0.0321 -1.3963 -0.0503
 5921SOL    HW229223   0.705   4.008   5.825 -1.2914 -1.2240  1.1758
 5922SOL     OW29224   3.473   2.576   7.579  0.3449  0.0455 -0.0623
 5922SOL    HW129225   3.554   2.527   7.593  0.6785  0.7896  0.6327
 5922SOL    HW229226   3.498   2.666   7.601 -1.8295  0.0703  2.4265
 5923SOL     OW29227   2.698   3.179   6.142 -0.0140 -0.4216 -0.3781
 5923SOL    HW129228   2.789   3.207   6.140  0.0053 -0.4772 -0.2853
 5923SOL    HW229229   2.697   3.137   6.056  1.1660  0.1021 -0.6413
 5924SOL     OW29230   4.384   1.363   7.988  0.1934 -0.1217 -0.1552
 5924SOL    HW129231   4.424   1.304   7.924 -0.5370  1.0665 -1.7069
 5924SOL    HW229232   4.404   1.451   7.957 -1.5058  0.7592  1.2119
 5925SOL     OW29233   2.631   3.644   8.746 -0.1069 -0.8170  0.3558
 5925SOL    HW129234   2.632   3.630   8.651  1.4843  0.8068  0.1466
 5925SOL    HW229235   2.577   3.723   8.757 -0.8772 -1.1079 -1.3590
 5926SOL     OW29236   3.683   2.464   6.846 -0.7679  0.1774  0.1536
 5926SOL    HW129237   3.729   2.516   6.911  0.9614 -1.1854  0.0222
 5926SOL    HW229238   3.759   2.419   6.809  0.1253  1.2982  0.6432
 5927SOL     OW29239   1.170   4.242   2.939 -1.0974 -0.0241 -0.1047
 5927SOL    HW129240   1.125   4.324   2.917  0.5652  0.6108 -1.0930
 5927SOL    HW229241   1.145   4.228   3.030 -1.2541 -0.0084 -0.1445
 5928SOL     OW29242   2.390   0.316   4.465  0.7364  1.2498  0.1394
 5928SOL    HW129243   2.422   0.234   4.427 -1.2039  0.0576  1.0855
 5928SOL    HW229244   2.451   0.373   4.418  1.0819  0.0823 -0.8188
 5929SOL     OW29245   3.807   3.423  11.035  0.4006 -0.0818  1.0501
 5929SOL    HW129246   3.846   3.500  10.994 -1.5840  0.1959 -0.3409
 5929SOL    HW229247   3.785   3.369  10.959 -0.8568  0.9299  0.6957
 5930SOL     OW29248   1.469   0.643  12.691 -0.0757  0.0208 -0.7518
 5930SOL    HW129249   1.472   0.627  12.596  0.9888  0.0606 -0.7227
 5930SOL    HW229250   1.496   0.559  12.727  1.2510  0.1007 -1.5755
 5931SOL     OW29251   2.140   2.343   3.614  0.7578 -0.6916  0.2742
 5931SOL    HW129252   2.096   2.415   3.568  1.1734  0.5190  1.7836
 5931SOL    HW229253   2.230   2.370   3.594  1.2221 -1.5282  1.2511
 5932SOL     OW29254   4.595   2.791  16.825 -0.4537  0.0473 -0.0873
 5932SOL    HW129255   4.594   2.877  16.783  2.8573  0.0767 -0.1065
 5932SOL    HW229256   4.509   2.760  16.795 -0.2222 -0.9532  0.2851
 5933SOL     OW29257   2.166   0.333   1.045 -0.0897  0.7839 -0.6470
 5933SOL    HW129258   2.094   0.275   1.067 -0.6437  1.1888 -1.3531
 5933SOL    HW229259   2.147   0.363   0.955 -1.4073 -0.2410 -0.7134
 5934SOL     OW29260   1.341   2.520   7.257  0.2933 -0.0537  0.5755
 5934SOL    HW129261   1.343   2.425   7.242 -0.8051  0.4999 -3.0175
 5934SOL    HW229262   1.393   2.553   7.184 -1.2741 -3.4051 -2.0877
 5935SOL     OW29263   4.619   0.038   7.395 -0.3415 -0.1931 -0.0756
 5935SOL    HW129264   4.607   4.677   7.437  1.1366 -1.6308 -2.5914
 5935SOL    HW229265   4.535   0.076   7.424  0.1074 -0.2233  1.2654
 5936SOL     OW29266   4.280   2.758   2.606  0.2082 -0.2072 -0.0307
 5936SOL    HW129267   4.202   2.779   2.555 -0.7680 -2.0690  0.6877
 5936SOL    HW229268   4.259   2.674   2.647 -0.5317 -0.9597 -1.9566
 5937SOL     OW29269   1.395   2.276   8.620 -0.6212 -0.4600  0.0214
 5937SOL    HW129270   1.432   2.201   8.574  0.9557 -0.8553  1.9492
 5937SOL    HW229271   1.472   2.330   8.633 -0.5130 -0.1587 -1.7705
 5938SOL     OW29272   2.825   4.386   4.173 -0.0306 -0.1104  0.1979
 5938SOL    HW129273   2.800   4.315   4.233 -0.8752 -0.5723 -0.7025
 5938SOL    HW229274   2.747   4.399   4.118 -0.8958 -0.2599  1.3928
 5939SOL     OW29275   0.367   1.908  10.449  0.1643  0.5291 -0.2895
 5939SOL    HW129276   0.381   1.855  10.371  1.5170  0.5191 -0.0417
 5939SOL    HW229277   0.273   1.909  10.467 -0.1379  0.4588 -1.8983
 5940SOL     OW29278   2.252   4.668   4.790 -0.7031  0.7322 -0.3806
 5940SOL    HW129279   2.236   0.015   4.853  0.8341  0.2527  0.5557
 5940SOL    HW229280   2.162   4.653   4.763 -0.4919 -0.2285 -0.5337
 5941SOL     OW29281   3.102   2.534   7.789  0.7775 -0.2677 -0.3918
 5941SOL    HW129282   3.029   2.574   7.837  0.7772 -1.2166  0.4061
 5941SOL    HW229283   3.129   2.597   7.722 -2.0116  0.7569 -0.5450
 5942SOL     OW29284   2.280   0.898  16.204  0.2529  0.0623 -0.2594
 5942SOL    HW129285   2.222   0.965  16.168 -0.1135 -0.8136 -1.3035
 5942SOL    HW229286   2.353   0.958  16.220 -0.0202  0.7307 -1.5275
 5943SOL     OW29287   2.115   1.447   4.334 -0.6909  0.1396 -0.4390
 5943SOL    HW129288   2.107   1.356   4.363  0.4959 -0.8190 -3.1780
 5943SOL    HW229289   2.147   1.435   4.245 -0.5674 -0.8000 -0.2671
 5944SOL     OW29290   2.373   2.637   8.895 -0.1208 -0.4635  0.4118
 5944SOL    HW129291   2.331   2.640   8.981  0.8327  0.2048  0.8535
 5944SOL    HW229292   2.382   2.542   8.893 -2.3702 -0.6425 -1.3370
 5945SOL     OW29293   0.981   0.683   3.182 -0.2831 -0.1381 -1.0298
 5945SOL    HW129294   0.962   0.590   3.194  3.6248 -0.7551  0.3435
 5945SOL    HW229295   0.918   0.716   3.117 -0.3333 -0.6097 -1.2155
 5946SOL     OW29296   4.063   1.216  13.039 -0.6189 -0.6316 -0.3193
 5946SOL    HW129297   3.973   1.193  13.020 -0.7315  0.7686 -1.4950
 5946SOL    HW229298   4.112   1.134  13.046 -0.0754 -0.3571 -0.8777
 5947SOL     OW29299   0.657   4.512  14.848 -0.1079  0.5802  0.4579
 5947SOL    HW129300   0.606   4.533  14.770  1.4974  0.8650 -0.5113
 5947SOL    HW229301   0.606   4.434  14.872 -0.7244  0.6298 -0.6564
 5948SOL     OW29302   0.570   3.162   2.105  0.5280 -0.3632 -0.5313
 5948SOL    HW129303   0.612   3.094   2.051  1.1117  0.2043 -0.7897
 5948SOL    HW229304   0.481   3.131   2.119  1.0819 -0.3192  3.2424
 5949SOL     OW29305   3.041   4.045   8.308  0.3790  0.2080 -0.2073
 5949SOL    HW129306   3.052   4.138   8.327  0.7912 -0.3095  2.1108
 5949SOL    HW229307   2.985   4.023   8.382 -1.0390 -0.6661 -1.5404
 5950SOL     OW29308   3.983   2.314   8.588 -1.0403  0.2236  0.2407
 5950SOL    HW129309   3.938   2.230   8.586  0.2918 -0.4662 -0.5100
 5950SOL    HW229310   3.918   2.374   8.551 -1.4843 -1.1911 -1.2756
 5951SOL     OW29311   0.310   0.854  11.301  0.1895  0.0006  0.0093
 5951SOL    HW129312   0.350   0.791  11.241  1.4626  2.2722 -1.5610
 5951SOL    HW229313   0.387   0.902  11.332 -0.0118  1.5082 -1.8220
 5952SOL     OW29314   2.220   1.252   4.803 -0.0977  0.3939  0.1125
 5952SOL    HW129315   2.159   1.319   4.834 -0.0220 -0.3258  1.8484
 5952SOL    HW229316   2.156   1.187   4.773  0.0467  0.2193  0.1835
 5953SOL     OW29317   4.684   2.237   1.696 -0.0548  0.0823 -0.1088
 5953SOL    HW129318   4.705   2.192   1.614 -2.3576 -2.0113  0.4485
 5953SOL    HW229319   4.654   2.321   1.661 -0.3459 -0.1327 -0.3878
 5954SOL     OW29320   0.292   1.406   3.470  0.0533 -0.3203  0.1052
 5954SOL    HW129321   0.376   1.450   3.460 -0.5880  0.9813  0.4295
 5954SOL    HW229322   0.309   1.353   3.548 -1.3146  0.1497  0.7243
 5955SOL     OW29323   1.027   4.487   5.021 -0.0751 -0.4999  0.0784
 5955SOL    HW129324   1.078   4.419   4.977  0.2372  0.3002 -0.7792
 5955SOL    HW229325   1.094   4.512   5.084 -0.5372 -1.9967  1.1834
 5956SOL     OW29326   2.312   3.335  17.020 -0.1037  0.7121 -0.0667
 5956SOL    HW129327   2.358   3.359  17.100 -1.5627 -0.9133  1.2431
 5956SOL    HW229328   2.337   3.243  17.017  1.0679  1.0232  0.5293
 5957SOL     OW29329   4.702   2.227   1.969  0.3383  0.2724  0.2686
 5957SOL    HW129330   4.688   2.210   1.877 -0.1342  3.2207 -0.2070
 5957SOL    HW229331   4.677   2.319   1.977 -0.2817 -0.1158  2.7409
 5958SOL     OW29332   0.973   2.536  13.818  0.0325 -0.1483 -0.1437
 5958SOL    HW129333   1.067   2.522  13.833  0.3459 -0.1390 -2.0169
 5958SOL    HW229334   0.987   2.612  13.761 -1.5320  0.8865  0.8592
 5959SOL     OW29335   2.966   1.044  12.363  0.3537 -0.3551  0.0019
 5959SOL    HW129336   3.048   1.039  12.314  0.9280  1.4410  0.7807
 5959SOL    HW229337   2.912   1.102  12.309  0.3773 -0.8276 -0.5262
 5960SOL     OW29338   1.572   2.684  15.533  0.4247 -0.0363  0.0894
 5960SOL    HW129339   1.512   2.759  15.532 -0.0471 -0.4046  0.3616
 5960SOL    HW229340   1.624   2.699  15.612  0.9724 -5.3300  0.7786
 5961SOL     OW29341   1.085   1.606  16.399  0.2280 -0.0516 -0.4168
 5961SOL    HW129342   1.090   1.516  16.431 -0.5476  0.0124 -0.1289
 5961SOL    HW229343   1.069   1.581  16.308 -0.9291  1.7512 -0.6996
 5962SOL     OW29344   2.375   0.718   3.413 -0.1283  0.6498 -0.3994
 5962SOL    HW129345   2.291   0.681   3.387 -0.6521  0.7351  1.1616
 5962SOL    HW229346   2.404   0.762   3.333  1.0503 -3.2913 -2.1423
 5963SOL     OW29347   1.025   4.546   6.445 -0.3018  0.0715 -0.2312
 5963SOL    HW129348   1.058   4.496   6.520  0.0604  0.9687  0.2029
 5963SOL    HW229349   1.041   4.634   6.479 -1.1007 -0.6341  1.9702
 5964SOL     OW29350   1.294   4.009   7.614 -0.2394 -0.0131  0.3000
 5964SOL    HW129351   1.341   4.061   7.679  1.4433 -0.4412 -0.5733
 5964SOL    HW229352   1.206   4.027   7.648 -0.3816 -0.0760 -0.0314
 5965SOL     OW29353   2.164   1.182   6.192  0.5773  0.0957  0.2543
 5965SOL    HW129354   2.241   1.146   6.236  0.9073 -0.5100 -0.8053
 5965SOL    HW229355   2.137   1.253   6.250 -0.5848 -0.2829  0.1719
 5966SOL     OW29356   3.224   0.370   3.436 -0.2494 -0.5028  0.2180
 5966SOL    HW129357   3.171   0.305   3.482 -0.6280  0.3755  1.0342
 5966SOL    HW229358   3.255   0.432   3.502 -0.5046 -1.6688  1.4259
 5967SOL     OW29359   2.687   1.154   7.683 -0.3933 -0.0983 -1.0987
 5967SOL    HW129360   2.768   1.205   7.671 -1.0165  1.7312  2.3594
 5967SOL    HW229361   2.630   1.209   7.628  0.1635 -0.5135 -2.0925
 5968SOL     OW29362   3.125   0.019  14.385  0.3400  0.2566  0.3661
 5968SOL    HW129363   3.124   0.022  14.481 -1.0245  3.6906  0.2554
 5968SOL    HW229364   3.048   0.074  14.374  0.3879  0.1116 -0.6882
 5969SOL     OW29365   2.316   1.696   3.908  0.5476  0.2473 -0.2726
 5969SOL    HW129366   2.267   1.775   3.888 -0.7540  0.0561  2.1786
 5969SOL    HW229367   2.402   1.730   3.883  0.8523 -0.2673  0.0748
 5970SOL     OW29368   1.307   0.188   8.042 -0.1005 -0.9809 -0.4211
 5970SOL    HW129369   1.277   0.188   8.133 -0.4411 -4.1845 -0.5430
 5970SOL    HW229370   1.390   0.142   8.040  0.7592  0.4987  1.4771
 5971SOL     OW29371   3.733   2.566   2.837 -0.8142  0.5003  0.2811
 5971SOL    HW129372   3.727   2.662   2.831  2.4451  0.7254  0.7811
 5971SOL    HW229373   3.688   2.537   2.757  1.5054 -1.0034 -0.4796
 5972SOL     OW29374   0.761   3.113  14.048 -0.3010 -0.4547  0.2477
 5972SOL    HW129375   0.729   3.044  14.106 -1.7715  0.2763  0.2985
 5972SOL    HW229376   0.737   3.192  14.097 -1.2742 -0.7197  0.1825
 5973SOL     OW29377   1.325   0.693   6.825 -0.8573  0.1393 -0.1763
 5973SOL    HW129378   1.349   0.745   6.748 -1.2793 -0.1040 -0.4720
 5973SOL    HW229379   1.407   0.687   6.873 -0.2475  3.2368 -0.8635
 5974SOL     OW29380   3.506   3.027  11.274  0.3151 -0.1681  0.2494
 5974SOL    HW129381   3.496   2.937  11.307 -0.0135 -0.3863 -0.4462
 5974SOL    HW229382   3.414   3.047  11.256  0.2712 -0.5658  0.0202
 5975SOL     OW29383   0.046   2.313   7.775  0.2244  0.0773  0.1462
 5975SOL    HW129384   0.028   2.278   7.862  2.7270 -0.3509  0.5105
 5975SOL    HW229385   4.681   2.333   7.747  0.2811  2.7784  1.8734
 5976SOL     OW29386   3.732   3.912   7.739  0.3363 -0.9349  0.0456
 5976SOL    HW129387   3.759   3.977   7.804 -3.3858 -0.0390  0.6756
 5976SOL    HW229388   3.790   3.837   7.753  1.4536 -0.2848 -1.1293
 5977SOL     OW29389   2.750   4.193   4.343 -0.3970 -0.0939 -0.6610
 5977SOL    HW129390   2.682   4.181   4.410 -1.5094 -0.3932 -1.8525
 5977SOL    HW229391   2.765   4.099   4.336 -1.0768 -0.4201  2.1740
 5978SOL     OW29392   0.046   1.829   5.374 -0.3932  0.1747  0.3038
 5978SOL    HW129393   0.039   1.786   5.458 -1.2195  0.6611  0.4850
 5978SOL    HW229394   0.011   1.916   5.394  0.5470  0.8327 -0.8732
 5979SOL     OW29395   2.092   0.885   5.288 -0.6075 -0.2202 -0.5750
 5979SOL    HW129396   2.148   0.943   5.340 -0.3122  1.2055 -2.4786
 5979SOL    HW229397   2.140   0.886   5.206  0.5354 -1.5121  0.0847
 5980SOL     OW29398   1.389   2.567   6.935  0.2045  0.4394 -0.3829
 5980SOL    HW129399   1.417   2.608   7.017  0.3459  1.5411 -0.9831
 5980SOL    HW229400   1.466   2.556   6.880 -1.1190 -0.3537 -2.0924
 5981SOL     OW29401   4.048   1.551  15.498 -0.3852  0.3799  0.1844
 5981SOL    HW129402   4.029   1.591  15.414 -2.1846 -0.6136  0.1162
 5981SOL    HW229403   4.042   1.628  15.555 -0.8633 -1.0174  2.0462
 5982SOL     OW29404   0.146   2.945   5.278  0.3200  0.0631  0.0917
 5982SOL    HW129405   0.124   3.034   5.252  1.6287  0.0269 -1.1487
 5982SOL    HW229406   0.217   2.959   5.341  0.7165 -1.4627 -0.0026
 5983SOL     OW29407   1.070   4.181   6.865  0.1360 -0.2253 -0.0760
 5983SOL    HW129408   1.065   4.087   6.848  0.2979 -0.4711  1.2310
 5983SOL    HW229409   1.138   4.174   6.932 -0.3358 -1.9321  0.2391
 5984SOL     OW29410   0.044   1.739   3.415 -0.6304 -0.4563 -0.1966
 5984SOL    HW129411   4.696   1.680   3.393 -0.7032 -0.7341  0.8037
 5984SOL    HW229412   0.035   1.808   3.349 -1.9030  0.0020  0.4562
 5985SOL     OW29413   2.716   0.783  13.180 -0.7400 -0.3569  0.1014
 5985SOL    HW129414   2.637   0.823  13.143 -0.8345 -0.3558  0.3034
 5985SOL    HW229415   2.703   0.798  13.274  1.4432 -0.2124  0.3978
 5986SOL     OW29416   1.434   0.916   5.095  0.0714  0.0818 -0.1606
 5986SOL    HW129417   1.510   0.889   5.043  0.6663 -0.5196  1.0231
 5986SOL    HW229418   1.411   0.836   5.141 -1.4541  1.0332  0.6972
 5987SOL     OW29419   2.738   2.863   9.536 -0.0293 -0.0028 -0.1858
 5987SOL    HW129420   2.725   2.904   9.450 -2.8226  3.0862  1.6942
 5987SOL    HW229421   2.833   2.856   9.550  0.1237 -0.2860 -1.3875
 5988SOL     OW29422   2.523   2.777   0.529 -0.3914  0.9754 -0.4786
 5988SOL    HW129423   2.592   2.711   0.535  1.5729  3.1978  0.8456
 5988SOL    HW229424   2.523   2.807   0.620  0.3701  2.7934 -1.0744
 5989SOL     OW29425   0.892   2.986  14.896 -0.1203 -0.3969  0.3412
 5989SOL    HW129426   0.799   2.996  14.873  0.2332 -0.5450 -1.1829
 5989SOL    HW229427   0.907   2.896  14.867  0.7332 -0.3404  0.6250
 5990SOL     OW29428   2.975   2.692  15.451  0.5933 -0.3651 -0.5394
 5990SOL    HW129429   2.959   2.717  15.542  0.1569  1.1209 -1.0278
 5990SOL    HW229430   3.039   2.760  15.431  1.5462 -0.6610  1.5080
 5991SOL     OW29431   4.339   2.236   3.662 -0.1121  0.0993  0.5551
 5991SOL    HW129432   4.290   2.155   3.649  0.6886 -0.1826 -0.6966
 5991SOL    HW229433   4.383   2.253   3.579  0.8851 -1.1902  0.8164
 5992SOL     OW29434   3.018   3.429   8.947  0.3697  0.2560 -0.5317
 5992SOL    HW129435   3.090   3.422   9.010  0.3165  1.1341 -0.3743
 5992SOL    HW229436   3.031   3.348   8.898 -0.4493  0.2605 -0.7538
 5993SOL     OW29437   0.376   0.264   6.924  0.5984 -0.0764  0.3921
 5993SOL    HW129438   0.342   0.280   7.012 -1.8305  2.2221 -0.9310
 5993SOL    HW229439   0.370   0.170   6.914 -0.7325  0.3312 -2.5785
 5994SOL     OW29440   1.773   0.434   8.377  0.4510  0.2308  1.3029
 5994SOL    HW129441   1.678   0.428   8.384  0.3794  4.0181  3.5225
 5994SOL    HW229442   1.784   0.432   8.282 -1.1524  1.4142  1.0980
 5995SOL     OW29443   0.189   4.208   5.678 -0.4789  0.0066  0.0465
 5995SOL    HW129444   0.201   4.250   5.763  1.4241  0.4168 -0.4173
 5995SOL    HW229445   0.109   4.159   5.696  0.0750 -1.3038 -1.0457
 5996SOL     OW29446   3.422   1.106   4.708  0.1789  0.0793  0.3721
 5996SOL    HW129447   3.352   1.168   4.725 -1.3145 -1.7005  0.6680
 5996SOL    HW229448   3.413   1.044   4.781  2.4120  0.3900  0.9314
 5997SOL     OW29449   3.295   4.619   9.154  0.5066  0.2013 -0.6692
 5997SOL    HW129450   3.200   4.611   9.163  0.7313 -1.1689  0.4392
 5997SOL    HW229451   3.332   4.639   9.240  0.0068 -2.5032  0.1718
 5998SOL     OW29452   3.597   0.753   6.160 -0.1531  0.5568 -0.8789
 5998SOL    HW129453   3.653   0.791   6.093 -1.1043  2.0610 -0.8107
 5998SOL    HW229454   3.602   0.657   6.153  0.8621  0.6935 -2.0538
 5999SOL     OW29455   1.899   3.790  12.578  0.4620  0.1966 -0.8446
 5999SOL    HW129456   1.839   3.863  12.592  0.4926 -0.3501  2.0194
 5999SOL    HW229457   1.933   3.770  12.665 -0.7173 -1.7346 -0.8230
 6000SOL     OW29458   0.733   2.811   8.203  0.3307 -0.2738 -0.3459
 6000SOL    HW129459   0.817   2.805   8.250 -0.8711  1.0042  1.9518
 6000SOL    HW229460   0.730   2.904   8.182 -2.9215  0.1167  1.9811
 6001SOL     OW29461   1.707   2.438   7.622  0.5306  0.0979  0.2206
 6001SOL    HW129462   1.697   2.430   7.717 -0.4386  1.1624  0.2067
 6001SOL    HW229463   1.620   2.415   7.591  0.4610  1.1933 -0.3919
 6002SOL     OW29464   0.978   1.719   5.555  0.6063 -0.0683  0.2835
 6002SOL    HW129465   0.901   1.773   5.573  0.0980 -0.4503 -0.7087
 6002SOL    HW229466   1.050   1.779   5.571 -0.3550  1.0054  0.5920
 6003SOL     OW29467   4.586   2.618   7.232  0.2522  0.5587 -0.4627
 6003SOL    HW129468   4.607   2.615   7.325  3.2320 -1.3146 -1.1632
 6003SOL    HW229469   4.653   2.681   7.206  0.1586  0.1425 -1.7480
 6004SOL     OW29470   3.721   4.626   6.904  0.0527  0.0978  0.0592
 6004SOL    HW129471   3.653   4.630   6.837  0.4306  1.4314 -0.2524
 6004SOL    HW229472   3.796   4.650   6.851 -0.1452 -2.3201 -1.2931
 6005SOL     OW29473   0.683   1.832  16.873  0.0792 -0.2104 -0.4161
 6005SOL    HW129474   0.591   1.847  16.894  1.1736  3.2384  1.8324
 6005SOL    HW229475   0.695   1.744  16.910  0.3139 -0.1745 -0.4051
 6006SOL     OW29476   3.469   4.262   1.373 -0.4384  0.3854  0.2465
 6006SOL    HW129477   3.470   4.355   1.352  1.3708 -0.2161 -2.3699
 6006SOL    HW229478   3.544   4.268   1.433  0.1125  1.0600 -0.5108
 6007SOL     OW29479   4.323   1.533   5.771 -0.5501 -0.4268 -0.1555
 6007SOL    HW129480   4.271   1.610   5.793  0.7763  0.4642 -0.0775
 6007SOL    HW229481   4.260   1.468   5.800 -0.8557 -0.2594 -0.4483
 6008SOL     OW29482   0.827   4.341   4.446  0.2247 -0.4228 -0.2497
 6008SOL    HW129483   0.915   4.321   4.479 -0.4273 -2.8459 -0.0174
 6008SOL    HW229484   0.852   4.412   4.386 -1.5803 -0.9618 -1.6435
 6009SOL     OW29485   0.062   3.657   7.576  0.0634 -0.1039  0.0015
 6009SOL    HW129486   0.132   3.595   7.558 -1.1484 -1.6210  0.5626
 6009SOL    HW229487   0.003   3.645   7.501  0.7189 -2.0367 -0.1914
 6010SOL     OW29488   1.616   2.981  11.793 -0.4689  0.4921  0.2649
 6010SOL    HW129489   1.704   2.977  11.831 -0.4318 -2.3522 -0.0863
 6010SOL    HW229490   1.622   3.056  11.733  0.1846  0.6651  0.5499
 6011SOL     OW29491   0.204   2.740   5.077 -0.0857 -0.8157  0.5129
 6011SOL    HW129492   0.183   2.797   5.003  0.2938  0.1089  1.1239
 6011SOL    HW229493   0.190   2.804   5.147 -3.0775 -1.1017  0.1720
 6012SOL     OW29494   1.181   1.782   8.668  0.1970 -0.5654  0.1937
 6012SOL    HW129495   1.250   1.833   8.711 -0.8797  1.5836 -0.6862
 6012SOL    HW229496   1.241   1.748   8.602 -1.5128 -0.8143 -1.2144
 6013SOL     OW29497   2.075   3.446  17.076 -0.1189  0.3164 -0.0320
 6013SOL    HW129498   2.163   3.428  17.041  0.0477 -0.4070  0.7540
 6013SOL    HW229499   2.093   3.505  17.149  2.2458 -0.1996 -0.1638
 6014SOL     OW29500   2.337   2.601   8.101 -0.9770  0.1427 -0.2808
 6014SOL    HW129501   2.285   2.669   8.144 -0.5725  1.2264 -1.4989
 6014SOL    HW229502   2.322   2.529   8.163  0.3853 -0.8676 -1.1200
 6015SOL     OW29503   2.766   0.057   1.112 -0.2097 -0.0495  0.2916
 6015SOL    HW129504   2.754   4.701   1.060  1.5367  0.0368 -0.2415
 6015SOL    HW229505   2.805   0.002   1.180 -1.4627 -0.2321  0.8711
 6016SOL     OW29506   2.654   4.136  16.545  0.4287 -0.1574  0.4517
 6016SOL    HW129507   2.643   4.055  16.496 -0.3717  0.0302  0.3305
 6016SOL    HW229508   2.720   4.179  16.490  0.4396 -0.2461  0.3961
 6017SOL     OW29509   2.692   2.785   7.144 -0.1455 -0.2975  0.2622
 6017SOL    HW129510   2.666   2.854   7.083  2.9907  1.9732  1.4683
 6017SOL    HW229511   2.787   2.791   7.136 -0.1369  0.6262  0.9716
 6018SOL     OW29512   3.009   1.019   9.388  0.3975 -0.1081 -0.2079
 6018SOL    HW129513   3.048   1.097   9.428 -0.0502  0.8761 -1.6760
 6018SOL    HW229514   3.028   1.037   9.296  1.2752 -2.3153 -0.4463
 6019SOL     OW29515   1.967   2.514   7.648 -0.1859  0.1778 -0.2262
 6019SOL    HW129516   2.012   2.557   7.576 -3.0049  0.4701 -1.8236
 6019SOL    HW229517   1.897   2.473   7.598 -1.9845  1.2534  1.3939
 6020SOL     OW29518   0.245   0.146   3.010 -0.1409 -0.1395  0.1227
 6020SOL    HW129519   0.266   0.064   2.965  0.7883  1.3725 -2.2049
 6020SOL    HW229520   0.163   0.156   2.962  1.7718 -1.3679 -3.4465
 6021SOL     OW29521   1.839   4.720   1.066 -0.1559 -0.8338 -0.0982
 6021SOL    HW129522   1.849   4.718   0.971 -1.8788 -2.9547 -0.2380
 6021SOL    HW229523   1.832   0.090   1.085  0.5736 -0.5187 -1.3458
 6022SOL     OW29524   0.432   1.494   1.098 -0.6300  0.3215 -0.3140
 6022SOL    HW129525   0.433   1.425   1.164 -1.1345  0.1218 -0.5104
 6022SOL    HW229526   0.484   1.560   1.143 -1.1324 -0.3038  1.1713
 6023SOL     OW29527   1.089   2.936   2.030  0.1590 -0.1629 -0.0335
 6023SOL    HW129528   1.174   2.978   2.044 -0.2427  1.2921 -1.9942
 6023SOL    HW229529   1.110   2.844   2.043 -0.8814 -0.7607 -2.4818
 6024SOL     OW29530   0.976   2.943   8.752  0.2535  0.3195  0.5663
 6024SOL    HW129531   1.025   2.892   8.687 -1.4065  0.0897 -0.5007
 6024SOL    HW229532   0.919   2.879   8.795  2.0287 -0.5348  1.6332
 6025SOL     OW29533   2.372   3.816   6.809 -0.3544  0.0836  0.6872
 6025SOL    HW129534   2.285   3.780   6.821  0.0399 -1.4430 -1.1109
 6025SOL    HW229535   2.366   3.869   6.729  0.2255 -0.3594  0.3514
 6026SOL     OW29536   4.155   2.999  14.794  0.4344 -0.1292 -0.3592
 6026SOL    HW129537   4.164   3.057  14.870 -0.4800 -1.8001  1.0316
 6026SOL    HW229538   4.089   2.940  14.831 -1.6391 -0.7705 -5.0673
 6027SOL     OW29539   1.423   2.182   3.140  0.0975 -0.0434 -0.0199
 6027SOL    HW129540   1.361   2.233   3.192  0.7436  0.8544 -0.1090
 6027SOL    HW229541   1.375   2.188   3.058  0.1896 -0.5621 -0.1106
 6028SOL     OW29542   3.808   2.407  10.208 -0.4333 -0.8121 -0.1836
 6028SOL    HW129543   3.714   2.413  10.190 -0.5848 -1.4066  0.4101
 6028SOL    HW229544   3.822   2.499  10.230 -0.4785 -0.9938  0.6402
 6029SOL     OW29545   0.921   3.421   4.511 -0.2540 -0.6744  0.3423
 6029SOL    HW129546   0.848   3.362   4.528 -2.8893  1.4648 -3.4301
 6029SOL    HW229547   0.871   3.489   4.465 -0.3089  0.0407  1.4664
 6030SOL     OW29548   0.770   4.619   9.320  0.1281  0.3180  0.3682
 6030SOL    HW129549   0.753   4.527   9.297  0.2693  0.1180  1.0750
 6030SOL    HW229550   0.824   4.656   9.250  1.1749  0.3450  1.1912
 6031SOL     OW29551   0.864   1.968   2.076 -0.2223  0.9978  0.2497
 6031SOL    HW129552   0.809   1.899   2.113 -0.5285  1.9770  1.6183
 6031SOL    HW229553   0.841   2.043   2.131  1.3098  0.8156  1.1373
 6032SOL     OW29554   0.503   2.762  15.025  0.0814 -0.3883 -0.4211
 6032SOL    HW129555   0.575   2.799  15.077  1.2733 -2.0958 -0.8826
 6032SOL    HW229556   0.428   2.794  15.075  0.8483  1.8866 -0.7019
 6033SOL     OW29557   2.448   2.864   7.939  0.1000  0.1225 -0.1446
 6033SOL    HW129558   2.482   2.776   7.958 -1.4987 -0.9834 -2.4219
 6033SOL    HW229559   2.491   2.881   7.855 -1.3050 -0.8908 -1.0658
 6034SOL     OW29560   2.862   3.915  15.915 -0.2559 -0.5806  0.3359
 6034SOL    HW129561   2.847   3.995  15.965  1.2420  0.2843 -0.5848
 6034SOL    HW229562   2.865   3.848  15.983  4.3959 -0.3554  0.3200
 6035SOL     OW29563   1.320   4.419  10.694 -0.0842  0.0252 -0.3254
 6035SOL    HW129564   1.293   4.332  10.723 -0.6450  0.2636 -0.1237
 6035SOL    HW229565   1.315   4.473  10.774 -1.2088 -0.7307  0.1217
 6036SOL     OW29566   0.341   2.830   3.897  0.0027  0.8121  0.0300
 6036SOL    HW129567   0.357   2.885   3.974  1.0571 -1.2883  1.3385
 6036SOL    HW229568   0.321   2.739   3.919 -1.5473  0.7780 -1.5884
 6037SOL     OW29569   2.326   1.646   5.235 -0.0953  0.0361 -0.0916
 6037SOL    HW129570   2.357   1.736   5.226 -2.0395  0.7136 -0.0826
 6037SOL    HW229571   2.403   1.600   5.202  0.4294  0.0527  1.1136
 6038SOL     OW29572   2.255   0.236  15.773  0.2591  0.4889 -0.2589
 6038SOL    HW129573   2.278   0.297  15.843  1.2499  1.4737 -1.4476
 6038SOL    HW229574   2.207   0.297  15.717  0.2408  0.3684 -0.3739
 6039SOL     OW29575   1.215   0.713   8.942  0.6270 -0.1280  0.0674
 6039SOL    HW129576   1.220   0.808   8.930 -1.2233  0.1451  1.4243
 6039SOL    HW229577   1.201   0.713   9.037  0.1483  0.0717 -0.0015
 6040SOL     OW29578   4.396   2.155  14.750 -0.3406 -0.4805 -0.5260
 6040SOL    HW129579   4.440   2.097  14.688  1.2846  0.6040 -0.3798
 6040SOL    HW229580   4.454   2.231  14.749  0.4020 -1.0609 -1.9481
 6041SOL     OW29581   0.226   3.865   4.628  0.4490 -0.0774 -0.3033
 6041SOL    HW129582   0.243   3.821   4.712  0.3701  0.2529 -0.1151
 6041SOL    HW229583   0.304   3.915   4.604  0.5494 -1.1268 -2.1456
 6042SOL     OW29584   3.973   0.453  12.288  0.5552  0.0701 -0.3628
 6042SOL    HW129585   3.917   0.377  12.306 -0.1554  0.3556 -1.3181
 6042SOL    HW229586   4.027   0.410  12.222  1.0966 -1.2333  0.9372
 6043SOL     OW29587   3.018   0.677  11.557 -0.3842 -0.0890 -0.7289
 6043SOL    HW129588   2.943   0.631  11.596  0.4337  0.9468  2.0287
 6043SOL    HW229589   3.070   0.698  11.634  1.0258  0.6028 -1.8848
 6044SOL     OW29590   2.730   3.811   2.681 -0.1551  0.1538  0.1726
 6044SOL    HW129591   2.712   3.885   2.623  1.8207  0.6132  0.1328
 6044SOL    HW229592   2.730   3.733   2.626  2.0115  1.8172 -2.2101
 6045SOL     OW29593   2.864   3.333   1.317  0.1352  0.0358  0.0550
 6045SOL    HW129594   2.943   3.297   1.278  0.6107  1.6305 -0.4587
 6045SOL    HW229595   2.800   3.261   1.319 -1.5762  1.5353 -0.1433
 6046SOL     OW29596   2.260   1.178  12.625 -0.2004  0.2794 -0.4023
 6046SOL    HW129597   2.217   1.165  12.541 -3.2942 -1.4185  1.4751
 6046SOL    HW229598   2.325   1.244  12.599  2.5191 -2.5075 -0.7339
 6047SOL     OW29599   1.303   1.772  13.386 -0.3812 -0.0195  0.2339
 6047SOL    HW129600   1.255   1.851  13.412 -1.2210 -0.1812 -0.8339
 6047SOL    HW229601   1.350   1.802  13.309  0.9560 -1.2858  0.5470
 6048SOL     OW29602   2.209   2.418   8.278  0.6652  0.4717 -0.2908
 6048SOL    HW129603   2.174   2.440   8.364  0.9315 -1.1222  0.2200
 6048SOL    HW229604   2.128   2.438   8.232  0.2929  0.7885  0.5061
 6049SOL     OW29605   4.239   3.650   1.573 -0.0808  0.0773  0.3847
 6049SOL    HW129606   4.209   3.646   1.664  0.0087  1.8428  0.4813
 6049SOL    HW229607   4.204   3.565   1.544 -0.7024  0.0453  1.2264
 6050SOL     OW29608   4.627   2.655   2.892 -0.2618  0.3006 -0.0993
 6050SOL    HW129609   4.697   2.589   2.900  0.7692  1.1080 -2.4646
 6050SOL    HW229610   4.604   2.655   2.985 -0.7627 -0.1086 -0.2256
 6051SOL     OW29611   3.731   1.989   3.538 -0.0122  0.0166  0.0204
 6051SOL    HW129612   3.812   1.950   3.571 -0.8242 -0.4359  1.4696
 6051SOL    HW229613   3.728   1.968   3.444 -0.6355  1.1008 -0.2053
 6052SOL     OW29614   4.316   1.655  12.005  0.3967  0.3037  0.6387
 6052SOL    HW129615   4.383   1.657  12.074  0.0048 -0.7583  1.0595
 6052SOL    HW229616   4.351   1.725  11.950  0.6046  0.1545  0.5804
 6053SOL     OW29617   1.669   0.041  15.449 -0.2346 -0.0540 -0.1905
 6053SOL    HW129618   1.751   0.017  15.493 -0.2789 -0.4754 -0.3402
 6053SOL    HW229619   1.707   0.068  15.366 -0.6134  0.7860 -0.0862
 6054SOL     OW29620   1.076   2.695   9.391  0.1949  0.0933  0.1169
 6054SOL    HW129621   1.069   2.635   9.466  0.0580  1.1489  0.9399
 6054SOL    HW229622   1.165   2.729   9.394 -0.3632  1.4566  0.8329
 6055SOL     OW29623   0.387   4.434   4.315  0.1841  0.3848 -0.4203
 6055SOL    HW129624   0.396   4.473   4.402 -2.8002 -3.1411  1.4642
 6055SOL    HW229625   0.298   4.398   4.323  0.5204 -0.6924 -1.6040
 6056SOL     OW29626   2.822   1.822  14.208 -0.3254 -0.0318 -0.1932
 6056SOL    HW129627   2.792   1.910  14.186  0.2894  0.2363  0.0227
 6056SOL    HW229628   2.907   1.840  14.249 -0.0425  0.1870 -0.8773
 6057SOL     OW29629   2.154   0.853  13.682 -0.1239 -0.0347  0.4519
 6057SOL    HW129630   2.076   0.878  13.731  0.4086  1.6913  0.4294
 6057SOL    HW229631   2.117   0.788  13.623  1.5193 -0.7894  0.2617
 6058SOL     OW29632   2.007   3.129   1.887 -0.6339 -0.2422 -0.3187
 6058SOL    HW129633   1.983   3.202   1.830 -0.3627 -1.0325 -1.4408
 6058SOL    HW229634   1.949   3.060   1.854 -0.3144 -0.9653  0.6374
 6059SOL     OW29635   4.015   2.466   3.158  0.1681 -0.6753 -0.1111
 6059SOL    HW129636   3.984   2.540   3.210  1.1600 -1.4966  1.6310
 6059SOL    HW229637   4.101   2.489   3.124  1.0493 -0.2848  2.3724
 6060SOL     OW29638   1.048   4.377   6.686 -0.3793 -0.0444  0.4252
 6060SOL    HW129639   0.963   4.362   6.645 -0.1274  1.2567 -0.5424
 6060SOL    HW229640   1.050   4.317   6.762 -0.1483 -0.2125  0.2854
 6061SOL     OW29641   0.534   3.903  12.585 -0.4222  0.5445  0.4144
 6061SOL    HW129642   0.529   3.885  12.491  2.4735 -2.9341  0.9420
 6061SOL    HW229643   0.520   3.817  12.623 -1.5300  1.1451  1.3684
 6062SOL     OW29644   0.871   1.239   6.977  0.5309  0.5436 -0.3889
 6062SOL    HW129645   0.952   1.235   7.027 -0.0121  0.9281  0.5229
 6062SOL    HW229646   0.863   1.151   6.941 -0.2003 -0.3257  1.9067
 6063SOL     OW29647   1.281   1.432   7.263 -0.7525 -0.0683 -0.3938
 6063SOL    HW129648   1.276   1.527   7.249 -0.4780  0.0259  0.1690
 6063SOL    HW229649   1.377   1.429   7.268 -0.7061  0.8345 -0.7087
 6064SOL     OW29650   3.614   4.194  12.166 -0.1753  0.2603 -0.8002
 6064SOL    HW129651   3.683   4.241  12.118  1.5322 -1.0601  0.3505
 6064SOL    HW229652   3.661   4.111  12.177  0.9822  0.9313 -0.6497
 6065SOL     OW29653   1.818   0.423  12.341 -0.2230 -0.2360 -0.2438
 6065SOL    HW129654   1.789   0.464  12.423 -3.4168 -2.6000 -0.1963
 6065SOL    HW229655   1.735   0.381  12.321 -1.0451  0.0447  2.5207
 6066SOL     OW29656   3.561   4.274   7.741 -0.0695 -0.3597  0.6269
 6066SOL    HW129657   3.573   4.180   7.752  0.3758 -0.3250  0.4363
 6066SOL    HW229658   3.649   4.309   7.757  0.2927 -0.5363 -0.9332
 6067SOL     OW29659   3.464   0.251  11.769 -0.4414 -0.0862 -0.2529
 6067SOL    HW129660   3.509   0.211  11.843  1.1890  1.4503 -0.4292
 6067SOL    HW229661   3.480   0.346  11.771  1.7325 -0.4836  1.1257
 6068SOL     OW29662   2.000   0.618  16.800 -0.3580 -0.2301  0.0805
 6068SOL    HW129663   2.058   0.541  16.798  0.7674  0.6182  0.0808
 6068SOL    HW229664   1.961   0.613  16.888 -0.7006 -0.1198 -0.0665
 6069SOL     OW29665   1.608   1.132  13.186  0.3407  0.2336  0.6522
 6069SOL    HW129666   1.624   1.038  13.187 -0.3096  0.1067 -1.4278
 6069SOL    HW229667   1.584   1.148  13.277  0.1652  0.5004  0.5599
 6070SOL     OW29668   0.516   4.103   7.563  0.4522  0.3383  0.2024
 6070SOL    HW129669   0.470   4.131   7.642 -3.1416 -2.1468 -0.9949
 6070SOL    HW229670   0.586   4.168   7.556  0.7606 -0.0876 -0.7107
 6071SOL     OW29671   4.649   3.097   8.316  0.7361  0.1325  0.1151
 6071SOL    HW129672   4.703   3.036   8.266 -1.7234 -0.4798 -1.8443
 6071SOL    HW229673   4.618   3.033   8.380 -0.0149 -0.1506 -0.5151
 6072SOL     OW29674   4.154   0.019  11.839  0.0436  0.1463 -0.4164
 6072SOL    HW129675   4.195   0.043  11.756  0.8566  0.9571  0.2310
 6072SOL    HW229676   4.135   4.650  11.825 -1.8453  0.6378 -1.1249
 6073SOL     OW29677   1.316   3.021   2.337  0.1689  0.7694  0.5302
 6073SOL    HW129678   1.333   2.947   2.395  1.1687  0.3439 -0.2979
 6073SOL    HW229679   1.233   3.059   2.364 -1.4126 -1.4642 -1.2433
 6074SOL     OW29680   0.151   2.433   4.304  0.0172  0.1593  0.0153
 6074SOL    HW129681   0.179   2.421   4.213  1.8049  1.0927  0.4421
 6074SOL    HW229682   0.107   2.518   4.299 -1.1528 -0.5755 -2.3056
 6075SOL     OW29683   3.795   2.140   9.481 -0.3875 -0.2638 -0.0715
 6075SOL    HW129684   3.756   2.189   9.408  1.0905  2.9855  1.3408
 6075SOL    HW229685   3.827   2.215   9.531 -0.2911 -0.3043 -0.0732
 6076SOL     OW29686   3.747   4.353   8.521 -0.1063  0.2831 -0.2110
 6076SOL    HW129687   3.757   4.323   8.431  0.3174 -0.5769  0.1284
 6076SOL    HW229688   3.832   4.389   8.548 -1.1507  2.2916  0.4293
 6077SOL     OW29689   2.997   2.793   3.338  0.5811  0.4000 -0.0255
 6077SOL    HW129690   3.031   2.781   3.250  1.8778 -0.9156  0.6432
 6077SOL    HW229691   2.911   2.825   3.314  0.0028 -1.0298  0.1171
 6078SOL     OW29692   1.765   3.112   5.693 -0.4280  0.0433  0.0146
 6078SOL    HW129693   1.706   3.186   5.679  0.9518  1.0084 -0.6783
 6078SOL    HW229694   1.782   3.084   5.603 -1.5817 -0.4593 -0.0552
 6079SOL     OW29695   1.044   2.599  10.545  0.0969  0.3368 -0.0224
 6079SOL    HW129696   1.118   2.614  10.605 -1.9680  1.6567  2.2044
 6079SOL    HW229697   1.074   2.658  10.476  0.7803  0.7653  0.6319
 6080SOL     OW29698   1.855   0.349   9.095  0.4311 -0.0533 -0.1882
 6080SOL    HW129699   1.822   0.315   9.011 -2.8899  0.3532  0.9360
 6080SOL    HW229700   1.947   0.338   9.074 -0.4042 -1.8954 -2.9794
 6081SOL     OW29701   1.528   3.880   6.434  0.1792 -0.0274  0.4281
 6081SOL    HW129702   1.485   3.894   6.350 -0.3962  1.5097  0.9854
 6081SOL    HW229703   1.540   3.970   6.463 -0.3786 -0.3767  1.7183
 6082SOL     OW29704   2.438   1.031   5.839 -1.2317 -0.0733  0.1625
 6082SOL    HW129705   2.473   1.058   5.754 -0.1230 -3.1469 -0.3326
 6082SOL    HW229706   2.430   1.119   5.876  0.8216  0.7007 -1.2038
 6083SOL     OW29707   4.375   0.116   9.143  0.6912 -0.1421  0.2411
 6083SOL    HW129708   4.326   0.179   9.196  2.7635  0.2754  1.6650
 6083SOL    HW229709   4.390   0.054   9.215 -0.7591 -1.2793 -0.4367
 6084SOL     OW29710   1.775   1.520   8.770  0.3039 -0.0890  0.0929
 6084SOL    HW129711   1.691   1.562   8.792  1.3124  2.1331 -0.2913
 6084SOL    HW229712   1.833   1.591   8.797  0.3571  0.2988 -1.0251
 6085SOL     OW29713   1.322   4.270   6.631  0.5254 -0.0500  0.0482
 6085SOL    HW129714   1.256   4.291   6.697  1.3247 -3.0418  1.8231
 6085SOL    HW229715   1.277   4.199   6.585  0.6003 -0.3304  0.3996
 6086SOL     OW29716   0.706   2.512   5.084  0.7650  0.1097  0.4100
 6086SOL    HW129717   0.702   2.419   5.060  0.4421  0.1057  0.4745
 6086SOL    HW229718   0.614   2.536   5.071  1.6542  2.1519 -2.1785
 6087SOL     OW29719   0.732   2.532   7.097 -0.0077  0.3051  0.5403
 6087SOL    HW129720   0.760   2.499   7.012 -0.1017 -0.5935  0.8610
 6087SOL    HW229721   0.750   2.457   7.153 -1.6054  0.8897  1.8730
 6088SOL     OW29722   4.171   2.163   4.433 -0.0619  0.3419  0.6483
 6088SOL    HW129723   4.199   2.248   4.400 -0.3540 -0.4610 -1.6666
 6088SOL    HW229724   4.125   2.139   4.353 -1.5109  1.2454  1.2019
 6089SOL     OW29725   1.615   1.654  12.119 -0.2978 -0.1307  0.0336
 6089SOL    HW129726   1.630   1.728  12.178  0.3594 -0.6301  0.4974
 6089SOL    HW229727   1.528   1.673  12.084 -0.6146  1.0059  1.4121
 6090SOL     OW29728   3.339   0.421  10.634 -0.2610 -0.7132  0.1174
 6090SOL    HW129729   3.320   0.348  10.575 -1.7759 -1.4010  1.4477
 6090SOL    HW229730   3.254   0.465  10.632  1.3711  2.4650  0.4022
 6091SOL     OW29731   3.405   0.178  11.522 -0.0600 -0.2961 -0.1275
 6091SOL    HW129732   3.420   0.215  11.609  1.9133  1.3968 -1.1707
 6091SOL    HW229733   3.481   0.203  11.469 -0.3086 -1.5693 -1.0684
 6092SOL     OW29734   0.050   3.735  12.498 -0.5323  0.7186  0.0758
 6092SOL    HW129735   0.010   3.819  12.476  1.3454  1.5743 -0.0382
 6092SOL    HW229736   4.689   3.689  12.506  0.4381 -1.2172 -0.7451
 6093SOL     OW29737   2.214   0.017   0.295 -0.1139  0.5389 -0.9242
 6093SOL    HW129738   2.295   0.052   0.259  0.3940 -0.0819 -0.3734
 6093SOL    HW229739   2.239   0.002   0.386 -0.7940 -1.4483 -1.0667
 6094SOL     OW29740   3.955   3.293   7.885  0.1831 -0.5155  0.1119
 6094SOL    HW129741   3.859   3.298   7.876  0.1352 -1.0029  0.3430
 6094SOL    HW229742   3.969   3.220   7.945  1.3193 -1.0105 -0.7575
 6095SOL     OW29743   4.036   0.289  10.579 -0.6153 -0.0534  0.1109
 6095SOL    HW129744   4.057   0.356  10.514 -0.4245 -2.1621 -1.9926
 6095SOL    HW229745   3.941   0.283  10.569 -0.8666  2.0721  1.4130
 6096SOL     OW29746   4.690   3.908   9.119 -0.4333  0.1572  0.2686
 6096SOL    HW129747   4.688   3.928   9.212 -0.5583  0.8889  0.1135
 6096SOL    HW229748   0.014   3.987   9.091  1.2215 -0.5379  1.1212
 6097SOL     OW29749   4.648   1.644   4.929 -0.3869 -0.3145 -0.0137
 6097SOL    HW129750   0.012   1.638   4.890  0.0040 -0.4557  0.8791
 6097SOL    HW229751   4.628   1.732   4.896 -0.1525 -0.4420 -0.4965
 6098SOL     OW29752   2.204   0.799   9.386 -0.4222 -0.4809  0.5756
 6098SOL    HW129753   2.225   0.729   9.324 -0.9101 -0.6876  0.6427
 6098SOL    HW229754   2.109   0.812   9.383 -0.4741 -0.9336  0.3227
 6099SOL     OW29755   1.619   3.831   7.386  0.2452  0.4425  0.2630
 6099SOL    HW129756   1.618   3.788   7.471  0.1253 -1.8324 -0.8941
 6099SOL    HW229757   1.615   3.925   7.405  0.4845  0.2146  1.3901
 6100SOL     OW29758   3.801   1.998  10.481  0.9313 -0.5788  0.1127
 6100SOL    HW129759   3.764   2.038  10.401 -1.9682 -0.8827  1.2976
 6100SOL    HW229760   3.861   2.067  10.508  2.9561 -0.6906 -4.0224
 6101SOL     OW29761   0.900   0.908   4.784  0.3949 -0.0822 -0.6769
 6101SOL    HW129762   0.805   0.901   4.776  0.2325  1.2988  0.1327
 6101SOL    HW229763   0.912   0.827   4.834 -0.9403 -0.1647 -0.4938
 6102SOL     OW29764   4.486   3.928   5.860 -0.3809  0.6449 -0.8065
 6102SOL    HW129765   4.447   4.012   5.835  0.4417  0.7038 -1.9024
 6102SOL    HW229766   4.552   3.921   5.791 -0.1513  1.1063 -0.6348
 6103SOL     OW29767   4.391   4.637   2.794  0.3862 -0.0813 -0.2774
 6103SOL    HW129768   4.416   4.681   2.713  0.7060  3.2994  1.6692
 6103SOL    HW229769   4.300   4.611   2.783  0.6975 -0.4749 -1.9580
 6104SOL     OW29770   2.245   0.911   3.691  0.2639 -0.2390  0.6053
 6104SOL    HW129771   2.193   0.981   3.730  0.1449  0.9118 -1.5990
 6104SOL    HW229772   2.278   0.963   3.617  2.8881 -2.3307  0.3133
 6105SOL     OW29773   1.195   3.044   2.647  0.6209  0.5197  0.5214
 6105SOL    HW129774   1.290   3.037   2.635  0.4512 -0.8169 -0.0288
 6105SOL    HW229775   1.157   2.960   2.624  2.5192 -0.2818  0.2802
 6106SOL     OW29776   3.638   1.115   8.059  0.7796  0.1741 -0.2800
 6106SOL    HW129777   3.621   1.031   8.017 -3.8386  0.4126  1.1348
 6106SOL    HW229778   3.625   1.179   7.989  0.1141 -1.2890 -1.4926
 6107SOL     OW29779   4.538   4.386  11.894 -0.6096  0.1826 -0.7012
 6107SOL    HW129780   4.558   4.315  11.833 -0.3739  0.8053 -1.3589
 6107SOL    HW229781   4.519   4.455  11.830 -1.7730  1.4958  1.0601
 6108SOL     OW29782   0.665   0.488   3.081 -0.3703  0.0784 -0.4787
 6108SOL    HW129783   0.597   0.544   3.118 -0.4450  1.0199 -2.0460
 6108SOL    HW229784   0.621   0.405   3.100 -0.2498  0.4252  1.2948
 6109SOL     OW29785   0.876   3.335   3.375 -0.1675 -0.1695 -0.0803
 6109SOL    HW129786   0.959   3.310   3.333  1.4245  0.7819  2.4435
 6109SOL    HW229787   0.817   3.265   3.348 -0.7478 -1.1676  3.7133
 6110SOL     OW29788   4.214   0.621   9.332 -0.1529  0.3150  0.1467
 6110SOL    HW129789   4.173   0.658   9.410  0.6290 -0.4077  0.9103
 6110SOL    HW229790   4.231   0.702   9.285 -3.0512  0.6777 -0.2382
 6111SOL     OW29791   0.498   2.785   3.669  0.0902  0.0738  0.2866
 6111SOL    HW129792   0.415   2.743   3.646 -0.1448  2.1271 -2.6190
 6111SOL    HW229793   0.461   2.831   3.745  1.5376  1.3677  0.2081
 6112SOL     OW29794   0.370   1.027   5.813 -0.1023  0.0284  0.1611
 6112SOL    HW129795   0.328   0.942   5.825 -1.0841  0.8985  2.8380
 6112SOL    HW229796   0.308   1.068   5.752  2.0718 -0.6986 -2.5451
 6113SOL     OW29797   1.149   2.979   3.976  0.0856 -0.3598 -0.3443
 6113SOL    HW129798   1.210   3.048   3.951 -0.0617  0.0895  0.5695
 6113SOL    HW229799   1.063   3.016   3.953 -0.0328 -1.3802 -1.5664
 6114SOL     OW29800   3.748   0.510   9.548 -0.0063 -0.7480 -0.0578
 6114SOL    HW129801   3.770   0.525   9.640 -1.9781 -0.1294  0.3176
 6114SOL    HW229802   3.824   0.460   9.519  1.7977  0.7348  2.1000
 6115SOL     OW29803   4.381   0.724   6.900 -0.1571 -0.1778  0.1394
 6115SOL    HW129804   4.396   0.727   6.994  0.7519  1.8526 -0.0679
 6115SOL    HW229805   4.373   0.630   6.886 -2.3459 -0.3155  2.3461
 6116SOL     OW29806   4.039   3.857  11.404 -0.0158  0.4246 -0.3749
 6116SOL    HW129807   4.100   3.790  11.374  1.4248  0.8512  1.6034
 6116SOL    HW229808   4.107   3.889  11.464 -0.3957  0.0649  0.2421
 6117SOL     OW29809   4.083   3.906   4.210  0.3366  0.3379 -0.2441
 6117SOL    HW129810   4.017   3.847   4.248 -0.5919  0.6187 -1.4094
 6117SOL    HW229811   4.029   3.973   4.168 -0.7957 -0.3710  0.0610
 6118SOL     OW29812   0.417   1.079   0.513  0.5685 -0.4346  0.0200
 6118SOL    HW129813   0.325   1.108   0.517 -0.0630 -2.1997 -2.0836
 6118SOL    HW229814   0.449   1.105   0.427  2.0649  1.8423  1.2589
 6119SOL     OW29815   1.112   3.024  15.055 -0.4841 -0.1292  0.1272
 6119SOL    HW129816   1.071   3.008  15.140 -0.4877  0.3399  0.2161
 6119SOL    HW229817   1.029   3.027  15.008 -0.5309 -3.4867  0.0022
 6120SOL     OW29818   0.378   3.056   8.008  0.5377 -0.0116  0.7110
 6120SOL    HW129819   0.391   3.149   7.986 -0.1372  0.2104  1.2758
 6120SOL    HW229820   0.356   3.015   7.924  0.8107  1.8666 -0.3001
 6121SOL     OW29821   0.497   0.675   8.738  0.3448  0.1012 -0.4819
 6121SOL    HW129822   0.482   0.651   8.829  0.4307  0.0544 -0.4801
 6121SOL    HW229823   0.414   0.711   8.707  1.1721  2.9766  0.6399
 6122SOL     OW29824   2.224   0.015   3.714  0.3518 -0.0891  0.4734
 6122SOL    HW129825   2.194   0.106   3.715 -0.8780 -0.5340  3.1416
 6122SOL    HW229826   2.140   4.702   3.685  0.4556 -1.1974  1.5365
 6123SOL     OW29827   1.113   2.286  17.487  0.1654  0.2020  0.4030
 6123SOL    HW129828   1.145   2.350  17.550 -0.9681  0.0109  1.1909
 6123SOL    HW229829   1.022   2.267  17.511 -0.8766  0.8872 -2.8942
 6124SOL     OW29830   2.951   3.587   8.226  0.7924 -0.1942 -0.0551
 6124SOL    HW129831   2.912   3.508   8.261  2.3783 -0.5392  0.9270
 6124SOL    HW229832   2.901   3.603   8.146  0.3642 -1.0470  0.0481
 6125SOL     OW29833   1.396   2.115  14.070 -0.1125 -0.3586  0.3174
 6125SOL    HW129834   1.358   2.028  14.058 -0.7743 -0.3324  2.2160
 6125SOL    HW229835   1.480   2.088  14.032 -1.3425 -1.3711 -1.6553
 6126SOL     OW29836   0.379   4.242   8.801  0.5460 -0.2591 -0.1407
 6126SOL    HW129837   0.339   4.190   8.732 -1.2813  1.0835 -0.0870
 6126SOL    HW229838   0.310   4.302   8.829  1.8815  1.3230 -0.2304
 6127SOL     OW29839   1.246   0.514   9.360  0.1220  0.4704 -0.5388
 6127SOL    HW129840   1.288   0.574   9.298 -0.1746  0.6137 -0.6013
 6127SOL    HW229841   1.183   0.467   9.305  2.0284 -2.9382  0.2003
 6128SOL     OW29842   3.293   0.989   8.785  0.2785 -0.5252 -0.1607
 6128SOL    HW129843   3.245   0.929   8.842 -2.5589  1.4815 -0.4276
 6128SOL    HW229844   3.241   1.069   8.790  2.1545  0.8799 -3.6563
 6129SOL     OW29845   1.535   3.547   4.322 -0.1439 -0.0479  1.1337
 6129SOL    HW129846   1.556   3.471   4.267  0.6572  0.1863  1.1141
 6129SOL    HW229847   1.577   3.515   4.402  0.3908 -1.5521  0.2453
 6130SOL     OW29848   4.496   3.309   3.306 -0.4077  0.6740  0.1546
 6130SOL    HW129849   4.564   3.377   3.308  0.0009  0.3620 -2.5459
 6130SOL    HW229850   4.513   3.269   3.221  0.5300  2.3463 -0.4621
 6131SOL     OW29851   0.270   1.986   5.342  0.5648  0.0115  0.2593
 6131SOL    HW129852   0.199   1.933   5.379  1.6575 -0.3128  1.8953
 6131SOL    HW229853   0.298   1.924   5.275 -1.8403  0.5778 -1.2389
 6132SOL     OW29854   4.298   0.534   0.819 -0.0249 -0.1631  0.1263
 6132SOL    HW129855   4.238   0.595   0.778  0.6332 -1.0644 -2.1696
 6132SOL    HW229856   4.232   0.483   0.866 -0.4706 -0.0644 -0.4071
 6133SOL     OW29857   1.314   1.852   2.078 -0.3072 -0.2725 -0.5030
 6133SOL    HW129858   1.352   1.812   2.000 -0.5126  0.4110 -0.9492
 6133SOL    HW229859   1.340   1.788   2.144 -0.1972  3.2086  2.7911
 6134SOL     OW29860   4.134   0.462   6.426 -0.5904  0.9821  0.0476
 6134SOL    HW129861   4.110   0.458   6.334 -0.3613  2.5410 -0.0751
 6134SOL    HW229862   4.053   0.436   6.470 -0.0691  2.1206  1.6888
 6135SOL     OW29863   1.724   0.167  15.193 -0.0418 -0.4905 -0.4307
 6135SOL    HW129864   1.799   0.180  15.136 -0.4468 -0.2895 -0.9182
 6135SOL    HW229865   1.672   0.131  15.121 -0.2405 -0.2286 -0.4181
 6136SOL     OW29866   2.565   2.028   3.222  0.0537  0.2540 -0.3658
 6136SOL    HW129867   2.495   1.976   3.260 -0.2604  1.2811  0.4663
 6136SOL    HW229868   2.615   1.960   3.177  0.4993 -0.2774  0.9528
 6137SOL     OW29869   1.506   4.607  11.530  0.3261 -0.8496  0.1642
 6137SOL    HW129870   1.583   4.646  11.570 -0.8765  0.9757  0.6520
 6137SOL    HW229871   1.490   4.529  11.583  1.7231 -0.0214  1.8065
 6138SOL     OW29872   1.369   0.458   8.662  0.5677  0.0415 -0.1550
 6138SOL    HW129873   1.374   0.543   8.619 -2.9601  0.8494  1.0858
 6138SOL    HW229874   1.443   0.412   8.623 -0.2909 -1.5652  0.1367
 6139SOL     OW29875   1.492   0.563  16.918 -0.4232  0.0901 -0.1337
 6139SOL    HW129876   1.565   0.502  16.932 -0.6238  0.0960  0.9393
 6139SOL    HW229877   1.442   0.501  16.864  1.0320  0.2541 -1.6812
 6140SOL     OW29878   2.120   0.537   7.240  0.2795  0.2403  0.0089
 6140SOL    HW129879   2.178   0.546   7.165 -0.1842 -0.3435 -0.4223
 6140SOL    HW229880   2.124   0.625   7.276 -0.3737 -0.2125  1.2061
 6141SOL     OW29881   0.469   4.642   9.197 -0.8121  0.3202  0.1169
 6141SOL    HW129882   0.495   4.550   9.201  0.4762  0.7973  2.6817
 6141SOL    HW229883   0.554   4.685   9.186 -0.4828 -0.1439  0.8118
 6142SOL     OW29884   4.129   0.649   4.780  0.2846 -0.5634 -0.3229
 6142SOL    HW129885   4.040   0.671   4.754 -0.3063 -0.2650  1.8999
 6142SOL    HW229886   4.184   0.727   4.772 -0.2342 -0.0712  0.9351
 6143SOL     OW29887   2.052   0.278   7.111 -0.0016 -0.4572  0.2506
 6143SOL    HW129888   2.065   0.357   7.163  1.2409 -0.9104  0.6168
 6143SOL    HW229889   2.144   0.258   7.097  0.4482 -0.3721  2.9322
 6144SOL     OW29890   0.637   3.858   6.546 -0.0037  0.0357 -0.3875
 6144SOL    HW129891   0.660   3.849   6.454  0.7394 -0.1565 -0.1889
 6144SOL    HW229892   0.710   3.914   6.573 -0.7271 -0.4928  2.6726
 6145SOL     OW29893   3.683   4.526   4.352 -0.3076 -0.7791 -0.7626
 6145SOL    HW129894   3.735   4.452   4.385  0.9655 -0.2810 -1.6542
 6145SOL    HW229895   3.728   4.600   4.392  0.9603 -1.2542 -1.2981
 6146SOL     OW29896   0.242   1.971   5.868  0.8241  0.0394  0.0963
 6146SOL    HW129897   0.244   1.881   5.903 -0.4955  0.6407  1.7048
 6146SOL    HW229898   0.328   2.010   5.885  0.1383  1.3151  0.5773
 6147SOL     OW29899   0.218   4.481   0.696  0.1800  0.0354 -0.1200
 6147SOL    HW129900   0.238   4.509   0.785 -0.9885  1.4256 -0.2870
 6147SOL    HW229901   0.271   4.402   0.693 -0.5058 -0.3764 -1.9008
 6148SOL     OW29902   0.863   1.733   6.287 -0.1484  0.0534  0.4922
 6148SOL    HW129903   0.786   1.787   6.304 -0.4156  0.0398 -0.7156
 6148SOL    HW229904   0.859   1.730   6.192  0.7474 -1.5062  0.4949
 6149SOL     OW29905   2.366   3.374   2.127 -0.2130  0.3455  0.2875
 6149SOL    HW129906   2.327   3.349   2.043  0.0728 -0.0916  0.2871
 6149SOL    HW229907   2.427   3.307   2.157 -1.6992 -1.6242 -1.1279
 6150SOL     OW29908   3.089   0.985  11.065 -0.2935 -0.3525 -0.3061
 6150SOL    HW129909   3.041   1.060  11.030  0.2921 -0.1891 -0.7471
 6150SOL    HW229910   3.140   0.967  10.986 -0.4499 -0.5479 -0.3633
 6151SOL     OW29911   0.421   3.618   2.760  0.3463 -0.1938  0.6168
 6151SOL    HW129912   0.439   3.636   2.667 -0.4454 -1.3227  0.2556
 6151SOL    HW229913   0.378   3.700   2.784 -1.7372 -0.6465 -1.5410
 6152SOL     OW29914   2.702   4.081   2.550  0.1955  0.0106  0.7036
 6152SOL    HW129915   2.750   4.159   2.580 -0.4464  1.2418 -1.4928
 6152SOL    HW229916   2.725   4.084   2.457 -3.1396 -0.3585 -0.1334
 6153SOL     OW29917   1.587   4.702   3.634 -0.1595 -0.3716  0.0653
 6153SOL    HW129918   1.499   4.697   3.596 -0.8389  4.9071  0.8826
 6153SOL    HW229919   1.639   4.719   3.556 -0.5031 -3.4300 -0.8434
 6154SOL     OW29920   3.203   4.655  15.003  0.3408 -0.0923  0.7827
 6154SOL    HW129921   3.233   4.641  15.092  1.8452 -0.4333  0.2287
 6154SOL    HW229922   3.109   4.645  15.016  0.0178  1.6603 -0.1567
 6155SOL     OW29923   2.573   0.641   3.628 -0.1464  0.1469 -1.1637
 6155SOL    HW129924   2.543   0.554   3.602  0.2314 -0.4742  0.4915
 6155SOL    HW229925   2.540   0.693   3.555  2.2029  2.7186 -0.3936
 6156SOL     OW29926   3.890   3.047   0.140  0.1505 -0.5278 -0.4515
 6156SOL    HW129927   3.892   3.127   0.192  0.1266 -1.8146  1.5183
 6156SOL    HW229928   3.982   3.039   0.114  0.3247 -2.9238  0.8781
 6157SOL     OW29929   3.367   2.533   7.834  0.6520  0.8747  0.5982
 6157SOL    HW129930   3.273   2.550   7.834 -0.1661 -3.6104 -0.3365
 6157SOL    HW229931   3.393   2.569   7.750 -1.4975  1.7855  0.3161
 6158SOL     OW29932   0.260   2.769  16.504  0.7507 -0.1803  0.1276
 6158SOL    HW129933   0.210   2.692  16.532  1.8000 -2.2849 -3.8360
 6158SOL    HW229934   0.328   2.737  16.445  2.2078 -0.7307  2.1337
 6159SOL     OW29935   2.537   3.189   2.222 -0.3039 -0.3352  0.1880
 6159SOL    HW129936   2.557   3.191   2.315 -0.6026  1.4662  0.2111
 6159SOL    HW229937   2.626   3.185   2.188  0.0176 -1.2669  1.1556
 6160SOL     OW29938   1.949   4.534   8.668 -0.4759  0.3170 -0.2927
 6160SOL    HW129939   1.974   4.511   8.579 -1.6148 -2.0652 -0.0025
 6160SOL    HW229940   1.867   4.576   8.645 -0.9487 -0.1077  0.5958
 6161SOL     OW29941   1.386   0.879   0.866  0.0375  0.2115  0.2140
 6161SOL    HW129942   1.360   0.881   0.958 -3.0267  0.5240 -0.6417
 6161SOL    HW229943   1.472   0.840   0.875 -0.1123 -0.3225 -0.7095
 6162SOL     OW29944   2.791   3.902   7.026  0.1899  0.4281  0.7071
 6162SOL    HW129945   2.847   3.866   6.956  0.6532  1.8418  0.3501
 6162SOL    HW229946   2.770   3.817   7.066  1.4598 -0.6498 -0.8967
 6163SOL     OW29947   4.148   0.024  10.022  0.3126 -0.4705  0.2684
 6163SOL    HW129948   4.171   0.099   9.967 -2.1792 -0.7032 -1.1330
 6163SOL    HW229949   4.143   4.673   9.961  1.5735 -1.2831  1.1576
 6164SOL     OW29950   4.528   3.989  14.375  0.4316 -0.1603 -0.3731
 6164SOL    HW129951   4.588   4.029  14.313 -0.4741  2.6625  0.5981
 6164SOL    HW229952   4.440   3.999  14.338 -0.1501  0.7966  1.2778
 6165SOL     OW29953   2.592   3.989   6.536  0.2884  0.1731  0.5872
 6165SOL    HW129954   2.612   3.897   6.553 -1.8918 -0.4673 -0.3396
 6165SOL    HW229955   2.515   3.999   6.593 -1.2411  2.3185 -1.8815
 6166SOL     OW29956   0.291   3.487   2.973  0.3522  0.0890 -0.3418
 6166SOL    HW129957   0.354   3.427   3.012  1.4239  0.1594 -1.9963
 6166SOL    HW229958   0.340   3.505   2.893 -1.5341  0.2880 -1.4633
 6167SOL     OW29959   1.081   0.206   7.366 -0.8588 -0.0223  0.0285
 6167SOL    HW129960   1.090   0.134   7.428  1.5110 -0.6192 -1.0202
 6167SOL    HW229961   0.997   0.172   7.335 -0.3989 -1.1788  0.0431
 6168SOL     OW29962   4.101   2.784   2.883 -0.0698  0.5551 -0.3502
 6168SOL    HW129963   4.156   2.771   2.960  1.1691  2.3971 -0.9248
 6168SOL    HW229964   4.117   2.707   2.828 -1.6505 -0.0625  0.0584
 6169SOL     OW29965   2.048   1.409   0.382 -0.2143 -0.6074  0.0694
 6169SOL    HW129966   2.141   1.425   0.393  0.1523 -2.2506 -0.7821
 6169SOL    HW229967   2.039   1.458   0.301  0.7636  1.3623  1.1457
 6170SOL     OW29968   1.981   0.790   9.728  0.4939 -0.6530  0.3506
 6170SOL    HW129969   2.062   0.741   9.743 -0.7393 -2.2045  1.9140
 6170SOL    HW229970   2.029   0.866   9.694  1.3005 -0.6561  1.4587
 6171SOL     OW29971   1.622   3.709   7.632  0.0444 -0.1664  0.1938
 6171SOL    HW129972   1.704   3.667   7.658  0.4639  0.2188 -0.5235
 6171SOL    HW229973   1.627   3.777   7.700  2.6920 -0.0470 -0.1391
 6172SOL     OW29974   1.241   3.017   4.243 -0.1272 -0.0004 -0.4371
 6172SOL    HW129975   1.186   2.998   4.167  1.2171 -1.0292 -1.1588
 6172SOL    HW229976   1.292   2.936   4.251 -0.3743 -0.1118  0.0432
 6173SOL     OW29977   4.065   2.945   9.059  0.3702 -0.6284 -1.0613
 6173SOL    HW129978   4.032   2.888   9.128  0.9902 -0.4593 -0.6267
 6173SOL    HW229979   4.126   2.884   9.017  0.7453 -2.8142  2.6787
 6174SOL     OW29980   1.088   3.959   6.115  0.0497  0.3161 -0.1958
 6174SOL    HW129981   1.137   4.026   6.162  3.9603 -2.7658  0.1369
 6174SOL    HW229982   1.030   4.023   6.075 -1.2823 -0.2624  0.8349
 6175SOL     OW29983   4.489   1.251   4.805 -0.0452 -0.3499  0.4216
 6175SOL    HW129984   4.426   1.322   4.789  2.3330  1.7482  0.3195
 6175SOL    HW229985   4.511   1.234   4.713  0.4874  0.0965  0.4658
 6176SOL     OW29986   2.085   3.224   8.217 -0.4117  0.1710  0.3149
 6176SOL    HW129987   2.026   3.192   8.148 -1.1898  0.9508  0.6224
 6176SOL    HW229988   2.124   3.297   8.169 -2.9081  1.9130  0.9801
 6177SOL     OW29989   3.760   2.426   5.141 -0.6137 -0.3101  0.9095
 6177SOL    HW129990   3.740   2.450   5.051 -1.5319 -0.7003  0.9991
 6177SOL    HW229991   3.722   2.499   5.190 -0.3200  0.2166  0.3465
 6178SOL     OW29992   4.352   2.335   7.512 -0.3158  0.3551 -0.1228
 6178SOL    HW129993   4.283   2.273   7.534  0.3759 -0.5369 -0.4174
 6178SOL    HW229994   4.399   2.302   7.435 -2.6288 -0.5674 -1.1323
 6179SOL     OW29995   3.556   1.419  16.256 -0.0549  0.3041 -0.4575
 6179SOL    HW129996   3.610   1.353  16.211 -0.6047  0.2390 -1.0144
 6179SOL    HW229997   3.533   1.475  16.182 -0.2389  0.5127 -0.2419
 6180SOL     OW29998   2.863   0.954  15.191 -0.0403 -0.1518  0.2335
 6180SOL    HW129999   2.922   0.952  15.116 -0.1301  2.2867  0.0754
 6180SOL    HW230000   2.793   0.895  15.164 -0.3377  0.0046  0.6576
 6181SOL     OW30001   3.740   3.485   6.602  0.1982 -0.6997 -0.3454
 6181SOL    HW130002   3.646   3.496   6.591  0.4429  0.8330 -0.9331
 6181SOL    HW230003   3.761   3.466   6.511  0.9764 -2.4111  0.1930
 6182SOL     OW30004   0.488   2.329  14.025  0.2260 -0.2835  0.0341
 6182SOL    HW130005   0.490   2.234  14.042  0.4850 -0.2358  0.2773
 6182SOL    HW230006   0.517   2.359  14.111 -1.6839  1.2641  0.1169
 6183SOL     OW30007   1.256   2.563  14.329 -0.0617  0.8796  0.5300
 6183SOL    HW130008   1.264   2.657  14.315 -1.5282  0.7036 -1.3420
 6183SOL    HW230009   1.223   2.572  14.419  1.0236 -1.0760  1.1437
 6184SOL     OW30010   4.458   0.846   8.379  0.2520 -0.1281 -0.7859
 6184SOL    HW130011   4.407   0.775   8.417  0.5945  0.1017  0.0871
 6184SOL    HW230012   4.440   0.920   8.437  0.5620 -1.2165  0.6736
 6185SOL     OW30013   0.115   2.473   5.901 -0.0147 -0.3552 -0.1339
 6185SOL    HW130014   0.206   2.497   5.921 -0.6618  1.9311  0.1115
 6185SOL    HW230015   0.127   2.386   5.865 -2.0155 -0.2690 -1.0121
 6186SOL     OW30016   0.677   4.335   8.735  0.6344 -0.0989 -0.2844
 6186SOL    HW130017   0.703   4.249   8.767 -1.3126 -0.9183 -0.8858
 6186SOL    HW230018   0.583   4.340   8.752  0.6724  0.5012 -0.2237
 6187SOL     OW30019   4.321   4.141   5.783 -0.0775  0.1772  0.0034
 6187SOL    HW130020   4.392   4.188   5.738  2.1417 -3.5103 -0.3493
 6187SOL    HW230021   4.252   4.148   5.718  1.1552  2.0711 -1.0931
 6188SOL     OW30022   4.495   1.204   9.840 -0.1796 -0.2388 -0.1859
 6188SOL    HW130023   4.461   1.293   9.831 -0.3176 -0.2920 -0.1960
 6188SOL    HW230024   4.586   1.221   9.818 -0.2472 -0.4667 -0.6596
 6189SOL     OW30025   0.761   1.743   2.209 -0.1113 -0.6244  1.0358
 6189SOL    HW130026   0.666   1.742   2.219  0.0284 -2.0803  2.1357
 6189SOL    HW230027   0.783   1.679   2.276  1.0556  1.3860  2.5761
 6190SOL     OW30028   2.807   2.236   8.904 -0.2415 -0.0304  0.2180
 6190SOL    HW130029   2.717   2.259   8.883 -0.2166  0.2718  0.4386
 6190SOL    HW230030   2.870   2.292   8.859 -0.4285 -1.4467 -1.8060
 6191SOL     OW30031   4.303   0.221   9.908  0.8096  0.0319  0.1364
 6191SOL    HW130032   4.338   0.213   9.996  0.7900  2.2337  0.3562
 6191SOL    HW230033   4.382   0.233   9.856 -0.2411  0.2616 -1.4285
 6192SOL     OW30034   4.515   3.056   4.999  0.0423 -0.1646 -0.2068
 6192SOL    HW130035   4.468   2.984   4.956 -0.2771 -1.3849  2.1960
 6192SOL    HW230036   4.604   3.051   4.963 -0.5031  1.1520 -1.7428
 6193SOL     OW30037   1.980   3.285   1.650  0.8318  0.2075 -0.3429
 6193SOL    HW130038   1.984   3.271   1.555  1.2362  0.9676 -0.4305
 6193SOL    HW230039   1.909   3.348   1.660  0.6969  0.2615 -1.6386
 6194SOL     OW30040   4.011   3.940   2.743 -0.0579  0.2822  0.4847
 6194SOL    HW130041   3.972   4.001   2.806 -0.2229 -0.8677  1.4960
 6194SOL    HW230042   4.010   3.996   2.665 -1.5611 -0.0822  0.2331
 6195SOL     OW30043   2.000   1.319   7.143 -0.3155 -0.1257 -0.0680
 6195SOL    HW130044   2.018   1.402   7.100 -0.0933 -0.7799 -1.2690
 6195SOL    HW230045   1.952   1.344   7.221 -0.5488 -2.3336  0.5044
 6196SOL     OW30046   2.919   2.494   5.766  0.6914  0.0790 -0.2035
 6196SOL    HW130047   2.930   2.514   5.672  0.7258  1.0282  0.0023
 6196SOL    HW230048   2.824   2.483   5.762  0.3406  1.7977  3.6851
 6197SOL     OW30049   1.962   0.256  13.114 -0.2228 -0.2324 -0.0363
 6197SOL    HW130050   1.874   0.289  13.097 -0.4227 -0.8126 -0.1488
 6197SOL    HW230051   1.992   0.324  13.175  2.2417 -1.1779 -0.1732
 6198SOL     OW30052   4.436   3.810  10.186  0.1985  0.2119  0.3520
 6198SOL    HW130053   4.397   3.884  10.138 -3.5846 -0.8527  1.7740
 6198SOL    HW230054   4.399   3.832  10.271 -2.6138 -1.8925 -0.3090
 6199SOL     OW30055   1.719   1.150   7.025 -0.0346 -0.5523  0.2166
 6199SOL    HW130056   1.692   1.108   7.107 -0.0083 -0.0662  0.4790
 6199SOL    HW230057   1.635   1.168   6.984 -0.7094  1.2832  2.3693
 6200SOL     OW30058   1.806   0.235   4.936  0.2145  0.3249 -0.2782
 6200SOL    HW130059   1.790   0.306   4.997  2.4938 -0.1318  0.8406
 6200SOL    HW230060   1.824   0.276   4.851  1.8518 -0.7778 -0.4498
 6201SOL     OW30061   3.607   1.513   6.125  0.1802  0.1136  0.2652
 6201SOL    HW130062   3.583   1.594   6.172  1.8196  0.2465  0.8857
 6201SOL    HW230063   3.644   1.553   6.046 -0.3565  1.0711  0.4973
 6202SOL     OW30064   2.836   0.562  13.078  0.1589  0.6651  0.2130
 6202SOL    HW130065   2.916   0.590  13.123  1.3191 -1.8379 -0.2824
 6202SOL    HW230066   2.766   0.612  13.120 -0.2007 -0.1526  0.5919
 6203SOL     OW30067   1.483   1.785  10.157  0.1687  0.2420  0.3382
 6203SOL    HW130068   1.415   1.851  10.169  0.3896  0.6222 -0.5426
 6203SOL    HW230069   1.519   1.805  10.071 -0.5478  1.1899  0.2619
 6204SOL     OW30070   1.334   3.827   4.369 -0.6665 -0.4288 -0.3635
 6204SOL    HW130071   1.314   3.741   4.334  0.1827 -1.1127  0.8519
 6204SOL    HW230072   1.423   3.809   4.399 -0.4495  1.1605 -0.0519
 6205SOL     OW30073   2.396   0.989  13.574 -0.3294  0.2988 -0.1390
 6205SOL    HW130074   2.421   1.070  13.617 -0.4777  1.6384 -2.5529
 6205SOL    HW230075   2.319   0.960  13.623  0.3612  1.2264  1.4655
 6206SOL     OW30076   2.411   3.851   5.312 -0.1508  0.1361  0.7610
 6206SOL    HW130077   2.465   3.823   5.386  1.3572 -0.1638 -0.4471
 6206SOL    HW230078   2.390   3.937   5.348 -0.8781  0.3171 -0.1054
 6207SOL     OW30079   4.240   0.386   3.477  0.8681  0.0461  0.3826
 6207SOL    HW130080   4.309   0.341   3.428  0.0142  1.2170 -1.9094
 6207SOL    HW230081   4.288   0.465   3.502 -1.5469  0.7513  2.7586
 6208SOL     OW30082   0.964   4.256   3.821 -0.0746 -0.1918 -0.4233
 6208SOL    HW130083   0.904   4.181   3.818  1.1718 -1.1677 -0.8733
 6208SOL    HW230084   1.006   4.248   3.906 -0.3090 -2.7655 -0.5425
 6209SOL     OW30085   4.665   4.543   3.810 -0.0917  0.0595 -0.3402
 6209SOL    HW130086   4.674   4.593   3.891  1.8440  1.0046 -1.1267
 6209SOL    HW230087   4.695   4.605   3.743  0.8578  2.1024  1.9805
 6210SOL     OW30088   3.701   3.922   7.159 -0.4022  0.4589 -0.0226
 6210SOL    HW130089   3.615   3.942   7.197 -1.3021  1.1299 -2.4190
 6210SOL    HW230090   3.679   3.831   7.140  3.0658  0.1457 -2.5290
 6211SOL     OW30091   0.569   2.829   2.887 -0.0879 -0.2464 -0.1329
 6211SOL    HW130092   0.619   2.802   2.965  1.0380  0.8005 -0.4880
 6211SOL    HW230093   0.567   2.748   2.836  3.6901 -1.0088  0.8608
 6212SOL     OW30094   3.066   2.003  16.907 -0.5352 -0.1449  0.4445
 6212SOL    HW130095   3.048   1.915  16.939  0.3986  0.1421  1.7484
 6212SOL    HW230096   3.161   2.009  16.903 -0.4819 -1.4158 -0.2032
 6213SOL     OW30097   0.504   3.743   3.323  0.5485 -0.6880  0.1758
 6213SOL    HW130098   0.413   3.774   3.324  0.7504 -0.0988  0.3397
 6213SOL    HW230099   0.520   3.760   3.416 -3.0646 -1.4773  0.9764
 6214SOL     OW30100   0.471   3.592  17.058 -0.2716  0.6464  0.3656
 6214SOL    HW130101   0.498   3.542  16.982  0.8503  0.3986  0.9321
 6214SOL    HW230102   0.435   3.517  17.105 -2.6518  0.5752 -1.5390
 6215SOL     OW30103   0.073   0.748  17.363 -0.4365  0.6805 -0.1229
 6215SOL    HW130104   0.078   0.741  17.268  1.4085 -1.2959  0.1290
 6215SOL    HW230105   0.160   0.718  17.388 -1.7029 -2.2230  0.8275
 6216SOL     OW30106   3.229   1.422  15.860 -0.5878  0.0477 -1.0247
 6216SOL    HW130107   3.257   1.330  15.859 -0.7543 -0.0237  0.8126
 6216SOL    HW230108   3.179   1.417  15.941  2.2624 -0.2176  0.7309
 6217SOL     OW30109   1.883   0.356  11.138  0.2272 -0.0465  0.0269
 6217SOL    HW130110   1.836   0.365  11.056  1.6031 -1.9509 -0.9663
 6217SOL    HW230111   1.974   0.365  11.108  0.4926 -0.9783  0.5600
 6218SOL     OW30112   0.227   2.817  15.124 -0.7467  0.0317  0.0670
 6218SOL    HW130113   0.135   2.803  15.147 -0.8721 -0.3280 -0.6565
 6218SOL    HW230114   0.231   2.838  15.031 -0.6204 -2.2867 -0.4417
 6219SOL     OW30115   3.823   0.482   5.768  0.4392  0.1655 -0.0333
 6219SOL    HW130116   3.825   0.393   5.803  1.0970  1.0490  2.1952
 6219SOL    HW230117   3.837   0.446   5.680  2.1089  0.5832  0.0586
 6220SOL     OW30118   0.983   0.978   9.349  0.3385 -0.0798  0.1300
 6220SOL    HW130119   0.982   1.073   9.361  1.2265 -0.4548  3.1392
 6220SOL    HW230120   0.897   0.961   9.311 -0.1591  3.2936 -0.2667
 6221SOL     OW30121   3.041   2.182   5.191 -0.4078 -0.2517 -0.0994
 6221SOL    HW130122   3.103   2.254   5.179 -3.1530  2.4104  1.8936
 6221SOL    HW230123   2.963   2.234   5.174  1.2945  2.0848 -0.7703
 6222SOL     OW30124   3.334   3.822  13.063 -0.4505 -0.0669  0.4987
 6222SOL    HW130125   3.373   3.886  13.004  0.3503  0.6173  1.7510
 6222SOL    HW230126   3.328   3.747  13.005 -0.4504  2.4239 -2.7176
 6223SOL     OW30127   0.877   2.442  14.061  0.0827  0.7844 -0.2229
 6223SOL    HW130128   0.927   2.467  13.983 -2.1549 -0.2875 -2.0150
 6223SOL    HW230129   0.832   2.522  14.091  0.0129  0.1451  1.3718
 6224SOL     OW30130   2.722   1.693  15.186  0.4346  0.4520 -0.2565
 6224SOL    HW130131   2.633   1.728  15.186  0.6010  0.8684 -0.6439
 6224SOL    HW230132   2.713   1.634  15.111 -1.2902  0.7021 -0.2526
 6225SOL     OW30133   0.878   2.073   8.055 -0.6671  0.4292 -0.5466
 6225SOL    HW130134   0.902   2.137   8.121 -0.1568 -2.3132  1.9391
 6225SOL    HW230135   0.854   2.122   7.976 -3.8380 -0.1705  0.0471
 6226SOL     OW30136   0.673   0.178   4.906  0.5808 -0.2452 -0.2610
 6226SOL    HW130137   0.732   0.121   4.856 -1.1427 -1.8468 -0.4521
 6226SOL    HW230138   0.614   0.210   4.838 -0.1109 -0.4561  0.2515
 6227SOL     OW30139   2.302   3.953   4.370 -0.1442 -0.0579  0.1260
 6227SOL    HW130140   2.319   3.904   4.289  2.1740 -1.7619  1.6476
 6227SOL    HW230141   2.214   3.927   4.397  0.2663 -1.1742  0.3958
 6228SOL     OW30142   2.596   3.056   4.004  0.3969 -0.0196 -0.0684
 6228SOL    HW130143   2.651   3.061   3.926  1.7685  1.3860  0.9913
 6228SOL    HW230144   2.550   2.976   3.979  0.1297 -0.0921  0.6618
 6229SOL     OW30145   1.133   2.400  11.421 -0.1727 -0.3328 -0.4943
 6229SOL    HW130146   1.073   2.330  11.396  0.2934 -0.4786 -1.1965
 6229SOL    HW230147   1.087   2.471  11.376  0.1122  0.9200  1.1721
 6230SOL     OW30148   1.742   2.561  12.808 -0.1906 -0.4882  0.2953
 6230SOL    HW130149   1.802   2.505  12.857  2.5434 -0.6520 -3.2839
 6230SOL    HW230150   1.662   2.509  12.801  0.2350 -0.9949 -0.7062
 6231SOL     OW30151   3.885   2.050   9.789  0.2567  0.6667  0.2884
 6231SOL    HW130152   3.860   2.134   9.752  1.2507  1.1308  0.6540
 6231SOL    HW230153   3.837   2.051   9.872 -1.5135  1.6636 -0.7441
 6232SOL     OW30154   2.309   1.870   7.876 -0.2244 -0.1006 -0.1201
 6232SOL    HW130155   2.357   1.946   7.843  1.0183 -0.6119  0.4916
 6232SOL    HW230156   2.223   1.897   7.845  0.5224  1.1833 -1.0741
 6233SOL     OW30157   2.172   2.145   4.973  0.2997 -0.0322 -0.0949
 6233SOL    HW130158   2.140   2.054   4.971  2.3456 -0.8277  3.7089
 6233SOL    HW230159   2.109   2.180   5.036 -0.3887  1.7801 -1.8110
 6234SOL     OW30160   1.549   1.366   7.249 -0.7218 -0.2498 -0.5373
 6234SOL    HW130161   1.617   1.428   7.274  0.3011 -1.3323 -0.6546
 6234SOL    HW230162   1.548   1.380   7.154  0.5839 -2.9935 -0.9593
 6235SOL     OW30163   0.568   1.445   8.292  0.4089 -0.1861  0.2987
 6235SOL    HW130164   0.567   1.371   8.231  1.6740 -0.4437  0.5861
 6235SOL    HW230165   0.663   1.461   8.292  0.2011  1.0474 -1.4261
 6236SOL     OW30166   4.506   4.312   8.653  0.1628 -0.1039 -0.3708
 6236SOL    HW130167   4.446   4.317   8.728 -2.1088  0.9844 -2.2798
 6236SOL    HW230168   4.538   4.223   8.670 -0.0093  0.1672  1.3687
 6237SOL     OW30169   3.364   0.697   5.803  0.2374 -0.4248 -0.0018
 6237SOL    HW130170   3.426   0.766   5.823 -0.4088  0.5146 -1.2603
 6237SOL    HW230171   3.425   0.626   5.782 -1.0793 -1.8895  1.0987
 6238SOL     OW30172   2.620   3.972  15.777  0.0427 -0.0958  0.1258
 6238SOL    HW130173   2.704   3.947  15.814  0.4155  1.9568  0.6687
 6238SOL    HW230174   2.607   3.926  15.693 -2.3926  0.6995  0.0531
 6239SOL     OW30175   0.543   0.975   3.816 -0.5611  0.0138  0.6750
 6239SOL    HW130176   0.586   0.922   3.884 -2.2104  1.7969  3.1195
 6239SOL    HW230177   0.579   0.937   3.736 -0.8097 -0.1909  0.6589
 6240SOL     OW30178   2.706   2.109   1.251 -0.0518  1.0686  0.3564
 6240SOL    HW130179   2.795   2.076   1.264  0.3331  1.4186 -1.4525
 6240SOL    HW230180   2.703   2.121   1.156 -0.6724  4.3030  0.8077
 6241SOL     OW30181   3.283   1.249   9.476 -0.1771  0.0769 -0.4062
 6241SOL    HW130182   3.254   1.292   9.396 -0.2216  1.8576  0.5717
 6241SOL    HW230183   3.287   1.321   9.538  2.0245  0.7813 -1.3896
 6242SOL     OW30184   0.127   0.152  16.337  0.5624 -0.5101 -0.3916
 6242SOL    HW130185   0.090   0.174  16.422 -1.4029 -0.9043 -1.1502
 6242SOL    HW230186   0.114   0.229  16.282 -0.6687 -2.0157 -2.1892
 6243SOL     OW30187   0.291   1.724   0.265 -0.5110 -0.4428 -0.7107
 6243SOL    HW130188   0.266   1.772   0.186  0.6473  2.8238  0.8906
 6243SOL    HW230189   0.365   1.675   0.229 -0.3234  1.7154 -3.3059
 6244SOL     OW30190   2.477   4.176  15.366  0.7384  0.9585  0.3475
 6244SOL    HW130191   2.545   4.192  15.431  1.1516  1.3894 -0.1905
 6244SOL    HW230192   2.506   4.087  15.343 -2.8080 -0.1652  0.3129
 6245SOL     OW30193   0.798   1.488   7.333  0.0739  0.1057 -0.0376
 6245SOL    HW130194   0.760   1.437   7.262 -0.4960 -1.3454  1.2973
 6245SOL    HW230195   0.885   1.448   7.334 -0.5771 -1.2853  1.6644
 6246SOL     OW30196   4.272   2.284   0.396  0.2472 -0.2830  0.7541
 6246SOL    HW130197   4.341   2.282   0.462  1.0409  2.5906  0.0027
 6246SOL    HW230198   4.234   2.200   0.421  0.0710  0.1941  2.0634
 6247SOL     OW30199   0.285   3.523   4.349  0.0578  0.6305 -0.0435
 6247SOL    HW130200   0.349   3.588   4.377 -0.0853  0.0573  1.5968
 6247SOL    HW230201   0.205   3.547   4.396 -1.0028  2.2185 -2.6464
 6248SOL     OW30202   2.157   3.814   9.035  0.3691  0.5477  0.3230
 6248SOL    HW130203   2.089   3.863   8.989  0.5971  0.9917  0.4657
 6248SOL    HW230204   2.156   3.734   8.982  1.0651  0.2893  0.7079
 6249SOL     OW30205   4.634   0.223   9.130  0.1351  0.0027  0.3421
 6249SOL    HW130206   4.609   0.284   9.060 -0.2961  0.5189  0.9449
 6249SOL    HW230207   4.548   0.184   9.143 -0.7935  1.2049 -2.0682
 6250SOL     OW30208   0.263   0.001  14.881  0.8063  0.6175 -0.1108
 6250SOL    HW130209   0.291   4.690  14.796  0.4655 -1.7366  0.7198
 6250SOL    HW230210   0.194   4.665  14.912  1.2882  0.0566 -0.1093
 6251SOL     OW30211   0.169   4.083   9.271  0.1082  0.2814  0.1320
 6251SOL    HW130212   0.244   4.032   9.239 -0.1497  0.0073 -0.0274
 6251SOL    HW230213   0.125   4.022   9.329 -0.8258 -0.7187 -1.6475
 6252SOL     OW30214   4.164   0.784  12.277 -0.5199  0.3083  0.2271
 6252SOL    HW130215   4.206   0.864  12.307  0.9438  0.0029 -0.9835
 6252SOL    HW230216   4.205   0.778  12.190 -1.3750 -4.4816  0.1035
 6253SOL     OW30217   3.106   3.880   5.456 -0.2883  0.4997 -0.1014
 6253SOL    HW130218   3.159   3.954   5.485 -2.8732  2.3441 -0.0332
 6253SOL    HW230219   3.069   3.846   5.538  2.6095 -0.8032  0.6546
 6254SOL     OW30220   0.823   4.051   3.672 -0.1948  0.4442  0.4425
 6254SOL    HW130221   0.908   4.012   3.692 -0.6329 -1.0218 -0.6160
 6254SOL    HW230222   0.828   4.078   3.580 -2.4101  0.7795  0.4098
 6255SOL     OW30223   1.629   2.064  14.909  0.3769  0.7285  0.0737
 6255SOL    HW130224   1.615   2.049  15.003  0.1350 -2.3231 -0.4328
 6255SOL    HW230225   1.647   1.979  14.869  0.2688  0.5974  0.3028
 6256SOL     OW30226   3.673   1.431   4.502 -0.9192  0.3252 -0.0893
 6256SOL    HW130227   3.708   1.446   4.590 -3.1980  0.9333  0.7104
 6256SOL    HW230228   3.669   1.523   4.477 -0.1970  1.2576  3.2791
 6257SOL     OW30229   1.493   2.943   5.683 -0.0949  0.4313  0.2066
 6257SOL    HW130230   1.438   2.892   5.624  0.9195 -3.0521  2.2962
 6257SOL    HW230231   1.564   2.969   5.625  1.1365 -0.5744  1.2747
 6258SOL     OW30232   0.979   2.136  15.642 -0.0917 -0.1784 -0.0626
 6258SOL    HW130233   0.939   2.185  15.570 -1.6713  0.5468  1.3239
 6258SOL    HW230234   1.064   2.178  15.634 -0.7056  0.9579 -0.7808
 6259SOL     OW30235   1.496   3.911   3.895 -0.5781  0.1119  0.6727
 6259SOL    HW130236   1.422   3.934   3.952 -1.0531 -1.8529  0.8560
 6259SOL    HW230237   1.521   3.829   3.938 -0.6389 -0.1319  0.2341
 6260SOL     OW30238   0.637   1.254   4.798 -0.2052 -0.1884 -0.3414
 6260SOL    HW130239   0.563   1.311   4.776  2.0871  3.1429  0.5961
 6260SOL    HW230240   0.599   1.169   4.820 -3.2413  0.8627 -1.5055
 6261SOL     OW30241   0.028   0.566  10.229  0.0328 -0.0472  0.5189
 6261SOL    HW130242   0.032   0.638  10.166  1.3012  0.0303  0.6806
 6261SOL    HW230243   0.118   0.534  10.216 -0.9464 -1.2140 -3.2302
 6262SOL     OW30244   4.198   1.096   6.917  0.5757 -0.1443 -0.3044
 6262SOL    HW130245   4.170   1.007   6.897  2.1278 -0.6912 -0.0561
 6262SOL    HW230246   4.288   1.076   6.943  0.2748 -1.6168 -0.4361
 6263SOL     OW30247   4.664   2.604   4.080 -0.1198 -0.7926 -0.4545
 6263SOL    HW130248   4.634   2.665   4.012 -1.3030 -0.2805  0.5418
 6263SOL    HW230249   4.620   2.523   4.057  1.1776 -2.0486  1.5281
 6264SOL     OW30250   2.507   4.099  17.015  0.4048 -0.9084  0.0545
 6264SOL    HW130251   2.569   4.114  17.086  1.5327  0.7020 -1.2663
 6264SOL    HW230252   2.439   4.051  17.062  1.6153 -1.5553  1.1454
 6265SOL     OW30253   3.142   2.374   9.525 -0.4031 -0.2184 -0.0255
 6265SOL    HW130254   3.235   2.353   9.527 -0.0721  1.3734  1.3837
 6265SOL    HW230255   3.123   2.366   9.432  0.3459 -0.0139 -0.1928
 6266SOL     OW30256   0.513   2.822   5.272 -0.2408  0.2089  0.5617
 6266SOL    HW130257   0.598   2.850   5.305 -0.9983  1.7183  1.2294
 6266SOL    HW230258   0.462   2.903   5.275  0.1457  0.3318  4.1945
 6267SOL     OW30259   3.466   4.314   6.235  0.4504 -0.1967  0.2187
 6267SOL    HW130260   3.388   4.259   6.233  1.3192 -1.4341  0.8150
 6267SOL    HW230261   3.440   4.394   6.280 -0.8354 -0.2528 -0.4134
 6268SOL     OW30262   0.332   3.146   4.738  0.0651  0.6493 -0.3599
 6268SOL    HW130263   0.259   3.203   4.712  1.2325  2.5723  0.5984
 6268SOL    HW230264   0.386   3.149   4.659  1.8445 -0.5004  0.8076
 6269SOL     OW30265   2.959   3.304   3.586  0.1341  0.0915  0.3123
 6269SOL    HW130266   2.977   3.224   3.536  0.1746 -0.7515  1.6970
 6269SOL    HW230267   2.925   3.273   3.669  0.6195 -0.9944  0.0947
 6270SOL     OW30268   1.260   1.651  14.780 -0.5401  0.4640 -0.5501
 6270SOL    HW130269   1.223   1.564  14.768 -1.1578  1.1114 -3.5105
 6270SOL    HW230270   1.285   1.653  14.872  0.4607 -0.2667 -0.8082
 6271SOL     OW30271   2.217   3.011   1.243 -0.0851 -0.3614  0.0500
 6271SOL    HW130272   2.239   3.103   1.228 -0.2696 -0.4033 -0.4793
 6271SOL    HW230273   2.153   3.017   1.314 -0.1241  1.1820 -0.1116
 6272SOL     OW30274   2.837   0.763   1.824 -0.0477  0.5324  0.2331
 6272SOL    HW130275   2.926   0.772   1.790  0.2792  1.6255  1.3302
 6272SOL    HW230276   2.815   0.686   1.773  0.6121  1.2094 -1.0558
 6273SOL     OW30277   0.698   1.993   2.943 -0.0212  0.0739  0.1080
 6273SOL    HW130278   0.732   2.063   3.000 -1.4455  0.2896  0.6758
 6273SOL    HW230279   0.641   2.041   2.883 -0.6832  0.6439  1.2074
 6274SOL     OW30280   3.249   1.127  16.854  0.2362  0.5518  0.6121
 6274SOL    HW130281   3.261   1.134  16.949 -1.0273  0.3505  0.7920
 6274SOL    HW230282   3.159   1.159  16.851  0.3305  0.8291  0.6663
 6275SOL     OW30283   3.356   3.503   3.255  0.1287 -0.3586  0.3145
 6275SOL    HW130284   3.440   3.520   3.296  1.2313  0.2709 -2.1693
 6275SOL    HW230285   3.319   3.450   3.326 -1.4267  1.6632  1.0147
 6276SOL     OW30286   3.613   0.077   9.974  0.0379  0.7698  0.3394
 6276SOL    HW130287   3.595   0.037   9.889 -1.8305  1.7682  0.2495
 6276SOL    HW230288   3.570   0.159   9.949 -1.1280  0.0415 -0.0734
 6277SOL     OW30289   3.405   2.296   2.539 -0.1776  0.6950  0.4010
 6277SOL    HW130290   3.443   2.216   2.502  0.4009  0.5678  1.2778
 6277SOL    HW230291   3.343   2.307   2.467  0.0833 -2.8609 -0.3933
 6278SOL     OW30292   4.058   0.887  17.628  0.2062 -0.2354  0.5259
 6278SOL    HW130293   4.093   0.964  17.583  0.6186 -0.1515  0.9915
 6278SOL    HW230294   4.077   0.815  17.568 -0.4919  1.6184 -1.9258
 6279SOL     OW30295   0.348   1.176   7.167  0.1658  0.7344  0.0491
 6279SOL    HW130296   0.363   1.270   7.165  0.9346  0.6291  1.0490
 6279SOL    HW230297   0.262   1.180   7.124 -0.7263 -0.8554  1.6561
 6280SOL     OW30298   1.907   2.223   4.101  0.3491  0.8719 -0.4397
 6280SOL    HW130299   1.922   2.131   4.122  0.4377  0.4808 -2.1967
 6280SOL    HW230300   1.907   2.277   4.180  4.1569 -0.8359  0.7352
 6281SOL     OW30301   3.724   1.641   4.274  0.9537 -0.3034 -0.2899
 6281SOL    HW130302   3.675   1.619   4.195  3.5578  0.7256 -2.1904
 6281SOL    HW230303   3.807   1.598   4.255  1.0396 -0.2550 -0.0344
 6282SOL     OW30304   1.736   0.471   2.935 -0.6872  1.0859 -0.1596
 6282SOL    HW130305   1.807   0.532   2.956 -0.4722  0.0201  2.1199
 6282SOL    HW230306   1.736   0.472   2.839 -0.7513 -0.2454 -0.1708
 6283SOL     OW30307   1.746   0.473  13.749 -0.1221  0.0440 -0.0610
 6283SOL    HW130308   1.729   0.564  13.723 -3.3237 -0.4270  0.3821
 6283SOL    HW230309   1.675   0.419  13.715  1.6118 -2.9100  0.9571
 6284SOL     OW30310   1.582   2.603   5.947 -0.0874  0.4030 -0.1876
 6284SOL    HW130311   1.593   2.581   6.040  0.3768 -1.6959 -0.7266
 6284SOL    HW230312   1.632   2.682   5.931  0.5619 -0.5459 -2.9046
 6285SOL     OW30313   4.151   4.424   3.960 -0.0795 -0.5588 -0.3185
 6285SOL    HW130314   4.190   4.498   3.914  0.0629 -0.9099 -0.7689
 6285SOL    HW230315   4.190   4.437   4.046 -0.1816 -2.2335 -0.0151
 6286SOL     OW30316   1.364   3.806   8.793  0.0436  0.2097 -0.1055
 6286SOL    HW130317   1.303   3.879   8.808 -0.1848 -0.0852  0.4228
 6286SOL    HW230318   1.442   3.846   8.830 -0.3440  1.7496 -0.9662
 6287SOL     OW30319   0.398   2.737  15.450 -0.0057 -0.2652  1.0723
 6287SOL    HW130320   0.432   2.676  15.385 -0.6576 -2.0941  2.4412
 6287SOL    HW230321   0.306   2.750  15.427  0.6857 -1.1317 -2.2215
 6288SOL     OW30322   3.918   0.344   4.988  0.2499 -0.3616 -0.1254
 6288SOL    HW130323   3.987   0.351   4.921 -1.2491 -0.7039 -1.6844
 6288SOL    HW230324   3.840   0.341   4.933  0.0001 -1.0705  0.2713
 6289SOL     OW30325   0.717   1.961  14.216 -0.4598  0.7624  0.3908
 6289SOL    HW130326   0.746   1.977  14.306 -0.4186 -2.0335  0.8782
 6289SOL    HW230327   0.768   2.029  14.174  1.1589  0.3177  1.6288
 6290SOL     OW30328   2.283   3.721   4.756 -0.4149 -0.2146  0.1876
 6290SOL    HW130329   2.245   3.657   4.696 -1.6942 -0.2584  1.0409
 6290SOL    HW230330   2.216   3.789   4.759 -0.9560 -0.7239 -0.2810
 6291SOL     OW30331   0.387   2.420   0.144 -0.2592  0.2697  0.0838
 6291SOL    HW130332   0.390   2.496   0.201  1.6850  0.2250  0.0425
 6291SOL    HW230333   0.299   2.420   0.106 -0.1015  1.5034 -0.2733
 6292SOL     OW30334   2.520   1.304  11.944 -0.5634 -0.0449 -0.2352
 6292SOL    HW130335   2.430   1.296  11.914 -0.4569 -0.2777 -0.4855
 6292SOL    HW230336   2.519   1.399  11.933  3.1317 -0.2355 -2.1776
 6293SOL     OW30337   2.831   3.619   8.961  0.4738 -0.0200 -0.1695
 6293SOL    HW130338   2.758   3.628   8.900  0.6997  1.6829 -0.1685
 6293SOL    HW230339   2.877   3.539   8.934  1.6862  1.4131 -2.3872
 6294SOL     OW30340   4.324   1.327   9.374 -0.4187  0.0568  0.4081
 6294SOL    HW130341   4.231   1.350   9.384  0.1582  2.2392  0.6700
 6294SOL    HW230342   4.320   1.253   9.313 -0.9365 -0.6800  1.3353
 6295SOL     OW30343   0.448   3.755   6.243  0.2424  0.5250  0.4843
 6295SOL    HW130344   0.407   3.699   6.309  0.1447 -1.1128 -0.9731
 6295SOL    HW230345   0.533   3.715   6.227 -1.0390 -2.7732  2.0019
 6296SOL     OW30346   0.807   1.450   6.832 -0.3676  0.0664  0.2804
 6296SOL    HW130347   0.833   1.412   6.747 -0.0950 -1.3786  0.9988
 6296SOL    HW230348   0.825   1.377   6.891  0.5167 -0.8981 -1.1535
 6297SOL     OW30349   2.953   4.715   8.449 -0.5798  0.1122  0.5418
 6297SOL    HW130350   2.873   0.044   8.450  0.5356  1.8237 -0.7756
 6297SOL    HW230351   2.941   4.658   8.374 -0.5788 -2.5835  2.5949
 6298SOL     OW30352   0.852   2.883  11.943 -0.0508  0.3751 -0.2971
 6298SOL    HW130353   0.855   2.864  11.849 -0.2078  0.0232 -0.2309
 6298SOL    HW230354   0.943   2.867  11.968 -0.2927  2.2017  1.7112
 6299SOL     OW30355   2.429   2.422  15.053 -0.3978  0.7511 -0.0323
 6299SOL    HW130356   2.495   2.491  15.042  1.1293 -0.5603  0.8379
 6299SOL    HW230357   2.484   2.351  15.088 -1.7147 -0.0709  0.3464
 6300SOL     OW30358   0.709   4.520   2.524  0.2079  0.6299 -0.4347
 6300SOL    HW130359   0.694   4.448   2.462 -1.3826  0.0627  0.6048
 6300SOL    HW230360   0.797   4.500   2.555  0.6720  0.6411 -1.7188
 6301SOL     OW30361   1.941   0.725  13.537 -0.1766 -0.0635  0.2216
 6301SOL    HW130362   1.863   0.734  13.593 -0.9286 -0.9520 -0.6859
 6301SOL    HW230363   1.914   0.665  13.468 -0.2874  1.7445 -1.3063
 6302SOL     OW30364   0.079   2.702   3.654  0.2377 -0.1217 -0.6733
 6302SOL    HW130365   0.030   2.620   3.657  2.7283 -1.5795 -0.6735
 6302SOL    HW230366   0.157   2.664   3.614  0.0104  0.6725 -1.8578
 6303SOL     OW30367   4.230   2.194   1.603 -0.1590 -1.3845 -0.4044
 6303SOL    HW130368   4.257   2.256   1.536  0.7988 -0.4713  0.8290
 6303SOL    HW230369   4.264   2.115   1.560 -1.9113 -1.6418 -1.3279
 6304SOL     OW30370   3.255   0.819   7.277 -0.0773  0.5230  0.4548
 6304SOL    HW130371   3.295   0.772   7.204  0.1738  2.3314 -0.5491
 6304SOL    HW230372   3.182   0.856   7.228 -2.0782 -2.1395  1.3871
 6305SOL     OW30373   2.280   2.775  14.170  0.0846 -0.3723  0.3178
 6305SOL    HW130374   2.253   2.795  14.081 -0.6731 -1.0549  0.3969
 6305SOL    HW230375   2.257   2.684  14.188  0.4297 -0.4746  0.2470
 6306SOL     OW30376   3.457   4.560   1.651  0.6052 -0.1053  0.6197
 6306SOL    HW130377   3.447   4.467   1.633 -0.4687  0.1685 -0.2286
 6306SOL    HW230378   3.514   4.544   1.726  2.5472 -1.2932 -1.0920
 6307SOL     OW30379   3.184   2.410   0.150 -0.3966  0.3791  0.3114
 6307SOL    HW130380   3.146   2.423   0.063  1.7135 -1.2767 -0.8738
 6307SOL    HW230381   3.135   2.476   0.199 -0.3673  0.6250  0.0085
 6308SOL     OW30382   0.778   4.610  12.511  0.3904 -0.8708  0.0032
 6308SOL    HW130383   0.745   4.538  12.564  1.1884  0.2390  2.0145
 6308SOL    HW230384   0.767   4.568  12.426 -0.6458 -0.8254  0.1224
 6309SOL     OW30385   0.282   3.099   2.959  0.1567 -1.1874  0.2240
 6309SOL    HW130386   0.268   3.112   2.865  3.6803  3.2934  0.3433
 6309SOL    HW230387   0.211   3.039   2.985 -0.8839  1.0243  2.4865
 6310SOL     OW30388   4.662   2.309   6.706  0.3955 -0.3937  0.3174
 6310SOL    HW130389   4.687   2.342   6.620  0.0370 -2.2895 -0.5226
 6310SOL    HW230390   4.704   2.223   6.712  1.8379  0.3238  0.2825
 6311SOL     OW30391   0.955   0.331   0.092  0.0528  0.6511 -0.4609
 6311SOL    HW130392   1.002   0.382   0.158  0.5718 -1.3978  0.7561
 6311SOL    HW230393   1.024   0.316   0.028  0.3304 -1.3612  0.3333
 6312SOL     OW30394   4.375   4.366   8.882  0.2394 -0.6786  0.0968
 6312SOL    HW130395   4.313   4.333   8.947 -1.3020 -0.4084 -1.2476
 6312SOL    HW230396   4.446   4.394   8.940 -0.1518 -1.5337  0.9849
 6313SOL     OW30397   4.332   0.196  13.630 -0.2348 -0.6699  0.6969
 6313SOL    HW130398   4.385   0.274  13.613 -1.9242  0.7275  1.8628
 6313SOL    HW230399   4.260   0.215  13.570 -0.7519  1.4960  1.9690
 6314SOL     OW30400   0.598   1.648   4.045  0.0772 -0.2980 -0.0654
 6314SOL    HW130401   0.626   1.731   4.005 -2.2972  0.3578 -0.3649
 6314SOL    HW230402   0.507   1.648   4.017  0.2421  0.7090 -0.6293
 6315SOL     OW30403   0.058   1.488   2.984 -0.3410  0.4857  0.8716
 6315SOL    HW130404   0.104   1.551   3.039  1.7925 -1.2886  1.1291
 6315SOL    HW230405   4.715   1.454   3.043 -1.2176 -0.0421 -0.4008
 6316SOL     OW30406   0.033   0.388  16.141  0.0203 -0.2784 -0.3429
 6316SOL    HW130407   0.079   0.432  16.070 -2.7706  2.6615 -0.3642
 6316SOL    HW230408   0.062   0.437  16.218 -0.0798 -1.2846  0.3435
 6317SOL     OW30409   0.264   1.994   4.944 -0.0915  0.2246 -0.7735
 6317SOL    HW130410   0.223   1.990   4.858  0.1279 -1.3289 -0.8118
 6317SOL    HW230411   0.254   2.088   4.959 -1.3327  0.0281 -0.4030
 6318SOL     OW30412   1.524   2.653   4.762 -0.1890 -0.1518  0.1207
 6318SOL    HW130413   1.575   2.577   4.735 -1.6670 -0.3063 -2.1698
 6318SOL    HW230414   1.515   2.713   4.688 -0.8742 -0.8712 -0.3760
 6319SOL     OW30415   0.435   4.477   5.914  0.6154 -0.1103 -0.5930
 6319SOL    HW130416   0.410   4.559   5.870  1.0583  0.0701 -0.5128
 6319SOL    HW230417   0.354   4.433   5.940 -1.4418  3.1214 -1.4289
 6320SOL     OW30418   1.438   1.082   5.679  0.5260 -0.2373 -0.0415
 6320SOL    HW130419   1.434   0.987   5.692  1.2032 -0.4380 -1.3949
 6320SOL    HW230420   1.348   1.110   5.697  0.8312  0.9618 -0.3761
 6321SOL     OW30421   3.027   4.451  16.303  0.2086 -0.3538  0.5989
 6321SOL    HW130422   3.103   4.430  16.249  0.2238 -0.9476  0.8528
 6321SOL    HW230423   3.058   4.527  16.353 -1.4632 -0.6018  2.0017
 6322SOL     OW30424   1.363   0.792  16.574  0.6692 -0.0529  1.0311
 6322SOL    HW130425   1.289   0.802  16.633 -1.1072 -0.3551 -1.1531
 6322SOL    HW230426   1.330   0.844  16.500  1.1711 -1.1845  0.0015
 6323SOL     OW30427   1.410   3.503   4.984  0.3229 -0.3952 -0.2388
 6323SOL    HW130428   1.477   3.567   4.960  1.8966 -1.3227  1.7075
 6323SOL    HW230429   1.463   3.427   5.005  1.5198  0.8481  1.2412
 6324SOL     OW30430   3.356   0.091  10.675 -0.7467 -0.1099 -0.3842
 6324SOL    HW130431   3.431   0.084  10.616 -1.0046 -3.0598 -0.3600
 6324SOL    HW230432   3.285   0.109  10.614 -2.2169 -1.1676  1.0195
 6325SOL     OW30433   0.703   4.348   9.509  0.3615 -0.0272 -0.5506
 6325SOL    HW130434   0.760   4.284   9.552  0.5004  0.1629 -0.4557
 6325SOL    HW230435   0.753   4.427   9.526  0.9112 -0.6218  0.5644
 6326SOL     OW30436   3.881   2.680   3.804  0.2268  0.2253  0.3022
 6326SOL    HW130437   3.810   2.626   3.839 -0.5389  1.6108  0.9012
 6326SOL    HW230438   3.928   2.711   3.881 -0.1265  2.2859 -0.2966
 6327SOL     OW30439   4.061   2.804   2.284  0.0806 -0.3034  0.1855
 6327SOL    HW130440   4.087   2.877   2.341 -3.0804  0.2949  0.8110
 6327SOL    HW230441   3.994   2.845   2.230 -0.0551  1.0494  1.3802
 6328SOL     OW30442   2.521   2.514  14.784  0.7186 -0.3198 -0.1605
 6328SOL    HW130443   2.598   2.570  14.796  0.8042 -0.1154 -1.6636
 6328SOL    HW230444   2.464   2.583  14.751 -0.9341 -1.6875 -0.1850
 6329SOL     OW30445   2.812   1.452   8.847  0.5588  0.4876 -0.0245
 6329SOL    HW130446   2.720   1.471   8.862 -0.1075 -1.8100 -1.3034
 6329SOL    HW230447   2.832   1.525   8.788  1.2803 -0.4039 -0.8746
 6330SOL     OW30448   4.424   0.158   5.105  0.6467 -0.2762  0.1925
 6330SOL    HW130449   4.387   0.110   5.031  0.3693 -0.7619  0.6461
 6330SOL    HW230450   4.502   0.107   5.123  0.9486 -0.7776 -2.5617
 6331SOL     OW30451   3.577   2.509   8.816  0.0605 -0.5035  0.1613
 6331SOL    HW130452   3.633   2.435   8.793 -0.4211 -0.8155 -0.0132
 6331SOL    HW230453   3.496   2.476   8.778  0.0722  0.0331 -0.3487
 6332SOL     OW30454   0.487   2.812  16.670  0.1311  0.5215 -0.1608
 6332SOL    HW130455   0.498   2.718  16.653  1.4934  0.7450 -0.4476
 6332SOL    HW230456   0.409   2.827  16.616  1.3443  2.5599 -1.3396
 6333SOL     OW30457   3.455   4.260   9.401  0.1681 -0.2961 -0.2093
 6333SOL    HW130458   3.386   4.316   9.437  0.9314  1.1769 -1.0283
 6333SOL    HW230459   3.431   4.181   9.448 -2.3803 -0.6451 -2.0393
 6334SOL     OW30460   2.223   1.964  17.499 -0.3239 -0.2640 -0.2422
 6334SOL    HW130461   2.296   2.018  17.471 -0.3832 -0.0080  0.0934
 6334SOL    HW230462   2.184   1.924  17.421 -1.3761 -0.7336  0.5077
 6335SOL     OW30463   2.981   2.964   9.659  0.5183 -0.0012 -0.4239
 6335SOL    HW130464   3.070   3.000   9.654  0.8764 -1.1083 -2.1328
 6335SOL    HW230465   2.996   2.929   9.747  0.1908 -0.7262 -0.6580
 6336SOL     OW30466   3.906   1.554   8.303  0.2750 -0.5396 -0.4212
 6336SOL    HW130467   3.932   1.632   8.254  0.6947 -1.0574 -1.0155
 6336SOL    HW230468   3.995   1.533   8.332 -0.7638 -2.3419  1.5154
 6337SOL     OW30469   3.591   1.257   6.726  0.3324 -0.2070 -0.2729
 6337SOL    HW130470   3.670   1.221   6.765 -0.6043 -0.1492  1.6820
 6337SOL    HW230471   3.589   1.204   6.646 -0.0332 -0.2519 -0.2342
 6338SOL     OW30472   2.967   4.668   1.621 -0.1779 -0.2728 -0.3198
 6338SOL    HW130473   2.921   4.666   1.538 -0.4843 -2.1670 -0.0986
 6338SOL    HW230474   2.930   4.592   1.666 -2.7164  0.8491 -0.5272
 6339SOL     OW30475   4.701   1.040   1.769 -0.4615  0.4439 -0.8517
 6339SOL    HW130476   0.058   1.066   1.724 -0.6850  0.1745 -1.4111
 6339SOL    HW230477   4.642   1.104   1.729 -0.5913  0.7028 -0.2419
 6340SOL     OW30478   3.850   3.142   2.193  0.1538 -0.3758 -0.1654
 6340SOL    HW130479   3.846   3.237   2.181 -1.4567 -0.6300 -1.7672
 6340SOL    HW230480   3.836   3.137   2.288  0.8827  1.2556  0.0301
 6341SOL     OW30481   4.207   2.781   1.255  0.3091 -0.6047 -0.3806
 6341SOL    HW130482   4.241   2.824   1.333 -0.2205  0.0417 -0.5059
 6341SOL    HW230483   4.181   2.859   1.207 -0.0343 -1.4915 -1.6578
 6342SOL     OW30484   2.786   4.675   9.007  0.3767  0.3525  0.2382
 6342SOL    HW130485   2.696   4.689   8.978  0.3772  1.4434  0.7386
 6342SOL    HW230486   2.779   4.698   9.100  2.3491  1.0077  0.2264
 6343SOL     OW30487   0.866   1.713  10.237  0.6757  0.3620 -0.0847
 6343SOL    HW130488   0.777   1.685  10.260  1.9675 -1.9145  2.2519
 6343SOL    HW230489   0.859   1.734  10.144 -2.5350 -0.5377 -0.0486
 6344SOL     OW30490   0.412   2.732   8.059 -0.2157  0.0961 -0.1299
 6344SOL    HW130491   0.478   2.671   8.092  0.6935  1.2200  0.1489
 6344SOL    HW230492   0.448   2.818   8.080  2.1948 -1.3778  1.8385
 6345SOL     OW30493   4.643   0.033   3.974 -0.5652  0.0861  0.3813
 6345SOL    HW130494   4.560   4.721   4.006 -0.9462  0.4669 -0.1606
 6345SOL    HW230495   4.617   0.123   3.951 -0.1542  0.1097  0.0100
 6346SOL     OW30496   0.208   4.280   8.069  0.0999 -0.4089 -0.3890
 6346SOL    HW130497   0.170   4.195   8.090 -0.4426  0.0070  0.2880
 6346SOL    HW230498   0.161   4.341   8.126  2.5102  2.0285 -0.9904
 6347SOL     OW30499   4.179   2.140   4.974 -0.0432 -0.6673  0.0794
 6347SOL    HW130500   4.114   2.205   5.002  1.3844  0.7172  0.1472
 6347SOL    HW230501   4.171   2.161   4.881 -1.5539 -0.3464  0.2779
 6348SOL     OW30502   2.037   4.666   7.492  0.5965  0.4445  0.1864
 6348SOL    HW130503   2.124   4.656   7.453  1.0384  0.8261  1.0673
 6348SOL    HW230504   2.048   4.634   7.581  1.8851 -0.4923 -0.3067
 6349SOL     OW30505   2.665   0.192   6.118  0.1894 -0.2072 -0.3187
 6349SOL    HW130506   2.574   0.174   6.097  0.2674  0.7412 -1.5043
 6349SOL    HW230507   2.699   0.231   6.037 -0.9231  0.8286 -0.2960
 6350SOL     OW30508   1.422   1.687   6.899  0.2708 -0.0359  0.3348
 6350SOL    HW130509   1.413   1.776   6.934 -1.3599  0.8343 -2.2897
 6350SOL    HW230510   1.329   1.665   6.897 -0.3796  2.7331 -0.1791
 6351SOL     OW30511   0.393   3.140   3.971 -0.7112 -0.0809 -0.4891
 6351SOL    HW130512   0.454   3.177   3.907 -1.6697  1.4254 -0.5292
 6351SOL    HW230513   0.311   3.186   3.953 -0.9252 -0.8954 -1.6724
 6352SOL     OW30514   3.209   4.462   5.225 -0.1593 -0.1606 -0.0469
 6352SOL    HW130515   3.270   4.496   5.160 -0.3456 -0.9125 -0.6258
 6352SOL    HW230516   3.178   4.383   5.180 -0.1665  0.2405 -0.7594
 6353SOL     OW30517   0.662   4.068  14.685 -0.7561  0.0636 -0.0627
 6353SOL    HW130518   0.622   3.981  14.677 -0.6399 -0.0618  0.7506
 6353SOL    HW230519   0.755   4.048  14.671 -0.9306 -0.3136 -0.6628
 6354SOL     OW30520   4.308   3.974  16.467  0.4643  0.3189  0.3708
 6354SOL    HW130521   4.347   3.932  16.390 -3.9661  0.3937 -1.9351
 6354SOL    HW230522   4.323   3.914  16.539 -0.3988 -0.6796 -0.2771
 6355SOL     OW30523   1.199   3.401   4.454  0.6264  0.1783  0.2769
 6355SOL    HW130524   1.213   3.306   4.451  1.9324  0.3475  0.9441
 6355SOL    HW230525   1.110   3.399   4.491  0.2377 -0.0335 -0.6665
 6356SOL     OW30526   4.704   1.114   6.587 -0.6583 -0.4867  0.0864
 6356SOL    HW130527   4.612   1.097   6.604 -0.5549  0.1259  1.2961
 6356SOL    HW230528   4.699   1.043   6.523 -2.4643 -1.1797  0.9923
 6357SOL     OW30529   1.195   2.686   2.090  0.7952 -0.4605  0.5779
 6357SOL    HW130530   1.206   2.594   2.112 -1.0099 -0.6621  0.6785
 6357SOL    HW230531   1.162   2.710   2.176 -1.5795 -1.1962 -0.1195
 6358SOL     OW30532   4.569   1.461  10.457 -0.0247  0.3952 -0.4683
 6358SOL    HW130533   4.593   1.405  10.530  1.3267  0.3174 -0.9641
 6358SOL    HW230534   4.479   1.429  10.450 -0.0781  0.9938 -2.4843
 6359SOL     OW30535   4.571   2.367  14.745  0.1282  0.5256 -0.2973
 6359SOL    HW130536   4.663   2.367  14.773 -0.2079  0.3575  0.8079
 6359SOL    HW230537   4.578   2.381  14.650  1.5613  1.0931 -0.1115
 6360SOL     OW30538   1.248   0.027   8.901  0.1090  0.5349 -0.6772
 6360SOL    HW130539   1.320   0.077   8.862  2.8904 -4.3333 -1.7191
 6360SOL    HW230540   1.200   0.091   8.953  2.7915 -0.3548  2.8780
 6361SOL     OW30541   0.073   3.028   2.025  0.2011  0.0054  0.5612
 6361SOL    HW130542   4.714   2.985   2.043  0.1287  0.1831  0.6494
 6361SOL    HW230543   0.064   3.073   1.941 -0.4669 -0.2238  0.5138
 6362SOL     OW30544   1.099   2.057  16.717  0.1808 -0.0806 -0.3416
 6362SOL    HW130545   1.076   1.978  16.765  1.5171 -1.1797 -1.4861
 6362SOL    HW230546   1.117   2.127  16.780  0.6009 -0.2774 -0.2391
 6363SOL     OW30547   0.247   1.189   8.951 -0.2616  0.2672  0.5022
 6363SOL    HW130548   0.305   1.199   9.026  1.3713 -1.7728 -0.4923
 6363SOL    HW230549   0.198   1.112   8.980 -0.1496  0.7767  2.0512
 6364SOL     OW30550   0.168   0.273   5.322 -0.0701  0.3632 -0.7346
 6364SOL    HW130551   0.168   0.177   5.322 -0.5570  0.3695 -2.2569
 6364SOL    HW230552   0.255   0.288   5.285  1.1780 -4.4349  0.1473
 6365SOL     OW30553   4.643   0.754  16.268 -0.0121 -0.1965  0.4139
 6365SOL    HW130554   4.557   0.759  16.225 -0.0955  2.8146  0.9187
 6365SOL    HW230555   4.616   0.703  16.345  1.7421  0.6083  1.5752
 6366SOL     OW30556   1.753   1.774   2.585 -0.0640 -0.2502 -0.1516
 6366SOL    HW130557   1.732   1.737   2.671 -0.6333 -0.8706 -0.5560
 6366SOL    HW230558   1.816   1.846   2.592 -3.6528  2.9930 -1.0739
 6367SOL     OW30559   1.168   1.748   3.834  0.9483  0.2032 -0.1248
 6367SOL    HW130560   1.129   1.661   3.832  1.6573 -0.1665  2.1915
 6367SOL    HW230561   1.119   1.795   3.767 -0.3965 -0.6707  0.2528
 6368SOL     OW30562   3.536   4.542   3.611  0.7657  0.0092 -0.0750
 6368SOL    HW130563   3.621   4.574   3.581  0.0720  0.8325 -1.2062
 6368SOL    HW230564   3.502   4.496   3.534 -2.2103  0.0960  1.1910
 6369SOL     OW30565   0.624   3.086   2.788 -0.1814 -0.6093  0.5499
 6369SOL    HW130566   0.577   3.011   2.825 -0.8422  0.0056  0.9852
 6369SOL    HW230567   0.567   3.116   2.717 -0.5793 -2.0461  0.2690
 6370SOL     OW30568   0.195   1.815   1.203 -0.0013  0.3376  0.0589
 6370SOL    HW130569   0.276   1.860   1.227 -0.4879  1.3684 -0.2742
 6370SOL    HW230570   0.174   1.794   1.295  1.6420  1.3393  0.6525
 6371SOL     OW30571   0.106   0.248   7.480 -0.6089  0.4602 -0.4594
 6371SOL    HW130572   0.139   0.180   7.538 -3.0036 -1.3338 -1.1996
 6371SOL    HW230573   0.058   0.200   7.412 -1.5194 -2.2380  2.0816
 6372SOL     OW30574   4.104   2.302   9.169  0.0407 -0.9536  0.1191
 6372SOL    HW130575   4.013   2.274   9.183  0.3164 -2.4962 -1.0715
 6372SOL    HW230576   4.121   2.357   9.245 -0.6979  0.1590 -0.5154
 6373SOL     OW30577   3.024   3.730   5.665  0.2953 -0.0330  0.1490
 6373SOL    HW130578   3.083   3.687   5.727  0.0975 -1.5523 -0.6932
 6373SOL    HW230579   2.961   3.764   5.728  2.1852 -2.2293  3.2272
 6374SOL     OW30580   2.630   2.030   6.607  0.2922 -0.0391 -0.1351
 6374SOL    HW130581   2.697   2.095   6.586  0.3054 -0.8191 -2.5540
 6374SOL    HW230582   2.623   2.062   6.696  0.0469  0.4858 -0.3440
 6375SOL     OW30583   0.210   0.454   5.572  0.0374 -0.0082  0.6595
 6375SOL    HW130584   0.216   0.396   5.496  1.2188  1.2867 -0.2068
 6375SOL    HW230585   0.160   0.526   5.534  0.5931  0.4641  0.8309
 6376SOL     OW30586   1.524   3.749  13.301 -0.4403  0.1046 -0.4526
 6376SOL    HW130587   1.581   3.698  13.359 -1.5293 -1.0085 -0.3692
 6376SOL    HW230588   1.585   3.769  13.230  1.1013  1.4813  1.2755
 6377SOL     OW30589   4.369   1.993   4.419  0.1027 -0.0429 -0.2161
 6377SOL    HW130590   4.376   1.979   4.514 -0.5788 -0.9907 -0.3133
 6377SOL    HW230591   4.287   2.042   4.413  0.6377  1.0255  1.1380
 6378SOL     OW30592   0.946   1.608   2.628  0.2575 -0.3602 -0.1044
 6378SOL    HW130593   0.970   1.694   2.594 -0.0380 -0.2064  0.0774
 6378SOL    HW230594   0.861   1.605   2.584 -0.3349 -0.2827  1.0318
 6379SOL     OW30595   0.238   1.650  14.808 -0.1637  0.4932  0.3115
 6379SOL    HW130596   0.245   1.672  14.716  1.9003 -2.0846 -0.1637
 6379SOL    HW230597   0.186   1.724  14.838  0.0817  1.1297 -0.8729
 6380SOL     OW30598   2.243   0.785  15.279 -0.0603  0.0946  0.4015
 6380SOL    HW130599   2.282   0.868  15.252 -0.1204  0.4235  1.3064
 6380SOL    HW230600   2.319   0.728  15.276 -1.2114 -1.4919  1.0001
 6381SOL     OW30601   3.634   1.104  17.126 -0.3459  0.2507  0.2764
 6381SOL    HW130602   3.540   1.119  17.113 -0.3930  0.5674  0.9739
 6381SOL    HW230603   3.652   1.181  17.180 -0.6312  1.1816 -0.9632
 6382SOL     OW30604   0.241   4.142   6.410  0.7181 -0.0877 -0.1121
 6382SOL    HW130605   0.320   4.100   6.376  0.1857  0.1072 -1.6205
 6382SOL    HW230606   0.198   4.070   6.455  1.3441  0.7517  1.8074
 6383SOL     OW30607   0.882   1.545  15.472 -0.2817 -0.1234  0.1384
 6383SOL    HW130608   0.807   1.604  15.486 -2.0214 -2.4677  0.7235
 6383SOL    HW230609   0.951   1.593  15.427  0.3202 -0.1935  0.9861
 6384SOL     OW30610   3.965   4.709  13.854 -0.0939 -0.3716 -0.0155
 6384SOL    HW130611   3.953   4.682  13.763 -2.7637  0.2433  0.1532
 6384SOL    HW230612   3.961   0.079  13.832 -0.6719 -0.4960 -0.4393
 6385SOL     OW30613   0.054   0.657   0.982  0.3909  0.3298  0.3038
 6385SOL    HW130614   4.685   0.638   0.964  0.2719  1.4667 -0.3209
 6385SOL    HW230615   0.067   0.612   1.065  0.7031  0.7825  0.5023
 6386SOL     OW30616   0.225   1.016  15.490 -0.2261 -0.0189  0.4453
 6386SOL    HW130617   0.231   1.055  15.577  1.1258  0.0312  0.3384
 6386SOL    HW230618   0.306   1.039  15.445 -0.2797 -0.1591  0.2763
 6387SOL     OW30619   3.033   4.235  16.608  0.1676  0.2938 -0.0918
 6387SOL    HW130620   3.099   4.300  16.584 -0.4935  0.8741 -0.3287
 6387SOL    HW230621   2.981   4.231  16.527 -0.5533 -1.1899  0.4415
 6388SOL     OW30622   2.344   3.640   8.662  0.2568  0.4524  0.3188
 6388SOL    HW130623   2.416   3.593   8.704  0.2596  1.1821  1.1391
 6388SOL    HW230624   2.348   3.722   8.712 -0.3429  0.9102 -0.3894
 6389SOL     OW30625   2.523   2.200   1.766 -0.3071 -0.5215  0.3535
 6389SOL    HW130626   2.533   2.294   1.750  0.2178 -0.5783  0.3398
 6389SOL    HW230627   2.451   2.181   1.706 -0.5929  1.5390  0.0115
 6390SOL     OW30628   0.751   0.134  16.776 -0.4547 -0.0702 -0.0407
 6390SOL    HW130629   0.741   0.228  16.789  0.1264  0.1400 -1.1435
 6390SOL    HW230630   0.670   0.105  16.733 -1.0466  4.0889 -1.7229
 6391SOL     OW30631   1.568   2.487   2.963 -0.2214 -0.1016 -0.1677
 6391SOL    HW130632   1.551   2.470   2.870 -0.5457 -0.7385  0.0095
 6391SOL    HW230633   1.635   2.424   2.986 -1.0457 -1.1590 -0.6557
 6392SOL     OW30634   0.044   2.397  10.931  0.0480  0.2548  0.0075
 6392SOL    HW130635   4.717   2.464  10.887  2.2161  0.2424 -2.4721
 6392SOL    HW230636   0.127   2.443  10.918  0.0127 -0.1172 -1.5180
 6393SOL     OW30637   4.208   4.536   9.171 -0.7158 -0.0038 -0.2253
 6393SOL    HW130638   4.253   4.554   9.088  1.2245  0.3725  0.9102
 6393SOL    HW230639   4.143   4.606   9.165 -0.6714  0.3188  3.1465
 6394SOL     OW30640   1.175   3.646   4.960  0.1787 -0.2429 -0.2406
 6394SOL    HW130641   1.123   3.576   4.921  1.2178 -1.0546 -0.1594
 6394SOL    HW230642   1.255   3.595   4.976  1.3131  1.9209  0.9623
 6395SOL     OW30643   0.085   1.084   3.715  0.7024 -0.4201 -0.6946
 6395SOL    HW130644   0.003   1.042   3.691 -0.8127  0.8615  2.2022
 6395SOL    HW230645   0.074   1.089   3.810 -0.9202 -0.5174 -0.8763
 6396SOL     OW30646   2.310   2.127  16.896  0.4619  0.3256  0.9925
 6396SOL    HW130647   2.329   2.144  16.803 -0.2133 -0.8510  0.6402
 6396SOL    HW230648   2.236   2.067  16.887 -0.6630  1.7258  0.9635
 6397SOL     OW30649   4.138   2.970   6.281 -0.1629  0.2956 -0.6812
 6397SOL    HW130650   4.191   3.030   6.229 -0.2085  2.1793  1.4567
 6397SOL    HW230651   4.097   2.931   6.204  0.1341  0.3609 -0.8693
 6398SOL     OW30652   0.771   0.422  13.969  0.1936 -0.1611  0.1157
 6398SOL    HW130653   0.706   0.486  13.943 -0.3045 -0.8268 -0.2618
 6398SOL    HW230654   0.831   0.481  14.015  0.4804 -1.9873  2.0916
 6399SOL     OW30655   3.719   1.268   2.262  0.4525  0.1483 -0.4204
 6399SOL    HW130656   3.721   1.351   2.215  1.6631  0.5299  0.3152
 6399SOL    HW230657   3.692   1.303   2.346  0.7028 -2.8589  0.9233
 6400SOL     OW30658   1.546   4.450   5.222 -0.1938 -0.2286  0.0169
 6400SOL    HW130659   1.610   4.378   5.226 -1.5436 -1.4413 -0.3407
 6400SOL    HW230660   1.484   4.424   5.290 -0.6195  0.3333 -0.1644
 6401SOL     OW30661   3.871   2.386   2.043  0.3438 -0.2339 -0.3832
 6401SOL    HW130662   3.909   2.429   1.967  1.3992  0.4366  0.5372
 6401SOL    HW230663   3.796   2.351   1.994  1.2685  0.6285 -2.4126
 6402SOL     OW30664   1.770   4.097   9.112  0.5175 -0.6982 -0.5506
 6402SOL    HW130665   1.680   4.116   9.138  0.6133 -0.9122 -0.0673
 6402SOL    HW230666   1.785   4.014   9.156  3.9347  0.1016 -0.1801
 6403SOL     OW30667   1.433   0.674   5.254 -0.4067  0.1675  0.0711
 6403SOL    HW130668   1.485   0.618   5.198  0.1230  1.4215 -0.6729
 6403SOL    HW230669   1.494   0.672   5.328  2.1803  1.8297 -2.0172
 6404SOL     OW30670   0.751   2.568  13.486 -0.0444 -0.1686  1.0980
 6404SOL    HW130671   0.688   2.519  13.433 -0.5228  0.8322  0.7386
 6404SOL    HW230672   0.732   2.525  13.569 -2.5595 -1.2391 -0.0417
 6405SOL     OW30673   0.756   1.522   2.389 -0.2888  0.1291 -0.0834
 6405SOL    HW130674   0.766   1.476   2.473  1.1650  1.7903  0.6544
 6405SOL    HW230675   0.664   1.506   2.371  0.3669 -1.8880 -1.6144
 6406SOL     OW30676   0.012   1.495   0.863  0.1187  0.4706  0.2317
 6406SOL    HW130677   0.084   1.528   0.916  0.0249  1.6386 -0.3560
 6406SOL    HW230678   4.670   1.563   0.881 -1.3699 -0.6731 -0.8012
 6407SOL     OW30679   3.480   1.832  15.775  0.3927  0.3685  0.3727
 6407SOL    HW130680   3.447   1.838  15.686 -0.1820 -0.0112  0.5605
 6407SOL    HW230681   3.499   1.923  15.800 -0.3215  0.0782  1.9785
 6408SOL     OW30682   1.963   4.315   6.381 -0.0397 -0.0923  0.0618
 6408SOL    HW130683   1.898   4.373   6.420  1.3245  1.9286 -0.7127
 6408SOL    HW230684   2.006   4.387   6.335  0.8438 -0.9244 -0.4369
 6409SOL     OW30685   1.780   2.318   9.950 -0.0084 -0.7406  0.6911
 6409SOL    HW130686   1.727   2.280   9.880 -1.4538  0.8031  0.9662
 6409SOL    HW230687   1.857   2.264   9.935 -0.9967 -1.9157 -0.0859
 6410SOL     OW30688   3.024   4.185   1.779 -0.2212  0.2766  0.3433
 6410SOL    HW130689   3.114   4.152   1.779  0.2706  1.5927 -0.8846
 6410SOL    HW230690   2.977   4.102   1.787  0.0248  0.1406  0.3544
 6411SOL     OW30691   2.489   4.392   8.963 -0.0542 -0.1590  0.5492
 6411SOL    HW130692   2.499   4.419   9.055 -0.3278 -0.0151  0.5358
 6411SOL    HW230693   2.397   4.367   8.962 -0.0904  0.0499 -2.3036
 6412SOL     OW30694   4.219   1.336  17.368 -0.3283 -0.0974  0.0792
 6412SOL    HW130695   4.244   1.403  17.304  1.0238 -1.6673 -1.0536
 6412SOL    HW230696   4.165   1.388  17.428  0.2962 -1.5568  1.9111
 6413SOL     OW30697   4.583   4.521  10.697 -0.2257  0.2900  0.7204
 6413SOL    HW130698   4.545   4.571  10.625  0.5624  0.4387  0.4055
 6413SOL    HW230699   4.512   4.534  10.760 -0.0675  1.0624  0.7451
 6414SOL     OW30700   2.369   1.473   2.507 -0.5309  0.0082 -0.0821
 6414SOL    HW130701   2.378   1.379   2.492 -0.5348  0.0973 -0.6300
 6414SOL    HW230702   2.401   1.509   2.425 -1.2970 -3.4501 -1.8996
 6415SOL     OW30703   1.569   0.959   4.320 -0.0571 -0.3640  0.5610
 6415SOL    HW130704   1.512   0.956   4.397  0.8156  2.3434  1.3156
 6415SOL    HW230705   1.514   0.976   4.244 -0.4204 -3.8544  0.0472
 6416SOL     OW30706   0.672   4.648   2.790 -0.5893 -0.3274 -0.3226
 6416SOL    HW130707   0.659   4.561   2.828  1.3146 -0.5180 -0.1233
 6416SOL    HW230708   0.668   4.626   2.697 -0.5221 -1.0842 -0.1531
 6417SOL     OW30709   0.568   0.859   4.348  0.3148 -0.6250 -0.1332
 6417SOL    HW130710   0.643   0.818   4.391  1.5127  0.3223 -1.2878
 6417SOL    HW230711   0.603   0.948   4.345 -0.1912 -0.5011 -2.3421
 6418SOL     OW30712   4.161   4.503   5.420  0.9352  0.3316 -0.5416
 6418SOL    HW130713   4.178   4.546   5.335  0.9378 -1.5762 -1.4937
 6418SOL    HW230714   4.171   4.413   5.391  0.6223 -0.0164  0.4619
 6419SOL     OW30715   1.485   3.196   0.810  0.2922  0.3304  0.7586
 6419SOL    HW130716   1.465   3.285   0.780  0.6142  0.0446 -0.3055
 6419SOL    HW230717   1.547   3.212   0.882  0.0330  0.9434  0.8499
 6420SOL     OW30718   4.274   4.042   9.176  0.1004  0.1691 -0.1670
 6420SOL    HW130719   4.278   4.096   9.255  1.4498 -1.0664  0.5906
 6420SOL    HW230720   4.228   3.964   9.206 -0.8320  0.7204 -0.1570
 6421SOL     OW30721   2.481   1.673  17.389 -0.0937  0.5686 -0.4933
 6421SOL    HW130722   2.472   1.707  17.300  1.2350 -0.5038 -1.0384
 6421SOL    HW230723   2.518   1.585  17.379  0.9671  0.9596 -0.0816
 6422SOL     OW30724   3.199   0.609   5.591  0.6068 -0.0155  0.2348
 6422SOL    HW130725   3.206   0.657   5.509  1.3304 -0.2957  0.1405
 6422SOL    HW230726   3.240   0.669   5.654 -0.6151  0.3587  0.6731
 6423SOL     OW30727   1.763   0.940   2.015  0.0523  0.0843 -0.4749
 6423SOL    HW130728   1.774   0.908   2.105  1.8578  1.9282 -0.0304
 6423SOL    HW230729   1.856   0.946   1.995  0.3317  1.1580  1.1364
 6424SOL     OW30730   2.449   3.405  13.096  0.1662 -0.2064  0.0134
 6424SOL    HW130731   2.531   3.402  13.146 -0.0194 -0.1865  0.3177
 6424SOL    HW230732   2.458   3.485  13.045  1.4455  0.2259  0.9183
 6425SOL     OW30733   1.750   0.947   6.799  0.1049 -0.9044 -0.0591
 6425SOL    HW130734   1.690   0.882   6.837 -2.4834  0.1030 -2.3739
 6425SOL    HW230735   1.782   0.992   6.877  1.2806  0.6646 -1.4434
 6426SOL     OW30736   1.945   1.788   7.586 -0.2408  0.1069 -0.6632
 6426SOL    HW130737   1.980   1.824   7.668  2.3042 -1.3059 -1.1520
 6426SOL    HW230738   1.851   1.797   7.601  0.0564  1.0826  0.5890
 6427SOL     OW30739   1.218   1.409   9.085 -0.0477 -0.5742 -0.1395
 6427SOL    HW130740   1.137   1.387   9.039  0.6793 -1.1696 -1.1322
 6427SOL    HW230741   1.214   1.500   9.112 -0.8801 -0.7515  0.3189
 6428SOL     OW30742   0.827   1.579  16.895 -0.2207  0.0613 -0.4221
 6428SOL    HW130743   0.898   1.521  16.923 -0.2886  0.1668 -0.0306
 6428SOL    HW230744   0.820   1.556  16.802 -0.1061 -0.0175 -0.4116
 6429SOL     OW30745   1.327   2.115   7.689 -0.1403  0.1578 -0.3493
 6429SOL    HW130746   1.327   2.210   7.702 -5.4155  0.2007 -0.4135
 6429SOL    HW230747   1.250   2.109   7.633  0.0880  0.2593 -0.6688
 6430SOL     OW30748   2.426   2.985   6.670  0.4366  0.2863  0.2407
 6430SOL    HW130749   2.470   2.913   6.715 -0.8341 -0.6990 -0.1227
 6430SOL    HW230750   2.514   3.011   6.642  0.8346  0.6934  1.8395
 6431SOL     OW30751   3.134   2.102  10.315  0.2352  0.1344  0.7545
 6431SOL    HW130752   3.134   2.031  10.380 -0.6919 -0.1012  0.4859
 6431SOL    HW230753   3.074   2.068  10.249  0.6031 -1.8208  1.4295
 6432SOL     OW30754   4.010   2.105   2.852  0.5908  0.1037 -0.8028
 6432SOL    HW130755   4.042   2.113   2.762 -0.1277 -3.7719 -1.3939
 6432SOL    HW230756   3.952   2.181   2.862 -1.6561 -1.5492 -1.2786
 6433SOL     OW30757   2.621   3.797   0.566 -0.2354 -0.1193 -0.1531
 6433SOL    HW130758   2.529   3.776   0.556  0.0991 -1.8179  0.2748
 6433SOL    HW230759   2.658   3.731   0.507  0.7898 -0.0875  0.4385
 6434SOL     OW30760   0.919   3.744  11.931  0.5751 -0.1834  0.1649
 6434SOL    HW130761   0.827   3.733  11.909  0.9986 -2.4405 -0.4884
 6434SOL    HW230762   0.960   3.680  11.873  0.4786 -0.0470 -0.0534
 6435SOL     OW30763   1.317   3.989   8.120  0.1815 -0.0394  0.4593
 6435SOL    HW130764   1.296   4.036   8.039  1.9759  0.3764  0.2146
 6435SOL    HW230765   1.410   4.007   8.135  0.0989  0.2973  0.5915
 6436SOL     OW30766   1.849   3.125   8.486  0.1016 -0.8485  0.2967
 6436SOL    HW130767   1.836   3.188   8.415  1.1175 -1.0701 -0.0843
 6436SOL    HW230768   1.863   3.194   8.551  0.6814 -1.5455  0.9042
 6437SOL     OW30769   0.581   3.338   8.741 -0.3575 -0.1326  0.4762
 6437SOL    HW130770   0.522   3.268   8.768 -0.4744 -1.1587 -2.4670
 6437SOL    HW230771   0.663   3.295   8.715 -0.0777 -0.2291  1.5189
 6438SOL     OW30772   1.282   1.863   2.396 -0.2266 -0.2520  1.3562
 6438SOL    HW130773   1.322   1.788   2.440  0.2358 -0.8187 -0.0432
 6438SOL    HW230774   1.194   1.826   2.384  0.3285 -0.8710 -0.6931
 6439SOL     OW30775   0.378   1.947   0.025 -0.1380 -0.0543  0.3518
 6439SOL    HW130776   0.403   1.957  17.630  2.7562  0.3004  1.1956
 6439SOL    HW230777   0.285   1.927   0.011 -0.1737  0.6244 -0.3395
 6440SOL     OW30778   4.061   1.259   3.332 -0.1522  0.0455 -0.0451
 6440SOL    HW130779   4.004   1.329   3.363  1.8092  2.0644 -1.0379
 6440SOL    HW230780   3.988   1.218   3.285 -0.7177  1.2707 -0.2358
 6441SOL     OW30781   3.745   0.896  17.012  0.2889 -0.0660 -0.2548
 6441SOL    HW130782   3.707   0.975  17.049 -0.1036 -1.8774  3.2096
 6441SOL    HW230783   3.682   0.829  17.037  0.7152 -0.2050  0.4403
 6442SOL     OW30784   0.687   2.046  16.695 -0.2743 -0.0635 -0.3995
 6442SOL    HW130785   0.713   1.974  16.752 -0.5472 -0.8591 -1.2996
 6442SOL    HW230786   0.752   2.039  16.625 -1.4045 -0.5452 -1.3868
 6443SOL     OW30787   3.318   3.453   0.632  0.3463 -0.2732 -0.4121
 6443SOL    HW130788   3.346   3.540   0.660 -0.1483 -0.4988  0.7459
 6443SOL    HW230789   3.243   3.480   0.578  0.9226  2.2531  0.0599
 6444SOL     OW30790   2.969   3.564   2.923  0.0636  0.1543  0.0015
 6444SOL    HW130791   3.059   3.584   2.950 -0.9610  0.7769  3.0239
 6444SOL    HW230792   2.914   3.641   2.939 -0.1785  0.4162 -2.1333
 6445SOL     OW30793   1.464   2.675  14.523  0.3711 -0.0265  0.1939
 6445SOL    HW130794   1.392   2.737  14.525 -1.0527 -1.7037  1.3827
 6445SOL    HW230795   1.489   2.658  14.432 -1.8912  0.8069 -0.5859
 6446SOL     OW30796   4.534   2.594  12.291 -0.3162  0.1597  0.5637
 6446SOL    HW130797   4.555   2.661  12.226  1.0018  0.6119  1.4467
 6446SOL    HW230798   4.502   2.514  12.249  1.1012 -1.5179  2.6337
 6447SOL     OW30799   0.708   4.634   1.361  0.1905  0.2349 -0.2123
 6447SOL    HW130800   0.715   4.555   1.307  1.5304  0.4338 -0.3375
 6447SOL    HW230801   0.801   4.651   1.373 -0.0530  0.8466  0.8334
 6448SOL     OW30802   3.342   1.195   4.229  0.0140  0.0072 -0.1487
 6448SOL    HW130803   3.410   1.195   4.296  0.1635  1.7565 -0.2863
 6448SOL    HW230804   3.310   1.105   4.224  1.6128 -0.5581 -0.0511
 6449SOL     OW30805   3.477   4.632  10.251  0.7884 -0.0586 -0.1181
 6449SOL    HW130806   3.389   4.602  10.229  0.3236  2.1380 -1.3230
 6449SOL    HW230807   3.495   4.703  10.189 -2.4006  0.6684 -0.2071
 6450SOL     OW30808   2.937   0.800  10.852 -0.6627  0.2533 -0.2741
 6450SOL    HW130809   2.844   0.806  10.829 -0.2653 -1.3232 -2.2750
 6450SOL    HW230810   2.948   0.882  10.899 -2.0335  0.6696 -0.6703
 6451SOL     OW30811   2.248   3.622  16.298 -0.2441 -0.0669 -0.2531
 6451SOL    HW130812   2.272   3.712  16.273  2.6296 -0.0217  2.7055
 6451SOL    HW230813   2.296   3.619  16.381  4.0380 -1.9084 -2.8458
 6452SOL     OW30814   1.904   4.624  16.813  0.0737 -0.2783 -0.2405
 6452SOL    HW130815   1.930   4.585  16.730 -1.0262 -0.1720 -0.6237
 6452SOL    HW230816   1.829   4.572  16.841  0.2317  1.5540  3.6136
 6453SOL     OW30817   0.670   1.721  17.247  0.0948  0.2391 -0.9744
 6453SOL    HW130818   0.586   1.711  17.293  1.6086 -0.7354  1.5680
 6453SOL    HW230819   0.664   1.636  17.204 -2.0232  0.9610 -2.1077
 6454SOL     OW30820   1.107   4.620   6.800  0.3243  0.2468  0.0897
 6454SOL    HW130821   1.077   4.530   6.786  1.8774 -0.3786  0.8448
 6454SOL    HW230822   1.078   4.636   6.890  0.0313 -1.2080  0.2541
 6455SOL     OW30823   1.036   2.884  12.186 -0.2027  0.5114  0.0464
 6455SOL    HW130824   1.073   2.961  12.144 -0.2596 -0.2878 -1.4657
 6455SOL    HW230825   1.057   2.895  12.279  1.3610  3.2225 -0.6250
 6456SOL     OW30826   1.473   0.650   7.690 -0.1019  0.0334  0.4599
 6456SOL    HW130827   1.465   0.736   7.648 -0.4143  0.3717  1.2169
 6456SOL    HW230828   1.462   0.595   7.612  1.3294  0.0639  0.2273
 6457SOL     OW30829   2.407   2.425   2.488 -0.2458 -0.1348  0.3235
 6457SOL    HW130830   2.325   2.377   2.478 -0.0432 -0.0205 -1.9459
 6457SOL    HW230831   2.443   2.393   2.570 -0.8012  1.2429  1.1013
 6458SOL     OW30832   1.401   0.323  16.821  0.3713  0.1849 -0.2321
 6458SOL    HW130833   1.321   0.308  16.770  0.1466  1.6977 -0.3295
 6458SOL    HW230834   1.453   0.245  16.806 -1.9865 -1.3427 -0.5194
 6459SOL     OW30835   0.902   0.938   8.322  0.2221 -0.1477  0.2721
 6459SOL    HW130836   0.852   0.864   8.287  1.1960  0.4027 -2.3381
 6459SOL    HW230837   0.901   0.910   8.413  2.1535  0.6953  0.5497
 6460SOL     OW30838   2.031   2.903  12.175 -0.2737  0.1049  0.7279
 6460SOL    HW130839   2.008   2.816  12.206 -2.4655  0.4203  0.0284
 6460SOL    HW230840   2.025   2.955  12.256  0.2006  0.7609  0.3411
 6461SOL     OW30841   4.417   2.928   2.934 -0.6953 -0.2395  0.1583
 6461SOL    HW130842   4.394   2.954   2.845 -1.5409 -3.8810 -0.7176
 6461SOL    HW230843   4.456   2.841   2.920  0.1692  0.3403 -1.0302
 6462SOL     OW30844   3.161   3.551   0.988 -0.1356 -0.1363  0.0582
 6462SOL    HW130845   3.157   3.646   0.985  1.5248 -0.0773 -0.4015
 6462SOL    HW230846   3.250   3.537   1.023  0.5966 -0.1689 -1.8430
 6463SOL     OW30847   0.900   4.130  11.426  0.0733  0.0802 -0.6225
 6463SOL    HW130848   0.819   4.077  11.420  0.2436 -0.1412 -1.0363
 6463SOL    HW230849   0.934   4.089  11.505 -2.0763  2.0464  1.2907
 6464SOL     OW30850   4.281   1.049   8.516 -0.1108  0.6254 -0.2841
 6464SOL    HW130851   4.199   1.018   8.476 -0.4170 -0.7908  1.4160
 6464SOL    HW230852   4.268   0.996   8.595  0.9033  1.8474  0.6943
 6465SOL     OW30853   2.849   4.227   7.375 -0.1827  0.0891  0.1317
 6465SOL    HW130854   2.754   4.224   7.375 -0.2143  1.2327  0.3497
 6465SOL    HW230855   2.870   4.170   7.301  2.5666  3.4839 -1.6912
 6466SOL     OW30856   3.095   0.564   7.107 -0.0692 -0.1883 -0.3616
 6466SOL    HW130857   3.183   0.602   7.114  0.4430 -1.6917  1.4195
 6466SOL    HW230858   3.089   0.567   7.012 -2.2993  0.5838 -0.1786
 6467SOL     OW30859   2.792   3.821   2.950  0.3101  0.5428  0.0969
 6467SOL    HW130860   2.840   3.900   2.923 -0.1862  0.0275 -2.2793
 6467SOL    HW230861   2.774   3.796   2.860 -1.0484 -0.4379  0.6454
 6468SOL     OW30862   1.546   4.696   1.013 -0.0353  0.6208  0.1235
 6468SOL    HW130863   1.535   4.617   0.959  2.2307  0.8909 -0.7322
 6468SOL    HW230864   1.637   4.686   1.040 -0.4666 -0.6778  1.0854
 6469SOL     OW30865   1.268   2.233   6.874  0.0759  0.3820 -0.2159
 6469SOL    HW130866   1.262   2.328   6.865  2.0585  0.5796  0.7226
 6469SOL    HW230867   1.358   2.218   6.846  1.1387  3.2853  1.6763
 6470SOL     OW30868   4.597   4.060  17.571 -0.3739  0.4117  0.5650
 6470SOL    HW130869   4.618   4.140  17.619 -3.3195  2.1595 -1.0419
 6470SOL    HW230870   4.535   4.017  17.630 -0.4822  0.5463  0.5496
 6471SOL     OW30871   4.332   2.432  12.848 -0.1534 -0.3256  0.4505
 6471SOL    HW130872   4.294   2.519  12.837 -0.0911 -0.3880 -0.2213
 6471SOL    HW230873   4.249   2.385  12.857  0.1564 -0.4255  2.7626
 6472SOL     OW30874   0.065   3.172   4.927  0.4806 -0.2710 -0.1832
 6472SOL    HW130875   0.117   3.179   4.847 -0.3489 -0.6780 -0.7594
 6472SOL    HW230876   4.713   3.222   4.895  1.1405  0.8672  0.0387
 6473SOL     OW30877   1.137   0.758   5.118  0.5561 -0.3711  0.0585
 6473SOL    HW130878   1.161   0.698   5.048  1.9489  0.8289 -0.4792
 6473SOL    HW230879   1.149   0.840   5.070  0.8585 -0.8191 -0.6230
 6474SOL     OW30880   4.599   0.847  12.777 -1.0791  0.1824 -0.2214
 6474SOL    HW130881   4.555   0.776  12.825 -2.2152  0.6569 -0.5768
 6474SOL    HW230882   4.686   0.836  12.815  0.0477  1.1181 -2.5519
 6475SOL     OW30883   4.272   1.389   3.716  0.0217  0.0956 -1.0595
 6475SOL    HW130884   4.219   1.320   3.676 -0.9099  0.0471  0.2632
 6475SOL    HW230885   4.358   1.348   3.712  0.5190  1.0454 -0.1613
 6476SOL     OW30886   0.819   3.246  10.411 -0.1236 -0.3221 -0.6558
 6476SOL    HW130887   0.842   3.155  10.432  0.2595  0.3012  1.6996
 6476SOL    HW230888   0.757   3.225  10.342  0.2888  2.0380 -1.7458
 6477SOL     OW30889   0.962   2.374  10.426  1.2110 -0.0245  0.2184
 6477SOL    HW130890   0.964   2.453  10.481  1.6627 -0.3541  0.6770
 6477SOL    HW230891   1.053   2.349  10.413  1.0230 -0.7825  0.3746
 6478SOL     OW30892   3.532   2.798   4.944 -0.4416 -0.1769  0.3803
 6478SOL    HW130893   3.538   2.726   4.881  1.6858 -2.4644  3.1916
 6478SOL    HW230894   3.441   2.825   4.930  0.0037 -1.0858 -4.0804
 6479SOL     OW30895   4.510   0.517  12.127 -0.2312  0.0128  0.4816
 6479SOL    HW130896   4.480   0.587  12.069 -0.7951 -0.7880 -0.2094
 6479SOL    HW230897   4.429   0.466  12.124  0.1564 -0.6121  0.6644
 6480SOL     OW30898   3.407   3.210  12.231 -0.7544  0.2147  0.3142
 6480SOL    HW130899   3.500   3.227  12.220 -0.3183 -1.6684  1.0706
 6480SOL    HW230900   3.408   3.123  12.191  2.0029 -0.5042  2.0136
 6481SOL     OW30901   0.659   2.443  10.352  0.4529 -0.7382  0.4167
 6481SOL    HW130902   0.719   2.448  10.426 -0.2624  1.3965  0.8566
 6481SOL    HW230903   0.695   2.513  10.296 -1.5535 -0.7086 -0.8440
 6482SOL     OW30904   0.969   1.479   8.552 -0.4392  0.0377 -0.0175
 6482SOL    HW130905   0.914   1.403   8.530  1.4766 -0.9959 -1.1640
 6482SOL    HW230906   1.031   1.442   8.615 -2.0160 -1.3002  0.7682
 6483SOL     OW30907   1.126   0.087   3.192 -0.1537 -0.5555  0.2285
 6483SOL    HW130908   1.209   0.068   3.147 -0.0187  0.4446  0.0650
 6483SOL    HW230909   1.146   0.137   3.270  1.3533  0.4135 -0.7850
 6484SOL     OW30910   1.896   0.737   7.532 -0.4986  0.2873  0.2396
 6484SOL    HW130911   1.822   0.696   7.487  0.4897 -0.6293 -0.5572
 6484SOL    HW230912   1.858   0.820   7.560 -2.9101 -0.6983 -0.0744
 6485SOL     OW30913   0.098   0.817   0.363 -0.3278 -0.0380 -0.3065
 6485SOL    HW130914   0.017   0.846   0.404 -1.9383 -2.8218 -1.5716
 6485SOL    HW230915   0.156   0.801   0.438  0.2884  3.2349 -0.0666
 6486SOL     OW30916   0.962   2.104   1.672  0.0905  1.2569  0.5095
 6486SOL    HW130917   0.912   2.160   1.732  0.7155  0.8443  1.4242
 6486SOL    HW230918   0.984   2.169   1.606 -1.5630 -1.2618 -2.5319
 6487SOL     OW30919   0.332   3.220  12.110 -0.2527 -0.3886 -0.6008
 6487SOL    HW130920   0.414   3.250  12.150 -0.9393 -1.5248  1.6089
 6487SOL    HW230921   0.370   3.158  12.048 -1.1280 -1.0882 -0.4248
 6488SOL     OW30922   2.689   4.295   9.727  0.1430  1.0721 -0.2545
 6488SOL    HW130923   2.672   4.285   9.820  2.9804  2.1453  0.3781
 6488SOL    HW230924   2.772   4.343   9.722 -0.7954  2.8662  1.2227
 6489SOL     OW30925   2.531   3.963   8.119 -0.5513  0.1316  0.7170
 6489SOL    HW130926   2.456   3.906   8.133 -1.3578  1.5050  1.9922
 6489SOL    HW230927   2.608   3.917   8.153  0.0652  1.8298  1.6716
 6490SOL     OW30928   4.016   4.436  10.736  0.4558  0.2990 -0.0367
 6490SOL    HW130929   4.057   4.460  10.818  2.7203 -2.2861 -0.3882
 6490SOL    HW230930   4.078   4.371  10.702 -0.3548 -0.1272 -0.7024
 6491SOL     OW30931   4.593   2.590   6.770 -0.2966  0.1572 -0.1469
 6491SOL    HW130932   4.600   2.519   6.707  0.3184 -1.8278  2.1848
 6491SOL    HW230933   4.531   2.548   6.830 -0.8181 -0.4715 -1.1111
 6492SOL     OW30934   4.502   2.382  17.571  0.1124 -0.2366  0.0867
 6492SOL    HW130935   4.543   2.300  17.544  2.4312  0.2532  2.1640
 6492SOL    HW230936   4.533   2.433  17.496  1.3002 -2.0538 -0.6354
 6493SOL     OW30937   0.278   0.654   2.888  0.4525  0.0599 -0.5138
 6493SOL    HW130938   0.300   0.605   2.808  1.2276  0.0563 -0.2878
 6493SOL    HW230939   0.208   0.600   2.926  0.9797  0.0325  0.4132
 6494SOL     OW30940   4.330   1.699   9.716 -0.4816 -0.4764 -0.5577
 6494SOL    HW130941   4.237   1.696   9.739 -0.3870 -0.9775 -0.2314
 6494SOL    HW230942   4.355   1.777   9.765 -0.1686  0.7095 -2.5953
 6495SOL     OW30943   0.421   0.718   3.458 -0.0045 -0.0442 -0.6878
 6495SOL    HW130944   0.474   0.674   3.524 -0.2289  0.3158 -0.2726
 6495SOL    HW230945   0.340   0.734   3.506  0.7784  0.7152  0.3606
 6496SOL     OW30946   2.897   3.471   2.325  0.4371 -0.1524 -0.5249
 6496SOL    HW130947   2.832   3.535   2.351  0.5386 -1.5447  3.0621
 6496SOL    HW230948   2.860   3.445   2.240 -1.9103 -0.6954  0.6756
 6497SOL     OW30949   2.904   4.606  15.057  0.4875  0.1275 -0.2281
 6497SOL    HW130950   2.944   4.519  15.055 -0.9305 -0.5471  1.4913
 6497SOL    HW230951   2.891   4.603  15.152 -1.6090 -1.7952 -0.5780
 6498SOL     OW30952   1.263   0.560  10.441  0.2500  0.2863 -0.1593
 6498SOL    HW130953   1.331   0.623  10.417  0.7356 -0.5713 -1.0325
 6498SOL    HW230954   1.192   0.617  10.469 -0.1386  0.2367 -1.0304
 6499SOL     OW30955   0.884   1.959  14.428  0.3222  0.1433  0.3096
 6499SOL    HW130956   0.961   1.937  14.375  1.1532 -1.2775  2.1310
 6499SOL    HW230957   0.868   1.883  14.484  2.1266 -0.4202  0.0794
 6500SOL     OW30958   0.116   1.418   5.060  0.6519 -0.6495 -0.3481
 6500SOL    HW130959   0.141   1.442   4.971  1.9582 -2.6451 -0.5113
 6500SOL    HW230960   0.121   1.500   5.109  1.5516  0.2541 -1.9736
 6501SOL     OW30961   0.883   2.584  16.102  0.3168  0.0042  0.0974
 6501SOL    HW130962   0.839   2.531  16.168 -1.8078 -0.2762 -1.5600
 6501SOL    HW230963   0.812   2.618  16.048  1.7610  2.5952 -0.1606
 6502SOL     OW30964   4.087   3.002   4.966 -0.2030  0.3709  0.0933
 6502SOL    HW130965   4.023   2.969   4.903  2.1035 -3.0137 -0.4607
 6502SOL    HW230966   4.052   3.082   5.005  0.3000  1.7869 -2.4109
 6503SOL     OW30967   4.445   2.129   8.275  1.0215  0.5596 -1.0543
 6503SOL    HW130968   4.468   2.121   8.368  0.3087  1.3072 -0.8070
 6503SOL    HW230969   4.527   2.112   8.228  0.4501 -0.1213 -1.7879
 6504SOL     OW30970   4.181   2.072   8.249  0.0319 -0.5116  0.5074
 6504SOL    HW130971   4.276   2.058   8.254 -0.1819 -0.9177  3.4282
 6504SOL    HW230972   4.173   2.164   8.276  1.0135 -0.3498  0.2703
 6505SOL     OW30973   0.047   4.045  12.869 -0.3218 -0.2354  0.1385
 6505SOL    HW130974   0.129   4.026  12.914 -0.5658 -0.4817  0.4745
 6505SOL    HW230975   0.074   4.024  12.780 -1.0875  1.3081 -0.4681
 6506SOL     OW30976   0.401   1.298   1.308 -0.1312  0.1084  0.5981
 6506SOL    HW130977   0.364   1.274   1.393 -0.5361 -3.6167 -0.6262
 6506SOL    HW230978   0.455   1.223   1.284  1.4654  2.1339 -2.1547
 6507SOL     OW30979   1.320   4.128   7.374 -0.3110 -0.1050 -0.6219
 6507SOL    HW130980   1.403   4.172   7.388 -1.0778  0.6619  1.6017
 6507SOL    HW230981   1.305   4.071   7.450 -0.6606  0.4818 -0.2434
 6508SOL     OW30982   1.178   3.927   3.617  0.2857  0.2450 -0.3064
 6508SOL    HW130983   1.264   3.947   3.653  1.1538  0.8378 -2.7517
 6508SOL    HW230984   1.170   3.836   3.645 -0.3220 -0.3714 -2.5164
 6509SOL     OW30985   0.608   3.280   7.617  0.2025 -0.0594 -0.8417
 6509SOL    HW130986   0.516   3.286   7.646  0.5273  1.9423 -0.2326
 6509SOL    HW230987   0.635   3.370   7.634  1.8110 -0.6801 -0.1366
 6510SOL     OW30988   4.404   2.761  11.955  0.3120 -0.0767 -0.0441
 6510SOL    HW130989   4.436   2.673  11.935 -0.3043 -0.8673  2.5252
 6510SOL    HW230990   4.319   2.751  11.913  1.0232  1.4365 -1.8620
 6511SOL     OW30991   4.238   0.274   2.631  0.3025 -0.1629  0.3348
 6511SOL    HW130992   4.275   0.269   2.719  0.5029  0.3280  0.2833
 6511SOL    HW230993   4.312   0.251   2.575  0.0566  0.7501 -0.3657
 6512SOL     OW30994   2.210   0.719   2.175 -0.3691  0.1416  0.5791
 6512SOL    HW130995   2.256   0.761   2.102  1.1535 -0.9181  0.9247
 6512SOL    HW230996   2.223   0.627   2.155 -0.2708  0.3399 -0.2620
 6513SOL     OW30997   4.159   2.887   8.294  0.1893  0.9187 -0.0161
 6513SOL    HW130998   4.113   2.971   8.290  0.1474  0.9608  1.5615
 6513SOL    HW230999   4.229   2.898   8.358  1.4466 -0.1718 -1.2014
 6514SOL     OW31000   0.497   1.668  11.131 -0.2991 -0.6815  0.3744
 6514SOL    HW131001   0.417   1.649  11.180 -1.0018 -1.8665 -1.2032
 6514SOL    HW231002   0.555   1.604  11.173 -0.0999 -1.1214 -0.5684
 6515SOL     OW31003   4.516   3.329   6.641 -0.0636  0.3593 -0.2634
 6515SOL    HW131004   4.598   3.340   6.594  0.0903  0.3472  0.0015
 6515SOL    HW231005   4.477   3.249   6.606  2.0429  0.1116 -2.0007
 6516SOL     OW31006   1.534   4.638  10.891 -0.2601  0.0633  0.0562
 6516SOL    HW131007   1.552   0.007  10.874  1.9434 -0.5840 -1.0701
 6516SOL    HW231008   1.441   4.636  10.915  0.0134  0.8895  1.1614
 6517SOL     OW31009   2.904   4.079   3.956 -0.6824 -0.1202 -0.1920
 6517SOL    HW131010   2.813   4.053   3.941 -0.0851 -1.1995 -1.9927
 6517SOL    HW231011   2.937   4.102   3.869  0.8727  0.0491  0.4496
 6518SOL     OW31012   3.639   0.992   1.367  0.4438 -0.1193  0.3648
 6518SOL    HW131013   3.656   0.935   1.292  0.5411  1.7815 -1.0765
 6518SOL    HW231014   3.599   1.066   1.320  0.9304  1.4097  2.3450
 6519SOL     OW31015   3.770   2.192   4.421  0.1714 -0.2199 -0.2566
 6519SOL    HW131016   3.702   2.136   4.382 -0.0215 -1.4419  1.8458
 6519SOL    HW231017   3.761   2.163   4.511 -2.4930 -2.6977 -1.3223
 6520SOL     OW31018   4.330   3.194   3.032 -0.0522 -0.4048  0.1403
 6520SOL    HW131019   4.334   3.107   2.992 -2.5116 -0.4428 -0.0456
 6520SOL    HW231020   4.420   3.210   3.060 -0.7041  0.6443  1.5830
 6521SOL     OW31021   3.609   4.593   7.539  0.3055 -0.2977 -0.1520
 6521SOL    HW131022   3.520   4.562   7.552  0.1783  0.6918  1.3407
 6521SOL    HW231023   3.651   4.515   7.501 -0.3702 -0.4654 -0.5599
 6522SOL     OW31024   3.853   2.638   1.877  0.2966 -0.5073  0.3618
 6522SOL    HW131025   3.820   2.646   1.967 -0.4954  0.3841  0.0029
 6522SOL    HW231026   3.894   2.718   1.844  0.7191 -0.6893  0.4474
 6523SOL     OW31027   4.196   1.078   5.859  0.1510 -0.3490 -0.3398
 6523SOL    HW131028   4.266   1.019   5.832  1.5953  1.1334  0.1956
 6523SOL    HW231029   4.139   1.088   5.782 -0.4203  0.2037  0.1488
 6524SOL     OW31030   2.253   2.082  16.327  0.5413  0.3608 -0.5267
 6524SOL    HW131031   2.316   2.021  16.288 -1.9090 -0.1829 -3.6567
 6524SOL    HW231032   2.184   2.079  16.260 -0.8068  0.1343  0.8959
 6525SOL     OW31033   4.634   0.793   2.440 -0.7407 -0.1561 -0.3504
 6525SOL    HW131034   4.629   0.870   2.496 -2.4663 -1.6698  1.5627
 6525SOL    HW231035   4.592   0.728   2.496  0.5015  1.1850  2.1495
 6526SOL     OW31036   3.075   4.312   9.279 -0.0287  0.6900 -0.3077
 6526SOL    HW131037   2.981   4.323   9.292  0.1604  1.1501  0.6918
 6526SOL    HW231038   3.078   4.227   9.237 -2.8412  0.0057  0.8859
 6527SOL     OW31039   0.311   1.098   8.244  0.2794  0.0251 -0.6126
 6527SOL    HW131040   0.251   1.076   8.315  2.4864 -4.1489 -0.0256
 6527SOL    HW231041   0.290   1.191   8.239 -0.2704 -0.0740 -0.1181
 6528SOL     OW31042   3.580   0.261   2.456 -0.0837 -0.1411  0.3094
 6528SOL    HW131043   3.523   0.315   2.400 -2.6394 -1.5057  1.5679
 6528SOL    HW231044   3.660   0.249   2.405 -1.5218  0.6084 -2.1337
 6529SOL     OW31045   4.235   2.874   1.498  0.0012 -0.2035 -0.7916
 6529SOL    HW131046   4.220   2.820   1.575 -0.7114 -0.1059 -0.8546
 6529SOL    HW231047   4.186   2.949   1.532  2.5236  1.4739 -0.9255
 6530SOL     OW31048   1.426   3.304  11.915  0.4140 -0.7025 -0.2127
 6530SOL    HW131049   1.519   3.305  11.892  0.0943 -0.8604 -1.5423
 6530SOL    HW231050   1.437   3.303  12.010 -0.2430 -0.3189 -0.1382
 6531SOL     OW31051   0.810   4.291   6.552 -0.1634  0.0064  0.3451
 6531SOL    HW131052   0.718   4.309   6.531  0.0773  0.2379 -0.5085
 6531SOL    HW231053   0.797   4.214   6.607  3.4546  0.3682  1.7074
 6532SOL     OW31054   1.568   1.212   4.953  0.5747  0.4322  0.1880
 6532SOL    HW131055   1.539   1.245   4.868 -1.9206  1.0545  1.2880
 6532SOL    HW231056   1.637   1.149   4.933  0.0387  0.1281 -0.7458
 6533SOL     OW31057   4.375   4.377  12.117  0.0670 -0.0008 -0.3584
 6533SOL    HW131058   4.444   4.438  12.141  0.6388 -0.8029  0.0106
 6533SOL    HW231059   4.393   4.359  12.024 -0.1612 -0.6935 -0.2658
 6534SOL     OW31060   2.973   0.729   4.455 -0.1572  0.3028  0.4428
 6534SOL    HW131061   2.947   0.703   4.366  0.1721  1.0585  0.1320
 6534SOL    HW231062   2.945   0.820   4.454 -0.9614  0.0619  1.3617
 6535SOL     OW31063   2.349   4.547  15.207 -0.0629 -0.0599  0.5183
 6535SOL    HW131064   2.283   4.482  15.234  0.1567  0.6126  2.6672
 6535SOL    HW231065   2.424   4.495  15.178 -1.5680 -2.4003  0.8079
 6536SOL     OW31066   1.320   2.578  17.118 -0.0744 -0.1412  0.2332
 6536SOL    HW131067   1.349   2.543  17.202  0.4626 -1.1944 -0.3912
 6536SOL    HW231068   1.230   2.545  17.116 -0.0423 -0.2504  0.8695
 6537SOL     OW31069   0.615   2.276   7.532 -0.3420  0.6117  0.8948
 6537SOL    HW131070   0.578   2.356   7.497 -0.1350 -0.2516 -1.3019
 6537SOL    HW231071   0.550   2.259   7.600 -0.8963 -0.1776  0.1695
 6538SOL     OW31072   0.225   2.276   2.432  0.0006 -0.1732 -0.4670
 6538SOL    HW131073   0.190   2.301   2.347  2.3645  0.1530 -1.3483
 6538SOL    HW231074   0.315   2.302   2.413  0.6659 -2.0483  0.0723
 6539SOL     OW31075   1.837   4.018   7.618 -0.0760 -0.3735  0.5056
 6539SOL    HW131076   1.904   4.086   7.607  1.1707 -1.0708  3.8862
 6539SOL    HW231077   1.872   3.963   7.687 -0.6884  0.7550  1.7252
 6540SOL     OW31078   0.816   1.227   5.039  0.2518 -0.2312 -0.3625
 6540SOL    HW131079   0.738   1.236   4.984 -0.4407 -0.2871  0.6077
 6540SOL    HW231080   0.792   1.276   5.118 -1.5826  1.2686 -1.8633
 6541SOL     OW31081   1.916   2.466  15.095 -0.2306  0.2106 -0.1007
 6541SOL    HW131082   1.838   2.521  15.084 -2.3199 -2.7351 -0.3649
 6541SOL    HW231083   1.952   2.483  15.008 -0.9963 -0.6824 -0.5961
 6542SOL     OW31084   2.313   0.035   5.186 -0.0280 -0.2599 -0.0130
 6542SOL    HW131085   2.220   0.040   5.208  0.1975 -2.5589  1.3801
 6542SOL    HW231086   2.344   0.125   5.200 -1.6152  0.3676 -0.4979
 6543SOL     OW31087   2.205   4.134   1.437  0.0740  0.8079  0.0444
 6543SOL    HW131088   2.131   4.193   1.452 -1.2177 -1.4155  2.2639
 6543SOL    HW231089   2.234   4.132   1.528  1.0448  0.6192 -0.2707
 6544SOL     OW31090   2.800   0.562   2.707 -0.3432 -0.6820  0.2646
 6544SOL    HW131091   2.886   0.522   2.692  0.2645  0.1956  1.3758
 6544SOL    HW231092   2.823   0.651   2.679  1.4343 -1.6114 -1.2508
 6545SOL     OW31093   3.152   0.302   4.784  0.3612 -0.3418 -0.1041
 6545SOL    HW131094   3.154   0.313   4.689  0.0807 -0.5136 -0.1298
 6545SOL    HW231095   3.220   0.361   4.817  1.1903 -1.8479  0.8953
 6546SOL     OW31096   1.769   0.706   9.861  0.4537 -0.5121 -0.6326
 6546SOL    HW131097   1.830   0.738   9.795  0.1476  1.9177  0.2596
 6546SOL    HW231098   1.740   0.624   9.821 -1.4741  0.4087 -1.1677
 6547SOL     OW31099   1.050   1.376   7.399 -0.3048 -0.2637  1.2045
 6547SOL    HW131100   1.136   1.383   7.358 -0.4726 -2.6060  0.4337
 6547SOL    HW231101   1.078   1.403   7.486  0.1115 -2.2134  1.6780
 6548SOL     OW31102   1.655   4.649   7.557  0.2407  0.8658  0.1793
 6548SOL    HW131103   1.669   4.698   7.476  2.4774  2.7668  1.7330
 6548SOL    HW231104   1.576   4.686   7.595 -0.4043 -0.8647  0.5479
 6549SOL     OW31105   2.915   1.998   3.871 -0.3001 -0.4001  0.0201
 6549SOL    HW131106   2.820   1.996   3.865 -0.3152  0.7982 -0.2505
 6549SOL    HW231107   2.927   2.090   3.896 -0.3404  0.0492 -1.5751
 6550SOL     OW31108   0.574   0.229   3.243 -0.4137  0.5462  0.6644
 6550SOL    HW131109   0.513   0.224   3.316 -0.1431 -2.6088  0.6571
 6550SOL    HW231110   0.618   0.144   3.240 -0.3256  0.6212 -0.1576
 6551SOL     OW31111   2.120   4.399  10.788  0.2077  0.1476  0.1477
 6551SOL    HW131112   2.178   4.329  10.759  0.4082  0.1295  0.5852
 6551SOL    HW231113   2.156   4.473  10.739  0.2739 -0.4777 -0.7471
 6552SOL     OW31114   1.939   2.780   8.747  0.2671  0.0621 -0.2653
 6552SOL    HW131115   2.030   2.759   8.725  1.1438  1.6255  1.9496
 6552SOL    HW231116   1.899   2.793   8.661 -0.6651  1.3824  0.3772
 6553SOL     OW31117   3.643   3.170   6.372 -0.7236 -0.2069 -0.3801
 6553SOL    HW131118   3.560   3.202   6.337  0.0894 -1.2462 -3.2244
 6553SOL    HW231119   3.614   3.096   6.427  0.3651  0.4815  1.1378
 6554SOL     OW31120   3.889   0.648   5.373 -0.8227 -0.7157 -0.3841
 6554SOL    HW131121   3.926   0.618   5.290  1.2566 -2.8924  1.3155
 6554SOL    HW231122   3.956   0.598   5.420  0.8381  1.0255 -0.9234
 6555SOL     OW31123   1.385   3.568   6.306  0.0218  0.6374  0.0726
 6555SOL    HW131124   1.455   3.503   6.299  0.0175  0.3704  2.4691
 6555SOL    HW231125   1.404   3.609   6.222 -1.0163  2.1342  0.5574
 6556SOL     OW31126   3.090   4.569   3.453  0.3743 -1.0149 -0.1146
 6556SOL    HW131127   3.029   4.623   3.404  1.3116 -0.5267 -0.7387
 6556SOL    HW231128   3.166   4.623   3.476 -1.2882  0.1396  2.6882
 6557SOL     OW31129   0.340   2.958  16.999  0.1360  0.0607  0.2601
 6557SOL    HW131130   0.380   2.872  17.002 -1.2621 -0.5859  0.3964
 6557SOL    HW231131   0.248   2.936  16.982  0.4230  1.3690 -3.1816
 6558SOL     OW31132   2.313   3.289   1.115 -0.1093  0.7272  0.2147
 6558SOL    HW131133   2.220   3.312   1.106 -0.3559 -0.3189  0.1293
 6558SOL    HW231134   2.360   3.332   1.044 -1.0722  0.9883 -0.2543
 6559SOL     OW31135   0.525   0.003   5.433  0.2395 -0.0508  0.6061
 6559SOL    HW131136   0.547   4.719   5.526  1.0752  1.0062  0.4880
 6559SOL    HW231137   0.569   0.082   5.402  0.1077 -0.2896 -0.2057
 6560SOL     OW31138   4.163   0.223   7.420 -0.0773  0.5763 -0.0102
 6560SOL    HW131139   4.236   0.206   7.480  0.4004  1.5962 -0.2960
 6560SOL    HW231140   4.197   0.189   7.338  0.4219  1.2556 -0.0923
 6561SOL     OW31141   2.681   0.931  12.210  0.0764 -0.2594 -0.4267
 6561SOL    HW131142   2.630   0.946  12.289  1.3964  0.8036  0.2395
 6561SOL    HW231143   2.716   1.020  12.204 -1.0610  0.3944  2.5833
 6562SOL     OW31144   0.355   2.625   6.850 -0.4384 -0.3468 -0.1340
 6562SOL    HW131145   0.393   2.546   6.888  0.8385  0.8173  1.0226
 6562SOL    HW231146   0.274   2.623   6.902 -0.2571 -0.7787  0.1276
 6563SOL     OW31147   0.714   1.718  11.558 -0.3442  0.1448 -0.7238
 6563SOL    HW131148   0.673   1.687  11.639  1.5608  1.2553  0.6629
 6563SOL    HW231149   0.638   1.729  11.500 -0.3852  0.6316 -0.5793
 6564SOL     OW31150   2.498   2.298   2.700  0.0205 -0.3181 -0.5834
 6564SOL    HW131151   2.441   2.232   2.739 -0.4321  0.1607 -0.4338
 6564SOL    HW231152   2.564   2.251   2.649  0.3540 -0.6837  0.1873
 6565SOL     OW31153   2.491   2.461   6.233 -0.0082  0.4931 -0.3377
 6565SOL    HW131154   2.415   2.514   6.258 -1.4916 -1.6629 -0.3340
 6565SOL    HW231155   2.546   2.488   6.306 -1.4466 -2.7548  1.9319
 6566SOL     OW31156   3.606   0.433   3.701  0.4083 -0.5476  0.0684
 6566SOL    HW131157   3.556   0.515   3.703 -1.3769 -1.6823  1.9127
 6566SOL    HW231158   3.540   0.377   3.742 -2.7395  2.0701 -1.4250
 6567SOL     OW31159   0.779   0.953   7.998  0.2406 -0.1873 -0.1971
 6567SOL    HW131160   0.716   0.895   7.955 -0.4887  0.6513 -0.2708
 6567SOL    HW231161   0.804   1.017   7.932 -0.5326 -1.2256 -1.5017
 6568SOL     OW31162   1.809   0.198   7.063  0.3632  0.3413 -0.1336
 6568SOL    HW131163   1.889   0.241   7.092  0.0239  1.4914 -0.9146
 6568SOL    HW231164   1.745   0.252   7.109  0.9831  0.3261  0.7466
 6569SOL     OW31165   1.419   1.276   4.305  0.7592  0.0585  0.4126
 6569SOL    HW131166   1.383   1.364   4.298 -0.1191 -0.3860 -0.7613
 6569SOL    HW231167   1.342   1.220   4.319 -0.2869  1.2229 -0.7414
 6570SOL     OW31168   3.128   1.935  10.786 -0.2385 -0.0702  0.6236
 6570SOL    HW131169   3.045   1.956  10.828 -0.2559 -0.7642  0.9379
 6570SOL    HW231170   3.189   1.973  10.850  2.2057  1.8178 -2.8167
 6571SOL     OW31171   3.761   4.474   7.127  0.1463 -0.3713 -0.5098
 6571SOL    HW131172   3.671   4.440   7.133 -0.0868  0.2417 -0.4924
 6571SOL    HW231173   3.745   4.550   7.071  0.9914  0.9432  1.0621
 6572SOL     OW31174   0.067   1.389  11.462  0.1684 -0.1831 -0.6403
 6572SOL    HW131175   4.708   1.354  11.428 -0.7718  0.6217  0.8096
 6572SOL    HW231176   0.102   1.311  11.506  2.3013  0.6137 -0.9348
 6573SOL     OW31177   1.659   3.185   6.076  0.2215 -0.2231  0.3768
 6573SOL    HW131178   1.606   3.164   5.998  2.1888 -0.4740 -0.8930
 6573SOL    HW231179   1.703   3.100   6.082  0.6487 -0.0157  0.2167
 6574SOL     OW31180   3.273   4.583   5.686  0.7384 -0.3455  0.0129
 6574SOL    HW131181   3.233   4.497   5.675 -1.1758  0.7614 -1.7095
 6574SOL    HW231182   3.228   4.634   5.619 -2.4426 -2.7648  0.3403
 6575SOL     OW31183   0.452   3.915   0.518 -0.0922 -0.3166  0.6068
 6575SOL    HW131184   0.441   3.883   0.429  0.1616  0.3636  0.3372
 6575SOL    HW231185   0.519   3.983   0.508  0.9160 -1.5540 -1.1736
 6576SOL     OW31186   1.861   4.604   0.326  0.1514 -0.3160  0.2648
 6576SOL    HW131187   1.865   4.508   0.334  0.2638 -0.1427  2.1130
 6576SOL    HW231188   1.805   4.629   0.399 -0.5895  0.2117 -0.4969
 6577SOL     OW31189   0.342   2.230   6.633  0.4782  0.1668  0.1210
 6577SOL    HW131190   0.428   2.221   6.672  0.1504 -0.8714  0.6091
 6577SOL    HW231191   0.298   2.153   6.669 -2.1639  0.9681 -1.3449
 6578SOL     OW31192   4.535   1.986   5.160  0.2959  0.0594 -0.5338
 6578SOL    HW131193   4.579   2.025   5.236 -0.7968 -1.5199  0.9269
 6578SOL    HW231194   4.512   1.899   5.193 -1.9330  0.1957 -1.6883
 6579SOL     OW31195   3.892   2.780   8.020  0.0610  0.7317 -0.4766
 6579SOL    HW131196   3.819   2.795   8.081  2.1500  1.4835  1.8239
 6579SOL    HW231197   3.967   2.762   8.077  0.3613  2.5053 -0.3329
 6580SOL     OW31198   3.944   0.470   8.691  0.3498  0.4042 -0.3830
 6580SOL    HW131199   3.915   0.495   8.603 -0.7521 -1.2160 -0.4819
 6580SOL    HW231200   3.921   0.379   8.676 -1.5395  1.0215 -1.2623
 6581SOL     OW31201   1.698   1.228   6.716 -0.0703 -0.1230  0.0333
 6581SOL    HW131202   1.610   1.222   6.753 -1.3410 -1.3406 -3.1628
 6581SOL    HW231203   1.724   1.141   6.746  2.5072  0.7299  0.2937
 6582SOL     OW31204   1.133   1.907  14.330 -0.8966  0.3774 -0.4692
 6582SOL    HW131205   1.151   1.822  14.370  2.9204  1.1043 -0.5885
 6582SOL    HW231206   1.216   1.955  14.337 -0.4408 -0.2398 -1.7308
 6583SOL     OW31207   0.060   2.401   1.443 -0.3184  0.4193 -0.3786
 6583SOL    HW131208   0.131   2.413   1.379 -0.7403  0.8006 -0.7769
 6583SOL    HW231209   0.038   2.494   1.454 -0.6652  0.3382 -0.3925
 6584SOL     OW31210   3.753   3.685   7.329 -0.1560  0.0355  0.1623
 6584SOL    HW131211   3.659   3.690   7.347 -0.2191  0.6682 -0.3243
 6584SOL    HW231212   3.748   3.641   7.244  0.7524  2.4480 -1.1342
 6585SOL     OW31213   1.747   1.493   0.682  0.5231  0.1068 -0.7992
 6585SOL    HW131214   1.655   1.509   0.662 -0.2987 -1.3277  1.9932
 6585SOL    HW231215   1.748   1.501   0.777 -0.5898 -1.2014 -0.6759
 6586SOL     OW31216   1.457   4.684   4.915 -0.1523  0.0801  0.0932
 6586SOL    HW131217   1.444   4.680   5.010  1.6108 -2.0372  0.2502
 6586SOL    HW231218   1.551   4.684   4.898  0.5814 -0.5118  4.1881
 6587SOL     OW31219   2.293   0.497  12.105 -0.1654  0.2564 -0.4317
 6587SOL    HW131220   2.302   0.443  12.183  1.3429  1.5152  0.2786
 6587SOL    HW231221   2.292   0.434  12.033 -0.2129 -3.2176  2.6467
 6588SOL     OW31222   1.604   1.199   5.865 -0.4069  0.4539 -0.0135
 6588SOL    HW131223   1.607   1.133   5.934  0.4458  0.6724  0.1584
 6588SOL    HW231224   1.551   1.157   5.797  2.5790 -2.8600 -0.3043
 6589SOL     OW31225   3.300   0.573   8.639  0.0518  0.4277  0.0445
 6589SOL    HW131226   3.352   0.621   8.704 -1.0571  0.3688  0.9693
 6589SOL    HW231227   3.353   0.493   8.650  0.8088  0.9600  0.2423
 6590SOL     OW31228   2.777   3.100   3.802 -0.1916  1.0196  0.2002
 6590SOL    HW131229   2.837   3.029   3.780  0.4746  1.4296  0.6889
 6590SOL    HW231230   2.827   3.153   3.864 -1.1517  1.2250  0.8090
 6591SOL     OW31231   1.462   1.714  16.898 -0.1584 -0.1776  0.0838
 6591SOL    HW131232   1.546   1.667  16.897  0.7013  1.3552  0.0307
 6591SOL    HW231233   1.480   1.786  16.959  2.1882 -0.7290  0.0355
 6592SOL     OW31234   0.327   0.056   2.010  0.1286 -0.1041  0.5424
 6592SOL    HW131235   0.252   0.037   2.066  1.3826  0.4343  2.3979
 6592SOL    HW231236   0.389   0.048   2.082 -0.2764 -2.5543  0.5870
 6593SOL     OW31237   4.054   0.060   9.191 -0.0544  0.0309  0.2478
 6593SOL    HW131238   3.963   0.086   9.204 -1.0109 -3.1605  0.0123
 6593SOL    HW231239   4.073   0.026   9.278 -1.5883 -0.7904  0.2809
 6594SOL     OW31240   0.750   2.681   6.045  0.3253 -0.2640 -0.0315
 6594SOL    HW131241   0.714   2.693   6.133  0.7654 -0.8277  0.2272
 6594SOL    HW231242   0.820   2.619   6.065  1.5098  0.5642 -1.5743
 6595SOL     OW31243   2.341   2.703   8.507 -0.1006 -0.6426 -0.1682
 6595SOL    HW131244   2.313   2.739   8.591 -2.5661 -3.6615  0.2860
 6595SOL    HW231245   2.291   2.624   8.487 -1.4461  0.2743 -0.4349
 6596SOL     OW31246   2.530   1.634   7.755  0.1009  0.6185 -0.3272
 6596SOL    HW131247   2.493   1.721   7.744 -1.8776 -0.3590 -1.4279
 6596SOL    HW231248   2.457   1.580   7.724  1.2232 -1.2918  0.3377
 6597SOL     OW31249   2.976   3.325   7.877 -0.3334 -0.5743  0.4621
 6597SOL    HW131250   3.041   3.346   7.945 -1.9394 -0.4972  1.9811
 6597SOL    HW231251   3.031   3.290   7.807  0.8068  0.8236  0.6436
 6598SOL     OW31252   2.463   3.824   2.845  0.2952 -0.6718 -0.1905
 6598SOL    HW131253   2.556   3.816   2.824  1.2807 -1.0928  4.4099
 6598SOL    HW231254   2.415   3.782   2.774 -3.3815 -2.0719  3.1107
 6599SOL     OW31255   0.333   0.696   4.975  0.4202 -0.3497 -0.1744
 6599SOL    HW131256   0.352   0.733   4.889  0.8477 -1.5626 -0.5893
 6599SOL    HW231257   0.291   0.773   5.015  0.0576 -1.1987  1.0606
 6600SOL     OW31258   2.685   3.886   5.124 -0.0875 -0.1642 -0.2034
 6600SOL    HW131259   2.590   3.896   5.134 -0.4202 -0.5530 -2.9707
 6600SOL    HW231260   2.711   3.943   5.197  0.0013 -0.2482 -0.1699
 6601SOL     OW31261   2.728   0.605   0.351  0.5996  0.2024 -0.1088
 6601SOL    HW131262   2.751   0.531   0.408  1.1840  1.9289  1.8880
 6601SOL    HW231263   2.667   0.565   0.289 -0.2891 -0.1914  1.0234
 6602SOL     OW31264   4.174   4.542   9.756  0.4606 -0.1625  0.5954
 6602SOL    HW131265   4.230   4.566   9.682  0.8737 -2.5146  0.1251
 6602SOL    HW231266   4.086   4.574   9.738  0.9103 -0.7177 -2.6196
 6603SOL     OW31267   1.502   0.825   3.404  0.6116 -0.1835 -0.5636
 6603SOL    HW131268   1.465   0.825   3.317  0.3595 -0.8895 -0.4540
 6603SOL    HW231269   1.501   0.730   3.421  2.2125 -0.0947  0.1414
 6604SOL     OW31270   2.013   0.889   7.017 -0.9579 -0.1021 -0.5108
 6604SOL    HW131271   2.064   0.966   6.994 -1.7057 -0.2430 -2.6330
 6604SOL    HW231272   2.071   0.819   6.987 -0.1856  1.6414 -3.0616
 6605SOL     OW31273   4.104   0.722   8.295  0.3933 -0.5569 -0.8212
 6605SOL    HW131274   4.084   0.696   8.385  0.4469  0.0288 -0.6359
 6605SOL    HW231275   4.015   0.752   8.278 -0.0050 -0.6363  1.1392
 6606SOL     OW31276   1.879   0.077  13.368  0.4814 -0.4417  0.4931
 6606SOL    HW131277   1.846   0.004  13.315 -1.8691  1.3035 -0.4490
 6606SOL    HW231278   1.928   0.023  13.430 -0.2464 -0.6563  0.8880
 6607SOL     OW31279   1.606   1.318  14.896 -0.0325 -0.1096  0.2904
 6607SOL    HW131280   1.579   1.349  14.982 -0.7900 -1.7105  0.6355
 6607SOL    HW231281   1.654   1.241  14.926 -0.3132  0.7084  2.7800
 6608SOL     OW31282   0.814   4.312   3.157  0.4418  0.3613  0.0791
 6608SOL    HW131283   0.789   4.253   3.086 -0.9527  2.5154 -1.1843
 6608SOL    HW231284   0.908   4.317   3.138  0.3420  1.9790  0.0909
 6609SOL     OW31285   0.240   2.471   7.634 -0.7480 -0.5665 -0.0202
 6609SOL    HW131286   0.304   2.483   7.704 -0.6453  1.0379 -0.3713
 6609SOL    HW231287   0.179   2.415   7.681 -1.4678  0.8964  0.7941
 6610SOL     OW31288   3.591   0.601   2.868 -0.1639  0.3556 -1.4165
 6610SOL    HW131289   3.502   0.619   2.898  0.2917  0.7696 -0.2959
 6610SOL    HW231290   3.607   0.657   2.792  2.6518  0.9471 -0.3831
 6611SOL     OW31291   2.626   1.002   3.911  0.0977  0.0094 -0.3731
 6611SOL    HW131292   2.554   1.060   3.935  0.1536 -0.1251  0.1155
 6611SOL    HW231293   2.673   1.046   3.840  0.1276 -1.7994 -1.4814
 6612SOL     OW31294   0.303   2.496  10.907 -0.1653  0.2211  0.0156
 6612SOL    HW131295   0.367   2.520  10.975  0.3709 -1.3996  0.0772
 6612SOL    HW231296   0.327   2.550  10.832 -0.3896 -0.3502 -0.4654
 6613SOL     OW31297   3.604   1.192   5.033 -0.1127 -0.2011  0.4053
 6613SOL    HW131298   3.638   1.112   5.073  1.4222  1.1995  1.9063
 6613SOL    HW231299   3.522   1.206   5.078 -0.2622  1.6180 -0.4265
 6614SOL     OW31300   4.249   3.681   6.945 -0.9716 -0.2626 -0.1416
 6614SOL    HW131301   4.169   3.721   6.977  0.1414  1.1858  0.8316
 6614SOL    HW231302   4.234   3.672   6.851 -0.9364 -0.0053 -0.1730
 6615SOL     OW31303   2.629   4.137   5.864  0.3978  0.1278  0.1183
 6615SOL    HW131304   2.576   4.058   5.876 -1.0369  1.1757  0.6441
 6615SOL    HW231305   2.683   4.133   5.943 -2.9098 -1.5327  2.2714
 6616SOL     OW31306   3.328   1.500   3.008  0.1498 -0.3943 -0.0191
 6616SOL    HW131307   3.257   1.472   3.066 -1.1909 -1.5778 -2.2384
 6616SOL    HW231308   3.276   1.538   2.937  0.2115  0.9676  0.6594
 6617SOL     OW31309   2.960   4.564   5.344  0.4213  0.1826 -0.3696
 6617SOL    HW131310   3.031   4.549   5.281  1.3581 -4.4510  1.7961
 6617SOL    HW231311   2.904   4.622   5.292  0.9799  1.3841  0.3416
 6618SOL     OW31312   0.861   2.719  14.851 -0.0200  0.2617  0.3070
 6618SOL    HW131313   0.871   2.666  14.772  0.0503 -1.2812  1.3525
 6618SOL    HW231314   0.771   2.709  14.880 -0.5556 -2.1518 -2.1693
 6619SOL     OW31315   1.318   0.423   1.941  0.5587 -0.9420 -0.1390
 6619SOL    HW131316   1.410   0.441   1.921  0.1313 -0.8952 -2.0143
 6619SOL    HW231317   1.284   0.511   1.958 -0.5694 -1.2984 -0.5599
 6620SOL     OW31318   1.698   2.982   0.261  0.2128 -0.1524 -0.0476
 6620SOL    HW131319   1.784   3.004   0.297  0.1500  0.6683 -0.3938
 6620SOL    HW231320   1.665   3.068   0.236 -1.2722 -0.4790  0.7917
 6621SOL     OW31321   0.665   1.105   2.194 -0.6848 -0.0356 -0.0584
 6621SOL    HW131322   0.718   1.052   2.254  0.5855 -0.1332 -1.2556
 6621SOL    HW231323   0.686   1.074   2.105 -0.1717  1.6899 -0.5420
 6622SOL     OW31324   2.234   2.516   5.002 -0.0400  0.2903  0.2785
 6622SOL    HW131325   2.141   2.536   4.992  0.4312  1.7279 -1.3169
 6622SOL    HW231326   2.239   2.459   4.925 -0.4138  1.4101 -0.5729
 6623SOL     OW31327   2.774   1.854   5.791  0.2064 -0.7563  0.6586
 6623SOL    HW131328   2.823   1.922   5.837 -0.2870  0.2645 -0.3430
 6623SOL    HW231329   2.796   1.883   5.703 -0.3873 -2.6707 -0.1254
 6624SOL     OW31330   4.611   2.229   1.331  0.0803  0.3980  0.8715
 6624SOL    HW131331   4.670   2.199   1.262 -0.4106  0.6389  0.3410
 6624SOL    HW231332   4.664   2.305   1.353  0.4228  0.8882 -1.6526
 6625SOL     OW31333   0.912   2.273  12.494  0.3420 -0.3539  0.0542
 6625SOL    HW131334   0.954   2.194  12.530 -0.9624 -0.8025  0.5830
 6625SOL    HW231335   0.826   2.235  12.475  0.9666 -1.7026 -0.0961
 6626SOL     OW31336   0.364   3.963   9.123 -0.5883 -0.1579  0.5003
 6626SOL    HW131337   0.455   3.984   9.101 -1.0541  3.6948  2.2906
 6626SOL    HW231338   0.357   3.888   9.063  1.0297 -1.1439  1.5412
 6627SOL     OW31339   4.602   2.008   7.237 -0.5146  0.6048 -0.0885
 6627SOL    HW131340   4.585   1.973   7.150  2.0286  0.2576 -0.4521
 6627SOL    HW231341   4.556   1.941   7.289 -0.9532  1.7371  0.9716
 6628SOL     OW31342   2.004   1.977   6.561  0.1545  0.5417 -0.2498
 6628SOL    HW131343   2.030   2.066   6.535  0.1846  0.7457  0.4901
 6628SOL    HW231344   2.073   1.963   6.626  0.2657  4.1370  0.4273
 6629SOL     OW31345   3.268   3.289   3.047 -0.1992 -0.3500  0.3960
 6629SOL    HW131346   3.295   3.380   3.059  1.4391 -0.6966 -0.6313
 6629SOL    HW231347   3.344   3.251   3.003  0.1479  0.0551  0.6437
 6630SOL     OW31348   1.137   2.192   7.944  0.0887  0.2042 -0.6460
 6630SOL    HW131349   1.221   2.190   7.899  0.0356  1.8404 -0.8392
 6630SOL    HW231350   1.149   2.270   7.999 -0.9788  0.3428 -0.6008
 6631SOL     OW31351   3.539   0.212   5.943  0.2750 -0.1734 -0.2533
 6631SOL    HW131352   3.451   0.250   5.942  0.6584  0.8115  1.6640
 6631SOL    HW231353   3.530   0.141   6.007  4.0438  0.2713  0.7980
 6632SOL     OW31354   4.677   4.110   5.027 -0.0933 -0.6615 -0.0434
 6632SOL    HW131355   0.032   4.061   5.001  0.1180  1.9156 -4.3194
 6632SOL    HW231356   4.638   4.135   4.944  2.0064 -0.8441 -1.1034
 6633SOL     OW31357   2.736   2.827  11.708 -0.1217  0.0118 -0.4823
 6633SOL    HW131358   2.817   2.878  11.709 -1.6726  2.4049  2.4874
 6633SOL    HW231359   2.675   2.899  11.690 -1.7635 -1.3818 -0.5698
 6634SOL     OW31360   0.167   3.078   7.063  0.7478 -0.0909 -0.0647
 6634SOL    HW131361   0.165   3.076   6.967  0.4299  1.2267 -0.0811
 6634SOL    HW231362   0.262   3.090   7.059  0.8997 -0.9678  1.0080
 6635SOL     OW31363   2.658   1.026   1.901  0.1355  0.2670  0.2554
 6635SOL    HW131364   2.597   0.978   1.844  1.8378 -1.4596 -0.1308
 6635SOL    HW231365   2.597   1.084   1.946  0.0500 -1.1089  1.9078
 6636SOL     OW31366   3.612   2.126   5.542  0.2899 -0.1261  0.2322
 6636SOL    HW131367   3.696   2.163   5.567 -0.6496  2.7410 -0.9095
 6636SOL    HW231368   3.626   2.122   5.447  2.4833  3.5824  0.4051
 6637SOL     OW31369   4.306   1.885   8.982 -0.0979  0.4421  0.0988
 6637SOL    HW131370   4.278   1.938   8.908  0.6413  1.5160  0.5923
 6637SOL    HW231371   4.274   1.931   9.059 -1.2770  0.5446 -0.4636
 6638SOL     OW31372   4.195   0.298   3.734 -0.0298  0.3292 -0.4977
 6638SOL    HW131373   4.220   0.268   3.647  0.6141  1.6573 -0.7746
 6638SOL    HW231374   4.251   0.376   3.731  0.9208 -0.2136  2.4999
 6639SOL     OW31375   0.706   1.487   3.834 -0.1006 -0.0605 -0.1381
 6639SOL    HW131376   0.793   1.521   3.813 -0.2297  0.5112  0.2717
 6639SOL    HW231377   0.688   1.566   3.885 -0.9458  1.0157 -2.0784
 6640SOL     OW31378   0.998   4.500   0.782 -0.3523  0.3689  0.0285
 6640SOL    HW131379   0.980   4.408   0.760  0.9825  0.2614 -0.6037
 6640SOL    HW231380   1.072   4.513   0.723 -1.4904  1.3521 -1.1959
 6641SOL     OW31381   4.331   4.424   6.922 -0.0040 -0.0454 -0.7527
 6641SOL    HW131382   4.361   4.477   6.996  0.6524 -0.4449 -0.7301
 6641SOL    HW231383   4.265   4.480   6.881 -0.4374  0.1863  0.2609
 6642SOL     OW31384   3.879   1.225   1.016  0.4157  0.2953 -0.4948
 6642SOL    HW131385   3.944   1.294   1.024 -0.2278  0.8221  0.2072
 6642SOL    HW231386   3.939   1.151   1.011 -2.0180 -1.6429 -1.5413
 6643SOL     OW31387   2.157   4.259   5.054 -0.2911 -0.1909  0.4482
 6643SOL    HW131388   2.067   4.292   5.057  0.1882  1.2236 -0.3594
 6643SOL    HW231389   2.186   4.297   4.971 -0.8042 -0.5615  0.0971
 6644SOL     OW31390   4.555   3.356   7.435  0.1404 -0.6209 -0.3475
 6644SOL    HW131391   4.547   3.263   7.456  0.9685 -0.3215  1.3481
 6644SOL    HW231392   4.612   3.346   7.358  0.2658  0.1422 -0.3527
 6645SOL     OW31393   2.112   0.360  14.333  0.0661 -0.4423 -0.5608
 6645SOL    HW131394   2.207   0.352  14.341  0.2379  1.3129 -0.7700
 6645SOL    HW231395   2.109   0.416  14.255  0.3518  0.0932 -0.1929
 6646SOL     OW31396   1.404   0.689  13.523  0.1494  0.0993 -0.9117
 6646SOL    HW131397   1.379   0.683  13.615 -2.6845  2.4952 -1.5370
 6646SOL    HW231398   1.482   0.633  13.521  0.3093  0.2987 -0.0836
 6647SOL     OW31399   3.642   1.055  15.504  0.0205  0.2352  0.4044
 6647SOL    HW131400   3.681   1.124  15.450 -1.7407 -0.2284 -1.4667
 6647SOL    HW231401   3.700   0.983  15.482 -1.9106 -1.3471  0.4912
 6648SOL     OW31402   4.239   1.639   1.438 -0.4569 -0.3893  0.0966
 6648SOL    HW131403   4.187   1.711   1.403 -0.3981 -0.2152  0.3621
 6648SOL    HW231404   4.327   1.647   1.401 -1.2713 -1.1776 -2.0201
 6649SOL     OW31405   0.516   0.459  15.613 -0.1509  0.2545 -0.2608
 6649SOL    HW131406   0.555   0.529  15.561 -1.7529 -0.4796 -2.4447
 6649SOL    HW231407   0.440   0.506  15.647  0.7047  1.3390  0.1568
 6650SOL     OW31408   2.620   4.718   4.637 -0.5640 -0.0701  0.0198
 6650SOL    HW131409   2.667   4.708   4.555 -0.9777  2.6102 -0.5558
 6650SOL    HW231410   2.535   4.683   4.611 -0.5474 -0.9843  1.1734
 6651SOL     OW31411   2.860   3.398   7.138  0.3492  0.2372  0.2929
 6651SOL    HW131412   2.953   3.375   7.140  0.6675  1.1783 -3.5190
 6651SOL    HW231413   2.863   3.490   7.164 -0.9599  0.0261  1.2067
 6652SOL     OW31414   3.535   2.565  12.327  0.4269  0.2658 -0.1089
 6652SOL    HW131415   3.615   2.560  12.275  2.1379  2.6037  2.2675
 6652SOL    HW231416   3.569   2.519  12.404  0.0396 -0.2518 -0.2502
 6653SOL     OW31417   0.118   3.865   7.960 -0.0280 -0.1709  0.4529
 6653SOL    HW131418   0.150   3.862   7.870 -2.2168 -0.5420 -0.3145
 6653SOL    HW231419   0.115   3.771   7.975  1.3168 -0.4223 -0.8717
 6654SOL     OW31420   1.614   3.716   8.674 -0.2127 -0.3203  0.3529
 6654SOL    HW131421   1.521   3.738   8.683 -1.1146 -2.8846 -2.8185
 6654SOL    HW231422   1.650   3.793   8.719 -0.7944  1.5236 -2.3105
 6655SOL     OW31423   3.283   4.418   7.739  0.4605  0.7985  0.2176
 6655SOL    HW131424   3.376   4.411   7.714  0.9915  0.1260  2.3635
 6655SOL    HW231425   3.285   4.391   7.830 -3.4567  1.2266  0.4033
 6656SOL     OW31426   3.043   2.319   3.123 -0.4250 -0.1550  0.0371
 6656SOL    HW131427   2.987   2.397   3.125 -0.9580 -0.5638  0.9584
 6656SOL    HW231428   3.120   2.365   3.090 -0.4558 -0.6735 -0.7622
 6657SOL     OW31429   4.657   1.737  10.981  0.2835 -0.4212  0.5783
 6657SOL    HW131430   0.010   1.776  11.024  1.0347  0.1152 -1.2822
 6657SOL    HW231431   4.612   1.701  11.058  0.0220  1.1121  1.1419
 6658SOL     OW31432   4.365   3.132   5.242 -0.3169  0.0132 -0.5566
 6658SOL    HW131433   4.345   3.223   5.221 -3.0754 -0.7581 -1.2269
 6658SOL    HW231434   4.417   3.104   5.167 -0.2719  0.7606 -0.8081
 6659SOL     OW31435   0.624   2.450   2.111 -0.6662  0.4048  0.7114
 6659SOL    HW131436   0.700   2.478   2.059 -1.5412  1.2340 -0.1217
 6659SOL    HW231437   0.560   2.490   2.051 -1.5862 -1.4429  0.4734
 6660SOL     OW31438   3.217   4.101   4.973  0.4439  0.7211 -0.6390
 6660SOL    HW131439   3.185   4.069   5.057  0.0181  0.6033 -0.8461
 6660SOL    HW231440   3.161   4.179   4.968 -0.2056  0.4791  3.4580
 6661SOL     OW31441   3.932   3.949   9.263 -0.1947  0.2548  0.0624
 6661SOL    HW131442   4.024   3.967   9.284  0.5849  0.0752 -3.2442
 6661SOL    HW231443   3.894   3.899   9.335 -1.4227 -0.4516 -1.0994
 6662SOL     OW31444   2.913   3.768   4.997  0.5866 -0.0285  0.1552
 6662SOL    HW131445   2.913   3.860   4.974  0.4224 -0.6505 -2.3145
 6662SOL    HW231446   2.824   3.763   5.034  0.0696  2.3883 -0.7609
 6663SOL     OW31447   1.877   1.825   4.620 -0.2297 -0.3189 -0.3324
 6663SOL    HW131448   1.851   1.769   4.693 -1.2160  0.6284  0.0466
 6663SOL    HW231449   1.856   1.915   4.646 -0.0421  0.2536 -2.1893
 6664SOL     OW31450   2.819   0.399  14.412 -0.4053  0.6306 -0.0493
 6664SOL    HW131451   2.773   0.316  14.428 -0.2848  0.4413 -0.6946
 6664SOL    HW231452   2.787   0.409  14.322 -1.5298 -1.5337  0.1121
 6665SOL     OW31453   0.879   0.633   4.830  0.4007 -0.3223  0.0764
 6665SOL    HW131454   0.898   0.542   4.854  3.0562 -0.6482 -3.3049
 6665SOL    HW231455   0.809   0.618   4.767  1.8454  0.6459 -1.7641
 6666SOL     OW31456   2.552   4.272  12.187  0.3260  0.0540  0.3033
 6666SOL    HW131457   2.527   4.225  12.266 -0.1412 -0.4385 -0.1375
 6666SOL    HW231458   2.496   4.224  12.127  1.4942 -0.1561 -0.6160
 6667SOL     OW31459   3.163   2.536   5.914 -0.2955 -0.1593  0.2924
 6667SOL    HW131460   3.076   2.502   5.892 -1.0275  1.4427  0.6573
 6667SOL    HW231461   3.183   2.560   5.823  0.1355 -0.0267  0.4237
 6668SOL     OW31462   0.553   3.239   5.335  0.0236  0.0069  0.2238
 6668SOL    HW131463   0.557   3.325   5.377 -1.4887  0.4737 -0.6235
 6668SOL    HW231464   0.645   3.211   5.332  0.3851  1.3322 -1.5840
 6669SOL     OW31465   0.835   0.477   4.462  0.0362  0.3609  0.5003
 6669SOL    HW131466   0.912   0.433   4.499  0.5709  0.9757  0.1162
 6669SOL    HW231467   0.765   0.430   4.508 -0.4184  1.5734  1.0467
 6670SOL     OW31468   3.522   1.013   8.656 -0.2199 -0.1218 -0.0213
 6670SOL    HW131469   3.430   1.013   8.679 -0.3327  3.3772 -0.4931
 6670SOL    HW231470   3.544   1.106   8.663 -0.8524  0.0544 -0.3927
 6671SOL     OW31471   4.356   0.527   6.591  0.1073 -0.3534 -0.6379
 6671SOL    HW131472   4.321   0.481   6.667 -0.7885 -1.7559 -1.9150
 6671SOL    HW231473   4.289   0.492   6.533  0.2286  1.5874 -1.9585
 6672SOL     OW31474   3.079   1.530   7.188  0.1735  0.2020  0.4011
 6672SOL    HW131475   2.989   1.546   7.162  0.1244 -0.4670  0.1547
 6672SOL    HW231476   3.134   1.596   7.146 -1.7276  0.8880 -0.9715
 6673SOL     OW31477   0.145   0.982  14.962  0.0767 -0.4169  0.3748
 6673SOL    HW131478   0.151   1.008  15.054 -0.9616 -0.8196  0.5489
 6673SOL    HW231479   0.219   0.921  14.961  1.0529  0.7546  0.4904
 6674SOL     OW31480   4.544   4.197   8.179  0.1396 -0.5121 -0.8783
 6674SOL    HW131481   4.523   4.270   8.237  0.2117 -1.1393 -0.0608
 6674SOL    HW231482   4.502   4.224   8.097  1.0503  0.6427 -0.9580
 6675SOL     OW31483   2.709   0.337   5.042  0.0793 -0.2537  0.2191
 6675SOL    HW131484   2.676   0.283   4.970  2.7386  0.5041 -1.5613
 6675SOL    HW231485   2.797   0.357   5.011 -0.9645  4.4584  0.3443
 6676SOL     OW31486   1.076   3.143   2.350 -0.6930 -0.0499 -0.8511
 6676SOL    HW131487   1.072   3.205   2.276  0.3729 -0.1744 -1.0142
 6676SOL    HW231488   0.989   3.140   2.390  0.2053 -1.5448  0.9620
 6677SOL     OW31489   1.468   2.660  12.504 -0.2167 -0.2798 -0.1336
 6677SOL    HW131490   1.449   2.567  12.503 -2.0789  0.0936  0.2507
 6677SOL    HW231491   1.466   2.686  12.596 -2.6255  2.6751 -0.9881
 6678SOL     OW31492   1.589   2.462   3.923 -0.0213 -0.6512 -0.2986
 6678SOL    HW131493   1.580   2.551   3.890  1.2198  0.2515  1.8451
 6678SOL    HW231494   1.505   2.418   3.936  1.0269 -1.6452  3.1644
 6679SOL     OW31495   4.306   4.263   6.646 -0.3807  0.2530  0.4988
 6679SOL    HW131496   4.304   4.354   6.616  2.6628  0.1634  0.0374
 6679SOL    HW231497   4.294   4.214   6.565 -1.5220  0.9483  0.2471
 6680SOL     OW31498   2.259   2.767  15.293  0.7435  0.3519 -0.0527
 6680SOL    HW131499   2.271   2.851  15.250  1.6180 -0.0465 -0.5930
 6680SOL    HW231500   2.334   2.763  15.352 -0.2852 -0.7015  1.1902
 6681SOL     OW31501   1.104   2.864  11.845  0.5256 -0.8229  0.6770
 6681SOL    HW131502   1.175   2.926  11.862  0.2481 -0.3921  0.2514
 6681SOL    HW231503   1.159   2.786  11.834 -1.2286 -1.7547 -1.4608
 6682SOL     OW31504   1.142   1.562   2.199  0.3349  0.5214 -1.0587
 6682SOL    HW131505   1.129   1.590   2.109 -0.4585  0.9961 -0.7945
 6682SOL    HW231506   1.237   1.550   2.201  0.7027  3.3540 -1.9344
 6683SOL     OW31507   2.823   2.297   7.905 -0.0743  0.0203  0.5847
 6683SOL    HW131508   2.751   2.356   7.928 -0.4863  0.4137 -1.6445
 6683SOL    HW231509   2.792   2.220   7.952 -1.4012  0.4253  0.3738
 6684SOL     OW31510   4.192   3.829  11.629  0.2569 -0.2990  0.2287
 6684SOL    HW131511   4.241   3.834  11.711 -1.7091 -0.0370  1.3820
 6684SOL    HW231512   4.256   3.839  11.558  1.5088 -2.9149  0.9951
 6685SOL     OW31513   0.131   4.300   6.210  0.1419 -0.2703  0.0416
 6685SOL    HW131514   0.122   4.389   6.245 -0.0120 -0.9799  1.8251
 6685SOL    HW231515   0.169   4.253   6.284  1.0076  0.4297  0.0419
 6686SOL     OW31516   1.928   4.412   7.789 -0.8023 -0.1879  0.1094
 6686SOL    HW131517   1.986   4.415   7.865 -0.1551 -0.0830 -0.3915
 6686SOL    HW231518   1.959   4.492   7.747 -0.3272  0.2426  1.2585
 6687SOL     OW31519   2.796   1.711   8.729  0.3384  0.8822 -0.0302
 6687SOL    HW131520   2.812   1.766   8.805 -1.7844  2.4421 -0.7124
 6687SOL    HW231521   2.779   1.761   8.650 -0.4130 -0.0466 -0.4588
 6688SOL     OW31522   3.381   3.736   6.253 -0.1513 -0.0020  0.1909
 6688SOL    HW131523   3.350   3.797   6.187  2.6450 -1.0760 -2.1283
 6688SOL    HW231524   3.351   3.772   6.337  1.2858  1.4752  0.0701
 6689SOL     OW31525   4.417   2.000   7.947  0.1210 -0.2944  0.6640
 6689SOL    HW131526   4.332   1.957   7.951  0.1717 -0.3984  0.6367
 6689SOL    HW231527   4.457   1.968   8.029  1.2820 -2.0594 -0.5867
 6690SOL     OW31528   4.589   1.273  12.266 -0.0669  0.4474  0.0121
 6690SOL    HW131529   4.622   1.349  12.220 -0.6292 -0.7322 -2.3299
 6690SOL    HW231530   4.534   1.295  12.342 -0.1572 -3.3872  1.0882
 6691SOL     OW31531   4.615   2.492   8.340  0.2492  0.4894  0.1240
 6691SOL    HW131532   4.576   2.491   8.427 -0.2082  0.1058 -0.0847
 6691SOL    HW231533   4.706   2.481   8.367  0.7246  1.9031 -0.8567
 6692SOL     OW31534   2.999   1.915   2.769  0.2705  0.0167 -0.4894
 6692SOL    HW131535   2.947   1.962   2.704  1.1753  1.6088 -0.0684
 6692SOL    HW231536   3.025   1.989   2.825  0.0551 -0.4608  0.2428
 6693SOL     OW31537   3.067   2.743   3.055 -0.0690 -0.0743  0.8616
 6693SOL    HW131538   3.075   2.813   2.989 -0.0249 -2.2171 -1.4009
 6693SOL    HW231539   3.000   2.690   3.012  3.7400 -2.6833 -1.7890
 6694SOL     OW31540   0.488   1.008   1.005 -0.6338 -0.2563  0.2955
 6694SOL    HW131541   0.451   1.068   0.939 -0.3920  0.2628  0.6279
 6694SOL    HW231542   0.422   0.939   1.010 -0.2960 -0.6384 -0.5380
 6695SOL     OW31543   0.410   2.938   0.224 -0.4867 -0.6333 -0.4256
 6695SOL    HW131544   0.485   2.983   0.261 -1.9262 -1.7082  3.8307
 6695SOL    HW231545   0.346   3.008   0.214  1.4193  1.3660  1.4546
 6696SOL     OW31546   0.022   3.354   6.487  0.5490  0.7617 -0.8995
 6696SOL    HW131547   0.056   3.333   6.574  1.2014  1.1033 -1.0754
 6696SOL    HW231548   0.035   3.268   6.448 -0.5589 -0.7571  2.0989
 6697SOL     OW31549   2.661   4.211  12.553  0.2324 -0.3049  0.1610
 6697SOL    HW131550   2.594   4.159  12.508 -1.1612  0.7312  1.0438
 6697SOL    HW231551   2.741   4.162  12.535 -0.3414 -1.9153  1.8813
 6698SOL     OW31552   4.595   3.803   3.312 -0.1270 -0.0380  0.1223
 6698SOL    HW131553   4.643   3.743   3.370  2.9310 -0.6532 -3.0273
 6698SOL    HW231554   4.511   3.825   3.352  0.0817 -1.1404  1.1989
 6699SOL     OW31555   3.398   4.033   2.768  0.1448 -0.0830 -0.6801
 6699SOL    HW131556   3.450   4.045   2.847 -0.2927 -0.0570 -0.3954
 6699SOL    HW231557   3.375   4.124   2.748 -1.7270 -0.2400  0.7239
 6700SOL     OW31558   2.354   0.783   1.946  0.5007 -0.1083  0.4841
 6700SOL    HW131559   2.438   0.791   1.901 -0.6278 -1.6906 -1.9008
 6700SOL    HW231560   2.297   0.816   1.876 -1.3581  0.7679  2.4086
 6701SOL     OW31561   1.686   2.128  17.615 -0.2968  0.6860  0.3705
 6701SOL    HW131562   1.645   2.075  17.683  0.1840  1.6579  1.4142
 6701SOL    HW231563   1.627   2.098  17.545 -1.7420 -0.0136  1.8675
 6702SOL     OW31564   3.540   1.642  16.468  0.1437 -0.1652  0.1089
 6702SOL    HW131565   3.587   1.660  16.387  0.7057 -0.4613  0.3730
 6702SOL    HW231566   3.497   1.562  16.439 -1.3439  1.0172 -0.9910
 6703SOL     OW31567   4.136   0.167   6.648 -0.7358 -0.0159  0.2800
 6703SOL    HW131568   4.226   0.194   6.628  0.0093 -2.6007  0.1717
 6703SOL    HW231569   4.106   0.238   6.704 -2.2081 -0.3070 -0.1330
 6704SOL     OW31570   2.985   0.478   0.554 -0.3685  0.0937  0.3882
 6704SOL    HW131571   2.900   0.440   0.534  0.0935 -0.7134 -0.0567
 6704SOL    HW231572   2.978   0.550   0.492  3.2045  0.8709  0.8802
 6705SOL     OW31573   1.985   0.543   4.958 -0.4218  0.7064 -0.1508
 6705SOL    HW131574   2.076   0.572   4.958 -0.7275  1.6601 -0.8356
 6705SOL    HW231575   1.955   0.555   4.868  1.2397  1.1626 -0.6406
 6706SOL     OW31576   0.401   2.777   2.327 -0.9950 -0.0609 -0.3516
 6706SOL    HW131577   0.460   2.705   2.349 -1.1405  0.5790  2.1263
 6706SOL    HW231578   0.387   2.818   2.412  3.4567 -2.1016  1.3663
 6707SOL     OW31579   0.354   0.986  10.382 -0.5414  0.1225  0.2963
 6707SOL    HW131580   0.314   0.900  10.387 -1.8252  0.6472 -1.1601
 6707SOL    HW231581   0.308   1.038  10.448 -0.8240  1.6135 -1.0663
 6708SOL     OW31582   3.833   4.603  16.343 -0.7195 -0.2494 -0.4980
 6708SOL    HW131583   3.761   4.553  16.306  0.0037 -2.2131  0.7666
 6708SOL    HW231584   3.794   4.691  16.338  0.9535  0.5633  0.5421
 6709SOL     OW31585   0.236   0.307   6.160  0.5021  0.2826  0.4557
 6709SOL    HW131586   0.245   0.336   6.070  2.0223 -0.9902  0.2122
 6709SOL    HW231587   0.187   0.379   6.200  1.3077 -0.1082  2.1399
 6710SOL     OW31588   4.368   2.529  11.017 -0.8331  0.0986  0.0263
 6710SOL    HW131589   4.333   2.472  10.949  0.0866 -0.7328  0.2435
 6710SOL    HW231590   4.318   2.607  10.996  0.0205  0.6857  0.1716
 6711SOL     OW31591   3.746   3.989  15.494 -0.1782 -0.3193  0.0495
 6711SOL    HW131592   3.778   4.076  15.472  2.3695 -1.5690 -1.1395
 6711SOL    HW231593   3.696   3.960  15.418 -2.1830 -3.6975  2.6167
 6712SOL     OW31594   3.185   0.521   7.439  0.2760 -0.4123  0.8925
 6712SOL    HW131595   3.213   0.602   7.482  0.4680 -0.0771  0.1374
 6712SOL    HW231596   3.135   0.477   7.507 -0.3901 -0.0141  0.6602
 6713SOL     OW31597   0.617   3.474   2.877  0.3997 -0.5369 -0.4267
 6713SOL    HW131598   0.629   3.413   2.804 -1.2345 -1.1392 -0.1893
 6713SOL    HW231599   0.572   3.548   2.835 -0.2930 -1.2471 -0.9430
 6714SOL     OW31600   3.556   4.152   4.667 -0.9133  0.0065 -0.3128
 6714SOL    HW131601   3.582   4.086   4.603  0.1648  0.4390 -0.3329
 6714SOL    HW231602   3.521   4.219   4.608 -0.4208 -0.5893 -1.2896
 6715SOL     OW31603   1.623   0.264   7.505  0.6671  0.1525 -0.4553
 6715SOL    HW131604   1.583   0.194   7.556  2.8187 -1.0944 -0.4485
 6715SOL    HW231605   1.713   0.239   7.528  0.2176 -0.8568  0.1770
 6716SOL     OW31606   3.543   0.299   3.438  0.3500  0.0148  0.0928
 6716SOL    HW131607   3.599   0.305   3.515  1.3017 -1.6632 -0.4685
 6716SOL    HW231608   3.567   0.381   3.396  0.3052  0.1512  0.3333
 6717SOL     OW31609   3.219   1.386   9.232  0.0187  0.3540 -0.1414
 6717SOL    HW131610   3.151   1.378   9.165 -0.8087  0.0090  0.7421
 6717SOL    HW231611   3.243   1.478   9.238 -0.6261  0.4786  0.4671
 6718SOL     OW31612   0.623   2.200  11.664 -0.1794 -0.2247 -0.1173
 6718SOL    HW131613   0.642   2.108  11.684  1.2636  0.0826 -0.1013
 6718SOL    HW231614   0.709   2.241  11.671  0.1188 -1.0702  1.1133
 6719SOL     OW31615   0.798   0.957  14.443 -0.1162 -0.2524 -0.0281
 6719SOL    HW131616   0.838   0.876  14.413 -0.9752 -2.1390  3.9882
 6719SOL    HW231617   0.874   1.014  14.451 -0.6336  0.3973  0.3174
 6720SOL     OW31618   0.905   2.410   6.892 -0.1359 -0.4168  0.5985
 6720SOL    HW131619   0.969   2.472   6.926 -0.6247  0.4313 -0.0222
 6720SOL    HW231620   0.923   2.333   6.945  0.7372  0.0951  1.0533
 6721SOL     OW31621   1.536   0.354   3.885 -0.0105  0.5034  0.6651
 6721SOL    HW131622   1.478   0.332   3.812  0.2972  2.1210 -0.0665
 6721SOL    HW231623   1.617   0.353   3.834  0.2187  1.5819  1.0029
 6722SOL     OW31624   0.719   3.949   7.697 -0.3707  0.5033  1.0667
 6722SOL    HW131625   0.643   3.995   7.659 -0.2905  0.4797  0.8794
 6722SOL    HW231626   0.732   4.010   7.770 -3.9899  2.9000 -0.2834
 6723SOL     OW31627   2.993   3.605   7.648 -0.3835  0.9659 -0.0664
 6723SOL    HW131628   3.045   3.555   7.585 -2.2463 -1.5506  0.4318
 6723SOL    HW231629   2.951   3.673   7.595  1.3207  1.6371 -0.5536
 6724SOL     OW31630   0.111   2.811  17.060 -0.0570  0.6922 -0.0511
 6724SOL    HW131631   0.080   2.752  17.130 -1.0384  0.7812 -0.4174
 6724SOL    HW231632   0.119   2.756  16.983  0.9987 -1.1941  1.3893
 6725SOL     OW31633   0.295   1.461   8.751 -0.1598 -0.0600  0.2809
 6725SOL    HW131634   0.270   1.391   8.811 -0.4992 -0.5880 -0.4712
 6725SOL    HW231635   0.213   1.478   8.704 -0.7860  0.4517  1.5594
 6726SOL     OW31636   2.139   4.226   3.683 -0.2635 -0.1950 -0.0583
 6726SOL    HW131637   2.080   4.167   3.731 -3.0629  1.5084 -1.4339
 6726SOL    HW231638   2.211   4.171   3.652  2.0051  0.6560  3.6910
 6727SOL     OW31639   1.292   2.939   8.806 -0.2894 -0.0906 -0.2500
 6727SOL    HW131640   1.347   2.918   8.731 -0.0384  0.4380 -0.2188
 6727SOL    HW231641   1.224   2.877   8.780  0.5293 -0.7333 -0.8387
 6728SOL     OW31642   1.854   2.678   6.756  0.1015  0.5065 -0.2265
 6728SOL    HW131643   1.907   2.610   6.713 -1.2680 -0.3268 -0.5900
 6728SOL    HW231644   1.816   2.728   6.684  1.0990 -0.7368 -1.6114
 6729SOL     OW31645   3.181   1.277  11.444 -0.1267 -0.1142  0.0077
 6729SOL    HW131646   3.170   1.189  11.407  0.0974  0.7027 -2.0192
 6729SOL    HW231647   3.091   1.288  11.474  0.5816  2.3995  1.2104
 6730SOL     OW31648   3.267   1.667   0.737 -0.0303 -0.0864 -0.3372
 6730SOL    HW131649   3.307   1.665   0.650  0.0370 -0.2315 -0.3031
 6730SOL    HW231650   3.253   1.760   0.755 -1.1261  0.3616 -3.5740
 6731SOL     OW31651   1.767   2.084   7.571  0.0388 -0.1845 -0.2071
 6731SOL    HW131652   1.752   2.018   7.638 -3.5159 -0.2537 -1.1007
 6731SOL    HW231653   1.738   2.165   7.613  1.8074 -0.7169  2.0201
 6732SOL     OW31654   4.421   2.663   0.126 -0.5431 -0.5881 -0.3726
 6732SOL    HW131655   4.483   2.705   0.185 -0.9494  0.0350 -0.3867
 6732SOL    HW231656   4.455   2.688   0.040 -0.8130 -1.4902 -0.7348
 6733SOL     OW31657   2.271   4.416   4.422  0.7656 -0.3457  0.0307
 6733SOL    HW131658   2.250   4.334   4.379  1.8843 -0.8283  0.3841
 6733SOL    HW231659   2.268   4.482   4.353 -0.1533 -1.3400 -0.8675
 6734SOL     OW31660   4.515   2.861   4.146  0.2546  0.0901  0.1800
 6734SOL    HW131661   4.606   2.889   4.142  1.0477 -2.5115  0.2173
 6734SOL    HW231662   4.510   2.805   4.069  2.9365 -1.3829  1.0847
 6735SOL     OW31663   3.363   1.096  15.876  0.1214  0.0135  0.5814
 6735SOL    HW131664   3.363   1.080  15.971 -0.7281  0.4154  0.6536
 6735SOL    HW231665   3.456   1.077  15.866  0.0229 -0.0437 -0.1825
 6736SOL     OW31666   2.713   2.985   6.646 -0.1307  0.1119  0.7767
 6736SOL    HW131667   2.806   2.982   6.669 -0.2752  1.4984  1.5371
 6736SOL    HW231668   2.710   2.905   6.594  0.2037  0.2919  0.4771
 6737SOL     OW31669   3.269   0.391  13.838 -0.2313 -0.1341  0.0382
 6737SOL    HW131670   3.273   0.476  13.881 -0.9507  0.1671 -0.4956
 6737SOL    HW231671   3.192   0.359  13.886  0.4842  0.5755  1.6723
 6738SOL     OW31672   3.499   2.811   5.877 -0.1975 -0.2455  0.2952
 6738SOL    HW131673   3.565   2.746   5.854 -1.8111 -2.1067  0.9598
 6738SOL    HW231674   3.533   2.842   5.961 -0.3957 -0.9595  0.6352
 6739SOL     OW31675   3.702   2.571   3.185  0.4499  0.6447 -0.1101
 6739SOL    HW131676   3.715   2.487   3.141  1.1174  1.5061 -1.5552
 6739SOL    HW231677   3.694   2.621   3.103  0.0147  1.9846  0.7533
 6740SOL     OW31678   0.760   2.287   7.213  0.3855  0.5636  0.0468
 6740SOL    HW131679   0.674   2.275   7.254 -0.2627  2.8227 -0.6306
 6740SOL    HW231680   0.802   2.203   7.230 -3.0770 -0.9993  0.9349
 6741SOL     OW31681   3.765   4.241  14.775 -0.5345  0.6595  0.9710
 6741SOL    HW131682   3.786   4.193  14.855  2.5423  1.0633  0.4139
 6741SOL    HW231683   3.696   4.299  14.807 -1.2850  1.0331 -1.2708
 6742SOL     OW31684   2.903   3.628  12.738 -0.1729  0.2278 -0.6639
 6742SOL    HW131685   2.916   3.723  12.738 -4.1745  0.7614  1.1529
 6742SOL    HW231686   2.911   3.607  12.645  0.2674  1.8031 -0.9902
 6743SOL     OW31687   4.139   2.000   7.416  0.4074 -0.0375  0.2754
 6743SOL    HW131688   4.066   1.937   7.418 -0.0423  0.5008  0.9994
 6743SOL    HW231689   4.174   1.990   7.328  1.3725 -0.3409  0.6894
 6744SOL     OW31690   2.213   4.055  16.125 -0.0648 -0.1771 -0.4711
 6744SOL    HW131691   2.256   4.079  16.043  1.7319  2.0862  1.1278
 6744SOL    HW231692   2.125   4.026  16.099 -0.5042  1.3713 -0.7392
 6745SOL     OW31693   0.483   0.253  11.617  0.5403 -0.1267  0.3174
 6745SOL    HW131694   0.418   0.196  11.576  1.9300 -1.4011 -0.0888
 6745SOL    HW231695   0.488   0.216  11.705  1.8880  0.7879  0.6220
 6746SOL     OW31696   0.674   4.411  15.573 -0.0200 -0.5076  0.9641
 6746SOL    HW131697   0.648   4.496  15.609 -0.4310 -0.0300 -0.4273
 6746SOL    HW231698   0.587   4.382  15.547  0.2144  0.4717 -0.9348
 6747SOL     OW31699   1.502   2.133   2.541  0.1882 -0.3024 -0.3619
 6747SOL    HW131700   1.571   2.101   2.483  1.3516 -0.5542  1.1587
 6747SOL    HW231701   1.472   2.052   2.581  0.3963  0.0222  0.4505
 6748SOL     OW31702   2.111   3.047   2.651 -0.6905  0.4067 -0.0674
 6748SOL    HW131703   2.135   3.133   2.615  0.5416 -0.1285 -0.4996
 6748SOL    HW231704   2.129   2.997   2.571  2.9972  2.1642 -0.3322
 6749SOL     OW31705   2.315   3.511   6.081 -0.2891  0.9937 -0.1002
 6749SOL    HW131706   2.409   3.504   6.064 -0.5351 -0.2932 -0.9866
 6749SOL    HW231707   2.319   3.464   6.165  0.5419  0.4727 -0.4260
 6750SOL     OW31708   1.630   2.729   3.390  0.3692  0.5437 -0.1070
 6750SOL    HW131709   1.580   2.732   3.308 -1.3560 -0.4441  0.9168
 6750SOL    HW231710   1.670   2.642   3.385 -0.0171  0.3026  1.0150
 6751SOL     OW31711   4.347   1.437   9.867 -0.4942  0.8401  0.1160
 6751SOL    HW131712   4.362   1.531   9.855 -0.9850  0.8018 -0.7788
 6751SOL    HW231713   4.271   1.451   9.924  0.3999  0.5577  1.3794
 6752SOL     OW31714   0.825   0.918   2.358  0.2078 -0.2205  0.1830
 6752SOL    HW131715   0.843   0.847   2.296  0.5789 -1.8852  2.1966
 6752SOL    HW231716   0.905   0.969   2.347 -0.4780  0.9937  0.8726
 6753SOL     OW31717   2.522   1.596   6.075  0.4256  0.1067  0.2802
 6753SOL    HW131718   2.601   1.558   6.038 -0.1374  1.6978 -2.5214
 6753SOL    HW231719   2.550   1.608   6.166  2.8822 -1.7191 -0.2515
 6754SOL     OW31720   1.513   0.747   4.861 -0.0802  0.4584  0.1696
 6754SOL    HW131721   1.601   0.785   4.869 -1.0011  2.2165  1.9033
 6754SOL    HW231722   1.539   0.656   4.849 -0.9135  0.3508 -0.8175
 6755SOL     OW31723   1.286   4.104  14.695  0.7778  0.1847  0.2812
 6755SOL    HW131724   1.233   4.028  14.721 -1.5142  0.6469 -3.0487
 6755SOL    HW231725   1.374   4.068  14.686  0.4290 -0.1160 -1.9772
 6756SOL     OW31726   4.354   1.211   1.302 -0.3022  0.0629  0.5260
 6756SOL    HW131727   4.355   1.191   1.396  2.5405 -1.1434  0.2497
 6756SOL    HW231728   4.271   1.167   1.287 -0.3428 -0.0352  1.0164
 6757SOL     OW31729   0.724   2.093   4.383 -0.3978  0.3163 -1.2262
 6757SOL    HW131730   0.700   2.097   4.475  0.4247 -1.1846 -0.9525
 6757SOL    HW231731   0.761   2.181   4.371  0.0090  0.5467  1.7553
 6758SOL     OW31732   0.656   4.434   3.716 -0.0566  0.4575  0.3882
 6758SOL    HW131733   0.614   4.507   3.670  0.9631  1.0725  0.4381
 6758SOL    HW231734   0.656   4.369   3.646  1.0981  0.9194 -0.0308
 6759SOL     OW31735   1.264   3.537   5.259  0.3492 -0.3947  0.2188
 6759SOL    HW131736   1.303   3.515   5.344 -0.1167 -0.7097  0.3480
 6759SOL    HW231737   1.266   3.445   5.232  0.6148 -0.1943 -0.4370
 6760SOL     OW31738   0.594   2.245   8.466  0.3797 -0.5229 -0.4407
 6760SOL    HW131739   0.654   2.173   8.483 -0.0417 -0.5963  0.6939
 6760SOL    HW231740   0.536   2.199   8.405  1.5871  0.3472 -2.2824
 6761SOL     OW31741   2.341   1.603   4.623 -0.0921 -0.1010  0.2387
 6761SOL    HW131742   2.341   1.661   4.547  1.8042 -1.0457 -0.4943
 6761SOL    HW231743   2.274   1.649   4.672 -0.4652 -0.8756  0.4566
 6762SOL     OW31744   3.242   1.975   6.054 -0.6115 -0.4370 -0.7169
 6762SOL    HW131745   3.258   1.884   6.028 -0.2187 -0.3579 -0.7475
 6762SOL    HW231746   3.304   2.026   6.003 -0.4701 -1.0144 -1.1209
 6763SOL     OW31747   1.657   1.212   9.643 -0.2340 -0.8558  0.5395
 6763SOL    HW131748   1.713   1.183   9.716 -1.7439  1.5000  2.6260
 6763SOL    HW231749   1.691   1.298   9.620 -2.6485 -0.1166 -0.2337
 6764SOL     OW31750   0.811   4.398  12.897 -0.2691 -0.0192 -0.4466
 6764SOL    HW131751   0.720   4.376  12.916 -0.1299 -1.1367 -1.0728
 6764SOL    HW231752   0.829   4.469  12.959  1.6851 -1.4408  0.6361
 6765SOL     OW31753   4.574   2.544  10.136  0.0687  0.0663 -0.4621
 6765SOL    HW131754   4.661   2.508  10.153 -0.3462 -0.2486  0.9619
 6765SOL    HW231755   4.593   2.635  10.113  0.4847 -0.3684 -1.8403
 6766SOL     OW31756   2.825   4.554   0.989  0.3603 -0.3609  0.1911
 6766SOL    HW131757   2.919   4.559   1.005  0.0973 -0.7609  1.8469
 6766SOL    HW231758   2.816   4.467   1.028  2.7853  0.1140  1.8135
 6767SOL     OW31759   1.855   1.648  14.880 -0.2802 -0.2283  0.1682
 6767SOL    HW131760   1.872   1.558  14.909  1.0684  0.4416  1.4587
 6767SOL    HW231761   1.946   1.674  14.867  0.0695  0.0152  3.0779
 6768SOL     OW31762   2.682   2.807  10.824 -0.2255 -0.1079 -0.4462
 6768SOL    HW131763   2.624   2.751  10.773 -0.1889 -1.8319  1.4147
 6768SOL    HW231764   2.768   2.784  10.788  1.4892  0.3968  3.2428
 6769SOL     OW31765   3.088   3.844   0.191 -0.3899  0.5038 -0.1097
 6769SOL    HW131766   3.071   3.770   0.133 -0.1219  0.2115  0.1864
 6769SOL    HW231767   3.014   3.899   0.165 -1.0164 -1.0221 -1.5554
 6770SOL     OW31768   1.964   3.782   3.964  0.5634 -0.3886  0.2135
 6770SOL    HW131769   2.005   3.749   3.884  0.6716 -1.0455  0.5384
 6770SOL    HW231770   1.895   3.719   3.986 -1.1243  0.3214 -3.0519
 6771SOL     OW31771   0.696   2.413  11.236 -0.1189 -0.6467  0.2432
 6771SOL    HW131772   0.696   2.417  11.140 -1.3684  0.0597  0.2727
 6771SOL    HW231773   0.620   2.361  11.261  0.3844 -1.8051 -0.6407
 6772SOL     OW31774   0.101   2.042  14.649 -0.3567  0.4223  0.1552
 6772SOL    HW131775   0.148   2.119  14.618 -0.7478  0.0020 -1.5273
 6772SOL    HW231776   0.128   2.042  14.740 -0.5442 -0.0983  0.2118
 6773SOL     OW31777   3.500   3.322   1.507 -0.2846  0.4067 -0.2069
 6773SOL    HW131778   3.549   3.284   1.580 -0.7787 -0.9049 -0.5556
 6773SOL    HW231779   3.440   3.374   1.561 -0.3594 -0.8632  0.9417
 6774SOL     OW31780   2.620   1.357   0.999 -0.5066 -0.9547 -0.6043
 6774SOL    HW131781   2.647   1.267   1.018  0.9792  0.3230  3.3845
 6774SOL    HW231782   2.615   1.398   1.085  0.6033  0.8828 -1.4022
 6775SOL     OW31783   0.032   4.495   8.317 -0.7839  0.8661  0.0250
 6775SOL    HW131784   0.036   4.586   8.346 -1.4618  0.9115 -0.0255
 6775SOL    HW231785   4.720   4.449   8.393 -0.8488 -0.6962 -0.9529
 6776SOL     OW31786   3.591   4.712   7.279 -0.0459  0.1255 -0.4755
 6776SOL    HW131787   3.515   4.656   7.292 -0.5099  1.0468  0.7448
 6776SOL    HW231788   3.637   4.684   7.358  1.0044  0.6871 -0.8826
 6777SOL     OW31789   0.862   1.482  11.800 -0.2597  0.0816 -0.5602
 6777SOL    HW131790   0.772   1.448  11.805 -0.8808  1.9317  0.7238
 6777SOL    HW231791   0.866   1.541  11.875  1.6120 -0.6392 -0.0885
 6778SOL     OW31792   3.460   2.235   5.063 -0.2745  0.3899 -0.2712
 6778SOL    HW131793   3.484   2.150   5.101  0.7850 -0.3848 -2.6734
 6778SOL    HW231794   3.539   2.261   5.017 -0.5432 -2.1365 -2.1924
 6779SOL     OW31795   3.394   3.871   9.272 -0.6297 -0.7451  0.5183
 6779SOL    HW131796   3.399   3.899   9.180 -2.8777  0.5542  0.7938
 6779SOL    HW231797   3.361   3.783   9.256  0.5262 -0.9196 -0.9244
 6780SOL     OW31798   4.536   0.081   1.191  0.2277 -0.7913 -0.6605
 6780SOL    HW131799   4.476   0.098   1.264 -0.4648  0.4879 -1.5341
 6780SOL    HW231800   4.487   0.125   1.122  1.0920 -0.9494 -1.3767
 6781SOL     OW31801   3.968   4.296   4.238 -0.4072  0.1031 -0.2418
 6781SOL    HW131802   3.905   4.224   4.231 -0.7354  0.5488 -1.6805
 6781SOL    HW231803   3.938   4.356   4.171 -1.8382 -1.5930 -1.1274
 6782SOL     OW31804   1.985   2.178  13.266 -0.4832  0.0075  0.2873
 6782SOL    HW131805   1.963   2.271  13.262 -1.6669 -0.3332 -1.2316
 6782SOL    HW231806   1.986   2.156  13.173  0.1229  0.3687  0.2115
 6783SOL     OW31807   3.071   4.180   1.410  0.0682  0.3011 -0.5104
 6783SOL    HW131808   2.981   4.210   1.426  0.4782  1.8331 -1.0877
 6783SOL    HW231809   3.051   4.096   1.370  0.0488 -0.0031  0.1350
 6784SOL     OW31810   1.138   2.564   3.589 -0.0838  0.2062  0.5458
 6784SOL    HW131811   1.214   2.591   3.537  0.1540  0.8056  1.2156
 6784SOL    HW231812   1.109   2.485   3.542 -0.4031 -0.3788  1.7369
 6785SOL     OW31813   2.404   1.323   4.616 -0.3011  0.3869  0.0030
 6785SOL    HW131814   2.378   1.290   4.702  0.4349  0.4751  0.2610
 6785SOL    HW231815   2.381   1.416   4.621  1.3797  0.9362 -2.1464
 6786SOL     OW31816   1.360   0.296  13.419  0.4047  0.0317 -0.0641
 6786SOL    HW131817   1.424   0.258  13.479 -0.3900 -2.4979 -0.7870
 6786SOL    HW231818   1.402   0.262  13.339  2.9069  1.3622  0.6826
 6787SOL     OW31819   0.540   3.965   6.066 -0.7272  0.1121 -0.3345
 6787SOL    HW131820   0.505   3.886   6.107  3.5314 -2.0423 -0.8501
 6787SOL    HW231821   0.468   4.009   6.021 -1.2799  0.0974  0.5288
 6788SOL     OW31822   3.822   4.289   3.144 -0.0704 -0.3489 -0.6891
 6788SOL    HW131823   3.891   4.349   3.116  1.2157 -2.9325 -2.9782
 6788SOL    HW231824   3.884   4.220   3.166  1.1238  0.4489 -1.5744
 6789SOL     OW31825   2.207   3.897   8.372  0.1606  0.4545 -0.1953
 6789SOL    HW131826   2.285   3.843   8.366 -1.0357 -1.0235 -2.3255
 6789SOL    HW231827   2.228   3.957   8.444  0.6381 -0.7333  0.6594
 6790SOL     OW31828   0.785   3.119   7.464  0.9206  0.2944  0.4615
 6790SOL    HW131829   0.785   3.048   7.528  0.5394 -0.9986 -0.9881
 6790SOL    HW231830   0.734   3.184   7.512  1.2807 -0.0798  1.3564
 6791SOL     OW31831   2.185   1.338   3.681 -0.2433  0.1305  0.0149
 6791SOL    HW131832   2.267   1.318   3.638 -1.1281  0.3991 -1.7761
 6791SOL    HW231833   2.185   1.432   3.663  1.3035 -0.1606 -1.3927
 6792SOL     OW31834   3.859   3.353  10.701 -0.1682 -0.2826 -0.3232
 6792SOL    HW131835   3.901   3.434  10.671  1.6925 -1.5312 -1.0870
 6792SOL    HW231836   3.771   3.348  10.664  0.0800 -0.6299 -0.8616
 6793SOL     OW31837   0.209   0.274   2.310  0.6341  0.3589  0.4820
 6793SOL    HW131838   0.224   0.179   2.313 -0.8213  0.1273  0.3009
 6793SOL    HW231839   0.299   0.299   2.291  0.9632  0.0774  1.6649
 6794SOL     OW31840   2.646   1.148   2.731  0.5764  0.4729 -0.2875
 6794SOL    HW131841   2.574   1.100   2.773  0.3527 -0.3929 -1.6674
 6794SOL    HW231842   2.650   1.104   2.646  0.6953  1.9953 -1.0705
 6795SOL     OW31843   1.559   1.304   9.249 -0.5615 -0.8017 -0.4153
 6795SOL    HW131844   1.557   1.301   9.154 -1.3388 -0.1562 -0.4181
 6795SOL    HW231845   1.538   1.397   9.251  0.1720 -0.6131 -1.4883
 6796SOL     OW31846   1.658   4.200  16.876  0.0120  0.2182 -0.5820
 6796SOL    HW131847   1.586   4.259  16.854 -0.0988  0.5815  0.7430
 6796SOL    HW231848   1.724   4.249  16.827 -0.1842  0.5866 -0.4830
 6797SOL     OW31849   2.010   0.933   8.675 -0.6349 -0.2986 -0.1428
 6797SOL    HW131850   2.011   0.974   8.761 -1.5610 -0.0937 -0.2327
 6797SOL    HW231851   2.074   0.863   8.688  0.9457  1.0547 -0.6245
 6798SOL     OW31852   2.037   3.769   3.652  0.1582  0.1881 -0.2952
 6798SOL    HW131853   2.074   3.686   3.625  0.4441 -0.2861  1.5508
 6798SOL    HW231854   1.948   3.741   3.676  1.7219 -0.6074  4.5415
 6799SOL     OW31855   1.978   2.840   2.127 -0.3816 -0.1142 -0.2318
 6799SOL    HW131856   1.976   2.744   2.123  0.0534 -0.1823  1.3067
 6799SOL    HW231857   2.071   2.857   2.140 -1.0784  1.2578  2.8652
 6800SOL     OW31858   3.823   4.325  12.030 -0.1217  0.9583 -0.0007
 6800SOL    HW131859   3.916   4.332  12.054 -0.0432 -2.6484  0.7327
 6800SOL    HW231860   3.819   4.243  11.981 -0.6031  0.1777  1.3587
 6801SOL     OW31861   0.079   2.218  15.813 -0.5202 -0.1456 -0.2722
 6801SOL    HW131862   4.718   2.252  15.844  1.3735  3.3182  1.0118
 6801SOL    HW231863   0.139   2.235  15.886  0.7281 -1.2036 -1.0449
 6802SOL     OW31864   4.573   3.772  15.280  0.3185 -0.8022  0.0898
 6802SOL    HW131865   4.567   3.846  15.220  0.5512 -0.3539  0.6197
 6802SOL    HW231866   4.605   3.700  15.226 -2.2389 -2.5402  0.8677
 6803SOL     OW31867   3.997   1.025   4.058 -0.0411 -0.0673 -0.3838
 6803SOL    HW131868   4.059   1.083   4.102  1.7867 -1.5900 -0.9313
 6803SOL    HW231869   4.019   1.031   3.965 -2.0491 -1.4358 -0.9492
 6804SOL     OW31870   1.490   2.720   8.766 -0.0529 -0.4459  0.2596
 6804SOL    HW131871   1.578   2.683   8.768  0.4632  0.7959  0.4291
 6804SOL    HW231872   1.435   2.644   8.744 -1.6121  0.9017 -0.4987
 6805SOL     OW31873   1.406   1.576   2.185  0.4267 -0.4489 -0.2802
 6805SOL    HW131874   1.477   1.523   2.147  0.6098 -0.2555 -0.2066
 6805SOL    HW231875   1.448   1.600   2.267 -0.2418  0.2845 -0.1565
 6806SOL     OW31876   1.958   1.708   8.850 -0.3394  0.4189 -0.5166
 6806SOL    HW131877   1.959   1.769   8.776 -1.9473  0.3873 -0.5767
 6806SOL    HW231878   2.035   1.658   8.825 -0.2752  1.3840 -2.2806
 6807SOL     OW31879   0.636   1.902   0.377 -0.1908 -0.3065  0.4730
 6807SOL    HW131880   0.551   1.932   0.408 -0.5561 -1.1484  0.2977
 6807SOL    HW231881   0.615   1.817   0.338  3.4881 -0.7457 -0.5383
 6808SOL     OW31882   4.140   3.478   3.477  0.2262  0.0907 -0.2695
 6808SOL    HW131883   4.167   3.395   3.436 -1.0581  0.7291 -2.4041
 6808SOL    HW231884   4.104   3.519   3.399 -0.3837 -0.2365 -0.1627
 6809SOL     OW31885   0.577   2.287   0.799  0.2367  0.0739 -0.2434
 6809SOL    HW131886   0.634   2.355   0.834 -0.3191 -0.7057  2.1345
 6809SOL    HW231887   0.636   2.212   0.791  1.0738  0.6183  1.0096
 6810SOL     OW31888   4.303   3.610   2.300  0.8444 -0.0918  0.3448
 6810SOL    HW131889   4.257   3.684   2.339  0.6959 -0.4684  0.8857
 6810SOL    HW231890   4.370   3.592   2.365  0.7881  0.5646  0.5802
 6811SOL     OW31891   4.358   1.647  10.348 -0.6079  0.0004  0.1237
 6811SOL    HW131892   4.413   1.623  10.274 -0.6561 -0.8428  0.3581
 6811SOL    HW231893   4.304   1.568  10.358 -1.3157  0.2865 -1.4091
 6812SOL     OW31894   1.713   3.367   5.830  0.0329 -0.2072 -0.0392
 6812SOL    HW131895   1.732   3.408   5.915  1.0118 -0.8376  0.0485
 6812SOL    HW231896   1.804   3.349   5.806 -0.4263  0.5373 -2.3747
 6813SOL     OW31897   2.459   3.317  17.249  0.1292 -0.0051 -0.1963
 6813SOL    HW131898   2.376   3.271  17.235 -1.0899  1.7783  1.1223
 6813SOL    HW231899   2.485   3.277  17.332 -1.4128 -0.5651  0.0179
 6814SOL     OW31900   1.778   0.802  17.672 -0.3036 -0.0055 -0.0639
 6814SOL    HW131901   1.765   0.757   0.059  0.3638 -0.6280 -0.2985
 6814SOL    HW231902   1.723   0.880  17.677 -0.3609 -0.1320  1.2965
 6815SOL     OW31903   2.609   4.658   1.404 -0.6497 -0.4089  0.5570
 6815SOL    HW131904   2.576   4.572   1.429 -1.3964  0.4876  2.5762
 6815SOL    HW231905   2.701   4.641   1.383 -0.4710  0.6582  0.5172
 6816SOL     OW31906   0.283   1.569  16.671  0.0504 -0.1679 -0.0803
 6816SOL    HW131907   0.378   1.562  16.676  0.1634  1.4143  0.2173
 6816SOL    HW231908   0.287   1.665  16.664  0.4196 -0.4278 -3.5330
 6817SOL     OW31909   1.469   0.224   0.823 -0.0288  0.1387 -0.2082
 6817SOL    HW131910   1.498   0.139   0.854 -2.4050 -0.0187  1.5877
 6817SOL    HW231911   1.427   0.247   0.906  0.5269  2.4803 -0.5698
 6818SOL     OW31912   4.432   0.745   9.980  0.2245  0.2116  0.3259
 6818SOL    HW131913   4.512   0.733   9.929 -0.5577 -0.2760 -0.7939
 6818SOL    HW231914   4.431   0.839   9.998 -1.4354  0.0026  1.2984
 6819SOL     OW31915   1.441   1.778   0.787  0.0683  0.2130 -0.2291
 6819SOL    HW131916   1.375   1.718   0.752 -0.0468 -0.3643  0.9797
 6819SOL    HW231917   1.481   1.814   0.708 -0.7132  1.4801 -0.0551
 6820SOL     OW31918   2.052   0.878   2.325  0.4256 -0.0654  0.5755
 6820SOL    HW131919   2.106   0.813   2.280 -0.8846 -0.4123 -0.4846
 6820SOL    HW231920   1.994   0.809   2.358  0.5664  1.1598  3.3622
 6821SOL     OW31921   0.743   2.769   4.974 -0.1722 -0.7642  0.1159
 6821SOL    HW131922   0.682   2.821   5.027  0.5831 -1.9667  2.1860
 6821SOL    HW231923   0.732   2.683   5.015  2.3341 -0.6138  1.0573
 6822SOL     OW31924   1.422   0.347  10.682  0.0688  0.0146 -0.0773
 6822SOL    HW131925   1.384   0.377  10.600  2.6814  0.1998 -1.2359
 6822SOL    HW231926   1.505   0.394  10.677 -0.6710  1.3075 -0.2672
 6823SOL     OW31927   2.980   3.970   2.012  0.3731 -0.0401  0.1004
 6823SOL    HW131928   3.013   4.047   2.057  1.6811  0.2231 -1.2841
 6823SOL    HW231929   2.910   4.019   1.968  0.7797 -0.2740 -0.8179
 6824SOL     OW31930   1.633   3.153   9.064  0.0302 -0.3944 -0.0923
 6824SOL    HW131931   1.650   3.247   9.061 -0.8521 -0.3487 -2.6607
 6824SOL    HW231932   1.684   3.118   8.991 -0.1929 -2.7976  0.8845
 6825SOL     OW31933   3.866   3.477   2.629 -0.2977  0.6718  0.6119
 6825SOL    HW131934   3.776   3.506   2.643 -1.2811 -2.2397  0.4577
 6825SOL    HW231935   3.914   3.554   2.659  2.3052 -0.1824 -1.3183
 6826SOL     OW31936   3.585   1.522   3.586  0.7428 -0.3788 -0.0356
 6826SOL    HW131937   3.507   1.480   3.622  0.8139  0.2946  0.9047
 6826SOL    HW231938   3.650   1.513   3.656  0.9614  2.1205  0.1065
 6827SOL     OW31939   2.199   1.646   0.287  0.2977 -0.3917 -0.2858
 6827SOL    HW131940   2.122   1.702   0.273 -2.2376 -3.7606  0.3201
 6827SOL    HW231941   2.204   1.655   0.382  0.5238  1.6530 -0.4864
 6828SOL     OW31942   1.151   0.406   9.845  0.2182  0.2656  0.2340
 6828SOL    HW131943   1.077   0.466   9.855  1.3566  1.7766 -0.5082
 6828SOL    HW231944   1.103   0.323   9.839  0.7846 -0.1325  1.1730
 6829SOL     OW31945   3.253   3.905   8.820 -0.1585  0.5863  0.0940
 6829SOL    HW131946   3.298   3.963   8.759  1.3510  0.3675  0.9964
 6829SOL    HW231947   3.268   3.946   8.906  2.0675 -1.7323  0.8262
 6830SOL     OW31948   0.118   1.877  14.906 -0.0792 -0.3607 -0.1386
 6830SOL    HW131949   0.039   1.930  14.913 -0.2333 -0.5067 -0.7882
 6830SOL    HW231950   0.151   1.882  14.996 -0.4713  0.3070 -0.0368
 6831SOL     OW31951   1.942   0.010  10.903 -0.5198 -0.5638  0.0278
 6831SOL    HW131952   1.988   0.083  10.946 -1.9051 -0.0136  0.5845
 6831SOL    HW231953   1.876   0.059  10.853 -1.1095 -0.5552  0.8147
 6832SOL     OW31954   1.958   0.285  13.704 -0.3567  0.2671  0.1688
 6832SOL    HW131955   1.908   0.367  13.713 -0.3733  0.0581  2.0047
 6832SOL    HW231956   1.989   0.291  13.794 -0.6692  0.9585  0.2327
 6833SOL     OW31957   2.784   0.673  11.738 -0.0250  0.2789  0.1774
 6833SOL    HW131958   2.770   0.768  11.744  1.3357  0.4076  1.3434
 6833SOL    HW231959   2.703   0.636  11.772 -0.1379 -0.4925 -0.9585
 6834SOL     OW31960   3.828   1.844   3.906 -0.0000  0.3129  0.2378
 6834SOL    HW131961   3.790   1.898   3.975 -2.6792 -3.1908  1.5166
 6834SOL    HW231962   3.765   1.772   3.899  1.4880 -1.0323  0.5779
 6835SOL     OW31963   4.534   2.376   0.154  0.0289  0.2433  0.3457
 6835SOL    HW131964   4.512   2.452   0.209  0.6130  0.4609  0.2762
 6835SOL    HW231965   4.528   2.410   0.065  0.6897 -0.0312  0.2024
 6836SOL     OW31966   3.567   2.582   1.980 -0.1715 -0.2071  0.4881
 6836SOL    HW131967   3.568   2.506   1.921 -0.2018 -0.0674  0.3059
 6836SOL    HW231968   3.660   2.604   1.992 -0.0536  0.6591 -1.9243
 6837SOL     OW31969   0.932   0.162   6.410  0.3648  0.2157 -0.6525
 6837SOL    HW131970   0.889   0.241   6.443  0.1910  0.1122 -0.6319
 6837SOL    HW231971   1.012   0.158   6.462  2.3425 -0.2895 -3.7385
 6838SOL     OW31972   1.370   2.618  14.024 -0.3449  0.1040 -0.3873
 6838SOL    HW131973   1.360   2.681  14.095  0.4882  1.0805 -1.1474
 6838SOL    HW231974   1.442   2.560  14.050 -1.2395 -0.8785 -0.0846
 6839SOL     OW31975   3.289   1.720  15.927  0.4188  0.0375 -0.7433
 6839SOL    HW131976   3.247   1.662  15.863 -0.8735  2.6043 -2.2225
 6839SOL    HW231977   3.343   1.771  15.867 -0.1569  0.6870 -0.7066
 6840SOL     OW31978   1.005   1.801  16.829 -0.2372 -0.8250  0.1884
 6840SOL    HW131979   0.914   1.776  16.812 -1.3528  2.9573  0.4469
 6840SOL    HW231980   1.033   1.733  16.890  0.7704  1.5846  2.4078
 6841SOL     OW31981   0.043   3.633   3.477 -0.6025  0.0780 -0.4368
 6841SOL    HW131982   0.138   3.647   3.478 -0.6099  0.1373 -0.6288
 6841SOL    HW231983   0.015   3.681   3.555 -0.3617  0.9864 -0.9216
 6842SOL     OW31984   2.785   4.460  16.175  0.4110 -0.5334 -0.3507
 6842SOL    HW131985   2.880   4.461  16.190  0.0127 -0.2573  2.1918
 6842SOL    HW231986   2.783   4.410  16.094 -1.0134  1.1897 -1.3698
 6843SOL     OW31987   4.259   3.101   8.605 -0.0693  0.0137 -0.8043
 6843SOL    HW131988   4.165   3.097   8.587  0.0944 -0.4143 -1.5245
 6843SOL    HW231989   4.260   3.099   8.701  2.4220  1.7686 -0.7972
 6844SOL     OW31990   0.724   3.210   4.519  0.0400 -0.2222 -0.6012
 6844SOL    HW131991   0.631   3.188   4.517 -0.0548  0.2201 -1.4831
 6844SOL    HW231992   0.743   3.192   4.610 -1.8851  0.1632 -0.1099
 6845SOL     OW31993   1.057   2.732   7.583 -0.0811 -0.9357 -0.1514
 6845SOL    HW131994   1.067   2.670   7.655  0.8840  0.6544  1.0762
 6845SOL    HW231995   1.140   2.723   7.537  0.9174 -0.8565  1.6303
 6846SOL     OW31996   4.153   2.628   9.692  0.0187 -0.2205  0.3080
 6846SOL    HW131997   4.075   2.597   9.646 -0.3787  2.0944 -0.5875
 6846SOL    HW231998   4.124   2.646   9.782 -1.3012 -1.1210  0.0498
 6847SOL     OW31999   1.340   0.782   5.704 -0.2208 -0.3658  0.3402
 6847SOL    HW132000   1.264   0.733   5.674  0.3293 -0.5972 -0.6772
 6847SOL    HW232001   1.398   0.761   5.631 -0.1274 -0.1251  0.3456
 6848SOL     OW32002   1.295   3.202   7.657 -0.3805  0.3790 -0.4180
 6848SOL    HW132003   1.342   3.252   7.590 -0.0172 -0.9861 -1.2017
 6848SOL    HW232004   1.254   3.129   7.609 -1.3691 -0.3748  1.5848
 6849SOL     OW32005   2.592   2.452   0.817  0.3070 -0.0036  0.6027
 6849SOL    HW132006   2.505   2.438   0.778  0.8157 -2.0164  0.1933
 6849SOL    HW232007   2.633   2.491   0.740  0.4401 -0.1294  0.6110
 6850SOL     OW32008   1.648   1.419   8.025  0.1684 -0.4779 -0.3873
 6850SOL    HW132009   1.654   1.324   8.034 -2.0762 -0.6217 -0.2439
 6850SOL    HW232010   1.584   1.443   8.092  1.5984  0.9040  0.4830
 6851SOL     OW32011   2.887   4.417   1.710  0.0743 -0.1242 -0.1581
 6851SOL    HW132012   2.959   4.358   1.732  1.3920  0.7964 -2.0699
 6851SOL    HW232013   2.829   4.400   1.784  0.7977  0.7018  0.5960
 6852SOL     OW32014   1.160   2.785   8.624  0.2864 -0.1506 -0.0755
 6852SOL    HW132015   1.133   2.707   8.576  1.0268 -1.6300  1.9489
 6852SOL    HW232016   1.228   2.807   8.560 -0.8481  1.8807 -0.6185
 6853SOL     OW32017   3.828   0.199   2.262 -0.0351 -0.1606  0.6107
 6853SOL    HW132018   3.895   0.185   2.328  0.6038  1.2255  0.2488
 6853SOL    HW232019   3.814   0.111   2.227 -3.4858  1.2700 -1.6988
 6854SOL     OW32020   1.857   2.498   4.403  0.7770  0.5522 -0.1483
 6854SOL    HW132021   1.792   2.560   4.370  0.8152  0.1014 -1.0563
 6854SOL    HW232022   1.931   2.545   4.364  1.3762 -0.5401 -0.3066
 6855SOL     OW32023   3.487   3.215   7.620  0.2053 -0.2616 -0.0990
 6855SOL    HW132024   3.463   3.191   7.531  2.4391 -2.0676 -0.2211
 6855SOL    HW232025   3.501   3.310   7.624  2.0210 -0.5249 -0.1407
 6856SOL     OW32026   4.330   0.178   5.862 -0.2073 -0.3673  0.5718
 6856SOL    HW132027   4.236   0.175   5.846 -0.1790  2.7113 -0.2260
 6856SOL    HW232028   4.362   0.091   5.836  1.5414 -0.3025  2.4883
 6857SOL     OW32029   1.958   3.860   6.933  0.3099  0.1854 -0.0943
 6857SOL    HW132030   2.017   3.789   6.906 -1.9793 -0.9539 -2.1149
 6857SOL    HW232031   1.941   3.901   6.848 -0.4274  1.3217  0.6070
 6858SOL     OW32032   3.897   3.793   6.081  0.3886  0.1093 -0.3723
 6858SOL    HW132033   3.866   3.881   6.102 -0.0674 -0.1880  0.1803
 6858SOL    HW232034   3.984   3.800   6.121  0.2275  0.2019 -0.0474
 6859SOL     OW32035   3.920   0.863   1.435 -0.2154 -0.4784 -0.2718
 6859SOL    HW132036   3.838   0.851   1.483 -1.2223  0.2102 -1.8175
 6859SOL    HW232037   3.936   0.956   1.451  4.0214 -1.2784  0.2470
 6860SOL     OW32038   2.370   3.588   6.952 -0.1696  0.9414 -0.0674
 6860SOL    HW132039   2.294   3.585   6.894  1.0548  0.7032 -1.6855
 6860SOL    HW232040   2.421   3.650   6.899  1.1254  1.4962  1.8095
 6861SOL     OW32041   4.709   2.455   6.451  0.2912  0.2442  0.0419
 6861SOL    HW132042   0.012   2.404   6.374  0.3191  0.2305  0.0605
 6861SOL    HW232043   4.682   2.533   6.404 -1.2029  0.0845  0.6460
 6862SOL     OW32044   4.140   1.259   7.266 -0.1643  0.8205 -0.0313
 6862SOL    HW132045   4.055   1.225   7.295  0.0887 -0.6904 -1.0626
 6862SOL    HW232046   4.171   1.175   7.232 -1.6065 -0.0952  0.8653
 6863SOL     OW32047   2.659   1.750   2.457 -0.2929  0.0694  0.1662
 6863SOL    HW132048   2.679   1.673   2.510 -1.3220  0.7309  1.5179
 6863SOL    HW232049   2.700   1.727   2.374 -0.4008 -2.0624  0.7152
 6864SOL     OW32050   0.093   1.034   5.636  0.4197 -0.3171 -0.7471
 6864SOL    HW132051   0.057   1.040   5.724  1.2395  2.8721 -0.6034
 6864SOL    HW232052   0.041   0.966   5.594  0.6898  1.1203 -3.4270
 6865SOL     OW32053   1.531   2.040  14.582 -0.6802  0.0516  0.0549
 6865SOL    HW132054   1.578   2.035  14.665 -0.5391  0.0102 -0.0283
 6865SOL    HW232055   1.460   1.978  14.601 -1.7615  1.4000  0.4479
 6866SOL     OW32056   3.210   4.096   5.585 -0.1533 -0.3176 -0.0617
 6866SOL    HW132057   3.295   4.096   5.629  0.4094 -2.2985 -1.1480
 6866SOL    HW232058   3.200   4.191   5.584  1.0144 -0.1813  0.8273
 6867SOL     OW32059   0.915   0.392   8.492 -0.1450 -0.2594 -0.5288
 6867SOL    HW132060   0.984   0.383   8.557  0.5190 -1.5908 -1.4150
 6867SOL    HW232061   0.889   0.483   8.509  2.4398 -0.0278  2.0881
 6868SOL     OW32062   1.088   1.305   2.699  0.0266 -0.2462  0.2132
 6868SOL    HW132063   1.122   1.363   2.631  0.5169  1.8739  2.2373
 6868SOL    HW232064   1.006   1.349   2.723  0.0804 -0.0694  0.0704
 6869SOL     OW32065   3.914   4.258  15.104  0.2707 -0.0819  0.6586
 6869SOL    HW132066   3.922   4.179  15.050  0.1457  0.6300 -0.3843
 6869SOL    HW232067   3.844   4.309  15.064  0.2926  0.8639  1.8122
 6870SOL     OW32068   3.510   3.729   4.935  0.9614 -0.5601  0.5302
 6870SOL    HW132069   3.482   3.812   4.896 -1.7561 -2.2160 -1.0355
 6870SOL    HW232070   3.452   3.739   5.010  1.1946  1.5437  0.4243
 6871SOL     OW32071   4.231   4.128   6.421 -0.3497 -0.0675 -0.1828
 6871SOL    HW132072   4.212   4.191   6.351 -0.0956  0.7975  0.5272
 6871SOL    HW232073   4.141   4.106   6.442  0.1544 -1.2029  0.7716
 6872SOL     OW32074   1.862   2.185   2.151  0.1344  0.3820 -0.3031
 6872SOL    HW132075   1.863   2.113   2.088  0.6065 -0.5656  0.8001
 6872SOL    HW232076   1.955   2.205   2.148  0.4737 -1.2711 -0.7966
 6873SOL     OW32077   0.822   1.900   1.828  0.0689 -0.1022 -0.3230
 6873SOL    HW132078   0.854   1.919   1.916 -1.5833 -2.2881  0.7689
 6873SOL    HW232079   0.878   1.949   1.768 -1.4929  0.0081 -1.7121
 6874SOL     OW32080   2.695   3.027   8.088 -0.1554 -0.6761  0.2762
 6874SOL    HW132081   2.739   3.032   8.173 -1.0569  1.2804  0.6316
 6874SOL    HW232082   2.637   2.954   8.109  0.0196 -0.9954 -0.3539
 6875SOL     OW32083   1.661   2.397   9.229  0.0355  0.1281  0.9181
 6875SOL    HW132084   1.644   2.387   9.322 -1.4338 -0.2905  0.6089
 6875SOL    HW232085   1.651   2.491   9.214 -0.5826 -0.1459 -0.4643
 6876SOL     OW32086   1.669   3.418   3.578 -0.9860 -0.1904 -0.1283
 6876SOL    HW132087   1.749   3.423   3.525 -0.1683  1.5008  1.2722
 6876SOL    HW232088   1.597   3.442   3.518  0.1278  2.2267 -0.4883
 6877SOL     OW32089   1.038   3.880   3.197 -0.0768  0.2011  0.3110
 6877SOL    HW132090   1.048   3.897   3.290  0.3634  0.3610  0.2355
 6877SOL    HW232091   0.976   3.949   3.173  0.8607  2.0326  3.1494
 6878SOL     OW32092   0.178   0.591   3.246 -0.2150 -0.1164  0.1696
 6878SOL    HW132093   0.149   0.531   3.178  1.4140 -0.0449 -0.5790
 6878SOL    HW232094   0.172   0.542   3.328  0.9726  1.1545  1.0193
 6879SOL     OW32095   1.463   0.383   4.424  0.2341  0.3157 -0.3937
 6879SOL    HW132096   1.544   0.431   4.406 -0.1507  0.9109 -0.5198
 6879SOL    HW232097   1.504   0.297   4.436 -1.5153 -0.3022  1.2786
 6880SOL     OW32098   3.294   3.840   6.542 -0.6113 -0.0796 -0.5294
 6880SOL    HW132099   3.345   3.850   6.623 -1.9333  0.1247  0.2887
 6880SOL    HW232100   3.331   3.914   6.494  0.5798 -1.4342 -1.6896
 6881SOL     OW32101   2.636   2.281   1.473 -0.1780  0.1531 -0.4094
 6881SOL    HW132102   2.680   2.215   1.420  0.5880  0.5136 -0.2192
 6881SOL    HW232103   2.628   2.347   1.404  0.8581  1.9112  1.1446
 6882SOL     OW32104   2.732   2.657   2.879  0.1947 -0.2097  0.6498
 6882SOL    HW132105   2.703   2.705   2.956  0.2916  0.4468  0.2815
 6882SOL    HW232106   2.645   2.648   2.841  0.8615 -2.0538 -0.4506
 6883SOL     OW32107   0.984   4.046   8.066 -0.1325  0.7303  0.6184
 6883SOL    HW132108   0.918   4.050   8.135  0.6861  2.2000  1.3149
 6883SOL    HW232109   1.049   4.103   8.108 -1.8817  2.0513  1.5636
 6884SOL     OW32110   2.149   0.848   2.687 -0.1440  0.2137  0.7439
 6884SOL    HW132111   2.231   0.884   2.655 -0.4103  0.9293  0.8697
 6884SOL    HW232112   2.142   0.768   2.634  0.1425  0.4563  0.3414
 6885SOL     OW32113   4.259   4.516   5.146  0.0702  0.4623  0.3024
 6885SOL    HW132114   4.319   4.467   5.090  0.0057 -0.2099  0.8306
 6885SOL    HW232115   4.192   4.534   5.080  0.8061  0.6603 -0.3899
 6886SOL     OW32116   1.072   2.772   2.569  0.0864 -0.3514  0.2397
 6886SOL    HW132117   0.977   2.787   2.569  0.0799 -0.4030  1.1133
 6886SOL    HW232118   1.086   2.734   2.482  0.9745  1.3993 -0.3829
 6887SOL     OW32119   1.105   1.652   6.630 -1.0285  0.7486  0.2891
 6887SOL    HW132120   1.166   1.618   6.694  0.1740  0.7386 -0.8591
 6887SOL    HW232121   1.046   1.577   6.622  0.4002 -0.6430  3.0663
 6888SOL     OW32122   4.611   3.238   8.775  0.2622  0.2330  0.7688
 6888SOL    HW132123   4.622   3.332   8.787 -0.3764  0.3162  0.6861
 6888SOL    HW232124   4.558   3.239   8.695 -1.7086 -0.7103  2.0581
 6889SOL     OW32125   4.286   2.332   2.643 -0.0977  0.2490 -0.0275
 6889SOL    HW132126   4.310   2.302   2.731  3.0932  0.0270 -0.9825
 6889SOL    HW232127   4.369   2.357   2.604 -0.1846  0.2408 -0.2165
 6890SOL     OW32128   2.890   3.250   2.500 -0.0070  0.1518 -0.7120
 6890SOL    HW132129   2.941   3.284   2.573 -1.8867  0.2207  0.5666
 6890SOL    HW232130   2.897   3.328   2.446  0.5160 -0.5152 -1.6072
 6891SOL     OW32131   2.314   3.705   3.302  0.3079 -0.1389 -0.3402
 6891SOL    HW132132   2.297   3.797   3.325  0.7305 -0.4144  1.1052
 6891SOL    HW232133   2.371   3.720   3.227  0.4217  0.1820 -0.1929
 6892SOL     OW32134   3.464   1.627   5.348  0.5223  0.0645 -0.3587
 6892SOL    HW132135   3.375   1.613   5.381 -0.3080  1.0384 -2.2171
 6892SOL    HW232136   3.451   1.576   5.268 -0.0628 -0.1845 -0.1111
 6893SOL     OW32137   1.885   2.401   7.373  0.1942  0.2525  0.2139
 6893SOL    HW132138   1.807   2.402   7.429  1.1747  0.5943  1.5669
 6893SOL    HW232139   1.880   2.486   7.328 -0.4755  0.2050  0.2051
 6894SOL     OW32140   4.404   3.527   3.585 -0.3755  0.5308  0.6097
 6894SOL    HW132141   4.416   3.621   3.573  0.3489  0.1297 -1.8881
 6894SOL    HW232142   4.309   3.520   3.588 -0.3341 -1.3266 -2.3988
 6895SOL     OW32143   2.802   4.434   3.031 -0.0773 -0.0875  0.3595
 6895SOL    HW132144   2.846   4.453   2.948  0.7275  0.1230  0.8382
 6895SOL    HW232145   2.716   4.474   3.016 -0.6485 -2.0444 -1.6129
 6896SOL     OW32146   0.473   1.169   3.260  0.5009 -0.2921 -0.2059
 6896SOL    HW132147   0.399   1.125   3.219  0.6343  0.1694 -0.9401
 6896SOL    HW232148   0.461   1.147   3.352  1.7915 -0.9521 -0.1833
 6897SOL     OW32149   3.947   4.290   6.703  0.3006  0.0557 -0.5035
 6897SOL    HW132150   3.923   4.363   6.646  0.3020  1.3654  1.1579
 6897SOL    HW232151   3.974   4.345   6.777  2.7123  0.1282 -1.4431
 6898SOL     OW32152   4.337   4.434   7.316  0.1422 -0.4053  0.5474
 6898SOL    HW132153   4.257   4.448   7.366  0.5797 -1.9240  1.6833
 6898SOL    HW232154   4.338   4.339   7.331  0.5500 -0.7166 -1.4715
 6899SOL     OW32155   1.516   1.116  11.688 -0.9993  0.7650 -0.1037
 6899SOL    HW132156   1.565   1.173  11.627 -0.8625 -0.0170 -0.7224
 6899SOL    HW232157   1.433   1.110  11.641 -0.9962 -2.0043  0.2481
 6900SOL     OW32158   4.402   3.956   7.464 -0.2930  0.1277  0.7510
 6900SOL    HW132159   4.439   3.992   7.545 -1.2259  0.1128  1.1795
 6900SOL    HW232160   4.361   3.884   7.511 -0.0930 -0.4859 -0.0258
 6901SOL     OW32161   1.102   2.420   6.478 -0.7288  0.3017  0.7434
 6901SOL    HW132162   1.196   2.421   6.460 -1.0427  0.7595 -0.9005
 6901SOL    HW232163   1.074   2.491   6.420  3.1590 -0.0524 -1.5351
 6902SOL     OW32164   0.468   1.077   1.521 -0.1569  0.7131 -0.0553
 6902SOL    HW132165   0.543   1.133   1.542  0.3055  0.0127  0.1517
 6902SOL    HW232166   0.491   1.045   1.434  2.3105  3.5486 -0.4247
 6903SOL     OW32167   3.310   3.449   7.759 -0.0448 -0.0001  0.2629
 6903SOL    HW132168   3.329   3.368   7.711 -2.5414 -0.1502 -0.4347
 6903SOL    HW232169   3.262   3.499   7.693  0.4793 -0.4221 -0.4478
 6904SOL     OW32170   0.062   3.667  16.953 -0.1864  0.2200 -0.2390
 6904SOL    HW132171   0.129   3.727  16.986  0.1464  0.4651 -1.3639
 6904SOL    HW232172   0.116   3.589  16.941  1.6089  1.4336 -0.1337
 6905SOL     OW32173   4.554   4.395   5.935  0.3255  0.0420  0.1999
 6905SOL    HW132174   4.575   4.306   5.962 -0.4397  0.3500  1.7708
 6905SOL    HW232175   4.491   4.423   6.001  0.3129  0.8599 -0.1674
 6906SOL     OW32176   0.658   0.072  13.898  0.5561  0.1616  0.2692
 6906SOL    HW132177   0.574   0.031  13.917  0.2080  0.0197 -1.5853
 6906SOL    HW232178   0.718   0.023  13.955  0.4039  1.6882  1.7346
 6907SOL     OW32179   2.200   4.174  11.874  0.2466 -0.4948 -0.3954
 6907SOL    HW132180   2.171   4.260  11.842 -2.5230 -0.5940  1.8485
 6907SOL    HW232181   2.267   4.197  11.939 -0.9583 -0.0946  0.6960
 6908SOL     OW32182   2.238   3.174   7.801 -0.1514 -0.2531 -1.0297
 6908SOL    HW132183   2.274   3.104   7.856 -0.5720  0.3487  0.0066
 6908SOL    HW232184   2.202   3.126   7.727 -0.7610 -0.0357 -0.8751
 6909SOL     OW32185   0.774   2.777   3.587 -0.8329 -0.1191  0.2241
 6909SOL    HW132186   0.703   2.799   3.648 -1.5694  1.0851 -1.0379
 6909SOL    HW232187   0.816   2.861   3.568 -0.6344 -0.6185 -1.5330
 6910SOL     OW32188   2.659   2.091   7.922 -0.2444  0.1942 -0.5665
 6910SOL    HW132189   2.640   2.033   7.996  1.4357  1.0816  0.5557
 6910SOL    HW232190   2.569   2.099   7.892 -0.3075  2.5744  0.2523
 6911SOL     OW32191   3.979   2.358   1.031 -0.3440  0.1875 -0.0860
 6911SOL    HW132192   4.038   2.300   0.982  1.8131  1.6870  0.7523
 6911SOL    HW232193   3.933   2.305   1.096 -0.0132 -0.7121 -0.5811
 6912SOL     OW32194   0.424   1.151   0.244 -0.5248 -0.0606 -0.0624
 6912SOL    HW132195   0.405   1.242   0.264 -0.5083 -0.1497  0.3476
 6912SOL    HW232196   0.440   1.162   0.150  2.5733 -0.2254  0.4292
 6913SOL     OW32197   0.241   2.851  14.862  0.0574  0.1667  0.3426
 6913SOL    HW132198   0.210   2.784  14.801  0.1255  0.1985  0.2730
 6913SOL    HW232199   0.314   2.880  14.807  0.3420  2.2939  1.8289
 6914SOL     OW32200   0.960   2.212   2.692 -0.2214 -0.1555 -0.0956
 6914SOL    HW132201   1.043   2.166   2.704  0.3523  1.1345  0.8894
 6914SOL    HW232202   0.938   2.224   2.784  0.0657  0.8131 -0.1495
 6915SOL     OW32203   4.668   2.085   0.643  0.3451  0.1457 -0.7042
 6915SOL    HW132204   4.686   2.005   0.593 -1.0688 -0.7119  0.1503
 6915SOL    HW232205   0.032   2.117   0.663  0.3589  0.3318 -1.0493
 6916SOL     OW32206   3.634   3.556   3.122 -0.2080 -0.0982 -0.5389
 6916SOL    HW132207   3.585   3.540   3.041 -0.0749  1.4949 -0.9312
 6916SOL    HW232208   3.696   3.627   3.105 -1.1138  0.5533 -1.1419
 6917SOL     OW32209   0.770   4.380  14.039 -0.1310  0.0963 -0.2152
 6917SOL    HW132210   0.806   4.465  14.066 -1.4086  0.7903 -0.7030
 6917SOL    HW232211   0.676   4.391  14.058 -0.1032  0.1812 -0.1232
 6918SOL     OW32212   4.543   4.324   5.669 -0.5258 -0.5916  0.2086
 6918SOL    HW132213   4.559   4.355   5.758 -1.1067  1.6444 -0.4540
 6918SOL    HW232214   4.523   4.403   5.618 -1.9179 -1.3120 -0.3520
 6919SOL     OW32215   0.360   2.249   5.766 -0.4749 -0.5041  0.3746
 6919SOL    HW132216   0.390   2.179   5.707 -2.2433  0.2071 -1.3668
 6919SOL    HW232217   0.434   2.308   5.752  2.0822 -3.2672  2.0917
 6920SOL     OW32218   2.510   1.204  11.278 -0.0489  0.1551  0.0572
 6920SOL    HW132219   2.592   1.173  11.241 -1.3403 -0.3719 -2.3121
 6920SOL    HW232220   2.474   1.124  11.318  1.0388 -0.4022 -0.1002
 6921SOL     OW32221   0.306   0.853   1.542 -0.0507  0.4268  0.5867
 6921SOL    HW132222   0.298   0.832   1.449 -1.0027  3.1914  0.0480
 6921SOL    HW232223   0.360   0.931   1.538 -0.5096  0.7705  1.0565
 6922SOL     OW32224   1.794   0.723   6.179 -0.0215 -0.0554 -0.1697
 6922SOL    HW132225   1.874   0.756   6.221  0.5881  1.1607 -2.2634
 6922SOL    HW232226   1.736   0.726   6.256 -1.0972 -1.2140 -0.9382
 6923SOL     OW32227   0.740   4.020   1.797 -0.2659 -0.1982  0.0757
 6923SOL    HW132228   0.784   3.952   1.847 -1.5101 -0.9013  0.2040
 6923SOL    HW232229   0.668   3.969   1.760 -0.4138 -0.6585  1.0127
 6924SOL     OW32230   2.727   1.438  11.430 -0.4616 -0.0881  0.1149
 6924SOL    HW132231   2.768   1.358  11.400 -1.0587 -0.9887  1.6986
 6924SOL    HW232232   2.804   1.494  11.430  0.6173 -1.5841  0.5584
 6925SOL     OW32233   3.137   2.207   8.697  0.3787  0.2771 -0.1148
 6925SOL    HW132234   3.156   2.241   8.784  1.4186 -0.3878 -0.0820
 6925SOL    HW232235   3.168   2.271   8.633 -1.1709 -2.1204 -3.2587
 6926SOL     OW32236   1.939   2.582   2.578  0.1368 -0.4300 -0.7996
 6926SOL    HW132237   1.916   2.502   2.529 -1.6111  0.1041 -0.8515
 6926SOL    HW232238   1.999   2.624   2.516 -0.7977  1.3794 -0.4661
 6927SOL     OW32239   1.014   3.258   2.696 -0.8311  0.2839  0.0655
 6927SOL    HW132240   1.069   3.180   2.685 -1.4391  0.0654 -1.4457
 6927SOL    HW232241   1.000   3.281   2.604  3.7217  3.2221  0.0991
 6928SOL     OW32242   3.081   0.437   2.711  0.1665 -0.5028  0.2731
 6928SOL    HW132243   3.082   0.449   2.806 -0.4876  2.0460 -0.0381
 6928SOL    HW232244   3.176   0.435   2.699  0.2563  0.0672  0.8742
 6929SOL     OW32245   0.913   0.698   7.913  0.0648 -0.3434 -0.5464
 6929SOL    HW132246   0.958   0.783   7.920  1.3549 -1.0914  0.2702
 6929SOL    HW232247   0.945   0.660   7.831 -1.1325 -0.2610 -1.0460
 6930SOL     OW32248   0.104   3.753   4.389  0.5238  0.0867  0.1513
 6930SOL    HW132249   0.034   3.775   4.451  1.1547 -0.5885  1.0863
 6930SOL    HW232250   0.184   3.769   4.438  1.8950  0.1928 -2.1132
 6931SOL     OW32251   1.214   0.076   7.809 -1.1145  0.1141  0.2401
 6931SOL    HW132252   1.174   4.712   7.814  1.5732 -1.1856 -1.0018
 6931SOL    HW232253   1.243   0.083   7.900 -1.0423  1.0200  0.1470
 6932SOL     OW32254   3.114   1.957   7.200  0.3876 -0.0542  0.3744
 6932SOL    HW132255   3.207   1.963   7.179  0.2021 -0.1932 -0.5320
 6932SOL    HW232256   3.091   1.895   7.130  1.8362  0.6862 -0.7480
 6933SOL     OW32257   1.615   3.417   2.948  0.4255  0.1816 -0.0270
 6933SOL    HW132258   1.577   3.472   2.880 -0.9331 -1.5402 -0.6646
 6933SOL    HW232259   1.701   3.458   2.959  0.3024  0.3293  0.4120
 6934SOL     OW32260   3.814   0.802   4.982 -0.3487 -0.8896 -0.0337
 6934SOL    HW132261   3.755   0.802   4.907  1.0513  0.1643 -1.1195
 6934SOL    HW232262   3.893   0.780   4.933  0.8345  0.5111  1.2388
 6935SOL     OW32263   1.840   1.368   6.897 -0.6914 -0.7992  0.5611
 6935SOL    HW132264   1.781   1.335   6.830  1.2315 -1.6418 -0.7024
 6935SOL    HW232265   1.815   1.316   6.973 -0.6993  0.4937  1.4424
 6936SOL     OW32266   2.429   1.419   9.157 -0.4136  0.0196 -0.7236
 6936SOL    HW132267   2.414   1.454   9.245  0.2142  1.0788 -1.0286
 6936SOL    HW232268   2.475   1.337   9.175 -0.0180  0.2275 -0.7777
 6937SOL     OW32269   0.591   2.428   2.708 -0.0630 -0.0445  0.6294
 6937SOL    HW132270   0.650   2.451   2.780  0.2136 -0.5490  0.5628
 6937SOL    HW232271   0.518   2.488   2.722  0.3187  1.2123 -2.7018
 6938SOL     OW32272   3.891   0.390   2.529 -0.5274 -0.0312  0.6092
 6938SOL    HW132273   3.889   0.387   2.625 -1.2385  0.3268  0.6054
 6938SOL    HW232274   3.825   0.456   2.511 -1.5333 -0.3471  3.1333
 6939SOL     OW32275   1.510   3.985   6.123 -0.5499  0.4325  0.2048
 6939SOL    HW132276   1.580   4.050   6.113  0.0604 -0.0311  1.3440
 6939SOL    HW232277   1.448   4.029   6.066 -0.1416  1.7393  0.7515
 6940SOL     OW32278   0.318   1.310   8.051  0.1631  0.4747 -0.2068
 6940SOL    HW132279   0.305   1.237   7.991  1.1364  1.5593 -1.7336
 6940SOL    HW232280   0.380   1.365   8.004 -0.3746 -0.5751 -2.1172
 6941SOL     OW32281   3.412   2.357  15.141 -0.3907  0.2109 -0.6486
 6941SOL    HW132282   3.487   2.329  15.193 -0.6775 -0.2804 -0.4985
 6941SOL    HW232283   3.348   2.393  15.203 -0.6485 -0.2617 -0.6371
 6942SOL     OW32284   1.828   1.581   3.451  0.4866 -0.2458 -0.1349
 6942SOL    HW132285   1.887   1.613   3.383  0.8569  1.6719  1.0805
 6942SOL    HW232286   1.877   1.501   3.465  0.1846 -0.1568  1.3862
 6943SOL     OW32287   1.985   2.104   0.140 -0.5269  0.2138  0.1366
 6943SOL    HW132288   1.910   2.081   0.194 -2.4631 -0.9423 -2.9984
 6943SOL    HW232289   1.965   2.067   0.054  1.6175 -0.6037 -0.0060
 6944SOL     OW32290   2.259   0.593   4.592 -0.0658 -0.1813  0.4639
 6944SOL    HW132291   2.234   0.587   4.500  1.7319 -0.0576 -0.0454
 6944SOL    HW232292   2.345   0.550   4.584 -1.2272 -2.4789  0.3324
 6945SOL     OW32293   0.691   0.042   6.605  0.0041 -0.3668 -0.7923
 6945SOL    HW132294   0.771   0.065   6.558  0.2267 -1.0668 -0.7544
 6945SOL    HW232295   0.675   0.121   6.657 -2.3566 -1.5405  0.2441
 6946SOL     OW32296   1.526   0.431   6.398  0.0631 -1.0205 -0.0370
 6946SOL    HW132297   1.441   0.387   6.393 -0.0948 -0.8492  1.0309
 6946SOL    HW232298   1.573   0.378   6.462  0.9874 -0.9225 -0.6333
 6947SOL     OW32299   2.594   3.209   2.511  0.2796  0.1538  0.7304
 6947SOL    HW132300   2.568   3.135   2.565 -0.7937 -1.6996 -2.3103
 6947SOL    HW232301   2.690   3.211   2.514  0.3340 -0.4679 -0.6202
 6948SOL     OW32302   3.281   0.835  15.773  0.1840 -0.3984  0.1226
 6948SOL    HW132303   3.347   0.895  15.807  0.8021  0.0977 -1.9754
 6948SOL    HW232304   3.335   0.758  15.755 -0.5881 -0.4763 -1.8863
 6949SOL     OW32305   1.194   1.601   9.900  0.8836 -0.4283  0.4054
 6949SOL    HW132306   1.112   1.554   9.914  0.1512  1.7352  3.3279
 6949SOL    HW232307   1.195   1.656   9.978 -2.1248 -0.5065  0.5019
 6950SOL     OW32308   1.055   2.440   9.544  0.0951 -0.1238 -0.3754
 6950SOL    HW132309   1.027   2.430   9.634 -1.9967 -2.3542 -1.2816
 6950SOL    HW232310   1.016   2.363   9.502 -0.8265  0.4240 -0.5299
 6951SOL     OW32311   4.091   4.495  12.370 -0.1256 -0.4174 -0.0321
 6951SOL    HW132312   4.073   4.519  12.460 -0.2337  1.8412 -0.6503
 6951SOL    HW232313   4.021   4.553  12.341  1.1711  0.8166 -0.7051
 6952SOL     OW32314   0.195   2.837   9.795  0.0441 -0.0160 -0.3622
 6952SOL    HW132315   0.274   2.866   9.750  1.5149 -0.3831  2.0251
 6952SOL    HW232316   0.166   2.909   9.852 -0.2490 -0.2599 -0.2011
 6953SOL     OW32317   2.606   3.017   7.345  0.0813  0.1393 -0.1436
 6953SOL    HW132318   2.587   3.088   7.406 -2.7257  0.3949 -1.3192
 6953SOL    HW232319   2.521   2.989   7.312  1.2799 -4.0490  0.2718
 6954SOL     OW32320   1.820   2.503  11.482  0.2640  0.6097 -0.4637
 6954SOL    HW132321   1.775   2.476  11.561 -1.4221  1.0297 -1.2839
 6954SOL    HW232322   1.740   2.530  11.437 -0.1423 -1.0147 -0.7295
 6955SOL     OW32323   3.167   1.488   8.682  0.0918 -0.2432  0.0597
 6955SOL    HW132324   3.207   1.407   8.713  3.2427  0.1183 -3.0516
 6955SOL    HW232325   3.104   1.443   8.625 -2.2557 -0.8233  3.1457
 6956SOL     OW32326   0.229   1.699   5.844 -0.2448  0.6176 -0.1006
 6956SOL    HW132327   0.218   1.605   5.863 -0.5915  0.1503 -2.7028
 6956SOL    HW232328   0.320   1.701   5.816 -0.3687 -0.1148 -0.5747
 6957SOL     OW32329   2.996   0.798  17.339  0.1902  0.6360 -0.0728
 6957SOL    HW132330   2.954   0.862  17.396 -0.1633 -0.0128  0.4073
 6957SOL    HW232331   3.013   0.717  17.388 -1.0279  0.8662  0.7197
 6958SOL     OW32332   3.212   3.105   4.967  0.6687 -0.4926 -0.3925
 6958SOL    HW132333   3.229   3.026   5.018 -1.3109 -1.3059 -1.0335
 6958SOL    HW232334   3.174   3.159   5.037  0.9221 -1.5762  0.5816
 6959SOL     OW32335   4.143   2.502   2.036  0.5835  0.8852  0.3830
 6959SOL    HW132336   4.169   2.593   2.024  0.9005  0.8411  0.7418
 6959SOL    HW232337   4.189   2.451   1.970 -0.3105 -0.6080  0.9016
 6960SOL     OW32338   2.523   2.430   1.088  0.2674  0.5902 -0.6288
 6960SOL    HW132339   2.531   2.339   1.117  0.2943  0.5989 -0.6088
 6960SOL    HW232340   2.539   2.421   0.994  1.4692 -1.0597 -0.2834
 6961SOL     OW32341   2.824   1.925   2.068 -0.0826  0.5856 -0.1467
 6961SOL    HW132342   2.763   1.965   2.006 -0.1866  1.4590  0.5278
 6961SOL    HW232343   2.776   1.846   2.094 -0.9708  0.6622 -1.5537
 6962SOL     OW32344   2.374   1.840   3.336  0.3614  0.3241  0.3095
 6962SOL    HW132345   2.364   1.745   3.336  2.1885  0.1321 -1.0107
 6962SOL    HW232346   2.331   1.864   3.253 -2.9634 -0.0137  1.9186
 6963SOL     OW32347   2.628   0.099   1.631  0.1633 -0.1476 -0.0967
 6963SOL    HW132348   2.615   0.056   1.547  0.9470 -1.2632  0.3533
 6963SOL    HW232349   2.615   0.022   1.686 -0.0155 -0.1421 -0.1337
 6964SOL     OW32350   1.887   2.976   0.026  0.2419  0.0173 -0.0992
 6964SOL    HW132351   1.845   3.052   0.065 -3.1722 -2.1992  0.5593
 6964SOL    HW232352   1.971   3.015  17.695  0.4689  1.2526  2.4617
 6965SOL     OW32353   0.100   3.564   7.958  0.6664 -0.2360  0.3937
 6965SOL    HW132354   0.100   3.469   7.954 -1.0349 -0.2438  0.7938
 6965SOL    HW232355   0.022   3.587   7.907  0.6493  1.5552  1.2203
 6966SOL     OW32356   0.401   2.699   5.649 -0.0098 -0.0773 -0.1117
 6966SOL    HW132357   0.454   2.779   5.641  0.6740 -0.3084  2.1539
 6966SOL    HW232358   0.365   2.680   5.562 -0.0432 -0.1032 -0.0920
 6967SOL     OW32359   4.000   0.324   9.965  0.3345  0.0117  0.4700
 6967SOL    HW132360   3.965   0.323   9.877 -0.0006  2.1060  0.5725
 6967SOL    HW232361   3.945   0.254  10.001 -0.1555 -0.8478 -1.9897
 6968SOL     OW32362   0.183   1.852   6.993 -0.1473  0.0561 -0.1448
 6968SOL    HW132363   0.104   1.809   7.024 -0.3094  1.0061  0.7787
 6968SOL    HW232364   0.233   1.852   7.075 -1.6972  2.1353  0.8196
 6969SOL     OW32365   0.699   4.098  10.000 -0.3342 -0.0283  0.0262
 6969SOL    HW132366   0.685   4.117  10.093  0.6526  1.2922 -0.0926
 6969SOL    HW232367   0.624   4.148   9.967 -0.4240  0.7868  1.4586
 6970SOL     OW32368   1.728   0.154  10.736 -0.8855  0.1848 -0.6756
 6970SOL    HW132369   1.791   0.221  10.709 -0.1471 -0.0598  0.4527
 6970SOL    HW232370   1.716   0.105  10.654 -0.8361  0.4276 -0.8291
 6971SOL     OW32371   4.670   2.786   5.386 -0.0771 -0.4179 -0.6189
 6971SOL    HW132372   0.035   2.813   5.360  0.5960 -0.9492  1.0491
 6971SOL    HW232373   4.625   2.811   5.306  0.3472  0.3887 -0.6016
 6972SOL     OW32374   3.568   4.024  16.057 -0.1509 -0.4495 -0.6653
 6972SOL    HW132375   3.595   3.937  16.030  0.8277 -1.1396  2.5288
 6972SOL    HW232376   3.533   4.061  15.976  0.4938 -1.4896 -1.4116
 6973SOL     OW32377   4.609   2.853  12.113 -0.1653 -0.0401  0.3511
 6973SOL    HW132378   4.669   2.851  12.039  0.5819  0.1250  0.9628
 6973SOL    HW232379   4.531   2.827  12.062  0.0651  2.4086 -1.2623
 6974SOL     OW32380   0.494   3.839  12.328  0.4573  0.4503 -0.1947
 6974SOL    HW132381   0.526   3.822  12.240  0.3413 -0.8605  0.0150
 6974SOL    HW232382   0.427   3.904  12.310  0.5420  0.1794 -1.4859
 6975SOL     OW32383   0.094   0.312   4.326 -0.0648  0.2296  0.2440
 6975SOL    HW132384   0.075   0.276   4.240 -0.8372  2.2317 -0.4296
 6975SOL    HW232385   0.188   0.293   4.331  0.1196  0.8918 -0.7557
 6976SOL     OW32386   4.214   0.537   0.510  0.3560  0.5612  0.2098
 6976SOL    HW132387   4.297   0.493   0.526 -0.2041 -0.5949 -0.0691
 6976SOL    HW232388   4.243   0.604   0.448  1.1264  0.9480  0.9883
 6977SOL     OW32389   4.661   2.664   1.466  0.1860  0.3510  0.5363
 6977SOL    HW132390   0.015   2.720   1.454  0.5537  0.2967  2.8121
 6977SOL    HW232391   4.600   2.717   1.415 -1.5275 -0.5223  1.7118
 6978SOL     OW32392   1.471   1.211  13.783  0.0124 -0.3111 -0.0978
 6978SOL    HW132393   1.524   1.271  13.836  0.0038  0.8914 -1.4270
 6978SOL    HW232394   1.456   1.275  13.713 -0.6890 -0.0005  0.3364
 6979SOL     OW32395   3.471   0.234   7.422  0.2760 -0.5321  0.3756
 6979SOL    HW132396   3.417   0.269   7.351 -1.4400  2.1286  2.9795
 6979SOL    HW232397   3.503   0.150   7.389 -0.2781 -0.0978 -1.2729
 6980SOL     OW32398   3.311   0.761   6.601 -0.3420  0.3885 -0.0575
 6980SOL    HW132399   3.387   0.764   6.542 -0.3661  0.4588 -0.0845
 6980SOL    HW232400   3.238   0.746   6.540 -0.1912  0.0564 -0.1601
 6981SOL     OW32401   3.324   1.642  10.026  0.1230  0.0697 -0.5440
 6981SOL    HW132402   3.359   1.628  10.114 -0.3596  2.0485 -0.0496
 6981SOL    HW232403   3.279   1.559  10.016  1.2241 -0.4873 -0.9162
 6982SOL     OW32404   2.327   0.343   6.467 -0.1327 -0.0626 -0.0660
 6982SOL    HW132405   2.270   0.285   6.418 -3.1805  0.2373  3.0994
 6982SOL    HW232406   2.345   0.403   6.395  2.1239  0.5371  0.9885
 6983SOL     OW32407   1.960   1.020   0.100  0.1078 -0.0810 -0.1115
 6983SOL    HW132408   1.925   0.940   0.063  2.5397 -1.3816  0.4389
 6983SOL    HW232409   2.052   1.004   0.080  0.0737  1.2873 -1.3279
 6984SOL     OW32410   2.441   0.898   6.559  0.2180  0.1443 -0.3539
 6984SOL    HW132411   2.490   0.848   6.494 -1.4849 -1.0989 -0.6938
 6984SOL    HW232412   2.513   0.932   6.611 -0.5188 -2.8964  2.6877
 6985SOL     OW32413   4.545   2.370  14.467 -0.7533  0.0177  0.0736
 6985SOL    HW132414   4.573   2.285  14.431 -2.1001 -1.1263  1.6830
 6985SOL    HW232415   4.473   2.386  14.406  1.1322  2.3598 -1.5253
 6986SOL     OW32416   3.221   0.075   8.494  0.0643  0.1721  0.3042
 6986SOL    HW132417   3.134   0.038   8.476  1.0017 -1.7832 -0.2023
 6986SOL    HW232418   3.194   0.140   8.559 -2.7780  0.8372 -1.5521
 6987SOL     OW32419   0.671   2.564   5.621 -0.2918 -0.1553 -1.1159
 6987SOL    HW132420   0.656   2.636   5.682 -1.7822 -0.2094 -1.4067
 6987SOL    HW232421   0.580   2.555   5.592 -0.1061  0.8570 -2.0215
 6988SOL     OW32422   0.057   4.665   3.585 -0.8138  0.1949 -0.2449
 6988SOL    HW132423   0.030   4.656   3.494  3.0799 -0.7890 -1.3020
 6988SOL    HW232424   0.145   4.703   3.578 -1.7736  2.2539 -1.1560
 6989SOL     OW32425   3.145   1.022   6.333  0.2729 -0.6773 -0.3234
 6989SOL    HW132426   3.103   0.993   6.414 -2.0317  0.6517 -1.0359
 6989SOL    HW232427   3.091   0.974   6.270  0.6102 -1.4092 -0.0604
 6990SOL     OW32428   2.817   0.665  10.583  0.0604  0.4410  0.5307
 6990SOL    HW132429   2.742   0.711  10.546 -0.1669  1.3286  2.0833
 6990SOL    HW232430   2.858   0.625  10.506  1.5003 -0.4450  1.7531
 6991SOL     OW32431   3.897   4.241  14.536  0.1627  0.3335  0.5613
 6991SOL    HW132432   3.919   4.332  14.517  0.6002  0.2995  0.8972
 6991SOL    HW232433   3.843   4.233  14.614 -0.7176  2.2273  0.1343
 6992SOL     OW32434   4.284   0.564  16.443 -0.2102 -0.0576  0.3692
 6992SOL    HW132435   4.206   0.607  16.477 -0.3453 -1.1890  1.4968
 6992SOL    HW232436   4.236   0.502  16.388  1.8165 -1.0016 -0.3280
 6993SOL     OW32437   0.180   1.093   6.807 -0.1095 -0.6725  0.1793
 6993SOL    HW132438   0.109   1.101   6.744 -0.7479 -1.4236  0.8031
 6993SOL    HW232439   0.154   1.154   6.876 -1.6031  0.1693 -1.1434
 6994SOL     OW32440   3.656   3.573   8.457  0.3072 -0.8969  0.7266
 6994SOL    HW132441   3.588   3.525   8.412 -2.7096  4.9794 -0.9851
 6994SOL    HW232442   3.610   3.653   8.484  1.2963 -0.0557 -0.0805
 6995SOL     OW32443   4.614   0.484   9.363 -0.1952  0.2217  0.2539
 6995SOL    HW132444   4.637   0.401   9.405 -1.5658 -0.7677 -0.9600
 6995SOL    HW232445   4.681   0.545   9.393 -0.7294  1.0280 -0.1716
 6996SOL     OW32446   0.108   2.594   9.056 -0.2899 -0.5725  0.4277
 6996SOL    HW132447   0.034   2.636   9.098  0.9327  1.9892  0.0172
 6996SOL    HW232448   0.082   2.502   9.067 -1.7066 -0.1967  0.1810
 6997SOL     OW32449   2.283   4.674  15.425  0.3286 -0.2827  0.7996
 6997SOL    HW132450   2.302   4.638  15.338  1.1507  0.2385  0.7686
 6997SOL    HW232451   2.230   0.028  15.406 -0.3102 -0.1982  2.9292
 6998SOL     OW32452   3.547   0.062  17.668  0.0802  0.8765  0.4674
 6998SOL    HW132453   3.494   0.114   0.032 -0.8095  1.4254 -0.7855
 6998SOL    HW232454   3.636   0.074   0.006 -0.0607  2.1535  0.3886
 6999SOL     OW32455   3.660   1.196   0.551 -0.2720 -0.0376 -0.1205
 6999SOL    HW132456   3.691   1.263   0.611  0.5597 -0.0503 -0.5328
 6999SOL    HW232457   3.596   1.231   0.489  0.3677  1.2554 -0.0352
 7000SOL     OW32458   1.263   1.682   4.208 -0.4534  0.3555 -0.0041
 7000SOL    HW132459   1.325   1.615   4.238 -0.2269  1.2125  1.4090
 7000SOL    HW232460   1.312   1.692   4.126  1.5065  0.6359  1.1904
 7001SOL     OW32461   2.910   2.997   9.183  0.2365  0.0808  0.0401
 7001SOL    HW132462   2.940   3.069   9.239  1.8706 -0.5425 -0.0480
 7001SOL    HW232463   2.824   2.981   9.221  0.2154 -0.4971 -0.2612
 7002SOL     OW32464   4.260   1.978   3.671  0.0195  0.1829 -0.2205
 7002SOL    HW132465   4.197   1.917   3.710 -2.5305  0.5227 -3.7792
 7002SOL    HW232466   4.268   1.948   3.580 -0.6647  0.2115 -0.2873
 7003SOL     OW32467   4.422   2.304   2.043 -0.5147  0.0708  0.9162
 7003SOL    HW132468   4.411   2.215   2.010 -0.6285  0.4777 -0.1595
 7003SOL    HW232469   4.397   2.340   1.957  0.9501 -0.9435  0.0690
 7004SOL     OW32470   1.564   3.363   8.684 -0.1716 -0.4070  0.0604
 7004SOL    HW132471   1.516   3.285   8.711 -1.3657  0.1767 -0.3730
 7004SOL    HW232472   1.495   3.429   8.683  0.8979  0.6766 -2.5224
 7005SOL     OW32473   3.084   1.168   8.689  0.0190  0.6018  0.0638
 7005SOL    HW132474   3.036   1.167   8.606  2.2182 -0.1744 -1.2357
 7005SOL    HW232475   3.016   1.132   8.744  0.6265 -1.4241 -0.4931
 7006SOL     OW32476   0.221   2.418   8.803 -0.4938  0.2759 -0.2126
 7006SOL    HW132477   0.284   2.347   8.789  0.8340  0.9383  2.4877
 7006SOL    HW232478   0.142   2.369   8.778  0.3077 -0.9067 -0.4556
 7007SOL     OW32479   3.711   0.147   6.543 -0.2275  0.3226  0.0666
 7007SOL    HW132480   3.721   0.242   6.532 -0.4671  0.4478  0.9445
 7007SOL    HW232481   3.628   0.138   6.590  0.3847  0.3626  1.1498
 7008SOL     OW32482   1.032   1.090   2.306 -0.1930  0.0129  0.0522
 7008SOL    HW132483   1.099   1.095   2.238 -0.0320  1.6014  0.3157
 7008SOL    HW232484   0.997   1.179   2.304  1.1438  0.5442  0.1358
 7009SOL     OW32485   1.869   0.109  17.314  1.1261 -0.5753 -0.7821
 7009SOL    HW132486   1.818   0.113  17.233  2.1064 -1.6542 -1.4641
 7009SOL    HW232487   1.860   0.013  17.317 -2.2445 -0.2206  0.0933
 7010SOL     OW32488   2.553   0.820   1.748 -0.3545 -0.4210  0.5157
 7010SOL    HW132489   2.513   0.833   1.662 -1.5499  0.1131  1.1379
 7010SOL    HW232490   2.626   0.767   1.718 -1.7030 -1.4789 -0.9492
 7011SOL     OW32491   1.158   0.099   8.541  0.4585 -0.0822 -0.4568
 7011SOL    HW132492   1.095   0.050   8.593 -0.3527 -1.7319 -2.9806
 7011SOL    HW232493   1.155   0.188   8.574  0.2132 -0.6374  1.0088
 7012SOL     OW32494   1.191   2.091   6.510  0.3053  0.1129  0.2359
 7012SOL    HW132495   1.191   2.097   6.605  0.7285  1.2291  0.1609
 7012SOL    HW232496   1.156   2.002   6.497  1.0372 -0.1028 -0.2284
 7013SOL     OW32497   2.574   1.319   3.830 -0.0728  0.5024  0.0437
 7013SOL    HW132498   2.548   1.247   3.773 -1.4189  0.9683  0.0714
 7013SOL    HW232499   2.488   1.341   3.867 -0.1857  0.2791 -0.0881
 7014SOL     OW32500   4.201   0.622  10.631 -0.1680  0.0594  0.7926
 7014SOL    HW132501   4.220   0.551  10.692  1.3143 -0.3486 -0.1375
 7014SOL    HW232502   4.247   0.698  10.667  1.1763 -0.6082  0.5014
 7015SOL     OW32503   1.660   3.385   5.343  0.0336  0.3503  0.0516
 7015SOL    HW132504   1.673   3.469   5.300  2.5189 -0.2214 -0.3082
 7015SOL    HW232505   1.603   3.400   5.419 -1.4858  0.0868 -1.0414
 7016SOL     OW32506   1.889   1.070  11.071  0.4097  0.6011 -0.0916
 7016SOL    HW132507   1.941   1.123  11.011 -0.9311  1.3781 -0.5654
 7016SOL    HW232508   1.960   1.008  11.088  0.2982  0.0750 -1.4839
 7017SOL     OW32509   3.862   1.406   6.525  0.2587  0.1785  0.1294
 7017SOL    HW132510   3.779   1.369   6.495  1.0546 -1.3196 -0.2247
 7017SOL    HW232511   3.832   1.465   6.595 -1.5064 -1.5867  0.8615
 7018SOL     OW32512   3.547   1.384   0.380  0.2383  0.8257  0.4314
 7018SOL    HW132513   3.577   1.415   0.295 -1.0730  1.4711  0.2178
 7018SOL    HW232514   3.498   1.457   0.419 -0.8246  0.1032  0.4319
 7019SOL     OW32515   0.093   1.659   6.683  0.5062 -0.0124 -0.0840
 7019SOL    HW132516   0.153   1.733   6.696 -0.3618  1.0321 -2.0907
 7019SOL    HW232517   0.126   1.625   6.600 -1.3884  1.4480 -1.4122
 7020SOL     OW32518   1.009   3.460   4.810  0.4287 -0.1524 -0.1791
 7020SOL    HW132519   0.977   3.375   4.778 -0.9394  0.7050 -1.0892
 7020SOL    HW232520   0.926   3.507   4.812  0.6004  0.1671 -0.7281
 7021SOL     OW32521   3.576   4.711   1.446 -0.0054  0.3363 -0.1450
 7021SOL    HW132522   3.531   4.657   1.510  0.5182  0.5565  0.4090
 7021SOL    HW232523   3.518   0.064   1.446  1.9316  1.8136  2.4246
 7022SOL     OW32524   1.057   2.721   9.044  0.3165  0.2173 -0.1087
 7022SOL    HW132525   1.004   2.799   9.055 -1.0433 -0.7894  0.3921
 7022SOL    HW232526   1.145   2.754   9.061 -0.0231  0.6032  0.8389
 7023SOL     OW32527   3.299   4.009   8.124  0.7345  0.3799  0.4942
 7023SOL    HW132528   3.268   3.918   8.116 -2.9226  1.7901 -1.1129
 7023SOL    HW232529   3.262   4.028   8.210  0.0444  0.1639  0.2494
 7024SOL     OW32530   2.567   0.855  12.931 -0.0853  0.2005  0.2353
 7024SOL    HW132531   2.650   0.881  12.891  0.0560 -1.8743 -0.8005
 7024SOL    HW232532   2.575   0.762  12.913 -1.7924  0.6259 -2.7567
 7025SOL     OW32533   4.514   2.980   8.523  0.4689  0.3277  0.1907
 7025SOL    HW132534   4.438   3.035   8.543 -0.9842 -2.6174  2.9851
 7025SOL    HW232535   4.484   2.906   8.470  1.4216  0.6784 -0.8196
 7026SOL     OW32536   2.418   1.125   4.002  0.4715 -0.1860 -0.0618
 7026SOL    HW132537   2.377   1.210   4.019 -1.6634 -1.3664  0.7804
 7026SOL    HW232538   2.359   1.061   4.042 -1.0361  0.8973 -0.5636
 7027SOL     OW32539   1.247   2.235   3.481 -0.2270 -0.5076 -0.4462
 7027SOL    HW132540   1.157   2.266   3.472 -0.4992 -0.9824  0.6742
 7027SOL    HW232541   1.229   2.145   3.506  1.6658 -0.8515 -0.2780
 7028SOL     OW32542   0.462   2.526  15.254 -0.0139  0.3874 -0.2437
 7028SOL    HW132543   0.544   2.527  15.304 -0.1544 -1.4754  0.0223
 7028SOL    HW232544   0.482   2.485  15.169  1.2874  3.1435 -1.2534
 7029SOL     OW32545   0.013   3.725  10.118  0.1526  0.1278 -0.1650
 7029SOL    HW132546   4.657   3.729  10.171 -0.2720  0.3863 -0.8295
 7029SOL    HW232547   4.699   3.727  10.030 -0.4722  1.6940  0.1406
 7030SOL     OW32548   1.752   4.534   7.144  0.1235 -0.1658  0.5295
 7030SOL    HW132549   1.722   4.448   7.115  0.7219  0.2941 -1.4225
 7030SOL    HW232550   1.819   4.501   7.203  0.7718  1.2755  0.6061
 7031SOL     OW32551   0.715   4.002   6.932 -0.2766 -0.2178 -0.3403
 7031SOL    HW132552   0.622   4.009   6.954 -0.4424 -1.9099 -0.5017
 7031SOL    HW232553   0.759   4.027   7.013  0.0954  0.4355 -0.7438
 7032SOL     OW32554   2.045   4.399   5.679  0.1794 -0.0024 -0.1457
 7032SOL    HW132555   2.018   4.488   5.655  1.2662 -0.3943 -2.8190
 7032SOL    HW232556   2.114   4.420   5.742 -0.0163 -0.7791  0.3217
 7033SOL     OW32557   2.006   0.527   6.317  0.4473 -0.5210  0.4356
 7033SOL    HW132558   2.060   0.498   6.390  0.2345  1.8429  1.5335
 7033SOL    HW232559   2.037   0.616   6.298  1.8101 -1.1734 -0.4413
 7034SOL     OW32560   0.980   1.610  13.846  0.8096  0.6912 -0.1783
 7034SOL    HW132561   0.965   1.657  13.765  2.1955  0.2268 -0.7016
 7034SOL    HW232562   0.899   1.626  13.894 -0.2432 -0.9017 -1.4127
 7035SOL     OW32563   3.511   3.195   4.682  0.7338  0.0082  0.1608
 7035SOL    HW132564   3.589   3.179   4.629  2.8728  0.4863  3.1371
 7035SOL    HW232565   3.456   3.245   4.622 -0.8668 -1.7992  0.1145
 7036SOL     OW32566   2.870   1.535  16.252  0.3923 -0.4871 -0.3147
 7036SOL    HW132567   2.803   1.564  16.314 -2.4364 -0.3950 -3.4174
 7036SOL    HW232568   2.813   1.486  16.193  0.8952  1.4273 -2.3982
 7037SOL     OW32569   1.416   2.860   3.204  0.5254 -1.1143 -0.0338
 7037SOL    HW132570   1.364   2.827   3.132 -0.9347  0.2688  0.3889
 7037SOL    HW232571   1.492   2.895   3.157  0.3710 -0.4136  0.2244
 7038SOL     OW32572   1.899   0.108   8.309  0.1391  0.1130  0.0615
 7038SOL    HW132573   1.917   0.151   8.393 -2.1488 -1.0106  1.1595
 7038SOL    HW232574   1.925   0.175   8.246 -0.7744 -0.7295 -1.1962
 7039SOL     OW32575   2.948   1.695   4.908 -0.1073 -0.0714 -0.3534
 7039SOL    HW132576   2.980   1.672   4.821 -0.3415  0.9236 -0.7084
 7039SOL    HW232577   2.932   1.788   4.893 -0.9971 -0.0889  0.5061
 7040SOL     OW32578   0.034   3.408   3.268 -0.0124  1.3286  0.5870
 7040SOL    HW132579   0.064   3.369   3.350  0.4396 -0.8849 -0.6292
 7040SOL    HW232580   0.090   3.485   3.275  2.4589 -0.4562  0.8310
 7041SOL     OW32581   1.358   3.422   5.489  0.0264 -0.1273 -0.3800
 7041SOL    HW132582   1.405   3.387   5.564  0.9408 -0.8501 -1.3012
 7041SOL    HW232583   1.308   3.492   5.532 -1.6088 -1.0009 -0.8375
 7042SOL     OW32584   4.483   0.295   2.483  0.3201  0.0648  0.5978
 7042SOL    HW132585   4.566   0.326   2.448  0.1750  0.5276  0.6722
 7042SOL    HW232586   4.426   0.333   2.416 -1.3345 -1.9785  0.8269
 7043SOL     OW32587   1.798   3.310   4.345 -0.1666 -0.1645 -0.4612
 7043SOL    HW132588   1.750   3.317   4.262  0.0404  1.2375 -0.4579
 7043SOL    HW232589   1.731   3.306   4.413 -1.8383  0.7748 -2.0730
 7044SOL     OW32590   2.434   1.795   5.862  0.1083 -0.6454 -0.2381
 7044SOL    HW132591   2.454   1.745   5.941  1.8451 -1.1587 -1.0008
 7044SOL    HW232592   2.522   1.816   5.832 -0.5764 -1.5880 -2.9110
 7045SOL     OW32593   3.252   4.137   6.262 -0.0831  0.1461  0.1442
 7045SOL    HW132594   3.158   4.128   6.277 -0.7271 -0.8341 -4.2910
 7045SOL    HW232595   3.255   4.058   6.207 -0.6493  0.5051 -0.4074
 7046SOL     OW32596   0.005   2.468  16.802  0.5702 -0.3404  0.4912
 7046SOL    HW132597   0.043   2.555  16.817 -1.3225  0.5343  0.2681
 7046SOL    HW232598   4.655   2.471  16.741  0.1641  0.0735  1.0037
 7047SOL     OW32599   2.140   4.577  10.560 -0.1086  0.2733  0.6171
 7047SOL    HW132600   2.082   4.652  10.544 -0.4344  0.1807  1.3711
 7047SOL    HW232601   2.085   4.522  10.504  0.1188  0.6914 -0.0230
 7048SOL     OW32602   2.507   3.987   6.992 -0.2760  0.5656 -0.2949
 7048SOL    HW132603   2.452   3.931   6.938 -0.7273  0.4530  0.2829
 7048SOL    HW232604   2.593   3.944   6.994 -1.2414 -1.4060 -0.9946
 7049SOL     OW32605   4.418   1.490   1.726 -0.3406 -0.5282 -0.2382
 7049SOL    HW132606   4.493   1.549   1.725 -0.3566 -0.4962  0.9507
 7049SOL    HW232607   4.357   1.550   1.768 -0.3837  1.9663 -3.8081
 7050SOL     OW32608   0.542   0.815  14.362 -0.1635 -0.1942 -0.3304
 7050SOL    HW132609   0.609   0.883  14.366 -0.2729 -0.2106  1.9708
 7050SOL    HW232610   0.474   0.883  14.352  2.8250  3.0966  1.7877
 7051SOL     OW32611   4.070   4.436   8.826 -0.0391 -0.5376  0.0038
 7051SOL    HW132612   4.043   4.349   8.798 -2.5401  0.1579  0.2981
 7051SOL    HW232613   4.089   4.420   8.918  2.9106 -1.6972 -0.8032
 7052SOL     OW32614   2.898   0.750   4.189  0.6665  0.1758  0.2841
 7052SOL    HW132615   2.929   0.836   4.160 -1.1988  1.1471  1.2213
 7052SOL    HW232616   2.804   0.763   4.176  0.4717 -0.9035  0.6728
 7053SOL     OW32617   1.726   0.679   6.456 -0.1355  0.1028 -0.4667
 7053SOL    HW132618   1.793   0.615   6.477 -1.8331 -2.0191 -1.5750
 7053SOL    HW232619   1.647   0.634   6.485  0.2281  0.7958  1.6166
 7054SOL     OW32620   2.782   2.252   6.549 -0.3594  0.0614  0.4008
 7054SOL    HW132621   2.786   2.255   6.453  1.8577  0.7057  0.5037
 7054SOL    HW232622   2.876   2.242   6.567 -0.2913 -0.6077 -0.3257
 7055SOL     OW32623   4.602   3.401  16.082  0.6241  0.2946  0.3660
 7055SOL    HW132624   4.508   3.417  16.090  0.7650  1.1958  0.2853
 7055SOL    HW232625   4.636   3.490  16.095 -1.9248  1.1682  1.0836
 7056SOL     OW32626   1.844   3.975   4.810 -1.2954  0.0144  0.2919
 7056SOL    HW132627   1.843   4.063   4.775  0.3294  0.9054  2.5029
 7056SOL    HW232628   1.754   3.947   4.791 -1.3755  0.4527  0.0542
 7057SOL     OW32629   2.065   0.192   6.040  0.4114  0.4202  0.8553
 7057SOL    HW132630   1.974   0.199   6.011  0.4727  0.0636  0.5779
 7057SOL    HW232631   2.084   0.141   5.962  1.7626  2.6658 -0.2834
 7058SOL     OW32632   0.089   4.351   8.546 -0.7138 -0.2015 -0.2897
 7058SOL    HW132633   0.160   4.363   8.482 -0.7118 -1.3801 -0.5136
 7058SOL    HW232634   0.083   4.257   8.528 -2.9383  0.0390 -0.7999
 7059SOL     OW32635   2.713   2.772  14.037  0.1468 -0.1342 -0.0067
 7059SOL    HW132636   2.640   2.834  14.031  1.2811  1.2895  0.8796
 7059SOL    HW232637   2.791   2.819  14.006 -0.9835  0.4906 -1.9409
 7060SOL     OW32638   2.864   4.381   6.971 -0.1971 -0.0416  0.1566
 7060SOL    HW132639   2.859   4.455   6.911  0.6266  0.6225  0.8989
 7060SOL    HW232640   2.835   4.310   6.915  0.4985 -1.1582  1.2206
 7061SOL     OW32641   2.071   4.544   6.264 -0.2811  0.2721  0.4098
 7061SOL    HW132642   2.158   4.567   6.297  0.9217 -3.7538 -0.0512
 7061SOL    HW232643   2.022   4.609   6.315 -1.9481 -1.1411  0.6104
 7062SOL     OW32644   0.709   3.312  15.542 -0.1872  0.5059  0.2185
 7062SOL    HW132645   0.643   3.344  15.603 -3.5237 -1.3354 -2.4173
 7062SOL    HW232646   0.690   3.369  15.468  1.6499 -1.9080 -2.1312
 7063SOL     OW32647   0.578   4.669  14.185  0.1577 -0.0120 -0.4601
 7063SOL    HW132648   0.673   4.671  14.190  0.1706  2.7344 -1.7689
 7063SOL    HW232649   0.560   4.577  14.204 -1.0843  0.4319  0.5999
 7064SOL     OW32650   3.576   0.609   5.083 -0.1490 -0.1310 -0.3727
 7064SOL    HW132651   3.629   0.675   5.038  3.2447 -1.5934  1.4454
 7064SOL    HW232652   3.508   0.664   5.122 -1.8392 -2.7129  0.3176
 7065SOL     OW32653   2.596   3.020  14.334  0.0089 -0.5311  0.1136
 7065SOL    HW132654   2.560   3.072  14.262 -2.0959 -1.7275  0.3224
 7065SOL    HW232655   2.667   3.079  14.360  0.4969 -1.4087  0.7805
 7066SOL     OW32656   3.755   3.305  11.289  0.4351  0.4610  0.0508
 7066SOL    HW132657   3.704   3.384  11.275 -0.2861 -0.3058 -1.6269
 7066SOL    HW232658   3.813   3.305  11.213  0.0945  0.1899 -0.2067
 7067SOL     OW32659   3.972   2.867   0.817  0.2443  0.4509  0.3305
 7067SOL    HW132660   3.979   2.838   0.908 -1.2269 -1.3068 -0.1018
 7067SOL    HW232661   4.058   2.903   0.797  1.1661 -2.3538 -0.7750
 7068SOL     OW32662   0.955   2.802  14.576  0.1575  0.3063 -0.2470
 7068SOL    HW132663   1.023   2.735  14.568  0.4836  0.6519 -0.3749
 7068SOL    HW232664   1.002   2.880  14.605 -1.4117  1.2036 -0.1678
 7069SOL     OW32665   2.703   1.466   8.273 -0.3310  0.1134  0.2780
 7069SOL    HW132666   2.774   1.413   8.309 -0.5882  0.7976  1.7704
 7069SOL    HW232667   2.707   1.426   8.186 -0.9099 -0.0746  0.3392
 7070SOL     OW32668   3.469   3.011  15.680 -0.3898  0.0198 -0.0262
 7070SOL    HW132669   3.392   2.955  15.680 -2.2071  2.5400 -3.6234
 7070SOL    HW232670   3.544   2.955  15.661 -0.7037 -0.7155  0.9602
 7071SOL     OW32671   0.292   0.808   4.369 -0.5102  0.3424  0.1367
 7071SOL    HW132672   0.301   0.734   4.429  0.5800  0.0574 -0.3710
 7071SOL    HW232673   0.385   0.831   4.369  0.0398 -1.8843  0.5190
 7072SOL     OW32674   4.174   1.564  10.020 -0.0335 -0.3540  0.0248
 7072SOL    HW132675   4.183   1.653  10.053  2.9100 -1.1907  1.4935
 7072SOL    HW232676   4.182   1.518  10.104  1.6101  1.0936  0.6523
 7073SOL     OW32677   1.556   0.179  11.357  0.4470 -0.1477 -0.3138
 7073SOL    HW132678   1.518   0.107  11.306 -2.5943  1.2605 -0.0197
 7073SOL    HW232679   1.630   0.190  11.298 -1.2755 -0.3165 -2.5170
 7074SOL     OW32680   2.375   1.752  12.526 -0.3826  0.0812 -0.1067
 7074SOL    HW132681   2.363   1.802  12.607 -0.2189  1.2239 -0.7795
 7074SOL    HW232682   2.414   1.671  12.557  0.8220  0.8285  0.3250
 7075SOL     OW32683   3.771   1.843   4.455  0.0182 -0.1898 -0.6665
 7075SOL    HW132684   3.762   1.768   4.397  0.3851 -0.8869  0.1659
 7075SOL    HW232685   3.686   1.885   4.449 -0.6785 -1.2571  1.4412
 7076SOL     OW32686   3.933   4.521  14.522 -0.8050 -0.2412 -0.0625
 7076SOL    HW132687   3.996   4.586  14.551 -0.2767 -0.3354 -0.9996
 7076SOL    HW232688   3.904   4.547  14.435 -0.1568  0.7505  0.0292
 7077SOL     OW32689   2.554   0.015  15.196 -0.4271  0.0054 -0.2768
 7077SOL    HW132690   2.561   0.048  15.286 -1.5128  0.2145 -0.2635
 7077SOL    HW232691   2.471   4.691  15.201 -0.2099 -0.3043  0.3184
 7078SOL     OW32692   3.035   1.839   7.445  0.1567  0.2943  0.4897
 7078SOL    HW132693   2.948   1.811   7.416  0.5029 -0.4712  0.1833
 7078SOL    HW232694   3.073   1.877   7.366 -1.7848 -0.3726 -0.7726
 7079SOL     OW32695   3.364   2.137  13.126 -0.7339 -0.4807  0.1035
 7079SOL    HW132696   3.321   2.191  13.059  0.8007 -0.0501 -0.5280
 7079SOL    HW232697   3.333   2.170  13.211  1.6853  0.6543  0.5540
 7080SOL     OW32698   1.189   4.067   7.156 -0.4975 -0.0736  0.5527
 7080SOL    HW132699   1.267   4.066   7.100  0.7373 -0.7353  2.2463
 7080SOL    HW232700   1.237   4.095   7.235  1.3012 -2.0728  0.1689
 7081SOL     OW32701   3.231   3.556   4.023 -0.0440 -0.3019 -0.6929
 7081SOL    HW132702   3.232   3.617   4.096 -0.6195 -0.3994 -0.6066
 7081SOL    HW232703   3.161   3.497   4.050 -0.2311  1.5178  2.7055
 7082SOL     OW32704   0.362   1.835   7.198 -0.0073  0.0786  0.3712
 7082SOL    HW132705   0.437   1.829   7.257 -2.1180  0.1768  3.0607
 7082SOL    HW232706   0.289   1.795   7.245  0.7501 -0.6514  0.9157
 7083SOL     OW32707   3.149   3.146   7.729 -0.4712  0.1750 -0.3723
 7083SOL    HW132708   3.161   3.055   7.757  0.7937  0.6540  0.6239
 7083SOL    HW232709   3.131   3.131   7.636  1.5478  1.3371 -0.9374
 7084SOL     OW32710   0.966   0.647   7.221  0.2578  0.5084 -0.8340
 7084SOL    HW132711   1.003   0.594   7.291  0.2954  0.7851 -0.6464
 7084SOL    HW232712   1.043   0.676   7.171  1.7353 -1.1583  0.4838
 7085SOL     OW32713   4.043   0.495  10.387  0.5964  0.4721  0.0339
 7085SOL    HW132714   4.111   0.560  10.402  1.5174 -0.1068 -1.6337
 7085SOL    HW232715   4.023   0.509  10.295  1.7302  1.0821 -0.1056
 7086SOL     OW32716   1.745   4.686   4.902 -0.3999  0.1210  0.5328
 7086SOL    HW132717   1.751   0.058   4.913  0.9346  0.1969 -0.8780
 7086SOL    HW232718   1.759   4.650   4.989 -0.5960  0.4127  0.6850
 7087SOL     OW32719   2.582   3.861   2.341  0.0900  0.0086  0.6243
 7087SOL    HW132720   2.531   3.941   2.358  0.4618  0.2589  0.5758
 7087SOL    HW232721   2.642   3.905   2.281  0.8191  0.7957  1.9361
 7088SOL     OW32722   0.295   1.540  14.550  0.7753  0.9693  0.0861
 7088SOL    HW132723   0.245   1.617  14.524 -1.6267 -0.6173  0.0479
 7088SOL    HW232724   0.231   1.493  14.603  0.3917  1.2380 -0.1390
 7089SOL     OW32725   0.030   3.727  15.491  0.0936  0.0184 -0.8507
 7089SOL    HW132726   4.712   3.798  15.539  1.2261 -0.2188  0.4642
 7089SOL    HW232727   4.703   3.742  15.411  0.9412 -1.0469 -1.5858
 7090SOL     OW32728   1.418   1.150   8.226 -0.3788 -0.2023  0.1178
 7090SOL    HW132729   1.323   1.136   8.236 -0.9735  2.8473 -1.2208
 7090SOL    HW232730   1.453   1.061   8.233 -3.0103 -1.1879  0.9638
 7091SOL     OW32731   0.271   4.013  13.092 -0.3035  0.0846 -0.2556
 7091SOL    HW132732   0.241   3.923  13.080 -1.5874  0.6545 -1.3621
 7091SOL    HW232733   0.260   4.024  13.187 -0.2470  0.2730 -0.2712
 7092SOL     OW32734   0.447   2.961   7.133 -0.5090  0.2829 -0.6554
 7092SOL    HW132735   0.449   2.880   7.184  0.3561  1.1902  0.7620
 7092SOL    HW232736   0.470   3.034   7.191 -0.3149 -0.5275  0.2777
 7093SOL     OW32737   3.160   1.370  10.723 -1.1899  0.1397 -0.0971
 7093SOL    HW132738   3.247   1.407  10.735 -0.9443 -0.7921  1.0190
 7093SOL    HW232739   3.124   1.432  10.660 -2.6773 -0.7106 -0.0888
 7094SOL     OW32740   1.368   0.549   8.223  0.0255 -0.2817 -0.2071
 7094SOL    HW132741   1.402   0.619   8.166  1.7365 -2.0898 -1.4113
 7094SOL    HW232742   1.274   0.565   8.216 -0.2923 -1.1333  2.1577
 7095SOL     OW32743   0.145   1.550   6.397  0.8009  0.0774  0.1235
 7095SOL    HW132744   0.109   1.490   6.463  0.1573 -0.6366 -0.8660
 7095SOL    HW232745   0.189   1.480   6.349 -3.2568 -1.8775 -0.7505
 7096SOL     OW32746   3.502   1.275   5.997  0.4767 -0.1682 -0.1441
 7096SOL    HW132747   3.506   1.355   6.049  1.2542 -0.4111  0.1733
 7096SOL    HW232748   3.589   1.243   6.022  0.5241  0.5777  0.6382
 7097SOL     OW32749   2.067   3.305   5.478 -0.0146 -0.4436  0.5066
 7097SOL    HW132750   2.040   3.392   5.447 -2.1197 -1.8406 -1.4978
 7097SOL    HW232751   2.070   3.245   5.403  0.0038 -0.4171  0.4860
 7098SOL     OW32752   1.857   4.317   8.459  0.1777 -0.3564 -0.4823
 7098SOL    HW132753   1.775   4.333   8.505 -0.2376 -0.2810 -1.2453
 7098SOL    HW232754   1.882   4.405   8.430 -1.4383 -0.1312 -1.1780
 7099SOL     OW32755   3.094   3.587  11.923  0.7362 -0.1158  0.4194
 7099SOL    HW132756   3.037   3.609  11.996 -0.8564 -0.3064 -0.7703
 7099SOL    HW232757   3.166   3.542  11.967 -1.9922 -4.2691  0.5491
 7100SOL     OW32758   3.471   2.759   8.887 -0.3891  0.1613 -0.6372
 7100SOL    HW132759   3.425   2.759   8.971  2.1925 -2.6498  0.7574
 7100SOL    HW232760   3.485   2.665   8.878 -0.4433  0.3667 -3.0978
 7101SOL     OW32761   3.647   1.350   5.650  0.2446 -0.1035 -0.4518
 7101SOL    HW132762   3.685   1.308   5.726  2.2552  0.8543 -0.9322
 7101SOL    HW232763   3.675   1.290   5.581  0.4228 -2.5863  1.7895
 7102SOL     OW32764   3.911   3.833   8.031 -0.2625  0.2429 -0.0096
 7102SOL    HW132765   3.943   3.774   7.963 -0.9155  0.7030 -0.7190
 7102SOL    HW232766   3.973   3.832   8.103  0.4833  2.0513 -0.6043
 7103SOL     OW32767   4.530   2.332   8.769  0.0159 -0.1913 -0.1396
 7103SOL    HW132768   4.609   2.278   8.760 -0.2157 -1.0141  2.9218
 7103SOL    HW232769   4.504   2.334   8.861  0.2848 -1.7409 -0.0352
 7104SOL     OW32770   0.156   1.578  13.497  0.0094  0.3936 -0.4435
 7104SOL    HW132771   0.138   1.667  13.466 -1.7645 -0.2360 -1.2484
 7104SOL    HW232772   0.083   1.562  13.557 -1.1413 -1.0357 -2.2137
 7105SOL     OW32773   2.635   3.685  14.361  0.6149 -0.1487  0.3753
 7105SOL    HW132774   2.566   3.634  14.317  1.0956  1.6921 -2.4890
 7105SOL    HW232775   2.685   3.619  14.409 -1.3736  0.7081  3.6357
 7106SOL     OW32776   3.200   1.970   6.322  0.2259  0.5107 -0.1404
 7106SOL    HW132777   3.198   1.976   6.227 -1.4295 -0.0185 -0.1493
 7106SOL    HW232778   3.294   1.987   6.329  0.2902  0.0383  0.1857
 7107SOL     OW32779   2.646   0.951   8.867 -0.0527  0.4207 -0.4096
 7107SOL    HW132780   2.638   0.856   8.882  0.3163 -0.0566 -3.2512
 7107SOL    HW232781   2.598   0.963   8.785  0.6327  0.6270 -0.7725
 7108SOL     OW32782   3.088   1.585   6.455 -0.5544 -0.4960 -0.1382
 7108SOL    HW132783   3.011   1.570   6.509 -0.0999  0.8242  0.8906
 7108SOL    HW232784   3.053   1.654   6.399  0.6837 -1.1912 -1.7896
 7109SOL     OW32785   2.696   2.216   3.041  0.0324 -1.0020 -0.1601
 7109SOL    HW132786   2.640   2.292   3.026  1.9716  0.6871  1.1662
 7109SOL    HW232787   2.634   2.152   3.076 -1.3559  1.4118  1.7534
 7110SOL     OW32788   1.891   2.028   5.562 -0.0342 -0.4575  0.3498
 7110SOL    HW132789   1.906   2.047   5.654 -2.4985  1.1615  0.4195
 7110SOL    HW232790   1.818   2.088   5.551  0.1068 -0.2531  0.5515
 7111SOL     OW32791   4.439   0.847   3.855 -0.2585  0.6434 -0.1146
 7111SOL    HW132792   4.402   0.930   3.886  0.1695  2.0289 -3.3082
 7111SOL    HW232793   4.485   0.873   3.775  0.4226 -0.3394 -0.0339
 7112SOL     OW32794   3.450   1.428  14.035  0.1412  0.0293 -0.2055
 7112SOL    HW132795   3.452   1.494  14.105 -2.3337  2.0980 -2.1087
 7112SOL    HW232796   3.399   1.469  13.965 -1.2450  0.8230  1.2727
 7113SOL     OW32797   0.915   0.984   7.216 -0.3696 -0.1677  0.1884
 7113SOL    HW132798   0.879   1.012   7.132  1.7411 -1.7935 -1.2585
 7113SOL    HW232799   0.961   0.907   7.182  2.6728  0.8400  2.0222
 7114SOL     OW32800   3.545   2.059   7.642 -0.8890 -0.0347  0.6315
 7114SOL    HW132801   3.632   2.046   7.604 -1.6041  0.6093 -1.2497
 7114SOL    HW232802   3.502   2.106   7.571 -0.6918  1.2386  1.3663
 7115SOL     OW32803   1.078   3.753  16.405  0.9355  0.7072 -0.0925
 7115SOL    HW132804   1.111   3.804  16.479 -1.0787  2.7691 -0.6128
 7115SOL    HW232805   0.985   3.766  16.423  1.1047  1.3990  0.2550
 7116SOL     OW32806   4.262   0.046   7.818  0.5912  0.5141  0.7642
 7116SOL    HW132807   4.313   4.706   7.768  3.1514  1.9602  1.5423
 7116SOL    HW232808   4.297   0.042   7.907 -0.8293 -1.9108  1.2212
 7117SOL     OW32809   4.428   1.265   2.176  0.9656  0.3762 -0.2737
 7117SOL    HW132810   4.418   1.221   2.092 -0.1201  1.5395 -0.7479
 7117SOL    HW232811   4.365   1.214   2.227  0.5190 -0.2085 -1.4181
 7118SOL     OW32812   1.148   2.089   2.016  0.6254 -0.1195  0.2834
 7118SOL    HW132813   1.204   2.012   2.031 -0.4033 -0.5257  2.0237
 7118SOL    HW232814   1.063   2.056   2.045  1.1122 -0.4467  1.3500
 7119SOL     OW32815   1.633   2.445   4.640 -0.1243  0.0806  0.2730
 7119SOL    HW132816   1.621   2.456   4.546 -0.1764  0.0561  0.2765
 7119SOL    HW232817   1.603   2.355   4.651 -0.8438  0.3630  0.6327
 7120SOL     OW32818   2.850   4.482   4.808 -0.2354 -0.1124 -0.4516
 7120SOL    HW132819   2.785   4.416   4.835 -1.5978  0.7229 -1.6990
 7120SOL    HW232820   2.882   4.441   4.727 -0.1966 -3.0150  1.0149
 7121SOL     OW32821   4.340   0.357   9.307  0.2124 -0.1473 -1.0550
 7121SOL    HW132822   4.416   0.415   9.302  0.3307 -0.1707  0.6246
 7121SOL    HW232823   4.270   0.422   9.313  0.5442  0.2478 -1.4695
 7122SOL     OW32824   0.981   2.210  13.671 -0.5578  0.2789 -0.7126
 7122SOL    HW132825   1.026   2.293  13.686  1.0160 -0.4536 -1.4095
 7122SOL    HW232826   1.030   2.155  13.732  0.2622  1.6295 -0.1622
 7123SOL     OW32827   3.931   2.276   6.416 -0.2191  0.1804  0.2428
 7123SOL    HW132828   3.996   2.322   6.364  0.6604 -0.4751  0.7605
 7123SOL    HW232829   3.963   2.187   6.406  1.7190  1.1452 -2.1476
 7124SOL     OW32830   2.010   1.551   5.769  0.4722  0.0608 -0.0854
 7124SOL    HW132831   1.947   1.481   5.751 -2.2034  2.0708  1.5591
 7124SOL    HW232832   1.972   1.630   5.731  1.2883  0.1112 -0.7930
 7125SOL     OW32833   4.460   1.272   5.224  0.3840 -0.0573 -0.1267
 7125SOL    HW132834   4.456   1.348   5.165  1.0578  0.1742  0.1301
 7125SOL    HW232835   4.489   1.317   5.303 -0.7560  0.0937  0.2077
 7126SOL     OW32836   3.153   1.877  14.867  0.0873 -0.0659  0.4681
 7126SOL    HW132837   3.077   1.932  14.881 -0.5975 -0.9701  0.3179
 7126SOL    HW232838   3.203   1.893  14.947  2.1092 -1.8429 -0.4198
 7127SOL     OW32839   2.106   1.492  16.887  0.1519  0.1527 -0.0692
 7127SOL    HW132840   2.057   1.489  16.805  1.1876 -0.3056 -0.6660
 7127SOL    HW232841   2.118   1.399  16.906 -0.5846  0.0748 -0.0015
 7128SOL     OW32842   4.324   0.738  12.593  0.5859  0.2320  0.4798
 7128SOL    HW132843   4.253   0.680  12.566  0.2821  0.7222  0.2083
 7128SOL    HW232844   4.395   0.720  12.532 -0.6328 -0.5501 -0.6968
 7129SOL     OW32845   1.923   3.020   7.203 -0.9665 -0.1934 -0.3431
 7129SOL    HW132846   1.835   3.051   7.181 -0.4344  2.3999  1.1288
 7129SOL    HW232847   1.955   3.007   7.114  1.0926 -2.1128  0.7088
 7130SOL     OW32848   2.157   2.647   1.548 -0.1420 -0.3405 -0.3051
 7130SOL    HW132849   2.118   2.582   1.606  0.6673 -0.4395  0.1408
 7130SOL    HW232850   2.130   2.728   1.591 -0.6423  0.3642 -1.9533
 7131SOL     OW32851   1.565   1.008   6.118  0.1653  0.2041  0.2258
 7131SOL    HW132852   1.521   0.963   6.046 -0.8472 -1.1737  1.7147
 7131SOL    HW232853   1.535   0.955   6.191 -0.8110  0.0842 -0.2508
 7132SOL     OW32854   3.493   3.799   8.464 -0.0560  0.3869  0.2192
 7132SOL    HW132855   3.471   3.795   8.558 -0.6467  1.6649  0.1334
 7132SOL    HW232856   3.446   3.880   8.445  1.6649  1.7759  1.8400
 7133SOL     OW32857   2.477   2.450   7.381 -0.0749 -0.5747 -0.3717
 7133SOL    HW132858   2.392   2.420   7.351 -0.1619  0.9749 -1.7198
 7133SOL    HW232859   2.522   2.416   7.304 -2.3207 -1.4844 -1.2648
 7134SOL     OW32860   0.403   1.396   7.027 -0.0491  0.6738  0.0642
 7134SOL    HW132861   0.473   1.461   7.022  1.0052 -0.3609  1.4366
 7134SOL    HW232862   0.328   1.443   6.989  0.4102  0.2316 -1.4045
 7135SOL     OW32863   0.755   1.206   9.565 -0.3337 -0.1384 -0.1596
 7135SOL    HW132864   0.712   1.269   9.507 -0.0932  0.6836  0.5631
 7135SOL    HW232865   0.842   1.190   9.528 -0.8138 -0.1138 -1.2874
 7136SOL     OW32866   4.504   2.858   7.883 -0.0523 -0.3944 -0.0269
 7136SOL    HW132867   4.514   2.789   7.818 -0.8473  0.3279 -0.9219
 7136SOL    HW232868   4.583   2.905   7.856 -0.3673 -0.1801 -0.5752
 7137SOL     OW32869   2.876   3.182  13.622 -0.0372 -0.1997 -0.0880
 7137SOL    HW132870   2.923   3.099  13.636  0.2879 -0.1236 -0.7109
 7137SOL    HW232871   2.921   3.237  13.686  0.0379  1.2465 -1.3647
 7138SOL     OW32872   2.407   3.055   3.119 -0.1380  0.5364 -0.6632
 7138SOL    HW132873   2.426   3.148   3.124  1.0645  0.2900 -0.6871
 7138SOL    HW232874   2.363   3.046   3.034  0.9913 -0.8086 -1.1168
 7139SOL     OW32875   1.502   0.693  15.285  0.2432 -0.3649 -0.2325
 7139SOL    HW132876   1.459   0.765  15.239  1.8118  1.0065  0.4333
 7139SOL    HW232877   1.473   0.621  15.229  0.0622 -0.5295  0.0773
 7140SOL     OW32878   3.945   0.352   3.621 -0.3240 -0.4128 -0.2528
 7140SOL    HW132879   4.036   0.325   3.610  0.4865  1.4150  2.0137
 7140SOL    HW232880   3.927   0.401   3.541 -1.2067  0.0345  0.2253
 7141SOL     OW32881   2.720   0.162   8.721 -0.1266 -0.0333  0.0731
 7141SOL    HW132882   2.670   0.111   8.784 -1.2648  1.0524  0.0406
 7141SOL    HW232883   2.805   0.122   8.741  0.1801  0.1873 -0.8169
 7142SOL     OW32884   2.175   0.580   4.321 -0.1610 -0.0034 -0.4034
 7142SOL    HW132885   2.145   0.490   4.329  2.1013 -0.7791 -0.5244
 7142SOL    HW232886   2.219   0.573   4.236  2.1830  0.5329  0.7479
 7143SOL     OW32887   2.040   1.246   1.774  0.0939 -0.5639  0.3351
 7143SOL    HW132888   2.010   1.251   1.683 -0.6605  0.5224  0.6460
 7143SOL    HW232889   1.958   1.230   1.820  1.3137 -2.5253  1.8247
 7144SOL     OW32890   2.991   1.389   4.892  0.4452  0.3737  0.0398
 7144SOL    HW132891   2.899   1.396   4.867 -0.0229 -0.2301  1.5376
 7144SOL    HW232892   3.021   1.479   4.881 -1.1952  0.9271  0.0594
 7145SOL     OW32893   4.494   2.747   1.820 -0.0189  0.1919  0.5556
 7145SOL    HW132894   4.532   2.666   1.855 -0.9594 -0.2267  0.6303
 7145SOL    HW232895   4.532   2.801   1.889  0.3009 -1.3184  1.5779
 7146SOL     OW32896   2.414   3.500  16.792 -0.5400  0.7456  0.0422
 7146SOL    HW132897   2.390   3.499  16.885 -0.9278 -0.7820 -0.0816
 7146SOL    HW232898   2.483   3.434  16.786 -0.4863  0.7419  0.6707
 7147SOL     OW32899   1.244   1.244   4.537 -0.0544 -0.8962  0.1791
 7147SOL    HW132900   1.300   1.167   4.550  1.4151  0.0230 -0.7682
 7147SOL    HW232901   1.156   1.208   4.553 -0.7108  0.2076 -1.0347
 7148SOL     OW32902   2.258   0.712   7.684 -0.0842 -0.3046  0.3296
 7148SOL    HW132903   2.284   0.621   7.668 -1.8458 -0.4156 -1.9415
 7148SOL    HW232904   2.344   0.754   7.695 -0.6047  1.6609 -3.0270
 7149SOL     OW32905   4.224   0.790   4.449 -0.1977  0.0858 -0.2202
 7149SOL    HW132906   4.147   0.738   4.427 -1.9403  2.3993  0.3393
 7149SOL    HW232907   4.192   0.858   4.509  0.9465  0.1369  0.3266
 7150SOL     OW32908   2.583   4.421   4.056 -0.2074 -0.0020  0.1603
 7150SOL    HW132909   2.555   4.340   4.014 -1.8984  0.3625  0.5655
 7150SOL    HW232910   2.540   4.491   4.007  0.3372 -0.1844 -0.5753
 7151SOL     OW32911   2.546   4.678  17.061 -0.1597 -0.2179 -0.0026
 7151SOL    HW132912   2.525   4.684  16.968 -2.0022 -2.1202  0.2795
 7151SOL    HW232913   2.602   4.600  17.056  0.2791  0.1421 -0.6203
 7152SOL     OW32914   3.626   4.011  15.223  0.2867 -0.2011  0.0109
 7152SOL    HW132915   3.621   3.940  15.160 -1.1342 -1.9382  2.0748
 7152SOL    HW232916   3.544   3.997  15.270  0.7830  1.6856  1.4287
 7153SOL     OW32917   2.847   1.430  15.839  0.0003  0.5517 -0.1046
 7153SOL    HW132918   2.827   1.387  15.756 -0.9713  0.4507  0.1724
 7153SOL    HW232919   2.896   1.502  15.800 -0.6408  0.5407 -0.9259
 7154SOL     OW32920   1.921   1.672  16.320  0.3750  0.1474  0.0713
 7154SOL    HW132921   1.859   1.738  16.289 -0.8489 -1.7683 -1.5496
 7154SOL    HW232922   1.883   1.593  16.282  1.2481  0.9052 -2.3173
 7155SOL     OW32923   4.247   2.023   0.698  1.1430  0.6092 -0.7163
 7155SOL    HW132924   4.300   2.090   0.655 -0.1946  1.0846 -1.6096
 7155SOL    HW232925   4.202   1.988   0.622 -1.8659 -0.7726  1.6864
 7156SOL     OW32926   4.382   0.485  12.789  0.1166  0.0144 -0.3840
 7156SOL    HW132927   4.419   0.503  12.703  0.5687  0.6550 -0.0582
 7156SOL    HW232928   4.435   0.535  12.851 -0.1446 -2.3062  1.7155
 7157SOL     OW32929   4.429   4.618   7.134 -0.4267 -0.1301  0.4124
 7157SOL    HW132930   4.397   4.555   7.198 -1.5753  0.5807  0.5517
 7157SOL    HW232931   4.524   4.610   7.128 -0.5301 -1.2059  0.1586
 7158SOL     OW32932   4.430   2.726   4.401 -0.1206  0.2180  0.8602
 7158SOL    HW132933   4.363   2.754   4.464  0.3900  1.9955  0.6082
 7158SOL    HW232934   4.431   2.791   4.330  2.7705 -0.2488  0.4881
 7159SOL     OW32935   0.581   3.275   9.912 -0.4218  0.1155  0.1389
 7159SOL    HW132936   0.642   3.240   9.977 -1.4045  0.2242  1.1249
 7159SOL    HW232937   0.515   3.317   9.968 -1.2381 -1.2908  0.2269
 7160SOL     OW32938   0.337   3.398   0.807  0.7528 -0.2874 -0.2558
 7160SOL    HW132939   0.253   3.421   0.767  1.2550  1.1896 -0.4529
 7160SOL    HW232940   0.317   3.305   0.820 -1.2448  0.0027 -1.1378
 7161SOL     OW32941   3.703   4.321   3.412  0.4733 -0.4800  0.0654
 7161SOL    HW132942   3.774   4.261   3.389  1.8141  0.2417  2.3104
 7161SOL    HW232943   3.634   4.259   3.437 -1.3697  1.3795 -0.4254
 7162SOL     OW32944   3.916   0.903  15.968  0.9008  0.1813 -0.0808
 7162SOL    HW132945   3.949   0.942  15.887 -0.3261  1.6901  0.1433
 7162SOL    HW232946   3.963   0.952  16.036  0.5121 -1.9606  1.7469
 7163SOL     OW32947   3.871   0.754   8.168  0.9242 -0.1346 -0.5682
 7163SOL    HW132948   3.797   0.701   8.137 -0.4464  0.5078  1.6176
 7163SOL    HW232949   3.832   0.839   8.187 -0.0843 -1.3410  2.8815
 7164SOL     OW32950   3.988   1.236   4.247  0.3634  0.5122 -0.1446
 7164SOL    HW132951   3.970   1.314   4.299  1.1013  2.0834 -2.2362
 7164SOL    HW232952   4.061   1.264   4.192  1.2373 -0.9305  0.2980
 7165SOL     OW32953   0.395   1.359  12.290 -0.2603  0.0956 -0.0344
 7165SOL    HW132954   0.434   1.278  12.322 -2.4522 -1.3442 -0.9856
 7165SOL    HW232955   0.311   1.330  12.255 -0.0409  0.0450 -0.5225
 7166SOL     OW32956   4.659   4.516   9.085 -0.0545 -0.3476  0.0441
 7166SOL    HW132957   4.603   4.560   9.150 -1.2781 -0.8442 -0.6772
 7166SOL    HW232958   4.638   4.572   9.011  0.8353 -1.0530 -0.7290
 7167SOL     OW32959   3.089   2.727   8.102  0.4823  0.0193 -1.1804
 7167SOL    HW132960   3.177   2.741   8.065  0.9824  0.6078  0.2321
 7167SOL    HW232961   3.047   2.719   8.016 -3.7864 -1.8963  1.1255
 7168SOL     OW32962   1.865   1.180   1.023  0.5531 -0.5354  0.6444
 7168SOL    HW132963   1.784   1.231   1.035  1.1005  0.9676 -1.9174
 7168SOL    HW232964   1.842   1.094   1.058 -0.7206  0.1981  1.6409
 7169SOL     OW32965   3.284   2.354   8.471 -0.0770 -0.7558  0.4538
 7169SOL    HW132966   3.211   2.342   8.410  0.0690  0.6794 -0.0260
 7169SOL    HW232967   3.357   2.342   8.409 -1.1503  0.6344 -1.0893
 7170SOL     OW32968   4.198   4.661   6.801 -0.1670  0.0790  0.0136
 7170SOL    HW132969   4.170   4.660   6.893 -0.1588  0.4295  0.0187
 7170SOL    HW232970   4.192   0.031   6.784 -1.9842 -0.7253 -3.6991
 7171SOL     OW32971   3.901   3.900   7.437 -0.0699 -0.1735  0.3437
 7171SOL    HW132972   3.829   3.849   7.398 -0.0895  0.3753 -0.3468
 7171SOL    HW232973   3.921   3.836   7.505 -0.3872 -0.9510 -0.2920
 7172SOL     OW32974   1.573   3.811   7.919  0.3020 -1.2736  0.3356
 7172SOL    HW132975   1.488   3.784   7.885 -1.1555  2.1611  1.2950
 7172SOL    HW232976   1.613   3.734   7.960  0.0682 -1.7120 -0.2559
 7173SOL     OW32977   0.825   2.273   1.822  0.3436 -0.1922  0.0180
 7173SOL    HW132978   0.869   2.317   1.895 -0.7659 -1.3338  1.3789
 7173SOL    HW232979   0.807   2.344   1.760 -1.0204 -0.6338 -0.0808
 7174SOL     OW32980   1.129   2.777   7.190 -0.0303  0.2715 -0.5113
 7174SOL    HW132981   1.172   2.788   7.275 -1.1901  1.5882 -0.1014
 7174SOL    HW232982   1.205   2.768   7.132  0.0862  3.9054 -0.8852
 7175SOL     OW32983   2.594   2.038   0.374 -0.5562  0.7797 -0.4697
 7175SOL    HW132984   2.520   1.977   0.379 -0.3697  0.4556 -1.5859
 7175SOL    HW232985   2.659   2.001   0.434 -1.9249 -0.4747  0.2257
 7176SOL     OW32986   1.960   1.741   6.023 -0.0722  0.4409  0.0150
 7176SOL    HW132987   2.019   1.813   6.004  0.2772  1.0644  3.4603
 7176SOL    HW232988   1.873   1.779   6.007 -1.1752 -0.9105  2.7261
 7177SOL     OW32989   4.290   0.746  14.090 -0.0986 -0.4199  0.1898
 7177SOL    HW132990   4.327   0.693  14.160 -1.1897  0.1482  1.1987
 7177SOL    HW232991   4.274   0.682  14.021  0.6522  0.3370 -0.6805
 7178SOL     OW32992   3.564   2.938   8.437 -0.1368 -0.4025 -0.0893
 7178SOL    HW132993   3.551   2.871   8.503  1.7041 -0.4062  0.2502
 7178SOL    HW232994   3.650   2.971   8.460  0.1708  0.1552 -2.0346
 7179SOL     OW32995   3.516   2.079  15.878  0.5688 -0.2411  0.1064
 7179SOL    HW132996   3.570   2.150  15.912 -1.5719  1.1853  0.5463
 7179SOL    HW232997   3.524   2.027  15.958 -0.5379  0.9916  1.0143
 7180SOL     OW32998   1.097   1.078   8.550  0.4890  0.0394  0.6515
 7180SOL    HW132999   1.104   1.114   8.461 -0.5832 -0.5093  0.3402
 7180SOL    HW233000   1.033   1.007   8.545  1.0281 -0.5557  2.3310
 7181SOL     OW33001   0.290   2.570   6.301 -0.6724  0.4808  0.6459
 7181SOL    HW133002   0.378   2.540   6.276 -1.7807 -2.6708  0.5819
 7181SOL    HW233003   0.295   2.524   6.385 -2.1131 -1.3195 -0.2538
 7182SOL     OW33004   2.594   3.239   7.524  0.4544 -0.1540 -0.7028
 7182SOL    HW133005   2.521   3.288   7.561  1.7532  1.1621  0.1377
 7182SOL    HW233006   2.623   3.191   7.602  0.0947 -0.8655 -1.0051
 7183SOL     OW33007   0.264   3.812  17.047  0.5201  0.0822 -0.2454
 7183SOL    HW133008   0.280   3.873  17.119  2.7054  0.4438 -1.0234
 7183SOL    HW233009   0.347   3.764  17.046  0.2125 -0.4331 -1.2335
 7184SOL     OW33010   2.091   1.622   1.947  0.1746  0.7056  0.2673
 7184SOL    HW133011   2.128   1.541   1.911 -2.5318  0.3828 -1.7753
 7184SOL    HW233012   2.162   1.687   1.946 -0.5983  1.5938  2.6102
 7185SOL     OW33013   3.230   3.742   7.025 -0.1537 -0.3799  0.4272
 7185SOL    HW133014   3.250   3.835   7.027 -1.2148 -0.1219 -0.8559
 7185SOL    HW233015   3.302   3.708   6.972 -0.7157 -0.8180 -0.0658
 7186SOL     OW33016   0.887   4.094   7.129  0.4128 -0.0448  0.5192
 7186SOL    HW133017   0.944   4.074   7.203  0.7340 -1.5132 -0.1154
 7186SOL    HW233018   0.910   4.186   7.118  1.5277 -0.5155 -1.1740
 7187SOL     OW33019   3.953   0.356  11.340  0.5854 -0.5681 -0.5190
 7187SOL    HW133020   3.937   0.381  11.431  0.5315  2.7050 -1.4099
 7187SOL    HW233021   3.882   0.408  11.302  0.2058 -1.9817 -1.7056
 7188SOL     OW33022   0.736   4.628   5.267 -0.4398 -0.0556 -0.3917
 7188SOL    HW133023   0.723   4.534   5.255 -0.5517 -0.1767  0.6890
 7188SOL    HW233024   0.664   4.659   5.321  0.2946 -0.3760  0.7627
 7189SOL     OW33025   4.243   0.597  12.025  0.4339 -0.3759  0.5985
 7189SOL    HW133026   4.173   0.578  11.962 -1.8307  1.2171  2.6067
 7189SOL    HW233027   4.243   0.693  12.019 -0.7134 -0.4026  0.1220
 7190SOL     OW33028   1.614   2.537   6.231 -0.2362  0.2373 -0.0210
 7190SOL    HW133029   1.565   2.553   6.312  1.2528 -1.9638  1.3047
 7190SOL    HW233030   1.692   2.488   6.255 -0.3569 -0.4236 -0.9619
 7191SOL     OW33031   1.003   1.830   6.826  0.1895  0.3501  0.2802
 7191SOL    HW133032   1.033   1.765   6.763 -0.7807  0.2336 -0.0575
 7191SOL    HW233033   1.026   1.912   6.782 -1.5168  1.4306  1.4013
 7192SOL     OW33034   3.542   4.009   2.154 -0.1466 -0.1317 -0.0582
 7192SOL    HW133035   3.453   3.973   2.146 -0.4585  0.7975 -0.8136
 7192SOL    HW233036   3.557   4.053   2.070  1.2760  1.3156  0.9617
 7193SOL     OW33037   0.687   3.345   2.640  0.0943  0.7393 -0.3727
 7193SOL    HW133038   0.733   3.263   2.658  1.2377  1.2565 -0.9784
 7193SOL    HW233039   0.745   3.381   2.573 -0.1229  0.5855 -0.6395
 7194SOL     OW33040   0.407   1.753   3.629 -0.1503  0.1646  0.8492
 7194SOL    HW133041   0.502   1.768   3.628 -0.3198  1.1959 -0.3496
 7194SOL    HW233042   0.391   1.659   3.636  0.4288  0.0215  0.2397
 7195SOL     OW33043   2.250   3.250   1.387  0.1647  0.5128  0.4381
 7195SOL    HW133044   2.236   3.308   1.462 -1.3809 -0.0299  0.5531
 7195SOL    HW233045   2.251   3.309   1.312 -1.8064  1.3251  1.0457
 7196SOL     OW33046   0.085   1.925   3.208 -0.3282 -0.4076 -0.1746
 7196SOL    HW133047   0.128   2.004   3.241 -2.7463  0.4859  0.8661
 7196SOL    HW233048   0.148   1.906   3.138  0.8974 -0.4156  0.9313
 7197SOL     OW33049   1.739   1.035   7.837 -0.3661 -0.0888 -0.4834
 7197SOL    HW133050   1.774   1.124   7.835  1.4491 -0.7981 -0.0582
 7197SOL    HW233051   1.648   1.061   7.849  0.0257  2.4362 -2.9089
 7198SOL     OW33052   3.964   2.459  16.793 -0.5610  0.2380 -0.2850
 7198SOL    HW133053   3.982   2.365  16.782  1.3467  0.6889 -0.9578
 7198SOL    HW233054   3.897   2.466  16.725 -0.3301  0.0483 -0.5342
 7199SOL     OW33055   1.607   0.947   2.501  0.1957 -0.3824  0.6802
 7199SOL    HW133056   1.541   0.892   2.458  0.1833  1.6453 -1.8914
 7199SOL    HW233057   1.558   1.029   2.509  0.7681  0.1323 -1.2267
 7200SOL     OW33058   0.918   2.547   9.216 -0.3227  0.6662 -0.3517
 7200SOL    HW133059   0.973   2.597   9.156 -2.3943  3.0964 -0.1980
 7200SOL    HW233060   0.946   2.588   9.298 -1.4349 -1.8016  1.2748
 7201SOL     OW33061   2.146   0.265  13.494  0.1360 -0.1515 -0.1472
 7201SOL    HW133062   2.103   0.278  13.578  2.9183 -3.2013  1.7650
 7201SOL    HW233063   2.080   0.219  13.442  0.2510 -2.5476  1.8613
 7202SOL     OW33064   0.931   2.094   2.393  0.3573  0.1614 -0.5077
 7202SOL    HW133065   0.940   2.057   2.481 -3.1313  1.3978  0.3675
 7202SOL    HW233066   0.928   2.022   2.330  0.4413 -1.5865  1.5038
 7203SOL     OW33067   4.206   0.528   4.288  0.4808  0.2181  0.1315
 7203SOL    HW133068   4.121   0.553   4.325  0.5281 -0.0041  0.3879
 7203SOL    HW233069   4.201   0.437   4.258 -0.4667  0.3630 -0.1760
 7204SOL     OW33070   1.646   4.680   6.024 -0.5706 -0.4674 -0.1003
 7204SOL    HW133071   1.715   4.686   5.959 -0.3910 -0.6943  0.0731
 7204SOL    HW233072   1.692   4.633   6.093 -2.1020 -1.5292  0.1999
 7205SOL     OW33073   0.419   1.607   4.702 -0.2976  0.2586  0.8439
 7205SOL    HW133074   0.490   1.656   4.744 -1.2553  4.0461 -2.0558
 7205SOL    HW233075   0.345   1.614   4.761 -0.3183  1.2495  0.6940
 7206SOL     OW33076   4.687   2.700  17.286 -0.4980  0.0467 -0.1158
 7206SOL    HW133077   4.603   2.654  17.292 -2.3033  3.3824 -0.0513
 7206SOL    HW233078   0.003   2.669  17.367 -1.9331  0.0110  0.5590
 7207SOL     OW33079   2.418   2.285   6.911  0.4294 -0.2073  0.3951
 7207SOL    HW133080   2.359   2.210   6.924  1.1631 -1.1644 -1.7058
 7207SOL    HW233081   2.503   2.244   6.891 -0.2200 -1.6712  0.6071
 7208SOL     OW33082   2.477   0.126   9.315 -0.0309 -0.4431 -0.2503
 7208SOL    HW133083   2.546   0.073   9.274 -0.0965  0.1031 -1.0472
 7208SOL    HW233084   2.533   0.154   9.388 -0.8617 -0.1002  0.2465
 7209SOL     OW33085   1.212   4.684   3.949  0.5089  0.0092 -0.7043
 7209SOL    HW133086   1.298   4.709   3.915  0.1857  2.8697  0.6451
 7209SOL    HW233087   1.214   4.717   4.039 -4.6219  0.6646 -0.8334
 7210SOL     OW33088   0.657   0.397   8.614  0.3011 -0.0456  0.6990
 7210SOL    HW133089   0.632   0.450   8.538 -0.4500  1.8536  2.2552
 7210SOL    HW233090   0.617   0.318   8.578 -0.9537  0.6792  0.5186
 7211SOL     OW33091   3.779   3.380   8.622 -0.1074 -0.4955  0.3015
 7211SOL    HW133092   3.792   3.445   8.691  0.0935 -0.4530  0.2241
 7211SOL    HW233093   3.768   3.443   8.551  0.2935  1.6740  2.1744
 7212SOL     OW33094   3.675   3.666   9.223 -0.1469  0.2715  0.2069
 7212SOL    HW133095   3.584   3.693   9.212 -1.0532 -2.8420  0.1920
 7212SOL    HW233096   3.658   3.591   9.280  0.2654 -0.9395 -1.2859
 7213SOL     OW33097   2.760   4.351  10.005  0.5305 -0.2204  0.3962
 7213SOL    HW133098   2.841   4.308   9.977  1.0574  0.5493  0.7486
 7213SOL    HW233099   2.706   4.278  10.035 -0.5385  0.6792  0.6525
 7214SOL     OW33100   4.549   4.271   6.351 -0.4220 -0.0933  0.1633
 7214SOL    HW133101   4.522   4.187   6.389 -0.4131 -0.5314 -0.8027
 7214SOL    HW233102   4.583   4.247   6.265  0.1755 -0.5467  0.5237
 7215SOL     OW33103   4.471   4.075   7.703  0.3414  0.5417 -0.5149
 7215SOL    HW133104   4.436   4.023   7.775 -0.5636 -0.1406 -1.4443
 7215SOL    HW233105   4.550   4.112   7.742  1.2068 -2.2312  0.3388
 7216SOL     OW33106   3.684   0.289   4.834 -0.0930  0.3695  0.3836
 7216SOL    HW133107   3.674   0.204   4.791  0.8894  0.0240  0.8538
 7216SOL    HW233108   3.613   0.281   4.898 -0.2731  2.9708  0.4962
 7217SOL     OW33109   3.655   2.126   8.960 -0.1333 -0.1228 -0.2678
 7217SOL    HW133110   3.661   2.040   8.918  0.7950 -1.0441  1.7389
 7217SOL    HW233111   3.703   2.182   8.899  1.3584 -0.3903  0.6676
 7218SOL     OW33112   0.175   4.354   3.904  0.0879  0.0089  0.1024
 7218SOL    HW133113   0.166   4.296   3.980  0.6549 -1.7470 -1.1741
 7218SOL    HW233114   0.131   4.432   3.938 -1.2980 -0.6985 -0.0884
 7219SOL     OW33115   1.401   0.862   1.126  0.0524 -0.2931  0.4890
 7219SOL    HW133116   1.494   0.840   1.130 -0.0675 -0.3838  3.1507
 7219SOL    HW233117   1.362   0.818   1.202 -0.6745 -1.3808 -0.5113
 7220SOL     OW33118   1.418   0.822   2.331  0.5624  0.3552  0.0950
 7220SOL    HW133119   1.457   0.774   2.258  1.8255  0.7603  0.5009
 7220SOL    HW233120   1.350   0.868   2.281  2.2163  1.2297 -1.3265
 7221SOL     OW33121   2.646   1.247   6.800  0.3378  0.0308 -0.2390
 7221SOL    HW133122   2.566   1.265   6.751 -0.0375 -3.0289 -0.7553
 7221SOL    HW233123   2.658   1.159   6.765  2.0419 -0.6302  1.9903
 7222SOL     OW33124   4.007   4.250   7.582 -0.5426 -0.1281  0.2561
 7222SOL    HW133125   4.069   4.220   7.649 -0.6458  0.0376  0.4242
 7222SOL    HW233126   3.938   4.185   7.595  0.3589 -1.3584 -1.1400
 7223SOL     OW33127   1.709   1.027   3.779 -0.1737 -0.2725  0.5908
 7223SOL    HW133128   1.700   1.014   3.684  0.4783  1.1830  0.3196
 7223SOL    HW233129   1.757   1.109   3.771  0.1793 -0.6203 -0.9069
 7224SOL     OW33130   0.972   2.091   4.954  0.3669 -0.0184  0.3563
 7224SOL    HW133131   1.005   2.081   4.865  1.7484 -1.4518  1.0226
 7224SOL    HW233132   1.000   2.012   5.001  0.4829 -0.1276  0.1014
 7225SOL     OW33133   3.239   1.167  12.807 -0.2441  0.4532  0.1940
 7225SOL    HW133134   3.242   1.099  12.739 -0.4339  0.1626  0.4743
 7225SOL    HW233135   3.332   1.169  12.831  0.4063 -1.8243 -2.0784
 7226SOL     OW33136   0.445   4.239   3.767 -0.0412  0.1218  0.9659
 7226SOL    HW133137   0.512   4.296   3.727 -0.6023 -0.3068 -0.5922
 7226SOL    HW233138   0.415   4.304   3.830  2.8607  3.0703 -0.6214
 7227SOL     OW33139   2.793   3.487   7.788  0.1774  0.1434  0.2594
 7227SOL    HW133140   2.853   3.432   7.837  0.2172 -1.2421 -1.3608
 7227SOL    HW233141   2.864   3.536   7.746 -0.6158  2.5565  1.7076
 7228SOL     OW33142   0.272   3.652   5.165 -0.0802  0.2139  0.4103
 7228SOL    HW133143   0.258   3.588   5.095 -0.4456  0.3561  0.3541
 7228SOL    HW233144   0.367   3.650   5.177  0.2872 -2.5782 -3.0653
 7229SOL     OW33145   1.231   3.585   8.220 -0.0361 -0.2473  0.2637
 7229SOL    HW133146   1.287   3.548   8.289 -0.3150  1.1530  1.2508
 7229SOL    HW233147   1.231   3.519   8.151  0.2259  0.7883 -0.7248
 7230SOL     OW33148   2.754   3.209   6.978  0.2686 -0.0649  0.0517
 7230SOL    HW133149   2.832   3.192   6.926 -2.3708 -0.1234 -3.9085
 7230SOL    HW233150   2.779   3.294   7.013  0.3777  0.5474 -1.5231
 7231SOL     OW33151   0.439   2.564   8.442  0.8359  0.0953  0.4141
 7231SOL    HW133152   0.408   2.572   8.533  1.7242 -2.4042  0.9587
 7231SOL    HW233153   0.469   2.653   8.424  1.9409 -0.5072 -0.6955
 7232SOL     OW33154   3.792   3.654   4.952  0.1730 -0.2159 -0.3931
 7232SOL    HW133155   3.702   3.684   4.967  0.7681  2.4939 -2.3587
 7232SOL    HW233156   3.837   3.706   5.018  0.9175 -0.8663 -0.3879
 7233SOL     OW33157   0.508   2.277   8.046 -0.0181 -0.2680  0.6452
 7233SOL    HW133158   0.598   2.282   8.078  0.3940 -2.1791 -0.1968
 7233SOL    HW233159   0.471   2.322   8.121  0.4377 -1.6680  1.7099
 7234SOL     OW33160   0.568   3.691   5.104 -0.2544  0.1946 -0.5169
 7234SOL    HW133161   0.591   3.744   5.180 -1.4200 -0.5170  0.3269
 7234SOL    HW233162   0.545   3.762   5.044 -0.3985 -0.0664 -0.7698
 7235SOL     OW33163   0.586   1.646  11.789  0.6749 -0.2023  0.3080
 7235SOL    HW133164   0.492   1.629  11.795  0.2048  1.6650 -1.5831
 7235SOL    HW233165   0.618   1.605  11.869  1.4332 -3.1498 -1.5019
 7236SOL     OW33166   3.625   2.100   6.791  0.1394 -0.1364  0.0800
 7236SOL    HW133167   3.602   2.117   6.700  0.4885 -1.5756 -0.2701
 7236SOL    HW233168   3.717   2.074   6.782  0.4870  0.8955  0.5546
 7237SOL     OW33169   0.094   2.432   2.923  0.3531  0.2276 -0.0869
 7237SOL    HW133170   0.180   2.466   2.948 -0.6970  2.5009  0.3845
 7237SOL    HW233171   0.121   2.381   2.846  0.9192 -0.4772  0.5781
 7238SOL     OW33172   1.054   2.498   7.755  0.2416 -0.3584  0.0687
 7238SOL    HW133173   1.110   2.426   7.783  0.0439 -0.0635  1.2437
 7238SOL    HW233174   0.982   2.490   7.818 -1.5364 -0.3620 -1.9451
 7239SOL     OW33175   1.101   1.848   1.647  0.0689  0.5158  0.0281
 7239SOL    HW133176   1.197   1.839   1.651 -0.0536 -0.4963  0.6016
 7239SOL    HW233177   1.081   1.932   1.688 -0.2707  1.0432 -1.2010
 7240SOL     OW33178   2.701   1.196   5.390  0.2426 -0.0203 -0.0178
 7240SOL    HW133179   2.718   1.269   5.331  0.4511  1.0553  1.3701
 7240SOL    HW233180   2.789   1.161   5.406  0.4722  1.3008  1.5952
 7241SOL     OW33181   0.952   2.681   7.994 -0.3172 -0.1675 -0.1856
 7241SOL    HW133182   0.881   2.724   7.947  0.9221  1.4892 -0.5430
 7241SOL    HW233183   0.959   2.730   8.075 -0.4457 -0.3996 -0.0332
 7242SOL     OW33184   2.418   2.862  13.003 -0.3471 -0.3893  0.3994
 7242SOL    HW133185   2.457   2.818  13.079  1.0848  2.0125  1.0467
 7242SOL    HW233186   2.493   2.903  12.960 -0.0986 -0.5151  0.7068
 7243SOL     OW33187   1.477   1.999  11.826 -0.0818 -0.5249  0.1483
 7243SOL    HW133188   1.412   2.060  11.794  1.2711  0.1755 -1.2670
 7243SOL    HW233189   1.547   2.025  11.766 -0.1227  0.7130  0.6485
 7244SOL     OW33190   2.595   0.837  11.948  0.4885  0.1545 -0.1911
 7244SOL    HW133191   2.611   0.870  12.037 -0.3628  1.2162 -0.4243
 7244SOL    HW233192   2.585   0.918  11.897  3.3804 -0.4120 -1.6241
 7245SOL     OW33193   2.474   3.894   4.672  0.0547  0.5686  0.8493
 7245SOL    HW133194   2.443   3.955   4.739  1.0073 -0.3809  2.1726
 7245SOL    HW233195   2.437   3.812   4.707  0.7330 -0.3928 -0.6957
 7246SOL     OW33196   2.396   3.169   6.227  0.0905  0.3029 -0.2626
 7246SOL    HW133197   2.445   3.153   6.146  2.5375 -0.1455  1.2924
 7246SOL    HW233198   2.466   3.177   6.292  0.6320  0.1531 -0.8301
 7247SOL     OW33199   1.742   1.582   0.384  0.1144  0.0933  0.5640
 7247SOL    HW133200   1.719   1.601   0.475  0.2580 -0.8261  0.7837
 7247SOL    HW233201   1.732   1.487   0.391 -1.9513  0.1844 -1.0121
 7248SOL     OW33202   3.265   0.447   0.562  0.2471  0.1394  0.3671
 7248SOL    HW133203   3.305   0.495   0.635  1.4396 -1.1317  0.5569
 7248SOL    HW233204   3.172   0.461   0.579 -0.8314 -1.5239 -4.2585
 7249SOL     OW33205   2.775   0.144  13.781  0.7661 -0.5813  0.4802
 7249SOL    HW133206   2.812   0.219  13.734 -0.6200  0.1816  0.6005
 7249SOL    HW233207   2.836   0.075  13.757  0.6984 -0.6346  0.4608
 7250SOL     OW33208   1.576   2.957   4.434  0.1455 -0.5565 -1.6288
 7250SOL    HW133209   1.509   2.916   4.488  0.7107 -0.1312 -0.6025
 7250SOL    HW233210   1.646   2.953   4.499 -2.0571  1.8266  0.8480
 7251SOL     OW33211   3.519   4.318   7.176 -0.0207  0.5242 -0.2960
 7251SOL    HW133212   3.448   4.256   7.196  1.0836 -0.1290  1.6083
 7251SOL    HW233213   3.478   4.404   7.184  3.4594  2.2695 -1.7168
 7252SOL     OW33214   2.259   1.645   5.513  0.1218  0.1152  0.6104
 7252SOL    HW133215   2.311   1.649   5.433  1.3391  0.4467  1.4161
 7252SOL    HW233216   2.315   1.594   5.572 -0.9966 -1.6483  0.1489
 7253SOL     OW33217   2.952   0.432   9.196 -0.8191  0.0227 -0.3592
 7253SOL    HW133218   3.026   0.466   9.246 -1.4200 -1.7469  1.7549
 7253SOL    HW233219   2.951   0.342   9.227 -2.1035  0.0046 -0.4246
 7254SOL     OW33220   1.671   3.177   7.160 -0.0656 -0.1852  0.0629
 7254SOL    HW133221   1.597   3.231   7.186  0.8348  1.4042 -0.6940
 7254SOL    HW233222   1.647   3.143   7.073 -2.9520 -1.4800  1.3833
 7255SOL     OW33223   1.752   0.510   2.625  0.0570  0.2288 -0.2238
 7255SOL    HW133224   1.667   0.470   2.606  1.0129 -1.8552 -0.1517
 7255SOL    HW233225   1.819   0.445   2.603 -1.0502 -0.8726 -0.4249
 7256SOL     OW33226   1.907   1.142   0.646 -0.1875  0.5562 -0.3925
 7256SOL    HW133227   1.835   1.116   0.704 -1.5949  0.6420 -2.1207
 7256SOL    HW233228   1.977   1.079   0.663  0.0480  0.9935  0.2944
 7257SOL     OW33229   2.010   4.304  16.286 -0.4998  0.0471  0.0507
 7257SOL    HW133230   2.075   4.250  16.240 -0.6042 -0.9933  1.1260
 7257SOL    HW233231   2.073   4.356  16.337 -1.6784 -0.2547  1.8282
 7258SOL     OW33232   3.318   3.380   4.572  0.0326  0.2391  0.2463
 7258SOL    HW133233   3.291   3.464   4.608 -0.1394  0.9425 -1.5854
 7258SOL    HW233234   3.276   3.376   4.486 -0.0027 -0.5519  0.2991
 7259SOL     OW33235   3.668   4.007  14.682 -0.2979 -0.6072 -0.2528
 7259SOL    HW133236   3.720   3.945  14.732  0.2373 -0.1032 -0.1889
 7259SOL    HW233237   3.701   4.093  14.708 -3.6279  1.2624 -2.1935
 7260SOL     OW33238   0.652   1.858  11.019 -0.2470  0.2643 -0.2355
 7260SOL    HW133239   0.684   1.912  11.092 -0.9793 -0.6072  0.7205
 7260SOL    HW233240   0.591   1.796  11.059  0.6956 -0.9289 -0.6691
 7261SOL     OW33241   3.292   0.481   6.117  0.3162 -0.3378 -0.3669
 7261SOL    HW133242   3.277   0.453   6.207  2.0000  0.1707  0.0650
 7261SOL    HW233243   3.318   0.571   6.135 -1.3696  0.1848 -0.5647
 7262SOL     OW33244   3.080   0.473   9.760 -0.2020  0.7337  0.1755
 7262SOL    HW133245   3.043   0.561   9.759  1.3802  1.3826 -0.5275
 7262SOL    HW233246   3.149   0.476   9.695  1.3821  1.6030  1.9006
 7263SOL     OW33247   2.226   4.133   6.084  0.7298  0.0756 -0.4946
 7263SOL    HW133248   2.141   4.147   6.043 -0.1429 -0.5581  1.0684
 7263SOL    HW233249   2.270   4.069   6.030  2.3079 -0.8003  1.8330
 7264SOL     OW33250   3.068   1.746   1.906  0.0195 -0.7126  0.1708
 7264SOL    HW133251   3.143   1.784   1.859 -0.6664 -0.3444 -0.6277
 7264SOL    HW233252   3.077   1.654   1.881  1.1227 -0.6234  0.2449
 7265SOL     OW33253   2.668   0.667   8.273 -0.4393  0.3652 -0.1477
 7265SOL    HW133254   2.581   0.686   8.308 -0.3665 -2.6867  1.7634
 7265SOL    HW233255   2.651   0.581   8.234  0.4306  0.4731 -0.7652
 7266SOL     OW33256   1.719   4.602   9.240  0.4506 -0.7849 -0.0928
 7266SOL    HW133257   1.800   4.654   9.237  0.7732 -1.1816  2.1286
 7266SOL    HW233258   1.752   4.513   9.254 -1.6762 -1.6128 -0.3767
 7267SOL     OW33259   3.352   3.573  13.894  0.0334 -1.0150  0.6729
 7267SOL    HW133260   3.391   3.548  13.810 -0.3971  1.8431 -0.4123
 7267SOL    HW233261   3.288   3.641  13.872  1.7901  0.2264 -0.6505
 7268SOL     OW33262   2.626   0.952   6.733  0.3485  0.4798  0.0225
 7268SOL    HW133263   2.621   0.927   6.826 -0.8932 -2.2034 -0.7529
 7268SOL    HW233264   2.709   0.910   6.711  1.1331  2.1585 -0.1973
 7269SOL     OW33265   1.846   4.229   5.888  0.4974  0.2352 -0.4735
 7269SOL    HW133266   1.808   4.218   5.801  1.6547 -0.6112 -0.8659
 7269SOL    HW233267   1.920   4.288   5.876  1.4489 -0.9849 -0.6160
 7270SOL     OW33268   1.527   1.462   3.733  0.3592  0.0169  0.1867
 7270SOL    HW133269   1.593   1.394   3.721 -0.6485 -0.8970 -0.2285
 7270SOL    HW233270   1.486   1.453   3.820  0.8608 -1.6484  0.2634
 7271SOL     OW33271   0.964   0.522  13.342 -0.0308 -0.2309  0.0260
 7271SOL    HW133272   1.055   0.542  13.321  0.1876  0.3726  1.5630
 7271SOL    HW233273   0.971   0.433  13.378 -0.4233 -0.2054  0.1702
 7272SOL     OW33274   0.642   1.849   9.111 -0.2693  0.0714 -0.0816
 7272SOL    HW133275   0.678   1.916   9.052 -0.1144 -1.3680 -1.6026
 7272SOL    HW233276   0.590   1.791   9.056 -1.7783  0.6535  0.7454
 7273SOL     OW33277   4.570   1.743   2.475 -0.0166 -0.7172 -0.0671
 7273SOL    HW133278   4.605   1.667   2.429  1.4846 -1.2403  1.9549
 7273SOL    HW233279   4.625   1.731   2.552  0.2548 -0.1449 -0.1737
 7274SOL     OW33280   0.206   2.976   8.573  0.4216  0.1918  0.0952
 7274SOL    HW133281   0.277   2.937   8.522 -1.1957 -0.2364 -1.8381
 7274SOL    HW233282   0.194   2.916   8.647 -2.5064 -0.0872 -0.6099
 7275SOL     OW33283   0.094   0.686   5.399  0.5744  0.5883 -0.0504
 7275SOL    HW133284   0.065   0.608   5.351 -0.7321  0.5485  0.7935
 7275SOL    HW233285   0.008   0.724   5.415  0.3946  0.1694 -0.0334
 7276SOL     OW33286   1.005   3.670   6.708 -0.7770  0.1433  0.2923
 7276SOL    HW133287   1.079   3.617   6.737  0.5777 -0.2853 -4.0659
 7276SOL    HW233288   0.935   3.653   6.771  0.9857  0.0828  2.2375
 7277SOL     OW33289   2.817   1.958   0.538  0.5503 -0.2655  0.8327
 7277SOL    HW133290   2.891   1.915   0.582  1.6303  1.0622  0.3364
 7277SOL    HW233291   2.863   1.977   0.456 -0.1172 -1.1646  0.2599
 7278SOL     OW33292   2.793   1.934   7.638 -0.4012  0.4880 -0.0578
 7278SOL    HW133293   2.802   1.888   7.554  0.6867 -0.6057  0.6545
 7278SOL    HW233294   2.829   1.871   7.700 -0.1096  1.2432  0.5448
 7279SOL     OW33295   2.329   1.318   1.182  0.7230  0.5393  0.2947
 7279SOL    HW133296   2.260   1.290   1.121  1.1467 -3.2082  1.5428
 7279SOL    HW233297   2.405   1.319   1.125  0.6996 -3.3016  0.1758
 7280SOL     OW33298   1.840   2.591   1.131  0.4919  0.5560 -0.6384
 7280SOL    HW133299   1.821   2.499   1.109 -3.3008  0.7492  1.8605
 7280SOL    HW233300   1.870   2.584   1.221  1.4054 -0.8494 -1.0460
 7281SOL     OW33301   0.686   1.356   5.243  0.1578 -0.1331 -0.3957
 7281SOL    HW133302   0.688   1.452   5.239  2.3964 -0.1642  0.4147
 7281SOL    HW233303   0.607   1.339   5.191 -0.3239 -0.2017  0.3672
 7282SOL     OW33304   2.702   3.031   1.177 -0.0839 -0.0308 -0.0268
 7282SOL    HW133305   2.634   3.063   1.117  0.8116  1.0809 -0.4329
 7282SOL    HW233306   2.717   2.943   1.140  0.8003  0.2057 -0.2363
 7283SOL     OW33307   0.443   3.912   5.712 -0.5349  0.3860 -0.1405
 7283SOL    HW133308   0.404   3.868   5.788  0.3560 -0.0776  0.0533
 7283SOL    HW233309   0.412   4.001   5.730 -0.7123  0.6181 -1.6418
 7284SOL     OW33310   1.666   4.238   5.647  0.4597  0.7182  0.0392
 7284SOL    HW133311   1.582   4.238   5.600  1.0532 -0.5550 -1.0105
 7284SOL    HW233312   1.720   4.194   5.582 -1.1709 -1.3451  0.0648
 7285SOL     OW33313   1.547   2.814   0.413  0.2424 -0.5190 -0.0174
 7285SOL    HW133314   1.590   2.872   0.350 -0.2975  0.7577  0.8112
 7285SOL    HW233315   1.572   2.725   0.388 -0.4169 -0.5265 -0.6654
 7286SOL     OW33316   4.533   1.689   0.926  0.6959  0.5168 -0.5081
 7286SOL    HW133317   4.469   1.760   0.915 -2.5063 -2.1372  0.9656
 7286SOL    HW233318   4.483   1.623   0.878 -0.3426 -0.2207  1.5918
 7287SOL     OW33319   1.398   0.213   4.731 -0.6490  0.6447 -0.1845
 7287SOL    HW133320   1.462   0.189   4.665  0.2886 -1.9034  1.6547
 7287SOL    HW233321   1.378   0.302   4.701 -1.2171 -0.0546 -1.8607
 7288SOL     OW33322   1.995   0.948   4.930 -0.0470  0.1824  0.6778
 7288SOL    HW133323   2.082   0.933   4.968  0.1928 -2.1196 -0.7419
 7288SOL    HW233324   2.023   0.977   4.843  0.8008 -0.8004  0.6216
 7289SOL     OW33325   1.113   1.387  15.194  0.0555  0.2147  0.5382
 7289SOL    HW133326   1.032   1.347  15.163  1.1240 -1.4063 -0.1869
 7289SOL    HW233327   1.163   1.306  15.203 -0.8011 -0.2191  1.3421
 7290SOL     OW33328   1.877   1.272   7.786 -0.4852 -0.5065  0.1198
 7290SOL    HW133329   1.912   1.337   7.725 -0.0127 -0.0433  0.8957
 7290SOL    HW233330   1.925   1.301   7.863  0.9302 -0.1505 -0.8993
 7291SOL     OW33331   2.523   4.083   3.083  0.5411  0.4245 -0.6974
 7291SOL    HW133332   2.597   4.127   3.124 -1.7755 -0.0781  3.9585
 7291SOL    HW233333   2.540   4.098   2.990 -0.6069  1.1306 -0.7959
 7292SOL     OW33334   1.456   0.781  12.991 -0.6758 -0.2557  0.0229
 7292SOL    HW133335   1.462   0.767  12.896  3.1683 -1.6683  0.4773
 7292SOL    HW233336   1.384   0.719  13.003 -0.6543 -0.2717  0.0686
 7293SOL     OW33337   3.984   3.688   1.319  0.4695 -0.4628  0.2562
 7293SOL    HW133338   4.017   3.766   1.274 -1.3198  1.4075  2.2318
 7293SOL    HW233339   3.896   3.720   1.337  0.3762 -1.1851  1.0930
 7294SOL     OW33340   3.053   1.239  10.939  0.0046 -0.3723 -0.1943
 7294SOL    HW133341   3.075   1.258  10.848  2.5890 -0.2253  0.4519
 7294SOL    HW233342   3.096   1.307  10.990  0.1592 -0.3502 -0.3536
 7295SOL     OW33343   4.452   1.631   7.852 -0.3695  0.8196 -0.5613
 7295SOL    HW133344   4.458   1.648   7.758  1.5275 -0.6927 -0.7376
 7295SOL    HW233345   4.532   1.581   7.869 -0.5743  0.5800 -0.3080
 7296SOL     OW33346   0.412   0.274  11.099  0.0031 -0.1120  0.2131
 7296SOL    HW133347   0.456   0.289  11.183  1.4109  1.1490 -0.7534
 7296SOL    HW233348   0.421   0.357  11.052 -0.8319 -1.3473 -2.1237
 7297SOL     OW33349   4.389   2.361   4.835  0.1567 -0.1285 -0.0707
 7297SOL    HW133350   4.411   2.284   4.887  1.1285  1.3666  1.7207
 7297SOL    HW233351   4.327   2.318   4.775  2.4033 -0.3022 -2.2863
 7298SOL     OW33352   4.643   0.871   5.016  0.0544 -0.8474 -1.1892
 7298SOL    HW133353   4.596   0.952   5.000  1.0936 -0.0529 -0.2155
 7298SOL    HW233354   4.571   0.809   5.034 -1.5483  1.7095  1.1237
 7299SOL     OW33355   1.833   2.194   6.843  0.1605  0.1797 -0.2822
 7299SOL    HW133356   1.826   2.107   6.805 -1.1283  0.6214 -1.0908
 7299SOL    HW233357   1.833   2.256   6.770 -1.3181  1.3984  0.7358
 7300SOL     OW33358   2.480   2.389   3.014 -0.1686 -0.1761 -0.0025
 7300SOL    HW133359   2.386   2.406   3.018  0.3836  3.0967 -0.8515
 7300SOL    HW233360   2.505   2.420   2.927 -1.0426  1.6904  0.3966
 7301SOL     OW33361   4.637   0.175   3.138 -0.7903 -0.1921  0.4001
 7301SOL    HW133362   4.669   0.174   3.048  1.6214  1.0327  1.2600
 7301SOL    HW233363   4.568   0.109   3.126 -0.3204 -0.9180  1.6455
 7302SOL     OW33364   3.511   3.201   7.334 -1.1039  0.3593  0.7092
 7302SOL    HW133365   3.596   3.231   7.301 -0.1393 -1.1804  1.7462
 7302SOL    HW233366   3.475   3.289   7.346  0.1435  0.2088  5.6134
 7303SOL     OW33367   3.192   1.936  15.666 -0.0205  0.3677  0.0812
 7303SOL    HW133368   3.167   1.957  15.756 -0.2109  1.3276 -0.1982
 7303SOL    HW233369   3.155   1.847  15.664  1.9561 -0.5015  2.1940
 7304SOL     OW33370   3.349   1.515   2.673 -0.3533  0.2271 -0.4396
 7304SOL    HW133371   3.277   1.560   2.718  0.7793  0.2028  1.3973
 7304SOL    HW233372   3.298   1.483   2.598  0.1891 -0.2962 -0.5858
 7305SOL     OW33373   4.029   1.804   8.659  0.2400  0.1051 -0.9784
 7305SOL    HW133374   3.990   1.768   8.739 -1.1100  0.6495 -1.3924
 7305SOL    HW233375   4.110   1.755   8.646  0.0943 -0.5819  0.6901
 7306SOL     OW33376   3.484   2.762  11.362 -0.0142 -0.0975  0.0558
 7306SOL    HW133377   3.404   2.778  11.412 -0.5156 -0.7401 -0.5435
 7306SOL    HW233378   3.535   2.720  11.431 -1.2634  0.6555  1.4351
 7307SOL     OW33379   1.330   1.427   1.676  0.3204 -0.4855 -0.0218
 7307SOL    HW133380   1.268   1.489   1.637  1.3086  0.4675 -0.0556
 7307SOL    HW233381   1.404   1.434   1.616 -0.9876 -0.7235 -1.6526
 7308SOL     OW33382   3.537   1.109  11.218 -0.6302  0.6748 -0.1546
 7308SOL    HW133383   3.611   1.162  11.188  0.0517 -0.4376 -0.4450
 7308SOL    HW233384   3.459   1.162  11.204 -1.6328 -1.1468 -1.3131
 7309SOL     OW33385   3.065   2.853  12.561  0.0220  0.3218  0.4628
 7309SOL    HW133386   3.104   2.913  12.497  1.3301  1.3113  2.2046
 7309SOL    HW233387   3.075   2.774  12.508 -0.7066  0.3831  0.2379
 7310SOL     OW33388   3.991   2.652   9.469  0.7443 -0.9930  0.5935
 7310SOL    HW133389   3.943   2.665   9.387 -0.0318 -0.4241  1.1321
 7310SOL    HW233390   3.999   2.745   9.493  0.6425 -1.6981  3.3554
 7311SOL     OW33391   3.098   0.286   3.204 -0.1374  0.0914  0.5636
 7311SOL    HW133392   3.154   0.209   3.209  2.7156  2.1155 -0.3747
 7311SOL    HW233393   3.116   0.327   3.289  2.5418 -1.6188  0.7993
 7312SOL     OW33394   4.556   1.554   0.405 -0.1316  0.2014  0.1982
 7312SOL    HW133395   4.565   1.460   0.394 -2.0286 -0.0241  0.5011
 7312SOL    HW233396   4.494   1.579   0.337 -0.5330  0.5523  0.6885
 7313SOL     OW33397   1.019   1.195   6.008 -0.1915 -0.5472 -0.1775
 7313SOL    HW133398   1.041   1.102   6.002 -1.7956 -0.7691 -2.6804
 7313SOL    HW233399   0.925   1.176   6.014 -0.0428 -1.1924  0.0898
 7314SOL     OW33400   2.862   2.125   2.620 -0.6980 -0.2128 -0.3208
 7314SOL    HW133401   2.872   2.185   2.694 -1.0761  0.0946 -0.5203
 7314SOL    HW233402   2.925   2.148   2.551 -0.2018 -2.4770 -0.6242
 7315SOL     OW33403   0.661   4.031   4.810  0.1475 -0.2890 -0.4546
 7315SOL    HW133404   0.719   4.004   4.739 -2.7949 -1.4693 -2.4107
 7315SOL    HW233405   0.717   4.053   4.884  0.7227 -2.0111 -0.3930
 7316SOL     OW33406   1.430   0.013   5.187 -0.0901 -0.3791  0.0666
 7316SOL    HW133407   1.481   4.700   5.260  0.3244  0.7978  0.3766
 7316SOL    HW233408   1.391   0.088   5.232  0.3153 -1.0967  1.5934
 7317SOL     OW33409   0.476   2.620  11.074  0.1380 -0.6274 -0.0729
 7317SOL    HW133410   0.497   2.677  11.148  2.9305 -3.4789  1.3374
 7317SOL    HW233411   0.560   2.607  11.031  0.9324  1.4834  0.8344
 7318SOL     OW33412   0.405   4.166   5.505 -0.0413  0.3913  0.0463
 7318SOL    HW133413   0.350   4.172   5.428 -0.0803 -1.9660 -0.1137
 7318SOL    HW233414   0.337   4.164   5.573 -1.0297 -0.3669 -0.9781
 7319SOL     OW33415   0.403   0.402   2.149  0.5199 -0.9370 -0.2128
 7319SOL    HW133416   0.436   0.479   2.195 -2.1463  0.8737 -1.3463
 7319SOL    HW233417   0.385   0.439   2.063  0.9466 -0.1240  0.0401
 7320SOL     OW33418   2.547   2.735   6.847  0.3299 -0.2802  0.1161
 7320SOL    HW133419   2.561   2.812   6.903 -1.3374 -0.6447  1.0353
 7320SOL    HW233420   2.532   2.670   6.916  2.2933 -0.7286  0.1204
 7321SOL     OW33421   0.663   3.102   7.829  0.5408 -0.5645 -0.9786
 7321SOL    HW133422   0.695   3.164   7.764 -0.8898 -0.4693 -1.6147
 7321SOL    HW233423   0.589   3.153   7.864 -0.3324 -0.3852 -3.0735
 7322SOL     OW33424   2.198   3.824  11.269 -0.0321  0.3083 -0.2178
 7322SOL    HW133425   2.198   3.884  11.344  0.8308 -0.9814  0.8373
 7322SOL    HW233426   2.191   3.877  11.190 -1.5838  3.0715  1.7931
 7323SOL     OW33427   0.535   0.586   2.325  0.0201 -0.3336  0.0235
 7323SOL    HW133428   0.605   0.604   2.262 -0.2694  0.4585 -0.0684
 7323SOL    HW233429   0.576   0.631   2.398 -2.2944 -0.8242  1.6242
 7324SOL     OW33430   3.949   3.823   5.783  0.3805 -0.6195  0.1963
 7324SOL    HW133431   3.944   3.793   5.874  1.0477  2.7699  1.3473
 7324SOL    HW233432   3.857   3.849   5.775  0.9565  1.2312 -0.5321
 7325SOL     OW33433   0.870   0.977   6.932  0.6607  0.3537  0.2467
 7325SOL    HW133434   0.930   0.905   6.914  0.2553  0.0695  0.0173
 7325SOL    HW233435   0.784   0.944   6.905  0.8668  0.3055 -0.3589
 7326SOL     OW33436   2.958   4.513   2.808 -0.6223  0.3220  0.1636
 7326SOL    HW133437   2.990   4.582   2.867  0.1577  1.3006 -1.3921
 7326SOL    HW233438   2.949   4.568   2.730  1.1786  1.6685  0.8855
 7327SOL     OW33439   0.447   3.362   0.532 -0.7340  0.1367 -0.6376
 7327SOL    HW133440   0.435   3.386   0.624 -1.2526  0.9790 -0.9181
 7327SOL    HW233441   0.377   3.419   0.498 -1.5264  1.2861  2.9199
 7328SOL     OW33442   2.966   2.357  16.660  0.2643 -0.1096  0.1721
 7328SOL    HW133443   2.885   2.398  16.691  1.0466  2.0652 -0.6102
 7328SOL    HW233444   3.023   2.434  16.651 -0.9115  0.6835 -0.3827
 7329SOL     OW33445   0.336   2.078   8.702 -0.2998  0.3698 -0.2077
 7329SOL    HW133446   0.329   2.037   8.788 -0.0267  0.8622  0.0427
 7329SOL    HW233447   0.308   2.001   8.650  0.8985 -0.7215  0.7646
 7330SOL     OW33448   2.741   3.093   5.424 -0.1708 -0.2075 -0.2227
 7330SOL    HW133449   2.666   3.048   5.385  0.0920 -2.1064  1.3968
 7330SOL    HW233450   2.696   3.148   5.488 -1.4503  1.6115 -2.6776
 7331SOL     OW33451   0.508   2.701   7.206 -0.2377 -0.1763 -0.0349
 7331SOL    HW133452   0.445   2.629   7.210  0.1263 -0.3996  1.8169
 7331SOL    HW233453   0.586   2.657   7.172  0.4347 -1.7130  3.4496
 7332SOL     OW33454   3.031   4.614   3.897 -0.0200  0.0612 -0.1242
 7332SOL    HW133455   2.936   4.628   3.894 -0.1281 -0.8238 -0.7058
 7332SOL    HW233456   3.046   4.705   3.870 -1.4501  0.8561  1.7191
 7333SOL     OW33457   1.630   0.142  17.037  0.7683  0.0238  0.7565
 7333SOL    HW133458   1.644   0.068  17.094 -0.1902 -0.0821  0.8510
 7333SOL    HW233459   1.549   0.184  17.068 -0.3839  0.3385 -2.6550
 7334SOL     OW33460   0.965   2.645   5.658  0.2068 -0.6743  0.8050
 7334SOL    HW133461   0.875   2.613   5.665 -0.2962  1.0048  2.3092
 7334SOL    HW233462   0.988   2.602   5.576 -2.6805  1.6576 -1.2060
 7335SOL     OW33463   1.453   1.919   6.551  0.0662  0.3462  0.0948
 7335SOL    HW133464   1.511   1.993   6.569 -0.6663  0.8792  0.2274
 7335SOL    HW233465   1.379   1.952   6.601 -0.5506  2.2978 -2.1163
 7336SOL     OW33466   2.958   1.519   8.029  0.2716 -0.2702  0.0683
 7336SOL    HW133467   2.901   1.446   8.053  1.5610 -1.2145  0.2663
 7336SOL    HW233468   3.026   1.522   8.096 -0.0379 -1.3639  0.4347
 7337SOL     OW33469   3.701   3.914   5.773  0.0490 -0.3741  0.4764
 7337SOL    HW133470   3.739   4.002   5.770 -1.6718  0.4279  2.4271
 7337SOL    HW233471   3.675   3.897   5.863  4.8404  1.4671  2.1967
 7338SOL     OW33472   2.280   2.339  16.070 -0.1773  0.3784  0.1544
 7338SOL    HW133473   2.274   2.406  16.002 -0.3796 -0.3564 -0.5535
 7338SOL    HW233474   2.191   2.306  16.069 -0.7246  1.7853  2.4401
 7339SOL     OW33475   3.868   0.044   3.957  0.0874  0.0487  0.5329
 7339SOL    HW133476   3.874   0.035   3.862 -2.5898 -1.7860  0.5234
 7339SOL    HW233477   3.958   0.066   3.981  0.6603 -3.5877  1.7023
 7340SOL     OW33478   3.713   0.097   9.632 -0.5278  0.5719 -0.3086
 7340SOL    HW133479   3.712   0.043   9.553  2.8372  0.7725 -0.4684
 7340SOL    HW233480   3.723   0.183   9.590  0.4331  0.9093  0.6124
 7341SOL     OW33481   0.599   3.829   7.914  0.2032  0.2249 -0.4711
 7341SOL    HW133482   0.545   3.899   7.878 -1.3960 -1.6976 -1.7965
 7341SOL    HW233483   0.649   3.808   7.835 -3.5273 -0.0394 -2.7360
 7342SOL     OW33484   3.582   1.834   7.244 -0.5033 -0.0839 -0.6495
 7342SOL    HW133485   3.668   1.808   7.277 -0.6480  0.4552  0.1500
 7342SOL    HW233486   3.573   1.783   7.163  0.3686 -0.9304 -0.2132
 7343SOL     OW33487   2.642   4.502  16.528  0.4194 -0.2427  0.4693
 7343SOL    HW133488   2.554   4.472  16.547 -0.0509  1.2517  0.6655
 7343SOL    HW233489   2.635   4.505  16.432  1.3425 -1.9564  0.3453
 7344SOL     OW33490   1.407   1.752  11.993 -0.1028  1.0822  0.1148
 7344SOL    HW133491   1.434   1.835  11.954  0.1526 -0.6065 -3.3353
 7344SOL    HW233492   1.316   1.745  11.965  0.2477  0.0272 -0.7719
 7345SOL     OW33493   1.606   1.578   5.889 -0.6537  0.0360  0.1647
 7345SOL    HW133494   1.679   1.526   5.854 -2.2472 -2.5150  0.5700
 7345SOL    HW233495   1.531   1.522   5.869  1.3219 -2.6986  0.3519
 7346SOL     OW33496   2.971   3.602   5.415 -0.1244 -0.1957 -0.2841
 7346SOL    HW133497   3.014   3.547   5.480 -1.3596  0.3688  1.0099
 7346SOL    HW233498   3.014   3.687   5.410 -0.7486  0.1518  0.3470
 7347SOL     OW33499   2.998   4.717  10.317  0.0432 -0.6443 -0.1287
 7347SOL    HW133500   3.072   4.676  10.272  1.1026 -2.1005  2.9621
 7347SOL    HW233501   2.923   4.667  10.288  0.4771 -0.7033 -1.1690
 7348SOL     OW33502   1.310   3.728   7.841 -0.0944  0.3457 -0.2690
 7348SOL    HW133503   1.222   3.754   7.866 -0.4108 -2.1353  1.2504
 7348SOL    HW233504   1.315   3.738   7.746 -0.9840  0.6164 -0.2836
 7349SOL     OW33505   4.374   0.419   1.789 -0.0646 -0.4758 -0.4774
 7349SOL    HW133506   4.395   0.477   1.717  0.2420 -0.8324 -0.6731
 7349SOL    HW233507   4.395   0.472   1.866 -0.2075  1.0851 -1.5364
 7350SOL     OW33508   2.798   4.338   1.163  0.1877  0.3156 -0.2083
 7350SOL    HW133509   2.827   4.363   1.251  0.6189  1.6493 -0.7358
 7350SOL    HW233510   2.747   4.259   1.184 -1.3388  0.8579 -1.8299
 7351SOL     OW33511   2.294   0.967   7.923 -0.1242 -0.0215  0.0343
 7351SOL    HW133512   2.297   1.024   7.847  1.8198  0.3847  0.4275
 7351SOL    HW233513   2.248   1.022   7.987  1.8296  0.5221  0.9527
 7352SOL     OW33514   3.822   1.670   5.655  0.6383  0.1868 -0.0449
 7352SOL    HW133515   3.803   1.643   5.565  0.8837 -1.0855  0.2893
 7352SOL    HW233516   3.889   1.735   5.637  2.0026 -1.6278 -1.4423
 7353SOL     OW33517   0.925   2.099   6.365 -0.3079 -0.3686 -0.5511
 7353SOL    HW133518   0.836   2.099   6.402 -0.2098 -1.5769 -0.2881
 7353SOL    HW233519   0.972   2.125   6.444 -1.6294  2.5180 -0.7327
 7354SOL     OW33520   0.814   1.813   8.053 -0.1570  0.1451  0.0158
 7354SOL    HW133521   0.886   1.762   8.017 -0.8364 -0.9334  0.1603
 7354SOL    HW233522   0.840   1.905   8.046 -0.1207  0.1788  0.5534
 7355SOL     OW33523   3.345   2.831   4.236  0.4439 -0.3632 -0.1331
 7355SOL    HW133524   3.431   2.801   4.207  1.1281  2.6523 -1.2323
 7355SOL    HW233525   3.274   2.775   4.206 -0.4514 -0.5369  2.2445
 7356SOL     OW33526   2.670   1.161   6.268  0.1990  0.3773  0.2592
 7356SOL    HW133527   2.731   1.225   6.231 -1.3371 -0.3690 -3.5733
 7356SOL    HW233528   2.712   1.075   6.266 -0.1201  0.2475 -0.7733
 7357SOL     OW33529   2.730   1.645  16.997 -0.3030  0.0151  0.1016
 7357SOL    HW133530   2.644   1.659  17.036 -0.2955  0.4229 -0.0195
 7357SOL    HW233531   2.737   1.726  16.946  0.4154 -0.1445 -0.0603
 7358SOL     OW33532   1.693   0.746  13.674 -0.7457 -0.3860  0.2552
 7358SOL    HW133533   1.647   0.758  13.757  0.3211 -0.8223  0.9087
 7358SOL    HW233534   1.667   0.827  13.629  0.3176  0.3295  0.9364
 7359SOL     OW33535   3.762   0.528   4.724  0.5144 -0.3512 -0.1845
 7359SOL    HW133536   3.694   0.556   4.664  1.4970  1.5276 -0.4428
 7359SOL    HW233537   3.731   0.445   4.758 -0.0617 -0.6463 -1.4639
 7360SOL     OW33538   3.617   4.141   1.915 -0.3580 -0.2582  0.1429
 7360SOL    HW133539   3.710   4.119   1.911 -0.6041 -1.1935 -0.7681
 7360SOL    HW233540   3.612   4.151   1.820 -1.4424 -1.2362  0.0971
 7361SOL     OW33541   2.666   2.441   5.740  0.1785  0.2068 -0.4651
 7361SOL    HW133542   2.571   2.447   5.732  0.0822 -0.9534 -0.2065
 7361SOL    HW233543   2.688   2.348   5.726  0.9130  0.2663  0.2860
 7362SOL     OW33544   0.969   4.020  10.029  0.2264  0.7349  0.4104
 7362SOL    HW133545   0.937   3.978  10.109 -1.1466 -1.2337 -1.1889
 7362SOL    HW233546   0.887   4.043   9.986  1.0307  0.7082 -1.1314
 7363SOL     OW33547   2.524   4.481  10.043 -0.1119  0.5233 -0.7570
 7363SOL    HW133548   2.509   4.485   9.948 -0.0674 -2.6614 -0.9045
 7363SOL    HW233549   2.592   4.414  10.035  0.5919  1.0662  0.7054
 7364SOL     OW33550   3.548   1.808   6.466 -0.1996  0.5213 -0.0468
 7364SOL    HW133551   3.641   1.829   6.457 -0.2948 -0.2869 -2.9610
 7364SOL    HW233552   3.524   1.779   6.378  0.0756 -1.6848  0.6044
 7365SOL     OW33553   0.344   1.049   2.745  0.2190  0.1813  0.2753
 7365SOL    HW133554   0.318   1.120   2.804  1.5726  0.6483  0.3017
 7365SOL    HW233555   0.272   1.066   2.683 -0.1553  2.6809  1.4275
 7366SOL     OW33556   1.917   4.332   5.024 -0.4303  0.3673  0.0557
 7366SOL    HW133557   1.872   4.407   5.064 -0.9387 -0.1876  0.5224
 7366SOL    HW233558   1.882   4.340   4.935 -1.2332  2.3809  0.5408
 7367SOL     OW33559   3.502   0.666   8.362  0.1340  0.8313  0.5501
 7367SOL    HW133560   3.500   0.685   8.268 -0.9005  2.4557  0.9058
 7367SOL    HW233561   3.536   0.577   8.358 -2.8621 -0.3941  2.1717
 7368SOL     OW33562   0.264   0.157   3.846  0.2602 -0.0777  0.3236
 7368SOL    HW133563   0.329   0.224   3.825 -1.0642  1.1553  0.0997
 7368SOL    HW233564   0.283   0.098   3.774  0.0548 -0.2497  0.4079
 7369SOL     OW33565   4.405   3.866  12.523  0.0563  0.2181  0.1298
 7369SOL    HW133566   4.483   3.910  12.488  0.4380 -0.6049 -0.0512
 7369SOL    HW233567   4.357   3.945  12.548 -1.5358 -0.4244 -0.9609
 7370SOL     OW33568   4.274   2.707  12.478  0.3351 -0.0062 -0.2148
 7370SOL    HW133569   4.234   2.682  12.561 -0.6796 -1.7884 -1.2334
 7370SOL    HW233570   4.367   2.708  12.504  0.0014 -1.8828  1.0438
 7371SOL     OW33571   2.191   1.366   5.920  0.2503 -0.6916  0.2878
 7371SOL    HW133572   2.147   1.283   5.905  1.3095 -1.3755  0.9305
 7371SOL    HW233573   2.278   1.336   5.946  0.9795  1.0697 -0.1132
 7372SOL     OW33574   0.726   2.423  15.656  0.7077 -0.6238  0.1324
 7372SOL    HW133575   0.766   2.406  15.741 -1.0187 -0.6790  0.9393
 7372SOL    HW233576   0.655   2.359  15.648 -0.7661  1.5075 -3.8770
 7373SOL     OW33577   4.369   0.562   1.559  0.4912 -0.2166 -0.2451
 7373SOL    HW133578   4.436   0.533   1.497  1.1017 -2.1300  1.2900
 7373SOL    HW233579   4.333   0.642   1.522  0.8958  0.9619  1.8985
 7374SOL     OW33580   3.643   1.621   2.861 -0.0678 -0.1998  0.0602
 7374SOL    HW133581   3.625   1.629   2.954 -2.1981 -0.9211 -0.2802
 7374SOL    HW233582   3.604   1.704   2.835 -2.2647 -1.1821  0.2365
 7375SOL     OW33583   2.386   2.201   8.123 -0.7952  0.0629  0.0714
 7375SOL    HW133584   2.306   2.203   8.071 -0.0346 -1.0362 -1.1324
 7375SOL    HW233585   2.367   2.276   8.180 -3.5985 -1.6946  1.4645
 7376SOL     OW33586   3.003   3.071   0.045  0.2018  0.0100  0.5071
 7376SOL    HW133587   3.047   2.985   0.043  0.0795  0.0069 -2.5627
 7376SOL    HW233588   2.925   3.039   0.089 -0.6921  1.0100 -0.3782
 7377SOL     OW33589   1.167   0.972   8.950 -0.5102  0.2851  0.0432
 7377SOL    HW133590   1.080   0.985   8.989 -0.1505  1.2157  0.5170
 7377SOL    HW233591   1.220   1.045   8.982  0.1448 -0.7617  1.3167
 7378SOL     OW33592   0.306   1.607   4.450  0.2135 -0.0751  0.7764
 7378SOL    HW133593   0.348   1.596   4.535  0.9890  3.7201  0.9040
 7378SOL    HW233594   0.376   1.653   4.403 -0.5835 -0.9841 -1.3236
 7379SOL     OW33595   4.034   1.002   8.429 -0.0147 -0.4428 -0.3968
 7379SOL    HW133596   3.969   0.934   8.448 -0.1096 -0.5686 -1.1934
 7379SOL    HW233597   3.981   1.049   8.365 -1.2231  1.4212  1.9779
 7380SOL     OW33598   4.021   0.667  17.445  0.4719 -0.1089 -0.1272
 7380SOL    HW133599   4.103   0.698  17.407  0.7480 -3.5016 -2.2860
 7380SOL    HW233600   3.958   0.720  17.397  0.8605  0.7472  0.3041
 7381SOL     OW33601   2.129   0.750   7.384 -0.0401 -0.1472 -0.1173
 7381SOL    HW133602   2.048   0.762   7.434 -0.0813 -2.8517  0.4825
 7381SOL    HW233603   2.191   0.737   7.456 -0.5931  0.0652  0.3953
 7382SOL     OW33604   0.587   2.213   6.721 -0.8511  0.2963  0.0519
 7382SOL    HW133605   0.664   2.185   6.770 -0.3833  1.3768 -0.0555
 7382SOL    HW233606   0.620   2.302   6.714  2.2606 -0.8621 -0.1372
 7383SOL     OW33607   1.873   2.381  12.980  0.0186 -0.2582  0.0487
 7383SOL    HW133608   1.906   2.291  12.989  1.6656  0.1599 -1.8513
 7383SOL    HW233609   1.885   2.405  13.072  0.3221  0.7786 -0.2665
 7384SOL     OW33610   2.497   3.863   4.095 -0.2280  0.1380  0.0809
 7384SOL    HW133611   2.473   3.947   4.056 -0.4039  0.3374  0.6074
 7384SOL    HW233612   2.470   3.810   4.020 -0.7640  1.2292 -0.5094
 7385SOL     OW33613   1.452   0.423  13.048  0.2927 -0.3676  0.1138
 7385SOL    HW133614   1.385   0.437  12.981  1.6382 -1.3294 -1.4343
 7385SOL    HW233615   1.422   0.494  13.105 -0.0334 -0.3505 -0.0845
 7386SOL     OW33616   2.124   4.002   5.346 -0.2115  0.3518  0.0769
 7386SOL    HW133617   2.202   4.049   5.316 -0.3254  0.1433 -0.5512
 7386SOL    HW233618   2.109   4.047   5.429 -1.0208  1.6430 -0.7559
 7387SOL     OW33619   2.911   0.753   5.605 -0.1200  0.2909 -0.1168
 7387SOL    HW133620   2.996   0.712   5.624  1.1018  1.7942 -2.3380
 7387SOL    HW233621   2.924   0.843   5.634  1.0901  0.1679 -0.2567
 7388SOL     OW33622   1.734   4.312  11.190  0.0540 -0.2579  0.0842
 7388SOL    HW133623   1.709   4.387  11.136  1.2852  0.0230 -0.0995
 7388SOL    HW233624   1.746   4.359  11.273  0.1261 -0.5363  0.2316
 7389SOL     OW33625   0.351   4.595   8.478 -0.2465  0.0471 -0.2427
 7389SOL    HW133626   0.319   4.634   8.559 -1.8794  1.1635 -1.4214
 7389SOL    HW233627   0.444   4.614   8.486 -0.2786  0.0126  0.1967
 7390SOL     OW33628   0.793   3.564   0.870 -0.2724 -0.6387  0.0481
 7390SOL    HW133629   0.825   3.480   0.837  2.3023  0.5529 -0.5092
 7390SOL    HW233630   0.767   3.534   0.958 -0.3974 -0.1061  0.1902
 7391SOL     OW33631   4.584   4.616  11.041 -0.4416  0.3232  0.0526
 7391SOL    HW133632   4.511   4.621  10.980  0.5986  2.6710 -0.9987
 7391SOL    HW233633   4.567   4.548  11.107 -2.6869 -0.5624 -1.4462
 7392SOL     OW33634   2.912   4.660   7.813  0.0991  0.1318  0.1153
 7392SOL    HW133635   2.939   4.572   7.784  1.2934  0.6827 -0.4344
 7392SOL    HW233636   2.974   4.689   7.880 -1.9934  1.2132  1.5947
 7393SOL     OW33637   4.160   0.242  16.134 -0.2944  0.1592 -0.5903
 7393SOL    HW133638   4.134   0.230  16.225  0.5935 -0.4886 -0.4348
 7393SOL    HW233639   4.073   0.249  16.094 -1.5819  0.3188  2.2598
 7394SOL     OW33640   4.480   3.911   5.453 -0.0986 -0.2277 -0.7327
 7394SOL    HW133641   4.529   3.970   5.510  0.8770 -1.2202 -0.5576
 7394SOL    HW233642   4.541   3.904   5.380  1.2693  2.0397  0.1991
 7395SOL     OW33643   4.464   0.915   0.088 -0.4027  0.4149  0.0702
 7395SOL    HW133644   4.527   0.848   0.065 -0.9964 -0.1956  0.2300
 7395SOL    HW233645   4.383   0.864   0.081  0.8995 -1.7429  0.7330
 7396SOL     OW33646   4.608   3.510   5.733  0.0780 -0.0129 -0.3586
 7396SOL    HW133647   4.586   3.436   5.677  0.4609  0.4429 -1.1047
 7396SOL    HW233648   4.577   3.582   5.677 -0.1831 -0.6834 -1.0630
 7397SOL     OW33649   0.787   3.698  15.305 -0.1945 -0.4239 -0.5330
 7397SOL    HW133650   0.705   3.703  15.356 -1.6328 -0.0597 -2.8909
 7397SOL    HW233651   0.787   3.610  15.267  1.3544 -0.9699  0.7543
 7398SOL     OW33652   3.986   1.097   8.786  0.0172  0.4923 -0.0475
 7398SOL    HW133653   3.957   1.163   8.723 -1.3758 -0.8376 -0.7970
 7398SOL    HW233654   3.906   1.045   8.790  1.3313 -1.5706 -0.9087
 7399SOL     OW33655   4.050   4.111   9.936 -0.2676 -0.0193 -0.1505
 7399SOL    HW133656   3.963   4.142   9.960  0.7506  2.5686  0.1500
 7399SOL    HW233657   4.064   4.153   9.851  0.1123 -0.9768 -0.5680
 7400SOL     OW33658   0.114   3.517   4.581 -0.0063  0.0505 -0.4676
 7400SOL    HW133659   0.089   3.578   4.651  1.4364 -0.3000  0.3560
 7400SOL    HW233660   0.033   3.467   4.576 -0.6729  0.9292  1.5519
 7401SOL     OW33661   0.485   0.959  16.989 -0.4058  0.2684  0.4567
 7401SOL    HW133662   0.391   0.977  16.987 -0.7262 -1.7398 -1.8790
 7401SOL    HW233663   0.490   0.925  17.078 -1.1655  0.1105  0.4369
 7402SOL     OW33664   4.015   3.072   3.065  0.0232 -0.4976 -0.0100
 7402SOL    HW133665   4.014   3.167   3.052  3.2226 -0.4770 -0.1134
 7402SOL    HW233666   4.106   3.062   3.091  0.2868  1.0583 -0.3635
 7403SOL     OW33667   2.332   1.918   0.106  0.4750  0.5021 -0.1621
 7403SOL    HW133668   2.319   1.926   0.012  2.2293 -1.5182 -0.5825
 7403SOL    HW233669   2.410   1.863   0.115 -0.4229 -0.8805 -0.9950
 7404SOL     OW33670   2.710   4.353   7.973  0.0973  0.4363 -0.2057
 7404SOL    HW133671   2.702   4.425   8.035 -0.9693  0.8739 -0.8421
 7404SOL    HW233672   2.663   4.289   8.026  0.4723  1.6493  1.6129
 7405SOL     OW33673   0.504   0.477   7.144 -0.1489  0.0815  0.5691
 7405SOL    HW133674   0.545   0.547   7.194  1.4765 -0.7870  0.4382
 7405SOL    HW233675   0.590   0.439   7.131  0.2107  1.6221 -1.5358
 7406SOL     OW33676   4.451   1.048   5.000 -0.5025  0.5636 -0.0714
 7406SOL    HW133677   4.362   1.035   4.967 -0.9027  0.2945  1.0974
 7406SOL    HW233678   4.481   1.110   4.934  0.5558  0.6126  0.4459
 7407SOL     OW33679   0.645   1.906   6.277 -0.1128 -0.4949  0.4703
 7407SOL    HW133680   0.667   1.978   6.336 -0.5316 -1.2397  1.5325
 7407SOL    HW233681   0.648   1.948   6.191 -1.2256 -0.0559  0.6343
 7408SOL     OW33682   2.890   3.119  11.197  0.2543 -0.2580 -0.2598
 7408SOL    HW133683   2.940   3.162  11.128  0.8913  0.2277  0.5170
 7408SOL    HW233684   2.815   3.070  11.163 -0.1727 -0.9311  1.6464
 7409SOL     OW33685   2.587   2.806   3.075 -0.0973 -0.0319 -0.3155
 7409SOL    HW133686   2.518   2.828   3.012 -0.7839 -1.4709 -0.0688
 7409SOL    HW233687   2.536   2.818   3.155 -0.9627 -0.3831 -0.8111
 7410SOL     OW33688   4.257   3.588   2.932  0.3189 -0.0350  0.0746
 7410SOL    HW133689   4.166   3.617   2.925 -0.2520 -1.4645  1.5851
 7410SOL    HW233690   4.302   3.662   2.973  0.8324  0.8141 -2.0134
 7411SOL     OW33691   3.501   1.344   3.174 -0.3808  0.4730 -0.7377
 7411SOL    HW133692   3.450   1.389   3.107  0.5134 -0.6673 -2.1847
 7411SOL    HW233693   3.460   1.257   3.177  0.8424 -0.0500  1.5275
 7412SOL     OW33694   4.210   2.495   0.923 -0.0287  0.2335  0.0463
 7412SOL    HW133695   4.168   2.545   0.853 -3.6344 -2.0578  0.6309
 7412SOL    HW233696   4.132   2.450   0.952 -0.3769  1.7320  1.4488
 7413SOL     OW33697   1.346   2.107   5.268 -0.3182  0.0039  0.0410
 7413SOL    HW133698   1.408   2.069   5.331 -0.6836  0.2752  0.5601
 7413SOL    HW233699   1.350   2.041   5.199  2.7634  0.9908 -0.7716
 7414SOL     OW33700   4.578   3.308   2.542 -0.6210  0.1228 -0.0358
 7414SOL    HW133701   4.609   3.219   2.527 -1.2593 -0.1922  0.5080
 7414SOL    HW233702   4.648   3.357   2.586 -0.7760  1.3063 -1.1116
 7415SOL     OW33703   0.361   1.666   6.865 -0.6558  0.4554  0.3525
 7415SOL    HW133704   0.304   1.729   6.910  0.1774  1.5913 -0.1697
 7415SOL    HW233705   0.435   1.715   6.830 -1.7194  0.4423 -1.9061
 7416SOL     OW33706   3.256   0.083   8.945  0.5760  0.0663  0.7112
 7416SOL    HW133707   3.212   0.003   8.918  3.1991 -0.9336 -0.5883
 7416SOL    HW233708   3.312   0.052   9.015  0.5694 -0.1252  0.6309
 7417SOL     OW33709   0.688   0.395  10.631 -0.2468 -0.4125 -0.5021
 7417SOL    HW133710   0.607   0.408  10.680  1.4059  5.6857  0.5763
 7417SOL    HW233711   0.732   0.479  10.642 -0.0364 -0.7414  1.1356
 7418SOL     OW33712   1.126   2.777  11.417  0.2198  0.3640  0.3110
 7418SOL    HW133713   1.126   2.845  11.350  1.5443 -1.2487 -1.3291
 7418SOL    HW233714   1.067   2.713  11.375  1.1262 -0.1719 -0.1385
 7419SOL     OW33715   4.078   1.507   2.162  0.1254  0.3143  0.8677
 7419SOL    HW133716   4.141   1.550   2.221 -0.6167  0.3626  1.6156
 7419SOL    HW233717   4.129   1.439   2.117  0.5846  1.3175 -0.1371
 7420SOL     OW33718   3.130   1.514   1.781 -0.2532  0.2637 -0.5795
 7420SOL    HW133719   3.040   1.493   1.757 -0.5580  1.3756 -0.4294
 7420SOL    HW233720   3.187   1.510   1.704 -0.0694 -1.5468 -0.3388
 7421SOL     OW33721   1.149   0.138  17.101  0.2017  0.0186  0.9143
 7421SOL    HW133722   1.190   0.059  17.138 -0.3744 -1.1284 -0.9051
 7421SOL    HW233723   1.068   0.103  17.064  0.3531 -0.5867  1.1408
 7422SOL     OW33724   1.460   3.314   3.172  0.4588  0.5433 -0.1001
 7422SOL    HW133725   1.487   3.380   3.235 -0.2268 -0.3890  1.1588
 7422SOL    HW233726   1.522   3.322   3.099  1.3990 -0.4801  0.5903
 7423SOL     OW33727   3.977   2.001   6.929  0.4760 -0.2926  0.3716
 7423SOL    HW133728   3.945   1.911   6.930 -0.8185  0.1661  1.4674
 7423SOL    HW233729   4.069   1.980   6.942  1.1170  2.6776  0.7174
 7424SOL     OW33730   0.271   4.262  11.305  0.0076 -0.2387 -0.2276
 7424SOL    HW133731   0.302   4.332  11.247  2.3640  0.3009  1.6882
 7424SOL    HW233732   0.180   4.289  11.313  0.1811  0.7984 -1.6838
 7425SOL     OW33733   4.214   4.049   3.984  0.0532 -0.2322  0.7714
 7425SOL    HW133734   4.289   4.078   4.037 -0.6567 -0.5786  1.9800
 7425SOL    HW233735   4.162   4.129   3.992 -1.1124 -0.9564  0.2846
 7426SOL     OW33736   2.052   3.618   8.517  0.4458  0.2130 -0.2841
 7426SOL    HW133737   1.995   3.543   8.527  0.3770  0.3452  0.3394
 7426SOL    HW233738   2.000   3.691   8.550  0.3120  0.0856 -0.2146
 7427SOL     OW33739   2.997   2.910   8.745 -0.3255 -0.7713  0.4202
 7427SOL    HW133740   3.088   2.931   8.722 -1.7465  1.9680 -2.7495
 7427SOL    HW233741   3.012   2.853   8.820  1.1565  1.0104  1.4886
 7428SOL     OW33742   3.316   0.656   9.920 -0.3700  0.3869 -0.4254
 7428SOL    HW133743   3.274   0.730   9.963 -1.4549 -1.0223  0.9463
 7428SOL    HW233744   3.260   0.584   9.950 -0.3874  0.3483 -0.5523
 7429SOL     OW33745   2.447   3.209   3.521  0.5194 -0.3167 -0.4470
 7429SOL    HW133746   2.525   3.174   3.477  1.1358  1.0704 -0.4569
 7429SOL    HW233747   2.459   3.303   3.512  0.7394 -0.0372  2.6011
 7430SOL     OW33748   2.409   0.275  13.530 -0.1915  0.2394 -0.2039
 7430SOL    HW133749   2.396   0.341  13.598 -0.6405  0.2390 -0.2876
 7430SOL    HW233750   2.317   0.277  13.506 -0.2625 -2.0783 -0.2029
 7431SOL     OW33751   0.358   1.127   4.316  0.1350 -0.0017 -0.2774
 7431SOL    HW133752   0.446   1.089   4.316  0.5157  0.8766 -0.9654
 7431SOL    HW233753   0.330   1.112   4.226 -2.4378 -0.9731  0.6885
 7432SOL     OW33754   4.717   0.440   4.547  0.7929 -0.1282 -0.3035
 7432SOL    HW133755   4.722   0.394   4.463  1.2535 -0.7343  0.0565
 7432SOL    HW233756   4.664   0.516   4.521 -1.1060 -1.5935 -0.6891
 7433SOL     OW33757   2.368   1.863   2.773  0.1767  0.2872 -0.4998
 7433SOL    HW133758   2.353   1.769   2.787 -0.1551  0.2126 -1.3775
 7433SOL    HW233759   2.464   1.861   2.780  0.1063  0.0595  0.3934
 7434SOL     OW33760   2.826   4.337   9.359  0.1213  0.2646  0.4065
 7434SOL    HW133761   2.772   4.399   9.408 -0.6315 -0.7037  0.7960
 7434SOL    HW233762   2.791   4.258   9.400  0.3135  0.1088  0.2703
 7435SOL     OW33763   2.312   3.784   8.101 -0.6237  0.3138  0.0094
 7435SOL    HW133764   2.236   3.836   8.074 -0.3439  1.7226  1.9548
 7435SOL    HW233765   2.329   3.732   8.023 -1.1296 -0.1214  0.1911
 7436SOL     OW33766   0.667   1.778   8.418  0.3754 -0.2424 -0.2675
 7436SOL    HW133767   0.762   1.767   8.417  0.5492  1.2889 -1.0146
 7436SOL    HW233768   0.656   1.870   8.444 -0.1373 -0.8528  1.7545
 7437SOL     OW33769   1.285   1.672   8.267 -0.3125 -0.0010 -0.1617
 7437SOL    HW133770   1.342   1.596   8.278  1.9190  2.0241  2.4124
 7437SOL    HW233771   1.202   1.631   8.291  1.3185 -1.3315  3.3118
 7438SOL     OW33772   0.003   1.991   2.871  0.5266 -0.4314  0.0113
 7438SOL    HW133773   0.031   2.063   2.814  0.7299 -2.5204 -2.5009
 7438SOL    HW233774   4.712   2.051   2.944 -1.8713 -1.0952  0.0804
 7439SOL     OW33775   2.781   0.494   7.139 -0.0755  0.3915  0.3893
 7439SOL    HW133776   2.863   0.543   7.129  1.4521 -2.5779 -1.7106
 7439SOL    HW233777   2.779   0.468   7.231  2.9060  0.2187  0.4055
 7440SOL     OW33778   0.447   2.378   6.938  0.3944  0.3010 -0.1566
 7440SOL    HW133779   0.498   2.299   6.956 -0.1954 -0.3733 -1.5372
 7440SOL    HW233780   0.359   2.342   6.941  0.9993 -1.1792 -0.1557
 7441SOL     OW33781   1.321   0.625  17.169  0.8084 -0.5864  0.0433
 7441SOL    HW133782   1.258   0.575  17.117  0.8433  0.2209 -0.7791
 7441SOL    HW233783   1.310   0.575  17.250 -1.2854 -1.0458 -0.5255
 7442SOL     OW33784   4.519   1.503   2.231 -0.5872  0.0820  0.3021
 7442SOL    HW133785   4.495   1.413   2.207  2.2395 -1.0007  1.4470
 7442SOL    HW233786   4.565   1.533   2.153  0.6822  0.4079  1.1804
 7443SOL     OW33787   2.778   0.100  14.361 -0.8134 -0.1957  0.0955
 7443SOL    HW133788   2.813   0.020  14.321  0.7634  0.7975 -0.5377
 7443SOL    HW233789   2.689   0.066  14.359 -1.6156  1.8824  0.7487
 7444SOL     OW33790   0.912   3.704   7.164 -0.0904 -0.1927  0.3591
 7444SOL    HW133791   0.854   3.656   7.105 -0.1269  1.1964 -0.7175
 7444SOL    HW233792   0.974   3.748   7.106 -1.4255  0.2232 -0.7670
 7445SOL     OW33793   2.584   0.166   2.894 -0.1645  0.1382  0.1637
 7445SOL    HW133794   2.529   0.090   2.876 -1.9718  1.5520 -0.3027
 7445SOL    HW233795   2.563   0.220   2.817 -1.1956 -0.2585  0.1644
 7446SOL     OW33796   1.375   3.687   6.986  0.1975 -0.0992  0.3344
 7446SOL    HW133797   1.353   3.762   6.930 -0.5122 -0.8199 -0.3487
 7446SOL    HW233798   1.378   3.728   7.073 -1.6062 -3.1629  1.8169
 7447SOL     OW33799   3.009   1.469  16.683 -0.2836  0.2039 -0.7581
 7447SOL    HW133800   2.923   1.474  16.724 -0.0674  3.3337 -0.6891
 7447SOL    HW233801   3.061   1.405  16.731  3.7205  3.7718 -0.4030
 7448SOL     OW33802   4.290   3.364   9.021 -0.4311  0.5292 -0.1970
 7448SOL    HW133803   4.250   3.422   9.086 -0.9618 -0.8449  0.6876
 7448SOL    HW233804   4.315   3.424   8.951  1.0751  1.1398  0.8558
 7449SOL     OW33805   2.368   1.467  17.021  0.4108 -0.6252 -0.6158
 7449SOL    HW133806   2.425   1.418  16.963 -1.0402 -0.4761 -2.1769
 7449SOL    HW233807   2.277   1.444  17.002 -0.2087  3.0441 -2.1330
 7450SOL     OW33808   2.565   2.006   3.701 -0.7907 -0.1301 -0.4035
 7450SOL    HW133809   2.519   2.079   3.659 -0.7422  0.3772  0.4270
 7450SOL    HW233810   2.652   2.045   3.691 -0.8575 -0.0300 -0.6012
 7451SOL     OW33811   2.917   1.208  11.531 -0.4523 -0.2477  0.1526
 7451SOL    HW133812   2.947   1.118  11.529  0.4705  0.0366  0.9662
 7451SOL    HW233813   2.832   1.204  11.574 -0.3425  0.1902  0.4116
 7452SOL     OW33814   0.866   2.363  15.881 -1.0556  0.1424  0.0661
 7452SOL    HW133815   0.879   2.422  15.955 -3.1645  1.2683 -0.4793
 7452SOL    HW233816   0.952   2.324  15.863 -1.0987  0.7251 -1.3837
 7453SOL     OW33817   1.498   0.427  11.054 -0.5244 -0.0904  0.4800
 7453SOL    HW133818   1.511   0.339  11.017 -0.0977 -0.1098  0.6830
 7453SOL    HW233819   1.404   0.428  11.075 -0.2221 -0.4022  1.8517
 7454SOL     OW33820   4.110   4.691  14.630  0.7606 -0.0393 -0.2942
 7454SOL    HW133821   4.106   0.060  14.657 -1.2015 -0.3305  0.4225
 7454SOL    HW233822   4.120   4.643  14.712  1.1606 -0.9563 -0.8771
 7455SOL     OW33823   0.016   0.213  16.583 -0.4432  0.4944 -0.0884
 7455SOL    HW133824   4.686   0.268  16.640  1.8772  1.6630  0.9732
 7455SOL    HW233825   0.043   0.144  16.644 -1.5372 -1.5424 -1.9065
 7456SOL     OW33826   2.688   3.843   3.186  0.7647 -0.6868  0.2224
 7456SOL    HW133827   2.720   3.824   3.098 -0.5111 -0.2742 -0.3213
 7456SOL    HW233828   2.634   3.920   3.174 -0.6173 -1.7445 -0.3115
 7457SOL     OW33829   4.532   0.731   4.756  1.0389 -0.4873 -0.3691
 7457SOL    HW133830   4.454   0.786   4.770  0.8467 -0.8433 -0.0156
 7457SOL    HW233831   4.501   0.655   4.806 -1.9407  0.2897 -1.0315
 7458SOL     OW33832   4.629   4.600  13.426 -0.4663  0.2324 -0.2133
 7458SOL    HW133833   4.625   4.505  13.441  1.1011  0.3791  1.0268
 7458SOL    HW233834   4.606   4.606  13.333 -0.3805 -0.6760 -0.2953
 7459SOL     OW33835   2.751   1.783  13.297  0.2959 -0.2774 -0.5558
 7459SOL    HW133836   2.832   1.802  13.344 -0.5560  2.5652 -0.2328
 7459SOL    HW233837   2.740   1.870  13.259  0.6838  0.4550  0.9863
 7460SOL     OW33838   3.287   1.489   9.638 -0.2058 -0.0822  0.4177
 7460SOL    HW133839   3.191   1.481   9.638 -0.5620  4.2415 -0.6768
 7460SOL    HW233840   3.295   1.576   9.677  1.0603  0.6080 -1.3899
 7461SOL     OW33841   3.677   2.834   2.889  0.2246 -0.4443 -0.5648
 7461SOL    HW133842   3.601   2.852   2.944  1.1674  0.3934  0.4581
 7461SOL    HW233843   3.723   2.917   2.900 -2.5373  1.3048 -2.1989
 7462SOL     OW33844   4.013   2.536   2.310  0.1459  0.0098 -0.1051
 7462SOL    HW133845   3.964   2.544   2.392  2.5056  2.3274  1.0964
 7462SOL    HW233846   4.034   2.627   2.286 -0.0188  0.7505  2.4981
 7463SOL     OW33847   3.635   1.080   1.000  0.4005  0.6364 -0.3247
 7463SOL    HW133848   3.699   1.147   0.977  0.9681  0.2471  0.1365
 7463SOL    HW233849   3.614   1.096   1.092 -0.7899  3.2904 -1.0434
 7464SOL     OW33850   2.685   4.144   9.502  0.8015  0.3154  0.4635
 7464SOL    HW133851   2.686   4.057   9.542  0.2952  1.3941  2.8538
 7464SOL    HW233852   2.702   4.188   9.586  3.6373  2.0781 -1.0482
 7465SOL     OW33853   4.665   1.208   6.227 -0.4046 -0.3188  0.1279
 7465SOL    HW133854   4.612   1.224   6.304 -2.2105 -0.8591 -1.0104
 7465SOL    HW233855   4.682   1.298   6.202  0.3221 -0.1914  1.0717
 7466SOL     OW33856   3.662   1.049   3.196  0.1199  0.5293 -0.3171
 7466SOL    HW133857   3.569   1.034   3.212  0.1941  0.5597  0.1541
 7466SOL    HW233858   3.708   0.970   3.225  1.4326  0.2827 -3.0909
 7467SOL     OW33859   1.958   2.492   8.753 -0.2463 -0.1018  0.1219
 7467SOL    HW133860   1.912   2.469   8.834  0.5029 -2.8010 -0.2210
 7467SOL    HW233861   1.928   2.583   8.741 -1.1415 -0.2556  1.2370
 7468SOL     OW33862   0.818   2.916   1.680 -0.0169  0.6867  0.3143
 7468SOL    HW133863   0.843   3.005   1.654  1.7940  0.2125  0.4377
 7468SOL    HW233864   0.903   2.875   1.695  1.4613  3.9161  0.7632
 7469SOL     OW33865   4.156   4.221  10.616 -0.1128 -0.0697  0.1299
 7469SOL    HW133866   4.107   4.157  10.565  2.2609 -1.4518 -0.4258
 7469SOL    HW233867   4.242   4.221  10.575  0.3798  0.8917  1.1569
 7470SOL     OW33868   1.189   4.608   5.202 -0.0758  0.0294  0.2536
 7470SOL    HW133869   1.268   4.657   5.179  0.5893 -0.1416  2.1631
 7470SOL    HW233870   1.218   4.554   5.276 -0.6995  0.4063  0.7692
 7471SOL     OW33871   0.978   2.219   5.413 -0.4874  0.0858  0.2760
 7471SOL    HW133872   1.030   2.174   5.347 -2.4151  0.8749 -1.7684
 7471SOL    HW233873   0.899   2.222   5.359 -0.8213 -0.3782  0.7366
 7472SOL     OW33874   2.506   0.836   8.036 -0.1295  0.0660  0.4269
 7472SOL    HW133875   2.424   0.869   8.001  0.1111 -2.3451 -2.3909
 7472SOL    HW233876   2.469   0.798   8.116 -2.1649 -0.0729 -0.5747
 7473SOL     OW33877   4.178   3.034   2.416 -0.1540  0.2213  0.1799
 7473SOL    HW133878   4.123   3.112   2.408  1.1810  1.1761  0.1145
 7473SOL    HW233879   4.200   3.034   2.509 -1.9764  0.9371  0.6091
 7474SOL     OW33880   1.183   1.115   2.548 -0.2505  0.0794 -0.0127
 7474SOL    HW133881   1.126   1.068   2.487 -1.3839  0.6164  0.6277
 7474SOL    HW233882   1.120   1.167   2.598 -1.3215 -0.9473 -0.2939
 7475SOL     OW33883   3.759   1.041   7.710  0.4272 -0.2086 -0.0549
 7475SOL    HW133884   3.813   1.094   7.768  0.4831  0.0754 -0.3675
 7475SOL    HW233885   3.812   1.042   7.630 -0.6071 -0.2057 -0.7413
 7476SOL     OW33886   2.269   4.451   7.159  0.2243 -0.4333 -0.2346
 7476SOL    HW133887   2.207   4.387   7.193 -1.7019  0.4415 -2.0808
 7476SOL    HW233888   2.312   4.391   7.098 -1.7699  1.1003 -3.1650
 7477SOL     OW33889   0.059   1.256  15.781  0.1855 -0.0444  0.0329
 7477SOL    HW133890   0.080   1.339  15.825 -0.4890  0.3774 -0.4341
 7477SOL    HW233891   0.150   1.226  15.776  0.2188  0.0340  0.1715
 7478SOL     OW33892   2.860   0.685   6.515 -0.5216  0.1753  0.2024
 7478SOL    HW133893   2.814   0.761   6.552 -0.8740  1.1045 -2.1153
 7478SOL    HW233894   2.911   0.735   6.451 -1.2343  0.0757 -0.4563
 7479SOL     OW33895   3.372   0.716   3.357  0.3977  0.3351  0.9895
 7479SOL    HW133896   3.392   0.805   3.388  2.0250 -0.0782  1.1592
 7479SOL    HW233897   3.286   0.738   3.322  1.2370 -3.6449 -3.5795
 7480SOL     OW33898   1.138   4.524   8.305 -0.0659  0.5806  0.6189
 7480SOL    HW133899   1.062   4.554   8.355 -0.4203  0.6813  0.0318
 7480SOL    HW233900   1.095   4.485   8.229 -0.4472 -0.7567  1.5185
 7481SOL     OW33901   1.803   2.333   2.916  0.2661  0.1623  0.4188
 7481SOL    HW133902   1.869   2.308   2.851 -0.2447 -0.6079  0.1948
 7481SOL    HW233903   1.812   2.256   2.972 -1.5435 -0.0024  0.4878
 7482SOL     OW33904   1.996   0.572   8.462 -0.2417  0.2746  0.4156
 7482SOL    HW133905   2.046   0.584   8.381 -1.0464  1.2108  0.0618
 7482SOL    HW233906   1.911   0.538   8.434 -0.7438 -1.0563  3.4810
 7483SOL     OW33907   2.098   2.638   9.351  0.0048 -0.4298 -0.2397
 7483SOL    HW133908   2.006   2.619   9.370 -0.5024  0.1017 -2.0897
 7483SOL    HW233909   2.140   2.660   9.434 -1.1164  0.0384  0.2089
 7484SOL     OW33910   1.921   1.739   5.584  0.4098 -0.3751  0.0798
 7484SOL    HW133911   1.885   1.826   5.571 -0.3412 -0.6567  0.3029
 7484SOL    HW233912   1.983   1.726   5.512 -0.7668  0.5293 -1.1031
 7485SOL     OW33913   0.900   0.520   5.995  0.2018  0.7611  0.3448
 7485SOL    HW133914   0.842   0.466   6.049  2.0748  0.3922  1.9747
 7485SOL    HW233915   0.838   0.581   5.954 -1.7156 -1.4083  0.0401
 7486SOL     OW33916   0.903   3.110   3.987 -0.5366 -0.0063  0.0812
 7486SOL    HW133917   0.880   3.129   4.078 -2.5592  0.5335 -0.5347
 7486SOL    HW233918   0.822   3.069   3.955 -0.7278  2.3636 -2.4749
 7487SOL     OW33919   3.858   3.799   4.684 -0.7230  0.2887  0.5117
 7487SOL    HW133920   3.806   3.876   4.707 -2.1596 -1.6462  3.7474
 7487SOL    HW233921   3.803   3.756   4.619  0.4806 -0.4826  0.0264
 7488SOL     OW33922   2.284   3.537   8.936  0.3653 -0.5093 -0.2499
 7488SOL    HW133923   2.353   3.482   8.972  0.2150 -0.6990 -0.2501
 7488SOL    HW233924   2.244   3.475   8.874 -3.1930  0.0911  1.4455
 7489SOL     OW33925   3.225   1.767   8.028  0.3031 -0.0478  0.0527
 7489SOL    HW133926   3.268   1.851   8.011 -2.4535  1.6528  1.4999
 7489SOL    HW233927   3.279   1.720   8.091  0.1771 -1.7678 -1.1077
 7490SOL     OW33928   1.404   2.908   6.156 -0.1182 -0.3097  0.1966
 7490SOL    HW133929   1.310   2.923   6.149  0.2207  1.8764  0.2856
 7490SOL    HW233930   1.441   2.968   6.091 -1.0392  1.0900  0.9575
 7491SOL     OW33931   4.688   2.716  11.228 -0.4714  0.4474  0.3053
 7491SOL    HW133932   4.658   2.801  11.261 -0.4760  0.6542 -0.2376
 7491SOL    HW233933   4.660   2.727  11.138 -2.3890 -1.6748  0.6423
 7492SOL     OW33934   4.236   0.830   5.405  0.1260 -0.1033 -0.5116
 7492SOL    HW133935   4.289   0.896   5.361  0.8033 -0.3832 -0.1177
 7492SOL    HW233936   4.191   0.809   5.323 -0.0150 -0.3653 -0.3701
 7493SOL     OW33937   3.148   0.769   7.727 -0.2030 -0.0611  0.2235
 7493SOL    HW133938   3.122   0.849   7.683 -2.1953 -1.5405 -1.2764
 7493SOL    HW233939   3.212   0.724   7.672 -0.7842  0.7717 -1.1320
 7494SOL     OW33940   0.741   0.186   5.354 -0.1518  0.5502  0.3753
 7494SOL    HW133941   0.820   0.138   5.328  0.0204 -0.5787  2.9560
 7494SOL    HW233942   0.733   0.260   5.294  1.2077 -0.3941 -0.9779
 7495SOL     OW33943   2.393   2.447   3.661 -0.7801 -0.1610  0.0007
 7495SOL    HW133944   2.419   2.527   3.617  0.4141 -0.0839  0.8582
 7495SOL    HW233945   2.319   2.488   3.705 -1.2198  0.3436 -1.2194
 7496SOL     OW33946   1.542   3.231   5.021  0.5023  0.1709 -0.1742
 7496SOL    HW133947   1.625   3.201   5.057  0.5995  0.7197  0.0594
 7496SOL    HW233948   1.552   3.182   4.940 -1.4081 -1.6941  0.7142
 7497SOL     OW33949   2.754   3.151   4.361 -0.4562  0.0047  0.4254
 7497SOL    HW133950   2.739   3.063   4.326 -1.2412  0.0893  0.5575
 7497SOL    HW233951   2.688   3.201   4.314 -0.8836 -0.7345  0.2492
 7498SOL     OW33952   4.047   4.702   8.387 -0.3564 -0.0999 -0.9740
 7498SOL    HW133953   3.954   0.001   8.379 -0.8467 -2.0249 -0.6234
 7498SOL    HW233954   4.046   4.630   8.450  0.9539 -0.4915 -1.4011
 7499SOL     OW33955   3.744   4.360   9.097 -0.2639 -0.0075  0.3003
 7499SOL    HW133956   3.754   4.374   9.003  2.7043  0.1101  0.6296
 7499SOL    HW233957   3.772   4.269   9.097  0.9534  0.3665 -1.0024
 7500SOL     OW33958   1.779   0.358  16.949 -0.2037  0.6185  0.0624
 7500SOL    HW133959   1.728   0.284  16.981  2.9319  0.0617  3.7509
 7500SOL    HW233960   1.784   0.339  16.855 -1.2670 -1.7321  0.5048
 7501SOL     OW33961   0.942   0.743  14.304  0.5747 -0.2807 -0.3926
 7501SOL    HW133962   0.940   0.790  14.221  0.7565  0.1988 -0.1258
 7501SOL    HW233963   1.013   0.680  14.294  0.6578 -0.0513 -1.2284
 7502SOL     OW33964   4.577   0.961   2.014  0.4695  0.4239  0.3366
 7502SOL    HW133965   4.499   1.017   2.007 -0.5957 -1.2840 -1.2603
 7502SOL    HW233966   4.615   0.983   1.929 -0.4272  1.0557  0.0964
 7503SOL     OW33967   2.759   3.496   6.771 -0.1560  0.2568  0.3144
 7503SOL    HW133968   2.779   3.439   6.846 -1.7618 -0.5333  0.1302
 7503SOL    HW233969   2.666   3.476   6.765  0.4180 -1.8331 -1.4146
 7504SOL     OW33970   4.286   4.436   9.986  0.1764 -0.5020 -0.5926
 7504SOL    HW133971   4.358   4.498   9.999  0.5061 -0.6555 -1.6668
 7504SOL    HW233972   4.250   4.459   9.900 -1.3333  0.8193  0.3964
 7505SOL     OW33973   0.611   3.790   1.076  0.2366  0.4377  0.0646
 7505SOL    HW133974   0.563   3.727   1.022 -2.7308  2.0892  0.8107
 7505SOL    HW233975   0.546   3.829   1.134 -1.0860  0.7033 -1.6070
 7506SOL     OW33976   2.536   1.673   4.797  0.1229 -0.5208  1.2997
 7506SOL    HW133977   2.495   1.614   4.734  2.0963  0.3528 -0.8347
 7506SOL    HW233978   2.457   1.726   4.797 -0.2603 -1.1098 -1.0734
 7507SOL     OW33979   4.364   1.523   6.171  0.1572  0.3035  0.0335
 7507SOL    HW133980   4.397   1.525   6.261  1.9550 -0.7604 -0.5851
 7507SOL    HW233981   4.337   1.432   6.159  1.9176  0.0450 -2.0451
 7508SOL     OW33982   4.146   2.529   6.475  0.3398  0.3124  0.2192
 7508SOL    HW133983   4.076   2.561   6.532 -0.2785 -3.5246  1.6270
 7508SOL    HW233984   4.110   2.496   6.393  1.1989  0.6631 -0.3060
 7509SOL     OW33985   2.097   1.219  10.933 -0.0447 -0.3180 -0.4315
 7509SOL    HW133986   2.110   1.310  10.960 -0.6686 -0.6028  0.8403
 7509SOL    HW233987   2.170   1.170  10.972 -0.6845 -2.0135 -1.3891
 7510SOL     OW33988   4.624   2.244   2.944 -0.1571 -0.1864  0.4952
 7510SOL    HW133989   4.540   2.285   2.926 -0.5181 -1.4197 -0.6751
 7510SOL    HW233990   4.685   2.318   2.948 -0.0364 -0.2215 -0.6378
 7511SOL     OW33991   1.219   4.541   0.617 -0.5947 -0.0750 -0.3121
 7511SOL    HW133992   1.214   4.547   0.522 -0.3158  0.5003 -0.2886
 7511SOL    HW233993   1.252   4.628   0.638 -1.2127  0.4758 -1.6258
 7512SOL     OW33994   4.087   4.052   7.257 -0.3124  0.4075  0.0057
 7512SOL    HW133995   4.042   4.134   7.278  1.3654  0.7205  2.3536
 7512SOL    HW233996   4.018   3.998   7.297 -2.3020  2.7667 -0.2096
 7513SOL     OW33997   0.117   4.608  11.856  0.6464 -0.7688  0.4400
 7513SOL    HW133998   0.154   4.603  11.945 -1.1660  0.5171  1.2643
 7513SOL    HW233999   0.140   4.518  11.831 -0.6965 -1.1342  0.5446
 7514SOL     OW34000   2.007   2.577   8.104 -0.6054 -0.2659  0.4649
 7514SOL    HW134001   2.048   2.608   8.023  0.5449  0.9067  1.4995
 7514SOL    HW234002   1.993   2.484   8.086  2.7445 -0.7410  0.2928
 7515SOL     OW34003   1.777   4.536   5.127 -0.0585  0.0325  0.1214
 7515SOL    HW134004   1.686   4.542   5.155  0.0598  0.0542  0.5024
 7515SOL    HW234005   1.831   4.563   5.202  1.2282 -0.9676 -0.4361
 7516SOL     OW34006   0.533   1.611   5.175 -0.0704 -0.2052 -0.3713
 7516SOL    HW134007   0.476   1.688   5.170  0.8115  0.4815  0.2283
 7516SOL    HW234008   0.475   1.535   5.171  0.5624 -0.6687 -0.6748
 7517SOL     OW34009   1.442   0.195   2.922 -0.2378 -0.1302 -0.0562
 7517SOL    HW134010   1.434   0.120   2.862 -0.8010 -1.0265  1.1271
 7517SOL    HW234011   1.511   0.157   2.977  0.6720  1.0104 -0.4196
 7518SOL     OW34012   1.421   3.839   7.206  0.2298 -0.1412 -0.3519
 7518SOL    HW134013   1.350   3.794   7.251  0.6069 -0.8535 -0.4736
 7518SOL    HW234014   1.472   3.853   7.286 -0.7973  1.4193  0.0301
 7519SOL     OW34015   4.700   2.761  10.023 -0.3579  0.0542 -0.0269
 7519SOL    HW134016   4.626   2.797   9.975  0.7232  1.2001 -0.8459
 7519SOL    HW234017   0.035   2.833   9.998  0.6279 -0.6555  0.2379
 7520SOL     OW34018   1.685   0.948  10.223  0.0088  0.6551  0.2499
 7520SOL    HW134019   1.738   0.897  10.161  0.1747  2.0123 -0.7233
 7520SOL    HW234020   1.635   0.997  10.158  1.0264  0.7007 -0.4922
 7521SOL     OW34021   3.158   2.886  15.466  0.2556 -0.5169 -0.0350
 7521SOL    HW134022   3.158   2.966  15.414 -0.1743  0.4690  1.4827
 7521SOL    HW234023   3.175   2.918  15.555 -1.0933 -2.2872  0.8609
 7522SOL     OW34024   0.755   2.217   4.963  0.2552 -0.5932 -0.7694
 7522SOL    HW134025   0.766   2.274   4.887 -1.2170  0.1182 -0.4454
 7522SOL    HW234026   0.836   2.167   4.958  0.9930  0.5674 -0.3039
 7523SOL     OW34027   3.261   0.951   4.200 -0.1402 -0.0664 -0.2421
 7523SOL    HW134028   3.349   0.923   4.176 -0.2424 -1.8205  1.4881
 7523SOL    HW234029   3.202   0.889   4.157 -1.1903  1.3524 -0.8632
 7524SOL     OW34030   3.512   2.652   5.539 -0.3092 -0.9733  0.7449
 7524SOL    HW134031   3.530   2.560   5.561  0.7380 -0.9986 -0.1867
 7524SOL    HW234032   3.526   2.641   5.445 -0.0302 -0.2624  0.7015
 7525SOL     OW34033   2.283   3.239  14.892  1.0216  0.1143  0.3850
 7525SOL    HW134034   2.275   3.167  14.955 -0.5045 -0.7868 -0.8246
 7525SOL    HW234035   2.328   3.302  14.948  2.4176 -0.2255 -0.3531
 7526SOL     OW34036   3.738   3.538   7.961  0.0183  0.1771 -0.1940
 7526SOL    HW134037   3.709   3.623   7.994  3.9107  0.8530  1.4741
 7526SOL    HW234038   3.810   3.552   7.899 -0.4574 -1.8566 -1.2022
 7527SOL     OW34039   3.109   2.289   7.925  0.1935 -0.3251  0.3502
 7527SOL    HW134040   3.126   2.352   7.855  1.1094 -0.2868  0.6069
 7527SOL    HW234041   3.014   2.300   7.932  0.1290 -1.7319  1.8345
 7528SOL     OW34042   1.501   1.773  13.995 -0.3631 -0.0289  0.1746
 7528SOL    HW134043   1.551   1.854  14.006 -3.8901  2.2936 -1.1498
 7528SOL    HW234044   1.536   1.744  13.911 -1.7586 -1.9302  0.2517
 7529SOL     OW34045   1.603   3.977   7.053  0.2081  0.1987  0.7538
 7529SOL    HW134046   1.535   3.918   7.087  0.5256 -0.0384  0.9771
 7529SOL    HW234047   1.675   3.916   7.036  1.9237  2.7522 -1.1353
 7530SOL     OW34048   1.158   0.552   2.199 -0.3628  0.0005 -0.4388
 7530SOL    HW134049   1.185   0.462   2.181  2.2359  0.4302  1.2419
 7530SOL    HW234050   1.196   0.594   2.122  0.4224  0.0654 -0.0180
 7531SOL     OW34051   3.498   4.462   6.801  0.3373  0.4555  0.2254
 7531SOL    HW134052   3.437   4.519   6.848  0.2859  2.2295 -1.9795
 7531SOL    HW234053   3.502   4.383   6.856 -0.5915  0.6092  0.5221
 7532SOL     OW34054   2.744   1.039  17.261 -0.0965 -0.2383 -0.3948
 7532SOL    HW134055   2.703   0.956  17.284  0.9176 -0.2181  1.5365
 7532SOL    HW234056   2.792   1.056  17.342 -0.4666  0.5562 -0.3395
 7533SOL     OW34057   4.557   1.554   6.424 -0.0309  0.3904  0.8684
 7533SOL    HW134058   4.532   1.464   6.402 -0.5667  0.3661  1.5736
 7533SOL    HW234059   4.645   1.560   6.388 -0.3934 -1.4815 -0.3588
 7534SOL     OW34060   0.234   2.216   6.376  0.8733 -0.3869  0.2232
 7534SOL    HW134061   0.293   2.265   6.319 -0.7368 -0.4134 -1.4589
 7534SOL    HW234062   0.263   2.224   6.467 -1.6493  1.7534  0.8667
 7535SOL     OW34063   3.271   2.820  15.721  0.1026 -0.3426  0.2134
 7535SOL    HW134064   3.213   2.894  15.737  0.0448 -0.5621  1.0250
 7535SOL    HW234065   3.243   2.761  15.791  0.4548 -1.0330 -0.2256
 7536SOL     OW34066   4.252   3.933  10.057 -0.0002 -0.0511 -0.1789
 7536SOL    HW134067   4.187   3.991  10.019 -0.7826 -1.4397 -0.9339
 7536SOL    HW234068   4.216   3.910  10.143  0.8129 -1.3714 -0.1894
 7537SOL     OW34069   0.418   3.831  16.566  0.4412  0.3264  0.2353
 7537SOL    HW134070   0.488   3.772  16.537 -1.6603 -0.3621 -3.4190
 7537SOL    HW234071   0.372   3.793  16.641 -0.7001  1.6923  0.2140
 7538SOL     OW34072   3.525   1.912   8.297 -0.2325 -0.3218 -0.1396
 7538SOL    HW134073   3.578   1.920   8.217 -0.6547 -1.0901 -0.4913
 7538SOL    HW234074   3.438   1.935   8.266 -1.2789 -1.8086  1.7174
 7539SOL     OW34075   2.449   3.546  11.181 -0.8740 -0.2087  0.3604
 7539SOL    HW134076   2.377   3.518  11.123  1.2278  0.0097 -2.3746
 7539SOL    HW234077   2.490   3.460  11.182  2.8775  1.5498 -1.1864
 7540SOL     OW34078   4.227   0.804   0.125  0.0079 -0.7670 -0.2097
 7540SOL    HW134079   4.174   0.835   0.051 -0.0302  1.0269  0.5931
 7540SOL    HW234080   4.184   0.724   0.155 -1.3295  0.0909  0.1691
 7541SOL     OW34081   1.657   4.429  15.725  0.3727 -0.0213  0.4973
 7541SOL    HW134082   1.668   4.361  15.791 -1.8500 -1.1784 -0.3237
 7541SOL    HW234083   1.638   4.514  15.765  0.8476 -0.9426  2.6623
 7542SOL     OW34084   1.015   3.087   3.213 -0.1461  0.0635 -0.3992
 7542SOL    HW134085   1.110   3.076   3.218 -0.2572  0.0759  1.9177
 7542SOL    HW234086   1.001   3.124   3.126 -0.7964  0.4189 -0.1389
 7543SOL     OW34087   2.129   3.345   2.296 -0.2467 -0.6354 -0.0256
 7543SOL    HW134088   2.218   3.369   2.270  0.4517  0.5873  3.4967
 7543SOL    HW234089   2.122   3.257   2.259  1.0559 -0.5261 -0.5210
 7544SOL     OW34090   3.181   3.955   3.683  0.4473 -0.0428  0.0925
 7544SOL    HW134091   3.113   3.888   3.676  1.5788 -1.2406  0.4793
 7544SOL    HW234092   3.213   3.928   3.769 -0.6194  1.4225  0.9477
 7545SOL     OW34093   4.009   3.122   8.859 -0.4201 -0.0235 -0.1994
 7545SOL    HW134094   4.034   3.076   8.939 -0.3110  1.4230  0.5964
 7545SOL    HW234095   3.996   3.048   8.799 -0.7963  0.0131 -0.1593
 7546SOL     OW34096   1.256   2.635   6.696  0.0684  0.1629 -0.2880
 7546SOL    HW134097   1.165   2.664   6.704  0.1637  0.2198  0.6043
 7546SOL    HW234098   1.278   2.610   6.786  2.2959  0.8490 -0.6461
 7547SOL     OW34099   0.118   3.045   8.848  0.1542 -0.2096  0.2631
 7547SOL    HW134100   0.103   3.064   8.940  1.4173 -1.7160  0.7887
 7547SOL    HW234101   0.050   3.103   8.813  0.7387 -0.5757 -1.5045
 7548SOL     OW34102   3.089   2.539   9.146  0.0637  0.0691  0.2732
 7548SOL    HW134103   3.137   2.481   9.087  0.2070  0.3115  0.1499
 7548SOL    HW234104   3.050   2.476   9.206  2.5620 -2.2738 -0.5285
 7549SOL     OW34105   0.398   4.391  16.269  0.0089  0.1680  0.5996
 7549SOL    HW134106   0.445   4.352  16.196 -0.0109 -1.4989  1.4764
 7549SOL    HW234107   0.397   4.484  16.249 -1.3580 -0.0121 -0.1573
 7550SOL     OW34108   0.920   3.545   2.949 -0.1327  0.0238 -0.5061
 7550SOL    HW134109   0.919   3.638   2.969  1.8342 -0.0016 -0.2454
 7550SOL    HW234110   0.827   3.524   2.944  0.2203 -1.9002  1.0077
 7551SOL     OW34111   4.598   0.305  15.903 -0.3422  0.3647 -0.1648
 7551SOL    HW134112   4.655   0.228  15.896  0.2572  0.6423  1.6595
 7551SOL    HW234113   4.587   0.302  15.998  0.3504 -2.5129 -0.1515
 7552SOL     OW34114   0.740   2.319   8.210  0.8050 -0.2126 -0.0683
 7552SOL    HW134115   0.703   2.304   8.297 -0.8678 -1.8804 -1.0613
 7552SOL    HW234116   0.833   2.305   8.225  1.1465  1.9374 -0.1213
 7553SOL     OW34117   1.221   1.234   0.327  0.8409  0.3593  0.4281
 7553SOL    HW134118   1.173   1.157   0.297  0.7136  0.1286  1.2224
 7553SOL    HW234119   1.308   1.196   0.335  0.0603 -1.8237 -1.3591
 7554SOL     OW34120   0.138   3.232   2.746 -0.0910 -0.1157 -0.0787
 7554SOL    HW134121   0.080   3.248   2.820  0.0318  1.2409 -0.2860
 7554SOL    HW234122   0.120   3.309   2.693  1.0812  0.8166  0.8865
 7555SOL     OW34123   0.565   1.672   0.183 -0.3962  0.1919  0.4102
 7555SOL    HW134124   0.654   1.661   0.215  0.5808 -0.0875 -2.4402
 7555SOL    HW234125   0.568   1.652   0.090 -1.3108 -0.6158  0.5473
 7556SOL     OW34126   1.844   0.566  11.292 -0.2437 -0.1793  0.0424
 7556SOL    HW134127   1.872   0.492  11.237 -1.4528 -1.0021  0.5366
 7556SOL    HW234128   1.789   0.615  11.231  2.2376  1.9309 -0.5027
 7557SOL     OW34129   3.380   0.759  11.831 -0.4497 -0.5205 -0.2674
 7557SOL    HW134130   3.370   0.777  11.924 -2.9342 -0.8462 -0.4737
 7557SOL    HW234131   3.311   0.808  11.786  1.0284  1.9039  0.1205
 7558SOL     OW34132   0.624   3.237  12.179 -0.5912  0.0565  0.4317
 7558SOL    HW134133   0.655   3.225  12.090 -2.2756  1.1644 -0.3224
 7558SOL    HW234134   0.682   3.177  12.226  0.5624  1.6035  0.9651
 7559SOL     OW34135   2.395   3.522   5.281  0.2711 -0.1202  0.6159
 7559SOL    HW134136   2.442   3.453   5.327 -0.8838 -0.9573  0.5344
 7559SOL    HW234137   2.324   3.554   5.337 -0.2064 -0.3730  0.1505
 7560SOL     OW34138   2.556   2.788   5.005 -0.0566  0.3396 -0.7294
 7560SOL    HW134139   2.527   2.825   4.922 -1.4513  0.0648 -0.3632
 7560SOL    HW234140   2.479   2.745   5.043 -0.1125 -0.1565 -1.4098
 7561SOL     OW34141   3.553   4.136   0.940 -0.0314  0.3736 -0.7888
 7561SOL    HW134142   3.514   4.147   1.027 -0.8000 -0.3555 -1.0434
 7561SOL    HW234143   3.521   4.218   0.904  2.0079  0.3207 -2.7254
 7562SOL     OW34144   4.375   3.463  12.628  0.0271  0.7267  0.4571
 7562SOL    HW134145   4.376   3.367  12.620  0.0023  0.6529  1.3426
 7562SOL    HW234146   4.306   3.470  12.694 -2.5308 -0.5016 -2.0597
 7563SOL     OW34147   4.438   2.440   3.807 -0.4231 -0.2353 -0.1641
 7563SOL    HW134148   4.384   2.376   3.761 -2.5631  0.4729  1.3885
 7563SOL    HW234149   4.498   2.381   3.853 -1.9855  0.5758  2.9732
 7564SOL     OW34150   3.150   1.011   2.817  0.1610 -0.4567  0.0216
 7564SOL    HW134151   3.119   1.092   2.776 -1.9595 -1.6033 -0.6452
 7564SOL    HW234152   3.206   1.047   2.885 -0.1615 -0.4528  0.2847
 7565SOL     OW34153   1.856   3.694   7.142 -0.4759  0.2239 -0.0570
 7565SOL    HW134154   1.776   3.647   7.118  0.5050 -1.7588  0.5953
 7565SOL    HW234155   1.853   3.755   7.067  0.8246 -0.7152 -0.8530
 7566SOL     OW34156   4.418   1.652  13.531  0.0791 -0.4633 -0.0370
 7566SOL    HW134157   4.504   1.671  13.494  0.6232 -1.4519  0.7288
 7566SOL    HW234158   4.430   1.691  13.617 -0.1582  2.2948 -1.2518
 7567SOL     OW34159   3.729   0.174   3.706  0.3199  0.1472  0.4148
 7567SOL    HW134160   3.693   0.197   3.792 -0.0491 -0.4437  0.4190
 7567SOL    HW234161   3.782   0.250   3.683  2.2036 -1.2945  0.0093
 7568SOL     OW34162   3.927   0.409  17.436  0.1989 -0.4244 -0.2299
 7568SOL    HW134163   3.844   0.407  17.390  0.8499  0.2568 -1.4519
 7568SOL    HW234164   3.952   0.499  17.414 -1.7942  0.4191  0.9729
 7569SOL     OW34165   1.024   2.413   7.475  0.0218  0.4977  0.2950
 7569SOL    HW134166   0.936   2.426   7.438  0.2961 -0.3211 -0.6352
 7569SOL    HW234167   1.025   2.486   7.537 -2.3075  1.6695 -1.0335
 7570SOL     OW34168   1.569   2.650   7.120  0.1973 -0.4728 -0.7970
 7570SOL    HW134169   1.638   2.595   7.083 -0.7226 -1.4981 -1.0107
 7570SOL    HW234170   1.620   2.706   7.177  0.4315 -0.1561 -1.3168
 7571SOL     OW34171   4.262   3.204   7.649 -0.4373  0.0476 -0.0174
 7571SOL    HW134172   4.343   3.172   7.608 -0.7503  0.6895 -1.1368
 7571SOL    HW234173   4.270   3.174   7.740 -1.6733 -0.5182 -0.1035
 7572SOL     OW34174   4.195   4.270   9.035  0.1462  0.4850 -0.0095
 7572SOL    HW134175   4.218   4.177   9.043 -0.3061  0.4250  0.6152
 7572SOL    HW234176   4.168   4.291   9.125  0.5222 -0.3681  0.3073
 7573SOL     OW34177   2.319   0.596   4.071 -0.2182  0.2720 -0.4289
 7573SOL    HW134178   2.383   0.526   4.081  0.1203  0.8898  1.6916
 7573SOL    HW234179   2.332   0.629   3.982  1.3171  0.0594 -0.2960
 7574SOL     OW34180   2.517   4.124   5.101  0.1926 -0.1403 -0.3640
 7574SOL    HW134181   2.473   4.085   5.026 -0.7904 -1.3252  0.8295
 7574SOL    HW234182   2.449   4.161   5.157  1.9704  1.0183  1.0134
 7575SOL     OW34183   0.095   4.102   4.611  0.0743 -0.8695 -0.4747
 7575SOL    HW134184   0.117   4.009   4.616  0.8543 -0.5794  1.4026
 7575SOL    HW234185   0.159   4.145   4.668 -0.8807 -0.3671  0.2389
 7576SOL     OW34186   2.671   4.659   4.911 -0.5678 -0.0851  0.2508
 7576SOL    HW134187   2.743   4.610   4.872 -0.1891  0.5916  0.1117
 7576SOL    HW234188   2.611   4.672   4.837 -0.0603 -1.4354 -0.3922
 7577SOL     OW34189   2.143   1.737  16.996  0.4173  0.1071 -0.2923
 7577SOL    HW134190   2.207   1.748  16.926 -1.7330  1.7004 -1.9722
 7577SOL    HW234191   2.139   1.641  17.000  0.2887  0.1962  2.1509
 7578SOL     OW34192   1.934   1.977   5.298 -0.2396 -0.0480 -0.0847
 7578SOL    HW134193   1.922   1.993   5.392 -1.6656  1.5545 -0.5397
 7578SOL    HW234194   2.007   1.916   5.302 -1.1884 -1.1533  0.3277
 7579SOL     OW34195   4.517   3.224   3.567  0.7448 -0.8655  0.2640
 7579SOL    HW134196   4.517   3.318   3.585 -0.1699 -0.2742 -2.7337
 7579SOL    HW234197   4.493   3.240   3.475  2.8757  0.0728 -0.1341
 7580SOL     OW34198   1.876   3.619   7.699 -0.2000  0.2247  0.6025
 7580SOL    HW134199   1.878   3.525   7.682 -0.9573  0.4871 -0.9981
 7580SOL    HW234200   1.956   3.653   7.659 -1.8077  0.7766 -2.1555
 7581SOL     OW34201   0.181   4.396   8.923 -0.6249 -0.4834 -0.2626
 7581SOL    HW134202   0.208   4.484   8.951 -3.2865  0.2616 -0.0886
 7581SOL    HW234203   0.119   4.427   8.857  0.1836 -0.2073 -0.8971
 7582SOL     OW34204   0.438   2.273  10.387  0.5023 -0.5723 -0.4304
 7582SOL    HW134205   0.519   2.319  10.364  0.2727  0.1403  0.2268
 7582SOL    HW234206   0.382   2.334  10.339  0.5399  1.6855  2.4498
 7583SOL     OW34207   2.853   1.001   4.410 -0.6305 -0.1263  0.2527
 7583SOL    HW134208   2.865   1.053   4.330  0.9617  2.7865  2.3934
 7583SOL    HW234209   2.758   0.986   4.402 -0.6552  1.3930 -2.1792
 7584SOL     OW34210   3.155   4.105  13.061 -0.2500  0.1016  0.1231
 7584SOL    HW134211   3.194   4.028  13.018 -1.3163  0.4555 -1.4837
 7584SOL    HW234212   3.062   4.085  13.048 -0.1438 -0.0549 -0.3874
 7585SOL     OW34213   0.632   0.857   4.042  0.0356  0.1278  0.0896
 7585SOL    HW134214   0.591   0.870   4.128 -1.4529 -1.8385 -0.3381
 7585SOL    HW234215   0.591   0.780   4.005 -0.5731  0.3607  0.2744
 7586SOL     OW34216   4.124   2.541   0.431 -0.4065 -0.0098 -0.1119
 7586SOL    HW134217   4.060   2.549   0.361 -0.7019 -1.7692 -0.0242
 7586SOL    HW234218   4.130   2.446   0.429 -1.2995 -0.0329 -1.9426
 7587SOL     OW34219   3.448   0.796  10.572  0.1173 -0.1070 -0.4244
 7587SOL    HW134220   3.417   0.772  10.484  0.3504 -1.0102 -0.2548
 7587SOL    HW234221   3.540   0.775  10.555 -0.1878 -0.7416 -1.3091
 7588SOL     OW34222   3.966   0.523   3.400  0.2931 -0.0238  0.0512
 7588SOL    HW134223   3.930   0.481   3.322 -0.5156 -1.5995  1.2683
 7588SOL    HW234224   4.059   0.499   3.398  0.1329 -0.5701 -1.0126
 7589SOL     OW34225   3.828   3.087   9.789 -0.0563 -0.1032 -0.2271
 7589SOL    HW134226   3.754   3.123   9.839 -0.0502 -0.1250 -0.2019
 7589SOL    HW234227   3.789   3.000   9.777  0.2606 -0.3394  0.4418
 7590SOL     OW34228   1.507   0.054   8.753  0.0858 -0.4351  0.3016
 7590SOL    HW134229   1.554   0.001   8.818 -0.8822 -0.1909  1.2104
 7590SOL    HW234230   1.524   0.139   8.794 -1.9784  0.6191 -1.0352
 7591SOL     OW34231   4.104   2.443   4.504  0.3276 -0.4680 -0.3164
 7591SOL    HW134232   4.122   2.486   4.421  1.6314  1.6077  1.0416
 7591SOL    HW234233   4.009   2.434   4.499  0.2663  0.5087 -0.7976
 7592SOL     OW34234   3.172   2.241  15.505 -0.1845  0.6203 -0.0158
 7592SOL    HW134235   3.224   2.319  15.484  1.1720 -0.2172  0.2371
 7592SOL    HW234236   3.173   2.238  15.601 -0.2092  0.1502 -0.0302
 7593SOL     OW34237   3.021   2.175   4.335 -0.2862  0.4932 -0.0218
 7593SOL    HW134238   3.021   2.223   4.418 -0.5947 -2.6280  1.7660
 7593SOL    HW234239   2.932   2.156   4.305  0.2148 -0.3332 -0.9893
 7594SOL     OW34240   0.602   0.558   8.409  0.2185  0.3009  0.4255
 7594SOL    HW134241   0.581   0.644   8.372  2.5898 -0.3591 -2.4389
 7594SOL    HW234242   0.647   0.513   8.338 -1.1579  0.2462 -0.4162
 7595SOL     OW34243   4.016   2.117   0.162 -0.6963  0.1414 -0.0905
 7595SOL    HW134244   4.085   2.177   0.135  1.2258 -0.6354  3.1597
 7595SOL    HW234245   4.055   2.030   0.162  0.9799  0.8656  3.4179
 7596SOL     OW34246   4.538   1.823   8.103 -0.2692  0.1430  0.2036
 7596SOL    HW134247   4.544   1.739   8.150 -1.1037 -0.0725 -0.0698
 7596SOL    HW234248   4.494   1.782   8.028 -0.8504 -0.8533  1.0905
 7597SOL     OW34249   3.784   2.256   9.210  0.1660  0.3167 -0.1697
 7597SOL    HW134250   3.769   2.341   9.168  0.2082  0.8468  0.8938
 7597SOL    HW234251   3.740   2.198   9.148 -1.5742 -0.1956  1.5542
 7598SOL     OW34252   4.005   2.584   9.029 -0.1342 -0.1163 -0.0056
 7598SOL    HW134253   4.076   2.521   9.033 -0.6334 -0.6753  0.1146
 7598SOL    HW234254   4.028   2.640   8.955  2.1690 -2.7437 -1.2903
 7599SOL     OW34255   0.828   1.748   9.966 -0.3312  0.0065 -0.0308
 7599SOL    HW134256   0.873   1.751   9.882  0.2681  0.2357  0.3031
 7599SOL    HW234257   0.742   1.778   9.935 -0.2835  0.3802  0.1852
 7600SOL     OW34258   1.845   3.188   9.644 -0.1264 -0.1808 -0.4495
 7600SOL    HW134259   1.910   3.241   9.690 -0.0408  0.9837 -1.8725
 7600SOL    HW234260   1.771   3.191   9.705  2.5162 -2.4827  2.8055
 7601SOL     OW34261   0.618   3.393  11.623  0.0052 -0.1578  0.4042
 7601SOL    HW134262   0.698   3.354  11.588 -0.4976 -1.9739  1.2971
 7601SOL    HW234263   0.548   3.350  11.574 -0.1560 -0.0044  0.5022
 7602SOL     OW34264   3.222   3.017  11.291 -0.3206 -0.1801 -0.4190
 7602SOL    HW134265   3.210   2.950  11.358  2.9846  1.0656  1.4239
 7602SOL    HW234266   3.195   3.099  11.332 -0.1736 -0.6996  0.7069
 7603SOL     OW34267   3.925   4.103   8.410  0.4436  0.4756  0.0504
 7603SOL    HW134268   3.870   4.048   8.354 -0.8697  0.1696  1.6692
 7603SOL    HW234269   4.006   4.101   8.358  0.0612 -0.4843 -0.5155
 7604SOL     OW34270   1.203   3.693   7.290  0.7219 -0.2932  0.6696
 7604SOL    HW134271   1.144   3.706   7.216  0.7770  1.2126  0.9004
 7604SOL    HW234272   1.193   3.602   7.319 -1.2898  0.3794  2.0317
 7605SOL     OW34273   0.989   0.585   8.857  0.3231 -0.4576 -0.0543
 7605SOL    HW134274   0.919   0.649   8.848  1.5763  0.9508  0.1577
 7605SOL    HW234275   1.050   0.638   8.908  0.6624 -0.8139 -0.0871
 7606SOL     OW34276   1.963   1.866   8.631 -0.1641 -0.2347 -0.0092
 7606SOL    HW134277   1.964   1.953   8.671  3.1519  0.1220 -0.8363
 7606SOL    HW234278   1.888   1.878   8.573 -0.3253 -0.3835  0.1716
 7607SOL     OW34279   1.585   2.083  16.156 -0.3315  0.2973 -0.3273
 7607SOL    HW134280   1.616   2.157  16.209  3.3306 -1.3156 -0.2365
 7607SOL    HW234281   1.490   2.086  16.161 -0.2725  0.1997  0.8703
 7608SOL     OW34282   4.656   0.888   4.262 -0.0962 -0.2954 -0.8316
 7608SOL    HW134283   4.568   0.923   4.276 -1.1459 -2.4277 -2.1199
 7608SOL    HW234284   4.670   0.860   4.353 -1.6389  1.1309 -0.1451
 7609SOL     OW34285   4.282   1.339   1.539 -0.3820 -0.2787 -0.0078
 7609SOL    HW134286   4.341   1.382   1.601 -3.3985  0.2241  2.4688
 7609SOL    HW234287   4.232   1.415   1.508  0.2706  0.4482  0.7056
 7610SOL     OW34288   0.699   2.460  13.755  0.1232  0.1139 -0.4958
 7610SOL    HW134289   0.697   2.365  13.762  0.6657  0.1080 -0.4175
 7610SOL    HW234290   0.780   2.496  13.793 -0.1037 -0.5049  0.5641
 7611SOL     OW34291   1.461   4.022  10.796  0.0664  0.3004  0.2264
 7611SOL    HW134292   1.391   4.079  10.765  0.6108  1.1006  0.4635
 7611SOL    HW234293   1.542   4.042  10.748 -0.6702  0.8399 -0.7789
 7612SOL     OW34294   3.846   4.031   8.905 -0.3838  0.3774  0.4755
 7612SOL    HW134295   3.780   3.971   8.873  1.6204 -1.4920 -0.1331
 7612SOL    HW234296   3.812   4.042   8.994  0.4482 -0.1444  0.8539
 7613SOL     OW34297   0.250   2.137  13.009 -0.4091 -0.2004 -0.7710
 7613SOL    HW134298   0.304   2.067  12.972 -0.5986 -1.1736  0.8364
 7613SOL    HW234299   0.196   2.152  12.931 -1.3888 -2.2012 -0.4759
 7614SOL     OW34300   3.769   3.435  15.791  0.1233  0.3128 -0.5487
 7614SOL    HW134301   3.685   3.436  15.746 -0.2485 -1.6268  0.0845
 7614SOL    HW234302   3.822   3.374  15.738  3.0785  1.7566  0.7645
 7615SOL     OW34303   0.923   2.813   3.230  0.0773  0.4541 -0.1273
 7615SOL    HW134304   0.919   2.902   3.193  0.9229  0.5679  0.0615
 7615SOL    HW234305   0.952   2.839   3.318  0.0276 -1.2650  0.3968
 7616SOL     OW34306   0.446   1.881   6.464 -0.1013 -0.0652  0.6367
 7616SOL    HW134307   0.509   1.911   6.398  0.5488  0.0354  1.3018
 7616SOL    HW234308   0.503   1.840   6.529  0.9383 -2.1349 -1.5879
 7617SOL     OW34309   4.430   2.217   0.614  0.1091 -0.2804  0.0189
 7617SOL    HW134310   4.450   2.277   0.686  1.1911 -0.1236 -0.4081
 7617SOL    HW234311   4.514   2.171   0.614  0.5547  0.5364 -0.4156
 7618SOL     OW34312   0.255   3.572   0.558  0.4521 -0.1722 -0.2866
 7618SOL    HW134313   0.161   3.582   0.547  0.3817  1.4941  1.8976
 7618SOL    HW234314   0.273   3.616   0.640 -1.4153 -1.3213  0.7468
 7619SOL     OW34315   3.058   4.541   7.282 -0.3054 -0.0942 -0.4671
 7619SOL    HW134316   3.038   4.616   7.225  0.4793 -0.5794 -1.3990
 7619SOL    HW234317   2.970   4.505   7.276 -1.0052  1.1653  2.3944
 7620SOL     OW34318   4.283   2.457   3.101  0.0386 -0.4374  0.4598
 7620SOL    HW134319   4.283   2.549   3.075  2.8354 -1.3830 -2.9726
 7620SOL    HW234320   4.306   2.457   3.194  0.0477  1.1087  0.4484
 7621SOL     OW34321   4.221   2.769  16.002 -0.0319 -0.5604  0.1488
 7621SOL    HW134322   4.159   2.739  15.935 -0.6208  1.1048 -0.0555
 7621SOL    HW234323   4.271   2.843  15.968 -1.4973 -0.3251 -1.4702
 7622SOL     OW34324   4.463   1.716   3.527  0.7250  0.2154 -0.6255
 7622SOL    HW134325   4.470   1.659   3.450  1.3404 -1.3807  0.6121
 7622SOL    HW234326   4.417   1.793   3.496  0.4974 -1.2844 -4.0114
 7623SOL     OW34327   1.485   3.297   5.689  0.0282  0.1126  0.3120
 7623SOL    HW134328   1.460   3.221   5.741  0.9059 -0.1131  0.4165
 7623SOL    HW234329   1.549   3.342   5.745  0.4022  1.3128 -1.0702
 7624SOL     OW34330   4.235   0.500   9.850  0.0737  0.5518 -0.5576
 7624SOL    HW134331   4.300   0.521   9.917  0.4815  0.5981 -0.9582
 7624SOL    HW234332   4.218   0.407   9.863  0.9502  0.5528  0.5501
 7625SOL     OW34333   0.996   1.103   6.568 -0.8301 -0.0552 -0.3868
 7625SOL    HW134334   0.929   1.036   6.584 -1.3007  0.5784  0.2552
 7625SOL    HW234335   1.026   1.089   6.478 -1.0982  0.5739 -0.5764
 7626SOL     OW34336   0.894   3.966  14.602 -0.6637  0.1083  0.3701
 7626SOL    HW134337   0.944   4.015  14.537 -1.2257 -0.0942 -0.2106
 7626SOL    HW234338   0.931   3.879  14.587  1.3002  1.3830 -2.1775
 7627SOL     OW34339   2.522   2.412   8.559  0.0047  0.3025 -0.1779
 7627SOL    HW134340   2.521   2.348   8.488 -2.3944  0.0630  0.0756
 7627SOL    HW234341   2.603   2.460   8.538  0.4468 -0.2225  0.3063
 7628SOL     OW34342   4.329   0.777   0.394 -0.0419 -0.2037  0.3433
 7628SOL    HW134343   4.409   0.830   0.396 -1.2309  1.6422 -0.5906
 7628SOL    HW234344   4.315   0.780   0.299  1.1969  0.6249  0.1817
 7629SOL     OW34345   2.883   1.716  16.609 -0.2901 -0.2586 -0.1521
 7629SOL    HW134346   2.975   1.735  16.625 -0.7073  2.5888 -1.1778
 7629SOL    HW234347   2.883   1.632  16.564  0.4516  0.1023 -0.8136
 7630SOL     OW34348   2.485   4.559   6.130 -0.1341 -0.0707 -0.2357
 7630SOL    HW134349   2.472   4.584   6.038 -4.2675 -1.7201 -0.0856
 7630SOL    HW234350   2.427   4.483   6.124 -2.0007  1.4528 -1.4085
 7631SOL     OW34351   0.801   1.270  16.278  0.1666 -0.2497  0.2387
 7631SOL    HW134352   0.757   1.191  16.246 -0.0068  1.2634 -3.2451
 7631SOL    HW234353   0.769   1.269  16.368  2.3723 -0.3332  1.0034
 7632SOL     OW34354   1.742   1.673   9.872 -0.3352  0.3208 -0.1222
 7632SOL    HW134355   1.683   1.745   9.896 -0.2384  0.2851  0.2299
 7632SOL    HW234356   1.693   1.594   9.852  1.7795 -1.2582  0.8666
 7633SOL     OW34357   1.325   2.006  16.109 -0.0642 -0.0032  0.2043
 7633SOL    HW134358   1.239   1.967  16.127  0.3358 -0.6736  0.6446
 7633SOL    HW234359   1.350   1.957  16.031  0.0400 -0.5626  0.5879
 7634SOL     OW34360   3.225   3.931  15.975 -0.2856  0.2149 -0.5188
 7634SOL    HW134361   3.299   3.987  15.952  0.4234 -1.0989 -1.4162
 7634SOL    HW234362   3.249   3.852  15.926 -1.1111 -0.5218  0.2784
 7635SOL     OW34363   2.681   2.037   8.650 -0.6232 -0.2445  0.0081
 7635SOL    HW134364   2.690   1.961   8.593  1.4388 -0.1344  0.1882
 7635SOL    HW234365   2.639   2.108   8.600  1.3513  0.4210 -0.7118
 7636SOL     OW34366   2.412   2.707   5.505 -0.5808  0.5966 -0.1734
 7636SOL    HW134367   2.323   2.682   5.481 -0.2457 -0.9886  0.2556
 7636SOL    HW234368   2.401   2.739   5.594  1.5272  1.0583 -0.0760
 7637SOL     OW34369   0.459   0.295   7.829  0.3266  0.5099  0.2644
 7637SOL    HW134370   0.539   0.322   7.874  1.0193  0.5504 -1.0095
 7637SOL    HW234371   0.394   0.346   7.877 -0.6562 -1.4758  1.0154
 7638SOL     OW34372   2.364   1.901   0.394 -0.1833  0.2188 -0.1774
 7638SOL    HW134373   2.323   1.870   0.313  1.2763 -0.0699 -0.7929
 7638SOL    HW234374   2.299   1.959   0.434 -1.8400 -0.9318 -1.2005
 7639SOL     OW34375   1.247   3.466   7.880 -0.2255  0.2284 -0.3152
 7639SOL    HW134376   1.288   3.419   7.808 -0.3744 -0.3953  0.0100
 7639SOL    HW234377   1.268   3.557   7.860  0.4064 -0.0367 -0.8725
 7640SOL     OW34378   4.524   3.845  15.599  0.1419 -0.2666 -0.4131
 7640SOL    HW134379   4.478   3.915  15.647  1.6903  1.7063 -1.7860
 7640SOL    HW234380   4.455   3.817  15.539 -0.4571 -0.5188  0.3869
 7641SOL     OW34381   2.751   2.145   4.263 -0.3005 -0.1430  0.2823
 7641SOL    HW134382   2.737   2.204   4.189  0.0036 -1.1477 -0.5670
 7641SOL    HW234383   2.746   2.067   4.209  1.2055  0.3658 -0.5909
 7642SOL     OW34384   2.895   1.533   5.777 -0.4992 -0.6112 -0.4505
 7642SOL    HW134385   2.875   1.588   5.701  0.2830  0.8976  0.4445
 7642SOL    HW234386   2.936   1.599   5.832 -1.2722 -1.0322  0.6197
 7643SOL     OW34387   1.371   4.208   9.383  0.5416 -0.0106  0.0434
 7643SOL    HW134388   1.327   4.184   9.302  0.5296 -0.8666  0.2991
 7643SOL    HW234389   1.349   4.141   9.448  1.6267  1.5038  1.9962
 7644SOL     OW34390   1.878   1.233   4.949  0.3653  0.0187 -0.2716
 7644SOL    HW134391   1.925   1.196   5.024  0.7479 -0.1877 -0.6093
 7644SOL    HW234392   1.947   1.280   4.902  2.8414 -1.8371  1.5300
 7645SOL     OW34393   1.724   3.984   2.224 -0.0964  0.2248  0.7698
 7645SOL    HW134394   1.782   4.045   2.179  0.2979 -0.3283  0.5334
 7645SOL    HW234395   1.750   3.897   2.195 -0.9322  0.0181  0.6358
 7646SOL     OW34396   2.458   3.560   2.305 -0.1174 -0.5960 -0.0097
 7646SOL    HW134397   2.543   3.576   2.263  0.4828 -0.0625  1.4406
 7646SOL    HW234398   2.422   3.514   2.229  0.5158 -1.2725  0.0959
 7647SOL     OW34399   4.388   0.608   8.550 -0.1530  0.6123 -0.0955
 7647SOL    HW134400   4.405   0.513   8.548  1.3132  0.8792 -0.7236
 7647SOL    HW234401   4.306   0.605   8.599  0.0587  1.6760  0.3109
 7648SOL     OW34402   4.222   3.550   6.573 -0.3365  0.3157 -0.6113
 7648SOL    HW134403   4.318   3.549   6.563 -0.4201 -2.2827 -1.0412
 7648SOL    HW234404   4.205   3.538   6.479  1.1072 -1.4830 -0.6317
 7649SOL     OW34405   2.006   2.271  10.703  0.5328  0.3001  0.4281
 7649SOL    HW134406   1.928   2.300  10.751  1.5723  3.5198  0.1074
 7649SOL    HW234407   2.041   2.356  10.677 -0.7375  1.6689  3.1627
 7650SOL     OW34408   1.852   1.994   1.563  0.9753  0.5070  0.3179
 7650SOL    HW134409   1.829   2.025   1.651  1.0456  1.6105 -0.0462
 7650SOL    HW234410   1.766   1.985   1.523  1.3034  0.0236 -0.2837
 7651SOL     OW34411   3.914   4.399   9.551 -0.5032  0.1148 -0.6197
 7651SOL    HW134412   3.863   4.404   9.632 -1.2597  0.4875 -1.1179
 7651SOL    HW234413   3.840   4.392   9.491  1.0169  0.8173 -2.5958
 7652SOL     OW34414   2.589   1.352   8.547  0.0052 -0.3792 -0.2550
 7652SOL    HW134415   2.628   1.265   8.551 -1.3659 -0.9966 -0.2105
 7652SOL    HW234416   2.595   1.355   8.451  0.8756 -1.8744 -0.2508
 7653SOL     OW34417   2.727   1.792  16.357  0.4062 -0.1308  0.2223
 7653SOL    HW134418   2.766   1.772  16.442 -1.6216 -1.0818  0.9358
 7653SOL    HW234419   2.643   1.745  16.360  1.0579 -1.1513  2.8555
 7654SOL     OW34420   4.433   0.766   1.165 -0.2761 -0.0985 -0.5817
 7654SOL    HW134421   4.442   0.861   1.170  0.4925 -0.1968  0.0381
 7654SOL    HW234422   4.397   0.747   1.252  2.0086  0.5230  0.5275
 7655SOL     OW34423   4.400   0.159   7.539 -0.5048  0.1022 -0.1408
 7655SOL    HW134424   4.441   0.192   7.619  2.6206 -0.7614 -1.3830
 7655SOL    HW234425   4.394   0.068   7.570  0.0072 -0.9154 -3.0529
 7656SOL     OW34426   4.561   4.410   1.906 -0.1443 -0.0088 -0.0637
 7656SOL    HW134427   4.506   4.348   1.858  1.3598  1.4883 -3.7237
 7656SOL    HW234428   4.623   4.440   1.840 -0.8838  1.2565 -0.1927
 7657SOL     OW34429   1.589   3.939   8.852 -0.1781  0.0678  0.3466
 7657SOL    HW134430   1.668   3.982   8.820  0.1302 -1.8598 -1.4704
 7657SOL    HW234431   1.586   3.969   8.943  1.1966  1.0830  0.0579
 7658SOL     OW34432   2.504   1.577  16.742  0.1635  0.1863 -0.1326
 7658SOL    HW134433   2.492   1.658  16.792 -2.9810 -0.7533  0.6103
 7658SOL    HW234434   2.448   1.591  16.665 -2.0217 -1.1204  1.2479
 7659SOL     OW34435   3.564   0.366   8.838  0.6602  0.7066 -0.5742
 7659SOL    HW134436   3.622   0.437   8.863  0.1178  0.0947  2.4528
 7659SOL    HW234437   3.624   0.292   8.837  0.3656  0.4673 -0.8428
 7660SOL     OW34438   3.648   3.671  14.065 -0.2025  0.0029  0.0584
 7660SOL    HW134439   3.717   3.631  14.117 -1.7920 -0.6137  1.6845
 7660SOL    HW234440   3.598   3.589  14.061 -0.4638  0.3443 -3.8768
 7661SOL     OW34441   2.082   1.996  16.886  0.3742 -0.2478  0.1147
 7661SOL    HW134442   2.091   1.903  16.907  2.5521 -0.4146 -1.4361
 7661SOL    HW234443   2.072   2.031  16.974  1.1955  0.4155 -0.0563
 7662SOL     OW34444   1.085   1.720   4.418 -0.3657  0.6808  0.0640
 7662SOL    HW134445   1.158   1.721   4.356  1.0442  0.5505  1.7104
 7662SOL    HW234446   1.092   1.802   4.468 -0.6597  0.3941  0.5781
 7663SOL     OW34447   2.499   3.180   8.758  0.8009 -0.6989  0.3308
 7663SOL    HW134448   2.556   3.129   8.815 -2.7842 -0.6399  3.9815
 7663SOL    HW234449   2.434   3.118   8.727  1.3555 -1.5597  0.8726
 7664SOL     OW34450   0.053   4.491   4.893  0.1763  0.1620 -0.4318
 7664SOL    HW134451   0.102   4.571   4.877 -1.0458  1.2596  1.3521
 7664SOL    HW234452   0.091   4.466   4.977 -3.1889  1.1437  1.3882
 7665SOL     OW34453   3.476   4.188  15.467  0.5937 -0.0344  0.2491
 7665SOL    HW134454   3.459   4.254  15.533  0.0001 -0.1901  0.2533
 7665SOL    HW234455   3.571   4.191  15.453  0.8907  1.4224  2.6719
 7666SOL     OW34456   0.570   3.090  16.632 -0.3448 -0.4482 -0.2116
 7666SOL    HW134457   0.531   3.143  16.701 -0.2067 -0.3881 -0.1797
 7666SOL    HW234458   0.535   3.005  16.659 -0.2530 -0.0704  1.0840
 7667SOL     OW34459   0.168   3.364   0.324 -0.3562 -0.0463  0.6578
 7667SOL    HW134460   0.171   3.294   0.259 -1.8947 -0.9199  1.5239
 7667SOL    HW234461   0.166   3.323   0.410 -1.9493 -0.5436  0.3793
 7668SOL     OW34462   4.093   3.799   8.224 -0.0975 -0.1087  0.6137
 7668SOL    HW134463   4.032   3.765   8.289  1.2383 -0.1545  1.8612
 7668SOL    HW234464   4.138   3.720   8.197 -1.6334 -0.7915  0.0926
 7669SOL     OW34465   4.282   3.408   5.236  0.1510  0.4070  0.0260
 7669SOL    HW134466   4.190   3.398   5.263  0.0491  0.7510 -0.1922
 7669SOL    HW234467   4.295   3.501   5.218  0.3879  0.5829  1.1106
 7670SOL     OW34468   3.709   3.265  14.220 -0.3861  0.1337  0.4410
 7670SOL    HW134469   3.706   3.252  14.315  0.4824  0.9328  0.5742
 7670SOL    HW234470   3.652   3.197  14.184  0.1453 -0.2944  0.3939
 7671SOL     OW34471   3.481   1.436   6.927 -0.2401 -0.7468 -0.8589
 7671SOL    HW134472   3.517   1.370   6.868 -0.1000 -1.1548 -0.3246
 7671SOL    HW234473   3.466   1.395   7.013 -0.6886  1.2638  0.0164
 7672SOL     OW34474   0.478   3.002   4.910  0.3079 -0.2748 -0.0375
 7672SOL    HW134475   0.524   3.066   4.964  2.9221 -0.0562 -2.5227
 7672SOL    HW234476   0.421   3.068   4.871  1.2230  0.3759 -0.2840
 7673SOL     OW34477   4.512   4.206   4.791 -0.6466  0.4577  0.2837
 7673SOL    HW134478   4.501   4.121   4.749 -1.2188  0.7603 -0.1779
 7673SOL    HW234479   4.549   4.257   4.719  0.3294  0.1907  0.5920
 7674SOL     OW34480   3.615   1.548   4.847  0.0611  0.1905 -0.2383
 7674SOL    HW134481   3.611   1.548   4.943  2.3286  2.0651 -0.1372
 7674SOL    HW234482   3.684   1.484   4.832  0.4409  0.2609  1.2291
 7675SOL     OW34483   4.181   1.097   9.597  0.1486  0.0834  0.1508
 7675SOL    HW134484   4.104   1.068   9.548 -0.8361  0.5157  1.4458
 7675SOL    HW234485   4.175   1.192   9.589 -0.6148  0.0448  0.1991
 7676SOL     OW34486   0.750   2.358   4.713  0.0950  0.4741 -0.1492
 7676SOL    HW134487   0.657   2.381   4.711  0.3938  1.5959 -1.1731
 7676SOL    HW234488   0.795   2.439   4.740 -0.3157  0.5996  0.1567
 7677SOL     OW34489   2.705   0.490   6.418 -0.1201 -0.2014  0.3081
 7677SOL    HW134490   2.763   0.561   6.446  0.3250  0.5707 -2.6489
 7677SOL    HW234491   2.746   0.461   6.337 -0.6516  0.4941 -0.1978
 7678SOL     OW34492   4.102   1.251   8.219  0.2673  0.1621 -0.1604
 7678SOL    HW134493   4.012   1.218   8.218  0.4336 -0.2684 -0.6772
 7678SOL    HW234494   4.132   1.234   8.308  0.7823  1.1041 -0.1475
 7679SOL     OW34495   2.030   2.514   6.217  0.6682 -0.1564 -0.3439
 7679SOL    HW134496   1.969   2.504   6.144  0.9697  1.7308 -0.8798
 7679SOL    HW234497   2.032   2.425   6.252  0.3169  0.0220  0.1336
 7680SOL     OW34498   3.189   4.649  14.134  0.0731  0.2016  0.2890
 7680SOL    HW134499   3.150   4.563  14.146  1.0071 -0.3927 -0.8787
 7680SOL    HW234500   3.173   4.689  14.219 -0.1143 -1.2448  0.9301
 7681SOL     OW34501   2.899   4.049   4.915 -0.5247 -0.1468  0.1197
 7681SOL    HW134502   2.810   4.065   4.884 -1.1792 -2.3335  0.8213
 7681SOL    HW234503   2.924   4.116   4.978 -0.7187 -1.0729  1.1965
 7682SOL     OW34504   3.250   0.900  17.541 -0.7997  0.1452  0.5653
 7682SOL    HW134505   3.161   0.898  17.506 -1.4455  3.1503  2.0313
 7682SOL    HW234506   3.240   0.939  17.628  2.6936 -1.6275  1.7868
 7683SOL     OW34507   4.279   3.725  17.663 -0.3598  0.0286  0.0012
 7683SOL    HW134508   4.204   3.741  17.607 -0.0025  0.9263 -0.2179
 7683SOL    HW234509   4.323   3.655  17.615  0.9776  0.6227  0.3390
 7684SOL     OW34510   2.411   3.382   3.825 -0.4688  0.0104 -0.0835
 7684SOL    HW134511   2.457   3.315   3.775 -0.1021 -0.9990  1.5943
 7684SOL    HW234512   2.464   3.453   3.792  0.0668  0.3223  1.4431
 7685SOL     OW34513   0.063   4.030   3.255  0.3490  0.7425 -0.1711
 7685SOL    HW134514   4.723   3.959   3.243  0.5542  0.3589  1.0877
 7685SOL    HW234515   0.020   4.081   3.323 -0.4735 -1.9320  1.2933
 7686SOL     OW34516   2.796   2.791   2.262 -0.3216  0.3170 -0.1179
 7686SOL    HW134517   2.860   2.856   2.292 -0.0502 -0.4359  0.9411
 7686SOL    HW234518   2.831   2.710   2.300 -2.9503 -1.6823 -1.9283
 7687SOL     OW34519   4.584   3.032   2.504  0.0389  0.2009  0.1027
 7687SOL    HW134520   4.540   2.947   2.504 -1.3456  0.9217 -0.1038
 7687SOL    HW234521   4.539   3.076   2.431  0.4933 -1.7765 -1.3742
 7688SOL     OW34522   4.306   3.989   4.898 -0.4057  0.2292  0.2126
 7688SOL    HW134523   4.215   3.965   4.878  0.3227 -1.1288 -1.4447
 7688SOL    HW234524   4.319   4.082   4.880 -1.3768  0.2903 -0.1761
 7689SOL     OW34525   3.471   0.386  15.910  0.0233 -0.2590 -0.8635
 7689SOL    HW134526   3.482   0.447  15.837  3.1931 -0.3669 -0.4794
 7689SOL    HW234527   3.394   0.423  15.953  0.2405 -1.8202  0.8557
 7690SOL     OW34528   0.001   3.822   3.701  0.1495 -0.6552 -0.0474
 7690SOL    HW134529   0.064   3.892   3.720  0.3920 -0.8058 -0.2994
 7690SOL    HW234530   4.643   3.859   3.737 -1.0922 -1.7592 -1.7350
 7691SOL     OW34531   2.510   0.499   5.245  0.5615  0.2493 -0.4248
 7691SOL    HW134532   2.598   0.470   5.271  1.0897  0.3817 -2.0813
 7691SOL    HW234533   2.512   0.595   5.248 -0.5379  0.2279  1.1621
 7692SOL     OW34534   0.606   4.564   6.753 -0.0084  0.0287 -0.2413
 7692SOL    HW134535   0.540   4.538   6.689  1.1061 -0.7671 -1.0943
 7692SOL    HW234536   0.635   4.641   6.703  1.2039 -0.0090  0.4024
 7693SOL     OW34537   3.257   3.269   6.750  0.0206  0.1065  0.3241
 7693SOL    HW134538   3.266   3.194   6.691  0.4462  1.2654 -1.0751
 7693SOL    HW234539   3.294   3.340   6.698  0.6528 -0.7526 -0.3844
 7694SOL     OW34540   2.117   2.165  12.669 -0.5855  0.1937  0.0654
 7694SOL    HW134541   2.108   2.251  12.711 -0.2811  0.4187 -0.3342
 7694SOL    HW234542   2.156   2.200  12.589 -3.2014  0.4318 -1.1272
 7695SOL     OW34543   0.941   0.856   6.613 -0.1841 -0.2637 -1.1056
 7695SOL    HW134544   0.964   0.822   6.699  1.1152 -1.0063 -1.7435
 7695SOL    HW234545   0.954   0.777   6.561  2.0363 -2.2934  2.5863
 7696SOL     OW34546   0.964   3.676   6.403  0.1012  0.6329 -0.1875
 7696SOL    HW134547   1.028   3.680   6.332  0.4272 -0.6002  0.0340
 7696SOL    HW234548   1.004   3.715   6.481  1.1115  0.6845 -0.7187
 7697SOL     OW34549   2.441   1.285  10.898 -0.7666  0.4788  0.2260
 7697SOL    HW134550   2.405   1.331  10.822  0.1260 -1.9831 -1.6866
 7697SOL    HW234551   2.530   1.266  10.867 -1.4419  0.1440 -1.4933
 7698SOL     OW34552   1.253   1.479   1.078  0.3492 -0.1782  0.3082
 7698SOL    HW134553   1.321   1.545   1.094  1.2233 -0.7116 -1.1986
 7698SOL    HW234554   1.212   1.466   1.163 -0.3015 -0.3585 -0.0366
 7699SOL     OW34555   1.820   4.201   1.962 -0.1197  0.0925 -0.0968
 7699SOL    HW134556   1.835   4.273   1.900 -0.2175  1.8926  1.9622
 7699SOL    HW234557   1.817   4.255   2.041 -0.0810 -0.9198  0.5862
 7700SOL     OW34558   1.838   4.528   1.248 -0.3565 -0.4479  0.3555
 7700SOL    HW134559   1.834   4.606   1.194 -0.6285  0.1736  1.2769
 7700SOL    HW234560   1.868   4.464   1.183  1.6503  2.3159 -1.4343
 7701SOL     OW34561   1.653   4.152  10.602  0.3564  0.0323 -0.0569
 7701SOL    HW134562   1.739   4.115  10.618  2.0561  3.7879 -0.5231
 7701SOL    HW234563   1.648   4.224  10.665 -0.9686  0.8419 -1.0788
 7702SOL     OW34564   0.324   0.718   6.879  0.2917 -0.1807  0.2269
 7702SOL    HW134565   0.323   0.774   6.801 -1.0567  1.0188  1.1043
 7702SOL    HW234566   0.258   0.768   6.928  1.6283  1.3789  0.4292
 7703SOL     OW34567   3.374   2.494   7.343  0.1937 -0.1124  0.3757
 7703SOL    HW134568   3.324   2.567   7.307 -2.0484 -2.9921 -2.2440
 7703SOL    HW234569   3.390   2.522   7.434  0.7570  1.0388 -0.0713
 7704SOL     OW34570   0.799   0.353   6.537 -0.3442 -0.1878 -0.5078
 7704SOL    HW134571   0.821   0.439   6.501 -1.3415 -0.7226 -2.3651
 7704SOL    HW234572   0.757   0.392   6.614  2.0371  0.5023  0.4488
 7705SOL     OW34573   2.107   4.178   6.901  0.0528 -0.2373 -0.4315
 7705SOL    HW134574   2.181   4.156   6.959  0.0522 -0.6562 -0.5895
 7705SOL    HW234575   2.075   4.089   6.888 -0.1899 -0.6471  2.8407
 7706SOL     OW34576   4.141   2.249   4.690 -0.2784 -0.5574  0.2874
 7706SOL    HW134577   4.116   2.329   4.643  0.1324 -1.1747 -0.9832
 7706SOL    HW234578   4.152   2.190   4.615  0.7368 -0.9380  0.7426
 7707SOL     OW34579   0.783   3.986   3.176 -0.0318  0.2845 -0.1546
 7707SOL    HW134580   0.708   4.038   3.149 -1.1923 -1.1297  0.3731
 7707SOL    HW234581   0.746   3.898   3.180 -0.5962  0.6006  1.4544
 7708SOL     OW34582   1.667   1.763   4.212 -0.2177 -0.0755 -0.4052
 7708SOL    HW134583   1.755   1.728   4.218 -0.3984 -0.4014  0.3882
 7708SOL    HW234584   1.648   1.789   4.302 -0.0405  0.6800 -0.5891
 7709SOL     OW34585   4.651   1.774  10.426 -0.1907  0.1729  0.2524
 7709SOL    HW134586   4.715   1.742  10.362  0.8409 -0.0144  1.3687
 7709SOL    HW234587   4.691   1.860  10.442  1.2638 -0.0509 -2.0463
 7710SOL     OW34588   0.421   1.875   5.153  0.3993 -0.6291 -0.1059
 7710SOL    HW134589   0.495   1.935   5.144  1.3646 -1.6396  0.9587
 7710SOL    HW234590   0.382   1.892   5.067  0.0756 -1.7895 -0.1945
 7711SOL     OW34591   1.525   3.163   2.897 -0.4806 -0.1145  0.2682
 7711SOL    HW134592   1.453   3.161   2.834  1.7400 -0.2757 -2.2815
 7711SOL    HW234593   1.552   3.254   2.890  1.0407 -0.5806  0.0086
 7712SOL     OW34594   1.034   1.723   2.397  0.0846  0.3672  0.2059
 7712SOL    HW134595   1.068   1.670   2.325  1.4570 -1.0399  1.8861
 7712SOL    HW234596   0.978   1.653   2.432  0.2110 -0.5789 -1.4370
 7713SOL     OW34597   4.154   0.224   4.717 -0.4376  0.4054  0.3063
 7713SOL    HW134598   4.173   0.153   4.656  0.3512  1.6083 -0.8475
 7713SOL    HW234599   4.101   0.280   4.659 -1.0938 -1.2611 -0.7125
 7714SOL     OW34600   3.452   3.963   9.012  0.7332  0.2746  0.6646
 7714SOL    HW134601   3.459   4.050   8.973 -1.3663  0.8518  1.5610
 7714SOL    HW234602   3.523   3.913   8.973 -0.7030 -1.0639 -0.2611
 7715SOL     OW34603   2.884   3.168   4.601  0.5930  0.7188 -0.1084
 7715SOL    HW134604   2.846   3.174   4.514 -0.3025 -1.4580  0.1398
 7715SOL    HW234605   2.826   3.108   4.647  0.7199  2.3491  2.1850
 7716SOL     OW34606   0.182   3.402   6.946  0.3553 -0.6229  0.3409
 7716SOL    HW134607   0.262   3.362   6.980  1.1808  0.4426 -0.3291
 7716SOL    HW234608   0.185   3.386   6.851  0.4649  3.1066 -0.2742
 7717SOL     OW34609   1.754   3.006   8.853 -0.3154  0.4506 -0.5506
 7717SOL    HW134610   1.779   2.966   8.770  0.4746 -0.0883 -0.0507
 7717SOL    HW234611   1.816   3.078   8.844  0.9708 -1.0693 -3.5164
 7718SOL     OW34612   0.190   1.664   8.913  0.6861  0.3694  0.3657
 7718SOL    HW134613   0.100   1.640   8.935  2.1055 -4.1998  1.2784
 7718SOL    HW234614   0.209   1.599   8.845 -0.3660 -0.3710  0.7820
 7719SOL     OW34615   4.478   1.845   8.672  0.3444  0.3344  0.2087
 7719SOL    HW134616   4.430   1.927   8.661  0.1243 -0.4179 -4.2616
 7719SOL    HW234617   4.512   1.870   8.758 -0.4970  0.4397  0.5086
 7720SOL     OW34618   3.772   3.760  16.251 -0.5448 -0.4161  0.2282
 7720SOL    HW134619   3.860   3.725  16.232  0.0487  2.2598 -2.0519
 7720SOL    HW234620   3.765   3.789  16.160 -0.3993  1.7845  0.9054
 7721SOL     OW34621   2.846   4.375   6.658  0.7711  0.8831 -0.8699
 7721SOL    HW134622   2.836   4.347   6.568  1.6980  0.9337 -0.9915
 7721SOL    HW234623   2.772   4.435   6.660 -0.1028 -0.1749 -1.2931
 7722SOL     OW34624   0.860   0.058   0.244  0.0914 -0.5644  0.3493
 7722SOL    HW134625   0.914   0.137   0.245 -3.1029  1.6329 -3.7403
 7722SOL    HW234626   0.795   0.083   0.309  0.3511 -1.2167  0.8551
 7723SOL     OW34627   3.638   2.519   8.171  0.1763 -0.1262 -0.3147
 7723SOL    HW134628   3.669   2.429   8.166 -1.6355 -0.7683  0.4175
 7723SOL    HW234629   3.672   2.553   8.088  1.3083 -1.4253 -0.3892
 7724SOL     OW34630   4.168   4.224   5.222  0.3526 -0.2201  0.8512
 7724SOL    HW134631   4.080   4.262   5.215  0.1688 -0.6102  1.0061
 7724SOL    HW234632   4.178   4.208   5.128 -0.0877 -1.9755  1.0957
 7725SOL     OW34633   2.675   4.256   4.838 -0.0082 -0.0708 -0.2913
 7725SOL    HW134634   2.632   4.302   4.910  2.0227 -0.1083  0.9473
 7725SOL    HW234635   2.606   4.253   4.772 -0.3437 -0.2309  0.0689
 7726SOL     OW34636   1.053   1.502   1.596 -0.2053 -0.4358  0.3175
 7726SOL    HW134637   0.998   1.581   1.590 -0.3742 -0.5409  0.4645
 7726SOL    HW234638   0.986   1.441   1.627 -0.4812 -0.5013 -0.4109
 7727SOL     OW34639   4.214   2.053  14.927  0.4550 -0.3347 -0.1548
 7727SOL    HW134640   4.282   2.083  14.866  0.1783 -0.7811 -0.6818
 7727SOL    HW234641   4.267   2.005  14.990  0.9737 -1.5389 -1.5062
 7728SOL     OW34642   2.068   2.013   0.778 -0.2111 -0.4789  0.2104
 7728SOL    HW134643   2.042   2.020   0.686 -0.5681  0.4815  0.3847
 7728SOL    HW234644   2.151   2.059   0.773 -0.9227  0.9194  1.3185
 7729SOL     OW34645   4.412   1.583   6.654  0.7504 -0.0088  0.3078
 7729SOL    HW134646   4.330   1.631   6.653  0.7741  0.0357  0.5582
 7729SOL    HW234647   4.450   1.596   6.567  0.1075 -0.7870 -0.0870
 7730SOL     OW34648   3.027   2.313   9.270  0.4223 -0.0751  0.0899
 7730SOL    HW134649   3.093   2.244   9.278 -0.7017 -1.2564 -0.8694
 7730SOL    HW234650   2.948   2.273   9.234  0.4463  0.1959 -0.2594
 7731SOL     OW34651   0.534   1.631   1.959  0.8415 -0.1650  0.0570
 7731SOL    HW134652   0.593   1.582   2.016 -0.3820 -0.4651  1.0813
 7731SOL    HW234653   0.508   1.696   2.025 -1.4287 -0.9053 -0.0973
 7732SOL     OW34654   4.202   0.682  15.703 -0.1097  1.0824 -0.7853
 7732SOL    HW134655   4.287   0.697  15.662  1.3633  0.9184  2.2213
 7732SOL    HW234656   4.218   0.649  15.791 -3.4495  0.8542 -0.2668
 7733SOL     OW34657   0.832   0.162   4.523 -0.3616 -0.5579 -0.2974
 7733SOL    HW134658   0.883   0.235   4.558  0.8473 -2.0367  1.0113
 7733SOL    HW234659   0.880   0.119   4.453 -0.4565 -2.0070  0.5357
 7734SOL     OW34660   4.500   3.738   6.692  0.1073 -0.1852  0.6724
 7734SOL    HW134661   4.550   3.775   6.619  0.1941  0.6026  1.1323
 7734SOL    HW234662   4.415   3.779   6.683  0.3122 -0.7741 -3.5916
 7735SOL     OW34663   1.863   0.264   3.068  1.1183 -0.1463  0.1544
 7735SOL    HW134664   1.802   0.316   3.016  1.5988  0.2294 -0.0387
 7735SOL    HW234665   1.811   0.184   3.068  0.8775  0.0087  0.3205
 7736SOL     OW34666   3.995   3.067   8.096  0.6814  0.4531  0.9677
 7736SOL    HW134667   4.057   3.124   8.141  0.4727  0.8668  0.7224
 7736SOL    HW234668   3.915   3.058   8.148  0.1974 -1.7661 -0.1622
 7737SOL     OW34669   1.991   3.986   4.546 -0.0695 -0.0061 -0.1035
 7737SOL    HW134670   1.992   3.959   4.454 -1.2660  0.6145 -0.2993
 7737SOL    HW234671   1.940   3.912   4.577  0.9388 -0.3108  0.8185
 7738SOL     OW34672   4.453   1.530   8.716  0.6740  0.4793  0.1662
 7738SOL    HW134673   4.435   1.569   8.802 -0.0218  0.8869 -0.1623
 7738SOL    HW234674   4.468   1.438   8.736  2.3318  0.7516  0.1690
 7739SOL     OW34675   0.731   0.993   1.957  0.0894  0.1971  0.2105
 7739SOL    HW134676   0.644   0.956   1.973  0.0951  1.2154  2.5242
 7739SOL    HW234677   0.757   0.931   1.888 -0.9884  1.4382 -1.3294
 7740SOL     OW34678   0.895   0.610   5.179  0.2216  0.3625 -0.5078
 7740SOL    HW134679   0.862   0.591   5.091 -0.3486 -0.2572 -0.1606
 7740SOL    HW234680   0.978   0.656   5.164  0.9643 -0.2704  1.7207
 7741SOL     OW34681   1.989   3.515  16.278 -0.1858  0.2681  0.1588
 7741SOL    HW134682   2.082   3.532  16.293  0.0768 -0.9856 -0.0217
 7741SOL    HW234683   1.976   3.543  16.188 -0.8316 -0.6451 -0.0376
 7742SOL     OW34684   1.224   1.827  15.670  0.0157  0.0767  0.3137
 7742SOL    HW134685   1.235   1.897  15.734 -2.1852 -0.3571  1.1668
 7742SOL    HW234686   1.305   1.837  15.620  0.0242  0.2420  0.3585
 7743SOL     OW34687   0.160   2.916   7.280  0.3572 -0.3521  0.1089
 7743SOL    HW134688   0.177   2.956   7.194 -0.3634 -4.8928 -2.1741
 7743SOL    HW234689   0.183   2.824   7.268  2.2143 -0.3254  3.7799
 7744SOL     OW34690   4.570   0.793   5.680 -0.7123  0.0498 -0.5628
 7744SOL    HW134691   4.511   0.868   5.675  0.9500  1.5597  2.0289
 7744SOL    HW234692   4.562   0.764   5.589 -2.1644  0.6241 -0.6068
 7745SOL     OW34693   1.426   2.048   5.587  0.2423 -0.2321  0.1153
 7745SOL    HW134694   1.423   1.980   5.519 -0.0546 -1.2633  1.1660
 7745SOL    HW234695   1.474   1.995   5.650 -0.0683 -0.1339  0.4295
 7746SOL     OW34696   3.671   0.497  13.515 -0.2724 -0.4579  0.1498
 7746SOL    HW134697   3.650   0.515  13.423  1.2001 -1.2129 -0.3409
 7746SOL    HW234698   3.586   0.462  13.538 -0.8394  0.6081 -0.3034
 7747SOL     OW34699   3.808   1.440  10.554 -0.7147 -0.3123  0.6427
 7747SOL    HW134700   3.782   1.370  10.614  0.6593 -1.4094 -0.0400
 7747SOL    HW234701   3.860   1.494  10.614 -0.3943 -2.2995  2.1472
 7748SOL     OW34702   2.347   3.725  17.192 -0.3307  0.5436 -0.4209
 7748SOL    HW134703   2.268   3.755  17.147 -1.0186 -3.3388 -1.7823
 7748SOL    HW234704   2.414   3.777  17.148  0.2032  0.4150  0.2370
 7749SOL     OW34705   0.219   0.388   8.243 -0.1759 -0.3778  0.6602
 7749SOL    HW134706   0.125   0.389   8.262 -0.2610 -2.0461  0.3076
 7749SOL    HW234707   0.234   0.477   8.277 -1.9383  1.2350 -2.7716
 7750SOL     OW34708   3.753   2.534   4.850  0.3628  0.1560 -0.8301
 7750SOL    HW134709   3.684   2.533   4.784 -0.7934  2.1742  0.3599
 7750SOL    HW234710   3.769   2.439   4.852 -3.4658 -0.4658 -0.0749
 7751SOL     OW34711   0.204   0.733   6.362  0.2728  0.2351 -0.4904
 7751SOL    HW134712   0.126   0.760   6.411  0.0074 -1.0964 -0.2047
 7751SOL    HW234713   0.175   0.747   6.272  0.2172 -0.3746 -0.5673
 7752SOL     OW34714   0.847   0.022   4.777  0.6590 -0.3186 -0.5456
 7752SOL    HW134715   0.852   4.653   4.800 -0.1214 -0.4595 -0.9546
 7752SOL    HW234716   0.844   0.017   4.682  2.2639 -0.4070 -0.5977
 7753SOL     OW34717   3.657   0.158   1.949  0.0583  0.3168  0.5619
 7753SOL    HW134718   3.704   0.105   2.013 -1.0993 -0.7504  0.5251
 7753SOL    HW234719   3.712   0.236   1.942 -0.4915  0.6564 -0.0286
 7754SOL     OW34720   2.192   0.556   3.290 -0.1854  0.6198 -0.1763
 7754SOL    HW134721   2.132   0.486   3.267 -0.9391  0.3442  2.5473
 7754SOL    HW234722   2.280   0.523   3.270 -1.8502 -2.7893 -1.7749
 7755SOL     OW34723   0.781   0.092  17.046 -0.5058  0.2835  0.0047
 7755SOL    HW134724   0.743   0.004  17.051  3.2092 -1.5048 -2.6119
 7755SOL    HW234725   0.806   0.090  16.953 -0.0031 -0.1171  0.1440
 7756SOL     OW34726   2.755   3.454   5.592  0.5727  0.6715  0.4809
 7756SOL    HW134727   2.792   3.542   5.600  0.3013  0.7889  0.4438
 7756SOL    HW234728   2.827   3.396   5.568 -0.4700 -1.0013  1.3790
 7757SOL     OW34729   3.223   0.488   3.694 -0.3258 -0.4163 -0.4577
 7757SOL    HW134730   3.253   0.417   3.750  0.9495  1.3094  1.0072
 7757SOL    HW234731   3.289   0.557   3.700 -0.8139  0.0738 -0.7248
 7758SOL     OW34732   3.962   2.920  16.906  0.0508  0.2540  0.1538
 7758SOL    HW134733   3.987   2.998  16.956 -1.3777  2.4920 -2.5875
 7758SOL    HW234734   3.889   2.957  16.855 -0.0150  0.6621  0.5458
 7759SOL     OW34735   1.394   0.298  17.085 -0.0042 -0.4404 -0.1529
 7759SOL    HW134736   1.313   0.248  17.090 -0.4188  0.3161  0.5592
 7759SOL    HW234737   1.405   0.312  16.991  0.0446  0.0319 -0.0758
 7760SOL     OW34738   4.049   0.193   9.732  0.2125 -0.0224 -0.1697
 7760SOL    HW134739   4.008   0.114   9.767 -1.4788  1.3843  1.0443
 7760SOL    HW234740   4.139   0.179   9.760  0.4912  1.5821 -0.2876
 7761SOL     OW34741   0.620   0.021   4.064  0.1385 -0.8004  1.2008
 7761SOL    HW134742   0.593   0.111   4.077 -1.4500 -0.9458 -1.1408
 7761SOL    HW234743   0.536   4.703   4.043  1.4153 -3.2069  0.8810
 7762SOL     OW34744   4.322   2.406  14.289  0.2397 -0.5282  0.0894
 7762SOL    HW134745   4.366   2.330  14.252 -1.3378 -0.9724 -0.8867
 7762SOL    HW234746   4.242   2.401  14.236  1.1986  0.2674 -1.4454
 7763SOL     OW34747   4.334   4.140  15.199  0.0281  0.1067  0.4436
 7763SOL    HW134748   4.250   4.169  15.236 -0.9110 -1.3483 -0.5233
 7763SOL    HW234749   4.323   4.167  15.108  2.4471 -0.1388  0.0828
 7764SOL     OW34750   2.935   2.088   0.126 -0.4250  0.3246  0.0545
 7764SOL    HW134751   2.918   2.180   0.106  1.3430  0.2757 -1.6504
 7764SOL    HW234752   2.842   2.066   0.116 -0.1568 -0.8296  0.0406
 7765SOL     OW34753   1.044   4.415   8.056 -0.2142  0.0791  0.4314
 7765SOL    HW134754   1.056   4.453   7.969  0.8256 -0.0342  0.5262
 7765SOL    HW234755   1.110   4.346   8.051  1.6397  1.7121  2.6328
 7766SOL     OW34756   3.858   3.274   3.772 -0.3634 -0.5628  0.2408
 7766SOL    HW134757   3.915   3.347   3.749  0.5648 -1.6207 -0.7771
 7766SOL    HW234758   3.907   3.214   3.828 -1.3324  0.0130  1.6972
 7767SOL     OW34759   0.816   3.040  15.485  0.7163  0.3989 -0.0347
 7767SOL    HW134760   0.743   3.098  15.463  0.6305  0.0673 -0.6186
 7767SOL    HW234761   0.871   3.105  15.528 -0.1517 -0.9819  3.2477
 7768SOL     OW34762   4.138   1.976   9.758 -0.3300 -0.0546 -0.5138
 7768SOL    HW134763   4.099   1.888   9.756  0.4467 -0.4488  2.3716
 7768SOL    HW234764   4.055   2.018   9.778 -0.0583 -0.0424  0.5983
 7769SOL     OW34765   1.848   2.404   8.985 -0.2637 -0.0413 -0.0796
 7769SOL    HW134766   1.880   2.333   9.041 -1.8952 -0.1118  0.7442
 7769SOL    HW234767   1.764   2.405   9.029 -1.3209 -1.9346 -2.0671
 7770SOL     OW34768   0.454   0.085   6.425 -0.0708 -0.1458  0.8019
 7770SOL    HW134769   0.479   0.030   6.499 -0.1737  0.0406  0.9768
 7770SOL    HW234770   0.537   0.102   6.382  0.1863 -2.2923  0.4306
 7771SOL     OW34771   2.387   1.870  16.582  0.1056 -0.4833  0.1093
 7771SOL    HW134772   2.312   1.840  16.531  0.7456 -0.9625 -0.5470
 7771SOL    HW234773   2.463   1.832  16.538  0.4338  1.3290 -0.8914
 7772SOL     OW34774   3.980   1.145   1.555 -0.6119 -1.0060 -1.0203
 7772SOL    HW134775   4.049   1.086   1.584 -1.2311 -1.5926 -0.7551
 7772SOL    HW234776   4.027   1.203   1.495  0.3846  0.6147  1.3396
 7773SOL     OW34777   3.675   4.346   7.438 -0.6013 -0.0492  0.0414
 7773SOL    HW134778   3.605   4.306   7.385 -1.5577 -0.3383  1.5376
 7773SOL    HW234779   3.733   4.273   7.461  1.7500  1.2858 -1.6587
 7774SOL     OW34780   1.645   0.086  12.995 -0.2970  0.2025 -0.0231
 7774SOL    HW134781   1.669   0.122  12.910 -3.1417  0.1902 -0.8074
 7774SOL    HW234782   1.719   0.111  13.051  0.8341 -1.5503 -0.7620
 7775SOL     OW34783   3.425   4.028   9.503 -0.0116 -0.1230  0.0513
 7775SOL    HW134784   3.348   3.992   9.547  0.8064  0.0597  1.6296
 7775SOL    HW234785   3.425   3.977   9.422  0.6054 -0.1318  0.0555
 7776SOL     OW34786   3.438   1.716  15.046  0.1818  0.0068  0.4414
 7776SOL    HW134787   3.419   1.625  15.023 -0.2886  0.7386 -2.1145
 7776SOL    HW234788   3.466   1.744  14.959  0.1299 -0.7731  0.1739
 7777SOL     OW34789   4.250   3.574   7.408 -0.0182 -0.2259 -0.4942
 7777SOL    HW134790   4.307   3.613   7.342  0.2736  2.0731  1.1093
 7777SOL    HW234791   4.273   3.481   7.399  0.8047  0.1473 -2.2181
 7778SOL     OW34792   0.291   4.459  11.543 -0.3198 -0.0836 -0.0894
 7778SOL    HW134793   0.333   4.408  11.474 -0.9452 -1.5254  0.5668
 7778SOL    HW234794   0.219   4.404  11.576 -2.4305  3.5433  1.3005
 7779SOL     OW34795   3.312   2.327   5.318  0.3562  0.2539 -0.6535
 7779SOL    HW134796   3.343   2.417   5.306  1.3431  0.0394  0.2579
 7779SOL    HW234797   3.359   2.276   5.252  0.7209 -0.2206 -0.0354
 7780SOL     OW34798   4.118   0.714   7.688  0.4137  0.0956  0.3483
 7780SOL    HW134799   4.131   0.622   7.663  0.7957  0.4501 -0.7502
 7780SOL    HW234800   4.200   0.730   7.735 -0.1590  0.4930  1.2109
 7781SOL     OW34801   0.088   3.099   6.421 -0.5089 -0.7016  0.5796
 7781SOL    HW134802   0.024   3.078   6.353 -2.5682  1.9615  1.7457
 7781SOL    HW234803   0.118   3.011   6.443 -2.8192 -1.5212  0.3963
 7782SOL     OW34804   1.763   2.024   0.255  0.4505 -0.0792 -0.3898
 7782SOL    HW134805   1.674   2.027   0.221  0.0063  1.0835  0.8489
 7782SOL    HW234806   1.744   2.022   0.349 -0.4750 -0.5373 -0.5873
 7783SOL     OW34807   1.467   3.601   5.840  0.8190 -0.5969 -0.4873
 7783SOL    HW134808   1.553   3.609   5.801  0.8654 -0.2870 -0.3141
 7783SOL    HW234809   1.425   3.622   5.757  1.0939 -1.9441 -0.9710
 7784SOL     OW34810   0.970   0.031  12.401 -0.5619 -0.3152 -0.0256
 7784SOL    HW134811   0.916   0.012  12.324 -1.1212  0.9194  0.0667
 7784SOL    HW234812   0.910   4.719  12.466 -0.4634  1.4694  1.0469
 7785SOL     OW34813   2.523   0.519   4.605  0.1479  0.6123  0.2082
 7785SOL    HW134814   2.581   0.446   4.583  0.9617  1.4315 -0.3379
 7785SOL    HW234815   2.513   0.503   4.699  0.6712 -0.7038  0.0492
 7786SOL     OW34816   4.406   2.697   0.807 -0.1911 -0.4566  0.8009
 7786SOL    HW134817   4.313   2.698   0.784 -0.0907 -0.3913  0.3991
 7786SOL    HW234818   4.408   2.743   0.891 -0.1634  0.4286  0.3106
 7787SOL     OW34819   3.100   0.835   3.396  0.5773  0.0177  0.1591
 7787SOL    HW134820   3.082   0.764   3.456  2.5491  0.4023  1.2086
 7787SOL    HW234821   3.137   0.905   3.450  1.6993  1.9746 -3.0819
 7788SOL     OW34822   4.127   2.249   7.692  0.2063  0.0198  0.0143
 7788SOL    HW134823   4.132   2.302   7.772 -2.0471  0.0087  0.1434
 7788SOL    HW234824   4.149   2.164   7.730 -3.0500  0.5264  2.9561
 7789SOL     OW34825   1.196   3.859   1.575 -0.2711  0.3322 -0.1119
 7789SOL    HW134826   1.247   3.901   1.645  0.0858 -1.1833  0.5309
 7789SOL    HW234827   1.129   3.927   1.579 -1.6046 -0.9718 -0.2696
 7790SOL     OW34828   2.682   3.721   5.819  0.8007  0.3387  0.3367
 7790SOL    HW134829   2.726   3.757   5.742 -0.4625  0.8104 -0.1635
 7790SOL    HW234830   2.742   3.764   5.880  3.1666 -0.3985 -1.4627
 7791SOL     OW34831   2.648   1.692   9.032 -0.2607 -0.5639 -0.3671
 7791SOL    HW134832   2.661   1.783   9.006 -0.2233 -0.6195 -0.5445
 7791SOL    HW234833   2.638   1.697   9.127  1.2665 -3.0690 -0.0716
 7792SOL     OW34834   3.677   1.913   3.301  0.8010 -0.3523  0.5906
 7792SOL    HW134835   3.667   1.972   3.227  1.5795 -2.5556 -1.2576
 7792SOL    HW234836   3.587   1.892   3.324  0.2673  0.2775 -0.9446
 7793SOL     OW34837   0.853   4.024  16.253  0.2014  0.1759 -0.5066
 7793SOL    HW134838   0.932   4.066  16.287  0.0512 -1.8897  2.3027
 7793SOL    HW234839   0.880   4.010  16.162  0.6150 -2.0507 -0.0267
 7794SOL     OW34840   0.158   4.651  14.270  0.4354 -0.2065 -0.2452
 7794SOL    HW134841   0.076   4.696  14.251  1.3132  1.0525 -0.9793
 7794SOL    HW234842   0.214   4.699  14.210  0.0062 -0.6195 -0.9769
 7795SOL     OW34843   1.123   3.825   4.022  1.0639  0.5120 -0.2260
 7795SOL    HW134844   1.032   3.840   4.046  1.2038  1.8113 -0.5125
 7795SOL    HW234845   1.108   3.734   3.997  1.0854  0.2154  0.8520
 7796SOL     OW34846   1.487   0.815   2.946 -0.3755  0.4368 -0.4074
 7796SOL    HW134847   1.418   0.881   2.943 -1.0396 -0.3031 -1.7609
 7796SOL    HW234848   1.523   0.823   2.858 -0.1709 -1.8266 -0.5411
 7797SOL     OW34849   1.188   0.422   7.913  0.1089 -0.1067  0.4023
 7797SOL    HW134850   1.249   0.352   7.937  1.8402  1.2820 -0.0320
 7797SOL    HW234851   1.120   0.405   7.979  2.8081 -2.5737  2.5811
 7798SOL     OW34852   3.696   2.482   3.861  0.0480  0.2742  0.0086
 7798SOL    HW134853   3.633   2.443   3.800 -0.1642  2.9125 -1.4337
 7798SOL    HW234854   3.636   2.549   3.893  0.8030  1.2991 -0.7611
 7799SOL     OW34855   4.345   2.563  10.711 -0.3990  0.4134 -0.0275
 7799SOL    HW134856   4.431   2.524  10.698  0.0528  1.0571  0.9415
 7799SOL    HW234857   4.313   2.588  10.624 -3.4790 -0.3344  0.8953
 7800SOL     OW34858   4.169   0.636   8.723 -0.2138  0.0319  0.0043
 7800SOL    HW134859   4.091   0.582   8.718  0.5564 -1.1475  0.6462
 7800SOL    HW234860   4.210   0.620   8.808  0.8732 -0.2089 -0.5563
 7801SOL     OW34861   0.471   4.338   7.072  0.0874 -0.4743  0.3553
 7801SOL    HW134862   0.503   4.248   7.064  0.1157 -0.1332 -3.2377
 7801SOL    HW234863   0.436   4.356   6.985  1.5144  0.5654 -0.0039
 7802SOL     OW34864   0.525   3.282  12.791 -0.0019  0.1325 -0.0052
 7802SOL    HW134865   0.489   3.223  12.725  1.7370  0.5020 -1.2952
 7802SOL    HW234866   0.452   3.296  12.851 -0.7810  0.6497 -1.0806
 7803SOL     OW34867   4.273   0.476   6.838  1.0360  0.1179 -0.0009
 7803SOL    HW134868   4.198   0.417   6.838  1.4117 -0.3732  1.9165
 7803SOL    HW234869   4.313   0.431   6.912 -0.8490 -0.5620  0.6090
 7804SOL     OW34870   0.582   0.856   8.428 -0.0793  0.2828 -0.6098
 7804SOL    HW134871   0.627   0.928   8.473 -3.1685  1.8551 -0.0126
 7804SOL    HW234872   0.508   0.846   8.488  1.4830  1.4225  1.5499
 7805SOL     OW34873   4.297   1.849  10.095  0.3772  0.0336  0.1309
 7805SOL    HW134874   4.385   1.820  10.069 -0.2222 -0.3389 -1.4758
 7805SOL    HW234875   4.316   1.942  10.109 -1.8425  0.9693 -3.2478
 7806SOL     OW34876   2.948   2.746  15.705  0.5699 -0.0634 -0.2491
 7806SOL    HW134877   3.024   2.711  15.752 -0.1686  1.0105  1.7410
 7806SOL    HW234878   2.886   2.757  15.777  0.0072  1.4833 -0.9829
 7807SOL     OW34879   4.620   0.982   9.996 -0.1144 -0.5125  0.2943
 7807SOL    HW134880   4.571   1.014   9.920  1.6640  2.1701  0.3056
 7807SOL    HW234881   4.672   1.061  10.008  1.0067 -1.2108  0.1045
 7808SOL     OW34882   1.036   1.570   2.885 -0.3468 -0.2505  0.5232
 7808SOL    HW134883   1.007   1.593   2.797 -0.4307  0.4522  0.7356
 7808SOL    HW234884   0.964   1.513   2.912 -1.0874  0.6279  0.3880
 7809SOL     OW34885   0.240   0.256   1.834 -0.0101  0.0787 -0.2262
 7809SOL    HW134886   0.276   0.187   1.890 -1.1612  2.3099  3.2459
 7809SOL    HW234887   0.304   0.326   1.845 -1.1291  1.4614 -2.6367
 7810SOL     OW34888   3.918   4.251  15.554 -0.2209  0.3024 -0.0226
 7810SOL    HW134889   3.870   4.278  15.476 -0.6657 -0.8164 -0.1420
 7810SOL    HW234890   3.852   4.278  15.618 -1.4706 -1.5646 -0.5011
 7811SOL     OW34891   4.294   4.680  16.273 -0.1073 -0.2198  0.2563
 7811SOL    HW134892   4.215   4.627  16.263  0.2305 -0.8053  0.6599
 7811SOL    HW234893   4.335   4.656  16.190  1.4001 -0.2739  1.0216
 7812SOL     OW34894   4.593   1.036   3.082 -0.5097  0.4192 -0.0996
 7812SOL    HW134895   4.598   1.046   2.987  0.4926 -0.8420 -0.1623
 7812SOL    HW234896   4.666   0.975   3.092 -1.2685 -0.4823 -0.0592
 7813SOL     OW34897   0.193   2.303   6.936  0.5626 -1.4727 -0.3772
 7813SOL    HW134898   0.164   2.282   7.025 -0.4287  2.0340  0.1382
 7813SOL    HW234899   0.173   2.232   6.875  2.4773  0.5801 -3.3976
 7814SOL     OW34900   0.664   2.756   1.518 -0.4613  0.4258 -0.4109
 7814SOL    HW134901   0.731   2.746   1.450 -0.5694  0.7494 -0.5656
 7814SOL    HW234902   0.700   2.828   1.569 -0.0494 -0.0458 -0.0395
 7815SOL     OW34903   1.237   0.511  15.330 -0.1210  0.5006  0.0936
 7815SOL    HW134904   1.186   0.591  15.326 -1.9760 -0.8100 -3.1045
 7815SOL    HW234905   1.266   0.512  15.238  0.7885 -3.1239  0.3190
 7816SOL     OW34906   2.365   0.228   7.004 -0.4878  0.5242 -1.0343
 7816SOL    HW134907   2.429   0.167   7.040 -0.6503  1.5383  1.0177
 7816SOL    HW234908   2.295   0.168   6.982 -1.8504  1.3772  0.8846
 7817SOL     OW34909   2.702   2.601   7.342  0.5637 -0.2336 -0.0035
 7817SOL    HW134910   2.685   2.667   7.274 -0.4224 -1.4766 -0.9759
 7817SOL    HW234911   2.616   2.561   7.356  0.9765  0.1547  3.4450
 7818SOL     OW34912   3.852   2.082   5.915 -0.0739 -0.5584 -0.2742
 7818SOL    HW134913   3.945   2.104   5.924 -0.0517 -0.4865 -0.6841
 7818SOL    HW234914   3.835   2.111   5.826  1.3697  0.6506 -0.1500
 7819SOL     OW34915   4.198   0.396  10.817  0.0352  0.2686  0.3956
 7819SOL    HW134916   4.115   0.362  10.783  0.2037 -0.4059  0.6633
 7819SOL    HW234917   4.257   0.324  10.796 -0.5927  0.1237 -0.8432
 7820SOL     OW34918   3.197   1.625  15.689 -0.4333 -0.2064 -0.3122
 7820SOL    HW134919   3.211   1.531  15.704  1.8429 -0.0340 -1.4293
 7820SOL    HW234920   3.257   1.636  15.615  1.7227  0.1734  1.4843
 7821SOL     OW34921   0.143   2.066   7.292  0.2023  0.0928  0.0504
 7821SOL    HW134922   0.126   1.976   7.321  1.0539  0.1901  0.8295
 7821SOL    HW234923   0.064   2.077   7.238 -1.1356 -0.6206  1.8672
 7822SOL     OW34924   1.086   3.098   1.606  0.0100  0.3322  0.3833
 7822SOL    HW134925   1.019   3.138   1.662 -2.0120 -0.1862 -1.6855
 7822SOL    HW234926   1.131   3.182   1.597  0.7589  0.0541  1.5319
 7823SOL     OW34927   0.528   3.141   7.338  0.4054  0.1011  0.2934
 7823SOL    HW134928   0.606   3.128   7.392 -0.2412  1.3392  1.5200
 7823SOL    HW234929   0.497   3.226   7.369 -2.2413 -0.2099 -1.5775
 7824SOL     OW34930   0.462   1.150   3.535 -0.0297  0.3146 -0.4605
 7824SOL    HW134931   0.398   1.194   3.590  0.7520  0.8536  0.0136
 7824SOL    HW234932   0.493   1.078   3.589  0.0637  0.0142 -0.9112
 7825SOL     OW34933   0.718   2.178   5.320  0.2259 -0.2789  0.7639
 7825SOL    HW134934   0.692   2.145   5.234  1.1068 -1.3924  0.9262
 7825SOL    HW234935   0.635   2.223   5.338  1.2473  1.7501  0.3765
 7826SOL     OW34936   0.341   0.662  17.432 -0.9773 -0.2117 -0.0220
 7826SOL    HW134937   0.350   0.585  17.375 -1.0200 -1.2657  1.4022
 7826SOL    HW234938   0.350   0.616  17.515  1.7460  1.8472  0.8080
 7827SOL     OW34939   1.452   2.146  17.406 -0.0637 -0.0131 -0.5971
 7827SOL    HW134940   1.374   2.092  17.402 -0.1178 -0.0185  0.5531
 7827SOL    HW234941   1.522   2.118  17.347  1.4407 -1.3459  1.7925
 7828SOL     OW34942   3.828   3.697   3.372 -0.2154  0.2742 -0.1596
 7828SOL    HW134943   3.744   3.654   3.356  0.3708 -0.8821 -0.0580
 7828SOL    HW234944   3.897   3.649   3.327 -2.5568 -1.7881 -1.5349
 7829SOL     OW34945   0.053   3.400   1.735 -0.1928 -0.2619  0.6151
 7829SOL    HW134946   4.713   3.471   1.750 -0.0342  0.1504 -0.6980
 7829SOL    HW234947   0.107   3.452   1.676 -1.2983  1.2012  0.8782
 7830SOL     OW34948   3.217   0.475  14.986  0.3192  0.5262 -0.2082
 7830SOL    HW134949   3.299   0.521  15.002  0.4893  0.9361 -2.2692
 7830SOL    HW234950   3.150   0.533  15.023  0.9863  0.3906  1.2133
 7831SOL     OW34951   0.225   2.103   7.658  0.0764  0.1159  0.0690
 7831SOL    HW134952   0.171   2.181   7.673 -0.7626 -0.6420  0.9282
 7831SOL    HW234953   0.313   2.140   7.648 -0.6198  2.3051  1.9282
 7832SOL     OW34954   1.179   1.757  10.140  0.2917  0.0405 -0.0496
 7832SOL    HW134955   1.153   1.750  10.232  0.5258 -0.4765 -0.0198
 7832SOL    HW234956   1.134   1.834  10.107  0.3740  0.7508  1.4786
 7833SOL     OW34957   4.393   1.657   0.143 -0.0697 -0.6446 -0.2413
 7833SOL    HW134958   4.301   1.651   0.169 -1.1633  1.7124 -3.5818
 7833SOL    HW234959   4.406   1.573   0.100 -0.5769 -1.4218  1.1294
 7834SOL     OW34960   0.062   2.076   1.480  0.6052 -0.0873 -0.3618
 7834SOL    HW134961   0.075   1.988   1.443  0.0962 -0.2354 -0.1934
 7834SOL    HW234962   0.015   2.117   1.408  0.5560  1.1386  0.3742
 7835SOL     OW34963   3.184   2.376   8.953  0.0355 -0.5416  0.0669
 7835SOL    HW134964   3.132   2.430   8.894  0.7062  0.4040  0.3366
 7835SOL    HW234965   3.271   2.375   8.915  0.8033 -2.0587  1.8558
 7836SOL     OW34966   1.940   4.711  13.067 -0.1928 -0.1634 -0.0107
 7836SOL    HW134967   1.882   4.671  13.132  0.3333 -0.8262  0.0501
 7836SOL    HW234968   1.941   0.078  13.097  0.2931 -0.3764  0.6110
 7837SOL     OW34969   4.245   2.057   9.195  0.0434 -0.1893  0.0634
 7837SOL    HW134970   4.218   2.149   9.188 -1.7074 -0.8793 -2.1775
 7837SOL    HW234971   4.225   2.033   9.285 -1.6746  1.6890  0.1810
 7838SOL     OW34972   2.216   1.395  16.476  0.0342 -0.1059  0.1576
 7838SOL    HW134973   2.172   1.358  16.400  0.7200 -1.7363  0.5656
 7838SOL    HW234974   2.137   1.412  16.527 -0.2368 -1.5572  0.2203
 7839SOL     OW34975   3.342   0.883   4.859  0.0878  0.1172  0.0460
 7839SOL    HW134976   3.290   0.887   4.940  1.5142  2.9725  0.8172
 7839SOL    HW234977   3.285   0.828   4.805  0.6403 -0.6447  0.2483
 7840SOL     OW34978   4.706   2.952   3.154  0.3991 -0.4396 -0.4751
 7840SOL    HW134979   0.034   2.940   3.074  1.5583  0.2964  0.1592
 7840SOL    HW234980   4.671   2.863   3.161  0.9803 -0.4885  1.8773
 7841SOL     OW34981   3.013   2.198   7.151 -0.6878  0.1862  0.4951
 7841SOL    HW134982   3.043   2.112   7.182 -1.9150 -1.4686 -2.9423
 7841SOL    HW234983   3.096   2.241   7.127 -0.6437 -0.3596 -0.3344
 7842SOL     OW34984   3.563   1.090   6.499  0.2477  0.6714  0.4419
 7842SOL    HW134985   3.494   1.116   6.438  0.6867 -2.0798 -1.2143
 7842SOL    HW234986   3.553   0.998   6.476  1.2912  1.1624 -1.9232
 7843SOL     OW34987   1.870   3.827   8.683 -0.0019  0.3598 -0.1116
 7843SOL    HW134988   1.853   3.896   8.618  1.0206 -2.1680 -3.0625
 7843SOL    HW234989   1.910   3.876   8.755  1.8970 -1.6677  0.2046
 7844SOL     OW34990   2.745   4.454  17.317  0.5223 -0.7902  0.9416
 7844SOL    HW134991   2.732   4.447  17.222  0.0037 -0.8762  1.0177
 7844SOL    HW234992   2.820   4.395  17.327  0.8455 -0.7125 -1.1037
 7845SOL     OW34993   2.793   3.122   2.079  0.6931  0.1161  0.8003
 7845SOL    HW134994   2.863   3.102   2.140  0.3580 -1.7135  0.6036
 7845SOL    HW234995   2.810   3.049   2.019 -0.3729  1.2148 -0.8364
 7846SOL     OW34996   4.239   3.559  10.887  0.1158  0.0767  0.5471
 7846SOL    HW134997   4.319   3.517  10.855  0.3931  0.2919  0.9569
 7846SOL    HW234998   4.208   3.600  10.807  1.1806 -0.1528  0.0266
 7847SOL     OW34999   1.290   2.820  13.191 -0.0282  0.1027  0.1106
 7847SOL    HW135000   1.353   2.820  13.264  1.1893 -1.8374 -0.9342
 7847SOL    HW235001   1.335   2.747  13.149  0.4644 -0.3759  1.4903
 7848SOL     OW35002   0.392   0.937  17.253 -0.5224 -0.0381 -0.2117
 7848SOL    HW135003   0.397   0.859  17.308 -1.3917  1.1305  1.5735
 7848SOL    HW235004   0.297   0.954  17.253 -0.1540  2.1276  0.7410
 7849SOL     OW35005   3.948   2.673   6.726 -1.0323  0.3527  0.2714
 7849SOL    HW135006   3.884   2.610   6.693 -0.6708 -0.5685  1.3410
 7849SOL    HW235007   3.913   2.684   6.814 -1.2318  0.1391  0.2189
 7850SOL     OW35008   4.059   4.619  12.695 -0.6209  0.1030 -0.1977
 7850SOL    HW135009   4.115   4.652  12.765  0.7023  1.4537 -1.8903
 7850SOL    HW235010   4.007   4.557  12.747  0.9847 -2.3464 -1.5263
 7851SOL     OW35011   3.525   2.661   5.249  0.4449 -0.3540 -0.0973
 7851SOL    HW135012   3.524   2.687   5.157  0.4483  0.4468  0.1283
 7851SOL    HW235013   3.436   2.638   5.276  0.5063  1.0983  1.2909
 7852SOL     OW35014   3.843   2.326   9.687  0.3578  0.0955 -0.3857
 7852SOL    HW135015   3.866   2.384   9.760  0.6269  1.3945 -1.4945
 7852SOL    HW235016   3.749   2.342   9.676  0.6512  1.1457 -1.3975
 7853SOL     OW35017   0.021   0.967   4.761 -0.2191 -0.2796  0.3947
 7853SOL    HW135018   0.109   0.981   4.795 -0.4128  1.7643  0.0231
 7853SOL    HW235019   4.695   0.934   4.837  0.2347 -0.3104  0.6738
 7854SOL     OW35020   4.525   2.961   6.610  0.2771 -0.0346 -0.5857
 7854SOL    HW135021   4.462   2.915   6.554 -1.0565 -0.8385  1.5774
 7854SOL    HW235022   4.541   3.032   6.546  4.2431  0.2034  0.6566
 7855SOL     OW35023   4.046   0.119   5.857  0.6258  0.1173 -0.0841
 7855SOL    HW135024   3.959   0.146   5.827 -0.0615  0.2940  2.0608
 7855SOL    HW235025   4.019   0.059   5.927  0.0367  1.5503  0.9412
 7856SOL     OW35026   1.562   1.429  13.294  0.2042  0.1634 -0.0699
 7856SOL    HW135027   1.489   1.368  13.300 -0.2166  1.0421  3.7146
 7856SOL    HW235028   1.587   1.414  13.203  0.3238 -2.7029  0.4447
 7857SOL     OW35029   3.284   0.406   6.379 -0.3875 -0.4919 -0.2255
 7857SOL    HW135030   3.193   0.433   6.387  0.1156  0.8738  0.9600
 7857SOL    HW235031   3.290   0.324   6.428 -0.4575 -0.8022 -0.7407
 7858SOL     OW35032   2.849   1.063  14.170 -0.1864  0.4236  0.0301
 7858SOL    HW135033   2.869   1.098  14.256  2.3421 -0.3806 -0.2299
 7858SOL    HW235034   2.758   1.087  14.151  0.6380  3.1961 -0.4072
 7859SOL     OW35035   1.900   3.852  17.061 -0.0425  0.2053  0.5105
 7859SOL    HW135036   1.856   3.802  16.992 -0.2038 -1.2259  1.6399
 7859SOL    HW235037   1.837   3.922  17.076 -0.7300 -0.1778 -0.6010
 7860SOL     OW35038   0.778   0.428  13.637  0.3192  0.2472 -0.1081
 7860SOL    HW135039   0.862   0.472  13.637 -0.1353  1.1055  0.1909
 7860SOL    HW235040   0.729   0.472  13.567 -0.6148 -2.6620 -1.2929
 7861SOL     OW35041   4.172   3.136   4.598  0.7027 -0.6583  0.3298
 7861SOL    HW135042   4.086   3.166   4.569  0.0415 -0.5108  2.4368
 7861SOL    HW235043   4.183   3.196   4.672 -1.2361  1.3098 -0.9992
 7862SOL     OW35044   0.524   4.203  15.924 -0.4116 -0.7107 -0.6638
 7862SOL    HW135045   0.443   4.243  15.957 -1.6516 -1.9063 -2.2183
 7862SOL    HW235046   0.559   4.168  16.006  0.5163 -0.1801 -0.8386
 7863SOL     OW35047   2.413   3.866   1.517 -0.1045  0.0316 -0.1774
 7863SOL    HW135048   2.344   3.822   1.468 -1.1475 -0.2315  1.5115
 7863SOL    HW235049   2.373   3.871   1.604 -0.4999  0.9736 -0.4023
 7864SOL     OW35050   3.130   3.352   7.161  0.0669  0.1117  0.6929
 7864SOL    HW135051   3.144   3.442   7.188  2.3104 -0.1698  0.5386
 7864SOL    HW235052   3.221   3.327   7.143 -0.4831 -2.1912  1.0756
 7865SOL     OW35053   0.566   0.464   9.288  0.1535  0.0967  0.0016
 7865SOL    HW135054   0.573   0.429   9.377 -1.2930  0.7220  0.3520
 7865SOL    HW235055   0.520   0.398   9.235  0.7739 -0.3173 -0.0239
 7866SOL     OW35056   0.061   0.777   6.141 -0.0139 -0.0379 -0.0425
 7866SOL    HW135057   4.693   0.787   6.116 -0.1332 -0.0527  0.3823
 7866SOL    HW235058   0.075   0.683   6.131 -0.7873  0.0135 -1.6050
 7867SOL     OW35059   3.710   1.521   6.718  0.0216  0.1170 -0.1924
 7867SOL    HW135060   3.648   1.594   6.716 -0.6521 -0.3829  1.9936
 7867SOL    HW235061   3.657   1.442   6.735  0.3082 -0.0907 -0.2691
 7868SOL     OW35062   2.095   4.468  16.614  0.8891 -0.2887  0.4827
 7868SOL    HW135063   2.154   4.424  16.553  0.8818  1.5260 -0.8340
 7868SOL    HW235064   2.010   4.442  16.577  0.4717 -0.5391  1.6174
 7869SOL     OW35065   0.182   2.197  14.315 -0.6064 -0.0176  0.4875
 7869SOL    HW135066   0.093   2.222  14.292 -0.8973 -0.1643  1.4343
 7869SOL    HW235067   0.207   2.139  14.243 -0.2835  0.0679  0.5327
 7870SOL     OW35068   2.455   1.200   2.000  0.0306 -0.4502  0.1304
 7870SOL    HW135069   2.433   1.291   1.981  0.4026 -0.8754 -2.3977
 7870SOL    HW235070   2.370   1.169   1.970 -0.7197 -0.2404  2.0841
 7871SOL     OW35071   2.049   2.448  14.864  0.0402  0.4514  0.3953
 7871SOL    HW135072   2.142   2.429  14.851  0.2127  2.2376 -0.9857
 7871SOL    HW235073   2.018   2.472  14.776  0.5664 -0.5587 -0.0648
 7872SOL     OW35074   0.732   0.826   8.895  0.2015  0.1169  0.0797
 7872SOL    HW135075   0.690   0.906   8.863 -1.7569 -0.4899  1.1257
 7872SOL    HW235076   0.704   0.755   8.837  2.0587  0.1772 -0.8932
 7873SOL     OW35077   2.573   0.626   7.050  0.9307 -0.1744  0.8582
 7873SOL    HW135078   2.647   0.574   7.082 -1.7593 -3.9385  0.9476
 7873SOL    HW235079   2.601   0.718   7.055  3.3702 -0.8764  0.2048
 7874SOL     OW35080   3.233   2.356   7.120  0.0994  0.0013  0.4802
 7874SOL    HW135081   3.317   2.377   7.160 -0.4430  0.1553  1.5442
 7874SOL    HW235082   3.257   2.385   7.032 -2.1807  1.4369  0.3307
 7875SOL     OW35083   3.265   1.471  17.106 -0.2885  0.0498  0.3270
 7875SOL    HW135084   3.235   1.493  17.017  0.4259  1.2324  0.3810
 7875SOL    HW235085   3.243   1.546  17.160  1.1015 -0.0293  1.0033
 7876SOL     OW35086   1.478   1.337  15.173  0.2540 -0.3423 -0.2459
 7876SOL    HW135087   1.519   1.301  15.251  2.5785  0.9311 -0.8844
 7876SOL    HW235088   1.454   1.428  15.192  0.1426 -0.3565 -0.3137
 7877SOL     OW35089   1.547   0.115  13.620  0.1523  0.2836 -0.0586
 7877SOL    HW135090   1.532   0.205  13.647 -0.2115 -0.1668  1.2690
 7877SOL    HW235091   1.617   0.129  13.557 -0.4450  1.1845 -0.5031
 7878SOL     OW35092   3.701   1.917   8.784  0.0901 -0.2490  0.6147
 7878SOL    HW135093   3.624   1.920   8.728  0.3586 -1.9708  0.1286
 7878SOL    HW235094   3.715   1.822   8.776 -2.1582 -0.3701 -1.7959
 7879SOL     OW35095   4.718   1.467   6.142 -0.2228  0.3355  0.3575
 7879SOL    HW135096   4.720   1.563   6.136 -1.5841  0.3017 -0.5707
 7879SOL    HW235097   0.068   1.439   6.088 -1.1489 -1.9013  0.2604
 7880SOL     OW35098   2.812   3.407   9.703 -0.5770 -0.3421  0.6144
 7880SOL    HW135099   2.867   3.412   9.625  0.2161 -1.6833  1.0903
 7880SOL    HW235100   2.880   3.419   9.770 -1.3831  1.5668  1.0905
 7881SOL     OW35101   0.398   2.190   3.431  0.7753  0.6366  0.1660
 7881SOL    HW135102   0.345   2.111   3.445  1.8212  0.0356  0.7613
 7881SOL    HW235103   0.404   2.200   3.526  0.0752  3.0678 -0.0441
 7882SOL     OW35104   1.375   3.483   8.403 -0.0626  0.4117 -0.0087
 7882SOL    HW135105   1.463   3.520   8.397  0.2544 -0.2145  0.7986
 7882SOL    HW235106   1.351   3.504   8.494  0.4729  1.7387 -0.1694
 7883SOL     OW35107   3.767   3.841  11.461  0.1044  0.3923 -0.3667
 7883SOL    HW135108   3.856   3.835  11.426  0.6325 -1.3984  1.2809
 7883SOL    HW235109   3.738   3.751  11.473  1.8363 -0.0717  0.3923
 7884SOL     OW35110   3.736   1.170   6.088  0.0560  0.4610  0.4396
 7884SOL    HW135111   3.733   1.141   6.179  3.6316 -1.0976  0.0483
 7884SOL    HW235112   3.789   1.246   6.111  3.0264 -0.5370 -3.1586
 7885SOL     OW35113   3.793   1.275  15.872  0.0753  0.3104 -0.3755
 7885SOL    HW135114   3.826   1.203  15.817 -3.3640 -2.1993  0.8631
 7885SOL    HW235115   3.844   1.343  15.828  1.6226  1.1069  2.7059
 7886SOL     OW35116   0.953   0.225   8.871 -0.1146  0.3364  0.0918
 7886SOL    HW135117   0.885   0.242   8.805 -0.8547  0.4516  0.8844
 7886SOL    HW235118   0.954   0.308   8.918  1.8196 -0.3167  1.1650
 7887SOL     OW35119   1.003   2.069   4.162 -0.2656  0.4614 -0.3343
 7887SOL    HW135120   1.049   1.985   4.157 -3.0077 -0.9981 -1.2942
 7887SOL    HW235121   0.971   2.064   4.252 -0.0468 -1.5375 -0.3698
 7888SOL     OW35122   4.111   2.738   8.665  0.4137  0.0877 -0.1867
 7888SOL    HW135123   4.116   2.644   8.677 -0.9440  0.0931  0.3347
 7888SOL    HW235124   4.166   2.778   8.733 -0.6596  0.8830  0.2097
 7889SOL     OW35125   1.306   2.524  12.929  0.3000 -0.1946  0.4433
 7889SOL    HW135126   1.293   2.434  12.960  2.6638 -0.1044  1.6375
 7889SOL    HW235127   1.219   2.564  12.933 -0.9731 -2.7335 -1.1127
 7890SOL     OW35128   2.150   1.935   1.030  0.0230  0.2292 -0.0618
 7890SOL    HW135129   2.235   1.977   1.016 -0.0834  0.6139  0.4761
 7890SOL    HW235130   2.093   1.987   0.973  0.3516  0.8407  0.1704
 7891SOL     OW35131   2.380   2.393   2.141  0.7391 -0.2085  0.5076
 7891SOL    HW135132   2.400   2.452   2.214  1.7048  0.7223 -0.5090
 7891SOL    HW235133   2.456   2.337   2.129  1.0994  0.3107  0.3439
 7892SOL     OW35134   0.771   2.112   0.250 -0.0994 -0.8268  0.4321
 7892SOL    HW135135   0.741   2.038   0.303 -0.0196 -1.4805 -0.4319
 7892SOL    HW235136   0.754   2.080   0.162  1.6084 -2.0785  0.5601
 7893SOL     OW35137   2.561   0.767   0.513  0.4547 -0.3856 -0.2620
 7893SOL    HW135138   2.611   0.768   0.595  1.5385 -1.9037 -0.9105
 7893SOL    HW235139   2.619   0.713   0.459 -0.2559 -0.3677 -1.0275
 7894SOL     OW35140   1.693   2.439   8.289  0.5368  0.1328  0.2962
 7894SOL    HW135141   1.708   2.450   8.383  0.1034 -1.7272  0.5826
 7894SOL    HW235142   1.710   2.528   8.259 -2.4851  0.6175 -0.0316
 7895SOL     OW35143   1.636   3.459   7.952 -0.5906  0.1582  0.1197
 7895SOL    HW135144   1.625   3.391   8.019  0.2205  0.3990  0.4900
 7895SOL    HW235145   1.672   3.536   7.995  0.9279 -0.8368  0.6084
 7896SOL     OW35146   2.059   0.784   6.316 -0.2428  0.0904  0.2357
 7896SOL    HW135147   2.152   0.799   6.298 -0.2773 -1.6605 -1.4591
 7896SOL    HW235148   2.045   0.856   6.377  0.1824 -0.1729  0.6465
 7897SOL     OW35149   4.510   0.599   5.844 -0.2665 -0.0964  0.1954
 7897SOL    HW135150   4.558   0.664   5.792 -0.1111 -1.3977 -1.3054
 7897SOL    HW235151   4.568   0.573   5.915  1.1640 -0.0857 -0.9574
 7898SOL     OW35152   0.486   1.950   0.703  0.1964  0.5118  0.0927
 7898SOL    HW135153   0.468   2.027   0.649  0.8113  0.9565  0.5163
 7898SOL    HW235154   0.464   1.884   0.638 -0.4909  1.7135 -0.8765
 7899SOL     OW35155   3.643   0.659   7.718  0.2792  0.1587 -0.6563
 7899SOL    HW135156   3.716   0.637   7.660  0.3570 -3.4668  0.7824
 7899SOL    HW235157   3.643   0.599   7.793 -3.6672  0.5762 -0.3020
 7900SOL     OW35158   2.918   2.371   6.246 -0.5956 -0.3497  0.2043
 7900SOL    HW135159   2.980   2.307   6.210 -1.5336 -0.2005 -1.6725
 7900SOL    HW235160   2.980   2.438   6.277 -1.3320  1.2557 -1.8066
 7901SOL     OW35161   2.339   4.119  16.488 -0.1596  0.4994 -0.0228
 7901SOL    HW135162   2.365   4.209  16.473  3.5324 -0.5923 -0.1892
 7901SOL    HW235163   2.337   4.125  16.584 -0.2758 -0.3900  0.0328
 7902SOL     OW35164   1.071   0.331   9.253 -0.2428  0.2714 -0.3634
 7902SOL    HW135165   1.000   0.319   9.189 -0.6669  0.1054  0.1339
 7902SOL    HW235166   1.117   0.247   9.255 -0.3184  0.2294 -0.3754
 7903SOL     OW35167   1.681   0.793  15.805 -0.3476 -0.0956  0.0684
 7903SOL    HW135168   1.658   0.800  15.713  1.0400 -0.0181 -0.2719
 7903SOL    HW235169   1.693   0.698  15.812 -0.1150  0.1285  2.8557
 7904SOL     OW35170   1.650   1.372  13.914  0.3966 -0.5729 -0.1567
 7904SOL    HW135171   1.730   1.417  13.886  0.5792 -0.6336  0.2762
 7904SOL    HW235172   1.685   1.340  13.997  1.8697  0.1673 -0.4837
 7905SOL     OW35173   2.882   2.650   8.422 -0.2242 -0.3077 -0.1220
 7905SOL    HW135174   2.793   2.675   8.397 -0.0639 -0.4625 -0.8573
 7905SOL    HW235175   2.894   2.566   8.378  0.8535 -0.4940  0.5169
 7906SOL     OW35176   1.707   1.857   5.982  0.1356  0.1139  0.3065
 7906SOL    HW135177   1.656   1.879   6.059 -0.1114 -1.7898  0.6793
 7906SOL    HW235178   1.635   1.828   5.925  0.1846  2.2450 -0.8599
 7907SOL     OW35179   2.745   1.680   5.248 -0.6232  0.1910 -0.1078
 7907SOL    HW135180   2.838   1.700   5.235 -0.1806 -0.6540  1.7942
 7907SOL    HW235181   2.702   1.735   5.182  0.7176  0.2828 -0.9093
 7908SOL     OW35182   3.152   4.278  13.309  0.4427  0.1391 -0.1032
 7908SOL    HW135183   3.142   4.224  13.231  2.0997  0.5102 -0.5858
 7908SOL    HW235184   3.232   4.248  13.354  0.5142  0.7639  0.1944
 7909SOL     OW35185   1.525   2.195  11.284 -0.2161 -0.2850  0.1013
 7909SOL    HW135186   1.550   2.104  11.271 -1.3354 -0.4153 -1.1413
 7909SOL    HW235187   1.477   2.172  11.363  1.8210 -2.8257  0.6152
 7910SOL     OW35188   0.579   0.848   7.813 -0.0966 -0.1061 -0.1523
 7910SOL    HW135189   0.641   0.814   7.749 -1.0358  2.4996 -2.4215
 7910SOL    HW235190   0.548   0.928   7.771  1.5640 -0.3442 -1.8058
 7911SOL     OW35191   0.363   0.129   2.616  0.4525 -0.4281 -0.1495
 7911SOL    HW135192   0.434   0.077   2.578  0.3033 -1.3222  0.7977
 7911SOL    HW235193   0.393   0.218   2.595 -1.8045  0.7394  1.6302
 7912SOL     OW35194   4.222   2.299  10.794  0.1482  0.1106 -0.2748
 7912SOL    HW135195   4.135   2.282  10.831 -0.0739 -1.1349 -1.3473
 7912SOL    HW235196   4.208   2.389  10.765 -0.1422  0.9374  2.3845
 7913SOL     OW35197   2.947   0.382  12.086 -0.1209  0.2098 -0.1458
 7913SOL    HW135198   3.027   0.331  12.073  1.5788  3.5358 -2.5616
 7913SOL    HW235199   2.936   0.377  12.181 -1.1654 -0.0634 -0.2793
 7914SOL     OW35200   0.612   0.422   5.884  0.1322  0.0060 -0.3126
 7914SOL    HW135201   0.544   0.490   5.880  0.2533  0.2625  2.1260
 7914SOL    HW235202   0.569   0.341   5.855 -1.1725 -0.2025  2.1887
 7915SOL     OW35203   0.582   0.321   0.513  0.3767  0.1134  0.5908
 7915SOL    HW135204   0.495   0.342   0.478  0.0080  0.2398  1.5855
 7915SOL    HW235205   0.638   0.389   0.475 -2.0464  1.2543 -0.9212
 7916SOL     OW35206   1.441   0.366  13.725 -0.2066 -0.4072  0.1623
 7916SOL    HW135207   1.430   0.456  13.753  0.2151 -0.0098 -0.9379
 7916SOL    HW235208   1.400   0.323  13.800  1.0726 -1.3080  0.3451
 7917SOL     OW35209   4.236   1.118   2.283 -0.5865 -0.0790  0.0047
 7917SOL    HW135210   4.227   1.024   2.271  2.7038 -0.6028  1.7957
 7917SOL    HW235211   4.158   1.149   2.237 -1.2294  1.6475  2.2412
 7918SOL     OW35212   3.297   1.160  12.436 -0.4475 -0.3680  0.0994
 7918SOL    HW135213   3.277   1.107  12.513 -1.3415 -1.6238 -1.0011
 7918SOL    HW235214   3.296   1.094  12.368 -1.0580 -0.9144  0.6421
 7919SOL     OW35215   3.617   0.984   4.267  0.3901  0.4906  0.6408
 7919SOL    HW135216   3.626   0.979   4.172 -4.1600  0.6361  0.1968
 7919SOL    HW235217   3.604   1.077   4.283 -4.2683 -0.0489  0.0502
 7920SOL     OW35218   0.582   2.366  14.293 -0.2175  0.4224 -0.3386
 7920SOL    HW135219   0.650   2.392  14.356 -1.1160  0.0705  0.7534
 7920SOL    HW235220   0.575   2.277  14.327 -1.1608  1.1455  1.3478
 7921SOL     OW35221   0.718   2.507   6.728  0.5461  0.6346  0.3964
 7921SOL    HW135222   0.774   2.469   6.796 -1.9348 -1.7557  1.0919
 7921SOL    HW235223   0.645   2.544   6.777 -1.1679 -1.6711 -0.4289
 7922SOL     OW35224   3.048   0.352   6.820 -0.3788  0.0574 -0.1026
 7922SOL    HW135225   3.005   0.312   6.896  0.1242  0.2380  0.2768
 7922SOL    HW235226   3.017   0.442   6.813  0.2132  0.3761  1.2607
 7923SOL     OW35227   2.200   0.305   3.936  0.1656  0.5840  0.0573
 7923SOL    HW135228   2.287   0.339   3.911  0.7973 -0.1495  1.2741
 7923SOL    HW235229   2.156   0.386   3.961 -2.5234 -0.5378 -1.0553
 7924SOL     OW35230   0.828   3.557   8.078 -0.1703  0.5137 -0.1558
 7924SOL    HW135231   0.809   3.554   7.985 -0.0531 -1.8216 -0.1017
 7924SOL    HW235232   0.898   3.622   8.080  1.0418 -0.7471 -1.7386
 7925SOL     OW35233   4.260   2.738   3.108 -0.4028  0.3449 -0.0214
 7925SOL    HW135234   4.342   2.786   3.115  0.3694 -1.1806  1.3734
 7925SOL    HW235235   4.203   2.779   3.173 -0.1928 -2.2227  1.7689
 7926SOL     OW35236   0.102   3.122   1.774  0.2434 -0.1578 -0.5960
 7926SOL    HW135237   0.070   3.083   1.692  1.2792 -2.7502  0.2567
 7926SOL    HW235238   0.074   3.210   1.748  1.5226  0.3881 -0.1415
 7927SOL     OW35239   1.348   1.078  13.002  0.3842  0.2959 -0.3256
 7927SOL    HW135240   1.327   1.149  12.941  0.3641 -0.0084 -0.6695
 7927SOL    HW235241   1.437   1.049  12.985  1.1380  2.6276 -0.3733
 7928SOL     OW35242   3.642   1.206  16.081 -0.5161  0.1344 -0.2178
 7928SOL    HW135243   3.678   1.119  16.094 -0.3519  0.5044  1.8346
 7928SOL    HW235244   3.700   1.232  16.010 -1.0351 -0.6376 -0.9202
 7929SOL     OW35245   0.293   2.601   3.298  0.0775 -0.1446  0.2901
 7929SOL    HW135246   0.305   2.586   3.204 -1.8871  1.2626 -0.1971
 7929SOL    HW235247   0.199   2.582   3.289  0.2478 -1.3192  1.0450
 7930SOL     OW35248   0.936   4.640  14.763 -0.4881 -0.0475  0.0435
 7930SOL    HW135249   0.954   4.547  14.747  0.3911  0.1303 -0.0193
 7930SOL    HW235250   0.885   4.661  14.686  1.6077  1.7181 -0.8800
 7931SOL     OW35251   4.718   2.671   7.759  0.8840  1.2098  0.0202
 7931SOL    HW135252   4.690   2.601   7.819  1.7664  0.0920 -0.8854
 7931SOL    HW235253   0.061   2.712   7.814  0.2396 -0.4602  2.0446
 7932SOL     OW35254   3.661   0.936  10.005  0.0261 -0.0107  0.4171
 7932SOL    HW135255   3.709   0.957   9.926  0.8113 -2.8939  0.1388
 7932SOL    HW235256   3.709   0.863  10.045  3.6968  1.7933 -0.7470
 7933SOL     OW35257   4.378   3.599   4.473  0.3445 -0.2925  0.1096
 7933SOL    HW135258   4.295   3.553   4.460 -0.0079  0.4145 -0.1492
 7933SOL    HW235259   4.359   3.676   4.527 -0.4605  1.0390 -2.0807
 7934SOL     OW35260   1.638   0.504  10.668 -0.1184  0.4369  0.5250
 7934SOL    HW135261   1.727   0.490  10.636 -1.1952 -3.1844 -0.9607
 7934SOL    HW235262   1.646   0.536  10.757  0.0927  0.6726  0.4190
 7935SOL     OW35263   3.099   4.418  14.264  0.1968 -0.1453  0.0886
 7935SOL    HW135264   3.143   4.381  14.340  1.8157  1.1958 -0.1961
 7935SOL    HW235265   3.060   4.336  14.234 -2.1375  0.1768  2.2074
 7936SOL     OW35266   3.080   3.491   0.497  0.3710 -0.2665  0.1969
 7936SOL    HW135267   3.066   3.582   0.472 -2.4645 -1.3513 -2.0467
 7936SOL    HW235268   3.009   3.445   0.453 -2.3586  3.0144  1.1259
 7937SOL     OW35269   1.588   4.640  16.579  0.2322 -0.1783  0.0957
 7937SOL    HW135270   1.567   4.701  16.650 -0.6505  1.0786 -1.2450
 7937SOL    HW235271   1.503   4.598  16.568 -0.5968  2.3679 -3.2517
 7938SOL     OW35272   1.336   2.309   0.591  0.1620 -0.4139  0.1009
 7938SOL    HW135273   1.264   2.315   0.528  1.0243 -2.7370 -1.1250
 7938SOL    HW235274   1.281   2.300   0.669 -1.5886 -2.7777 -1.3987
 7939SOL     OW35275   3.702   3.129   8.747  0.1043  0.0441  0.0228
 7939SOL    HW135276   3.757   3.131   8.825 -0.2521  0.0418  0.2762
 7939SOL    HW235277   3.740   3.201   8.696 -2.1866  1.1731 -0.1085
 7940SOL     OW35278   0.253   3.870   3.890  0.6261 -0.2800  0.4471
 7940SOL    HW135279   0.274   3.896   3.980 -1.4625  1.6100  0.4145
 7940SOL    HW235280   0.274   3.777   3.889  2.1437  0.0856 -1.0467
 7941SOL     OW35281   0.590   2.388   0.499 -0.3601  0.2405 -0.2231
 7941SOL    HW135282   0.557   2.467   0.457  0.7282  1.0455  0.4215
 7941SOL    HW235283   0.627   2.430   0.577  1.0331  1.0244 -1.3037
 7942SOL     OW35284   3.890   4.711   6.693 -0.6381  0.4721 -0.3779
 7942SOL    HW135285   3.831   0.036   6.635  0.2858  1.9333 -0.1018
 7942SOL    HW235286   3.959   0.054   6.698  0.2690 -0.3504 -1.8952
 7943SOL     OW35287   0.267   1.239   9.260  0.6106  0.4230  0.4021
 7943SOL    HW135288   0.178   1.248   9.294 -0.0911 -1.9734 -0.7816
 7943SOL    HW235289   0.300   1.182   9.330 -0.3197  0.2201  0.6648
 7944SOL     OW35290   0.327   1.863  16.068  0.1462 -0.4276  0.2913
 7944SOL    HW135291   0.300   1.820  15.986 -3.5931  2.1382  0.1933
 7944SOL    HW235292   0.407   1.909  16.044 -0.9475  0.9518 -0.7135
 7945SOL     OW35293   0.554   4.353  12.964  0.7359  0.7399 -0.3792
 7945SOL    HW135294   0.479   4.378  12.910  0.4786  3.1662  1.1143
 7945SOL    HW235295   0.518   4.275  13.004  0.4417  0.5775 -0.9608
 7946SOL     OW35296   3.584   0.905   7.129  0.2161  0.3099  0.4515
 7946SOL    HW135297   3.669   0.886   7.089  0.4685  1.5471  0.3908
 7946SOL    HW235298   3.524   0.838   7.096  1.3014 -0.4469  0.0099
 7947SOL     OW35299   4.575   1.750   6.778 -0.0364  0.8324  0.3061
 7947SOL    HW135300   4.516   1.688   6.736  0.0993 -0.3928  1.9201
 7947SOL    HW235301   4.663   1.726   6.747 -0.2239  1.4041 -0.6829
 7948SOL     OW35302   2.022   1.705  15.332 -0.0068 -0.1049  0.2591
 7948SOL    HW135303   2.006   1.681  15.241 -1.3063 -1.6333  0.8957
 7948SOL    HW235304   2.017   1.801  15.334  3.7272  0.1681 -2.6038
 7949SOL     OW35305   1.310   1.534   9.487  0.0903 -0.0449 -0.3150
 7949SOL    HW135306   1.317   1.456   9.543 -1.5071 -0.7632 -1.0967
 7949SOL    HW235307   1.324   1.599   9.556 -1.4445 -0.6378  0.5573
 7950SOL     OW35308   2.146   1.849   2.557 -0.4358  0.3319  0.8221
 7950SOL    HW135309   2.241   1.854   2.547 -0.4285 -1.8779 -0.1634
 7950SOL    HW235310   2.148   1.759   2.589  0.6560  0.4673  1.1565
 7951SOL     OW35311   1.634   1.714   7.487  0.1822  0.2266  0.4039
 7951SOL    HW135312   1.661   1.656   7.559 -1.1683 -0.1921  0.5650
 7951SOL    HW235313   1.565   1.765   7.528  0.4668  0.2133  0.9036
 7952SOL     OW35314   1.742   2.266   6.586 -0.2999  0.2783 -0.3427
 7952SOL    HW135315   1.739   2.244   6.493  0.4614 -2.0226  0.1836
 7952SOL    HW235316   1.784   2.352   6.577  0.3446 -0.0613 -0.5965
 7953SOL     OW35317   1.902   2.535  15.666  0.3689 -0.2065 -0.4510
 7953SOL    HW135318   1.904   2.497  15.579  0.8312 -0.2662 -0.4147
 7953SOL    HW235319   1.866   2.623  15.653  0.4984 -0.2096 -0.8090
 7954SOL     OW35320   2.845   0.893  12.578 -0.1600 -0.1130  0.4125
 7954SOL    HW135321   2.854   0.939  12.495 -1.7289 -1.1956 -0.3415
 7954SOL    HW235322   2.905   0.820  12.562 -0.2248 -0.7611  3.0835
 7955SOL     OW35323   1.196   3.000   7.537  0.7607  0.0534  0.4151
 7955SOL    HW135324   1.139   2.927   7.562  0.2652  0.9112  1.7655
 7955SOL    HW235325   1.262   2.959   7.481  1.2772 -0.1862  1.1983
 7956SOL     OW35326   2.083   0.342   4.212  0.6899  0.4815 -0.1744
 7956SOL    HW135327   2.125   0.261   4.185 -0.2115  0.2307 -0.7960
 7956SOL    HW235328   2.017   0.310   4.274  0.8741 -1.3070 -0.9027
 7957SOL     OW35329   3.745   0.205  10.348 -0.5538  0.1884 -0.3610
 7957SOL    HW135330   3.712   0.254  10.273 -0.5286 -0.0693 -0.5411
 7957SOL    HW235331   3.806   0.153  10.296 -0.9264 -3.5686  2.9784
 7958SOL     OW35332   2.982   1.882   8.853  0.0568 -0.0938  0.0891
 7958SOL    HW135333   3.035   1.803   8.857  0.3681  0.1833  1.3610
 7958SOL    HW235334   3.037   1.947   8.897 -0.2957  0.6118 -0.5065
 7959SOL     OW35335   3.038   1.415   1.447 -0.0349 -0.2529 -0.0107
 7959SOL    HW135336   3.061   1.378   1.532 -0.5227  1.0642  0.7030
 7959SOL    HW235337   3.125   1.395   1.413  0.3480  0.4957  0.5117
 7960SOL     OW35338   3.787   4.708   2.910 -0.3645 -0.2351 -0.8850
 7960SOL    HW135339   3.741   4.639   2.957 -1.8924  1.1515 -0.3119
 7960SOL    HW235340   3.766   4.692   2.818  2.2709 -1.2644 -1.2905
 7961SOL     OW35341   1.743   0.007   8.567  0.0741  0.2699 -0.1249
 7961SOL    HW135342   1.743   0.043   8.479  0.5030 -2.2095 -1.1394
 7961SOL    HW235343   1.670   0.045   8.616 -0.5279 -0.4977 -0.4283
 7962SOL     OW35344   1.111   3.582   8.819  0.4001 -0.5382  0.1829
 7962SOL    HW135345   1.088   3.584   8.912 -1.0198 -0.4530 -0.1718
 7962SOL    HW235346   1.034   3.546   8.776 -0.6575  0.2564  1.4158
 7963SOL     OW35347   3.476   1.777   8.886 -0.0501  0.2720 -0.0558
 7963SOL    HW135348   3.395   1.818   8.916 -0.4408 -0.0282 -0.7212
 7963SOL    HW235349   3.511   1.742   8.968 -0.8514 -2.0388 -0.7232
 7964SOL     OW35350   0.884   0.095   2.818  0.0663  0.0791 -0.0612
 7964SOL    HW135351   0.800   0.050   2.832 -0.1016  0.3479 -0.1919
 7964SOL    HW235352   0.935   0.029   2.771  0.0114 -0.4164  0.5671
 7965SOL     OW35353   0.972   1.865   2.795  0.0847 -0.3048 -0.5470
 7965SOL    HW135354   0.972   1.906   2.881  1.2709 -0.2915 -0.5446
 7965SOL    HW235355   1.060   1.892   2.767 -0.0323 -0.9448 -1.5586
 7966SOL     OW35356   1.349   0.459   5.911  0.1746  0.1028 -0.2170
 7966SOL    HW135357   1.316   0.402   5.981 -2.4225  2.0266  0.0924
 7966SOL    HW235358   1.285   0.529   5.908 -1.8466 -1.7369 -0.0626
 7967SOL     OW35359   1.475   3.821   2.925 -0.0632 -0.4172 -0.3391
 7967SOL    HW135360   1.564   3.791   2.947 -0.1190 -1.5252 -1.6474
 7967SOL    HW235361   1.493   3.914   2.936 -3.1080  0.2523 -0.9704
 7968SOL     OW35362   1.714   3.674   5.296  0.0479  0.5951  0.4188
 7968SOL    HW135363   1.726   3.728   5.218 -0.0154  2.7700  1.9315
 7968SOL    HW235364   1.620   3.683   5.311 -0.3409  0.5361 -1.9329
 7969SOL     OW35365   0.687   1.538   3.324  0.3201 -0.4010  0.2307
 7969SOL    HW135366   0.643   1.511   3.244 -1.3882 -0.1532  1.0847
 7969SOL    HW235367   0.666   1.467   3.385  1.8033 -0.2780  0.8912
 7970SOL     OW35368   2.496   2.983   5.384 -0.9613 -0.3167  0.2840
 7970SOL    HW135369   2.417   2.994   5.437 -0.3973  1.0907  0.8323
 7970SOL    HW235370   2.519   2.891   5.400 -1.4075 -0.4096  0.3915
 7971SOL     OW35371   4.675   4.611   7.039  0.0645  0.3833  0.1026
 7971SOL    HW135372   0.048   4.613   7.044  0.0430 -0.4917  0.9023
 7971SOL    HW235373   4.665   4.525   6.998 -0.9275 -0.7218  2.6622
 7972SOL     OW35374   2.510   3.983  11.809 -0.2990 -0.5140  0.3546
 7972SOL    HW135375   2.461   3.905  11.833 -2.0964 -0.8460 -4.2528
 7972SOL    HW235376   2.545   3.955  11.724 -1.8357 -1.2129 -0.0324
 7973SOL     OW35377   0.504   1.768   2.995 -0.1961  0.2039 -0.2687
 7973SOL    HW135378   0.574   1.731   3.048  0.1555  1.7096  0.3201
 7973SOL    HW235379   0.555   1.819   2.933 -0.0951  1.4373  0.8315
 7974SOL     OW35380   4.507   3.605   2.511  0.5682 -0.1741  0.1880
 7974SOL    HW135381   4.446   3.632   2.580  0.4503  1.3546 -0.5116
 7974SOL    HW235382   4.551   3.533   2.554 -0.1981 -0.0559  1.1676
 7975SOL     OW35383   0.930   0.518   6.946  0.5672 -0.2069 -0.8250
 7975SOL    HW135384   0.912   0.523   7.040  0.4292  0.9690 -0.9149
 7975SOL    HW235385   0.853   0.466   6.924 -0.3653  2.1912 -3.1612
 7976SOL     OW35386   1.332   2.093   1.800  0.1638 -0.8238  0.4165
 7976SOL    HW135387   1.259   2.101   1.861  0.1147 -0.7937  0.3544
 7976SOL    HW235388   1.343   2.185   1.774 -3.3590  0.0867  2.2166
 7977SOL     OW35389   1.132   3.458   3.206  0.4025 -0.3909  0.1798
 7977SOL    HW135390   1.180   3.520   3.150  0.3527 -0.9174 -0.4447
 7977SOL    HW235391   1.196   3.387   3.207 -0.5248 -1.1979  1.3105
 7978SOL     OW35392   1.078   1.334  16.454  0.6092 -0.2955  0.2512
 7978SOL    HW135393   1.031   1.297  16.380 -1.1827  0.1937  1.1431
 7978SOL    HW235394   1.152   1.275  16.470  0.9100  0.2762  1.0147
 7979SOL     OW35395   2.491   4.475  16.272  0.2726  0.3715 -0.1151
 7979SOL    HW135396   2.443   4.499  16.193  0.6000  2.5104  0.3489
 7979SOL    HW235397   2.577   4.456  16.235  1.1595  0.9318  1.6647
 7980SOL     OW35398   4.426   0.620   1.969  0.2323 -0.4583 -0.3149
 7980SOL    HW135399   4.456   0.632   2.059  1.1625  1.3136 -0.8668
 7980SOL    HW235400   4.494   0.665   1.920  0.2550  0.6954  0.7732
 7981SOL     OW35401   3.585   3.327   2.460 -0.2077  0.1038 -0.3058
 7981SOL    HW135402   3.603   3.376   2.540  0.1053 -1.1861  0.4225
 7981SOL    HW235403   3.595   3.396   2.394 -1.1421  2.6040  2.1721
 7982SOL     OW35404   0.224   2.162   3.210 -1.1771 -0.0901  0.2617
 7982SOL    HW135405   0.283   2.188   3.281 -0.5110 -1.4630  0.2233
 7982SOL    HW235406   0.269   2.183   3.128 -0.6641  2.3433  1.1604
 7983SOL     OW35407   4.016   3.438   1.746  0.2134  0.3936 -0.5930
 7983SOL    HW135408   4.067   3.497   1.801 -0.9253 -0.6700  1.5763
 7983SOL    HW235409   4.091   3.390   1.711  0.2078 -0.1530  0.1486
 7984SOL     OW35410   1.692   4.023   1.038  0.3150  0.3265  0.4055
 7984SOL    HW135411   1.779   3.986   1.048 -0.4960 -1.5064  0.7001
 7984SOL    HW235412   1.707   4.094   0.976  2.3085 -0.6423 -0.2030
 7985SOL     OW35413   3.885   1.381   6.140  0.3230  0.3473 -0.4997
 7985SOL    HW135414   3.868   1.441   6.213 -0.0129 -1.7321  1.1417
 7985SOL    HW235415   3.894   1.438   6.064  0.3614  2.1799  0.8797
 7986SOL     OW35416   0.166   0.122   9.210  0.2980 -0.0296 -0.0933
 7986SOL    HW135417   0.072   0.127   9.196  0.1927  0.5023  0.7950
 7986SOL    HW235418   0.182   0.187   9.278 -0.5338 -1.7290  1.7388
 7987SOL     OW35419   3.642   3.225   1.727 -0.0538 -0.2389 -0.2164
 7987SOL    HW135420   3.693   3.144   1.729  2.8069  1.5748 -0.3812
 7987SOL    HW235421   3.668   3.273   1.806 -0.1227 -1.6063  0.6321
 7988SOL     OW35422   1.580   0.917   8.743 -0.0298  0.4635 -0.1428
 7988SOL    HW135423   1.485   0.931   8.750 -0.1129  0.1151 -0.5444
 7988SOL    HW235424   1.613   0.998   8.780 -0.2943 -0.4203  2.0358
 7989SOL     OW35425   2.506   1.537  11.603 -0.3464 -0.0481 -0.4936
 7989SOL    HW135426   2.516   1.629  11.579  1.8567  0.2522  1.6213
 7989SOL    HW235427   2.546   1.490  11.531 -3.4783 -2.1030 -0.9041
 7990SOL     OW35428   3.779   1.580   9.845 -0.0528  0.3393  0.0309
 7990SOL    HW135429   3.703   1.536   9.881  1.7649 -1.7437  1.3294
 7990SOL    HW235430   3.731   1.627   9.777  0.4750  1.6170  0.5555
 7991SOL     OW35431   1.577   2.442  14.642 -0.0511  0.9738  0.4242
 7991SOL    HW135432   1.563   2.375  14.575  0.8855 -1.2364  2.4382
 7991SOL    HW235433   1.529   2.513  14.599 -0.6258  0.0838 -0.4199
 7992SOL     OW35434   4.125   0.616  16.192  0.1100  0.4477  0.2613
 7992SOL    HW135435   4.050   0.672  16.215 -1.4123 -0.9101 -1.4242
 7992SOL    HW235436   4.069   0.544  16.163  0.5018  1.1898 -2.2805
 7993SOL     OW35437   2.606   0.220   7.688  0.1216  0.3274  0.1653
 7993SOL    HW135438   2.662   0.298   7.680  1.6150 -0.8197 -0.6554
 7993SOL    HW235439   2.575   0.242   7.776 -1.4052  0.7661 -0.4762
 7994SOL     OW35440   0.239   0.655  15.837  0.1992 -0.3876 -0.3168
 7994SOL    HW135441   0.268   0.746  15.826  0.5789 -0.6694 -1.6522
 7994SOL    HW235442   0.188   0.653  15.918  0.9834 -2.4548  0.1294
 7995SOL     OW35443   0.095   0.046  11.596 -0.3074  0.2490  0.2862
 7995SOL    HW135444   0.091   4.711  11.672  0.6256 -0.0968  0.0641
 7995SOL    HW235445   0.004   0.040  11.567 -0.1672  0.9173 -0.3046
 7996SOL     OW35446   0.421   4.190   5.042 -0.8306 -0.1579 -0.7934
 7996SOL    HW135447   0.396   4.279   5.068  0.4450 -0.3309  1.0312
 7996SOL    HW235448   0.496   4.172   5.099 -1.1129 -2.1792 -1.0669
 7997SOL     OW35449   1.223   2.788  13.855  0.0461 -0.1645  0.8760
 7997SOL    HW135450   1.267   2.726  13.913  0.6683 -1.0735 -0.5673
 7997SOL    HW235451   1.260   2.873  13.878  2.6541 -0.8464 -0.7875
 7998SOL     OW35452   0.898   0.248  15.572 -0.1677  0.2093 -0.0404
 7998SOL    HW135453   0.882   0.161  15.535  1.7611  0.1016 -0.5937
 7998SOL    HW235454   0.988   0.247  15.539  0.1596  2.4732  0.7733
 7999SOL     OW35455   3.618   0.672   0.820  0.3154  0.6018  0.6921
 7999SOL    HW135456   3.523   0.670   0.808  0.5796 -2.8235 -0.9000
 7999SOL    HW235457   3.621   0.768   0.815 -0.3662  0.6346  0.9496
 8000SOL     OW35458   0.945   0.620  14.021  0.0288 -0.3240  0.0856
 8000SOL    HW135459   0.966   0.708  13.990  0.8246  0.0695  1.7583
 8000SOL    HW235460   1.012   0.565  13.982  2.4586  1.9531  1.0456
 8001SOL     OW35461   2.733   0.483  11.954  0.0516 -0.0493 -0.1108
 8001SOL    HW135462   2.696   0.395  11.942 -1.8019  0.6590  0.3507
 8001SOL    HW235463   2.806   0.471  12.014  1.2094 -1.1895 -1.7654
 8002SOL     OW35464   2.746   3.723   5.383  0.0474 -0.0826  0.0358
 8002SOL    HW135465   2.710   3.708   5.296  0.1236  0.1640 -0.0362
 8002SOL    HW235466   2.827   3.671   5.391  1.1536  1.4652 -1.2725
 8003SOL     OW35467   1.864   0.876   8.328  0.6033  0.2405 -0.1592
 8003SOL    HW135468   1.865   0.956   8.380  0.2982 -0.0313  0.2665
 8003SOL    HW235469   1.825   0.817   8.394 -1.8694  0.9152 -0.9970
 8004SOL     OW35470   0.511   1.252   5.609  0.3539  0.2203 -0.3749
 8004SOL    HW135471   0.456   1.243   5.687  0.7710 -0.1693 -0.1264
 8004SOL    HW235472   0.595   1.285   5.640  0.6942  1.2573 -2.4046
 8005SOL     OW35473   1.574   3.021  15.275 -0.7455 -0.0790  0.3413
 8005SOL    HW135474   1.515   2.982  15.339 -0.1866 -0.9848  0.2966
 8005SOL    HW235475   1.522   3.007  15.196  2.7852 -0.2372 -1.9422
 8006SOL     OW35476   2.412   1.600   3.010 -0.2197 -0.2259 -0.0012
 8006SOL    HW135477   2.452   1.551   2.937  2.2394  0.6737  0.7580
 8006SOL    HW235478   2.320   1.588   2.988 -0.0932 -1.8092  0.3510
 8007SOL     OW35479   4.311   1.018   9.816  0.5363 -0.3719  0.1774
 8007SOL    HW135480   4.278   1.041   9.729  0.0516 -0.7277  0.2670
 8007SOL    HW235481   4.377   1.086   9.826  0.4948  0.0983 -2.7444
 8008SOL     OW35482   3.369   2.027  16.645  0.2494  0.3143  0.9990
 8008SOL    HW135483   3.362   1.932  16.657 -0.4118  0.3097  0.5750
 8008SOL    HW235484   3.368   2.052  16.738 -0.2776 -0.7647  1.2876
 8009SOL     OW35485   3.746   1.606  16.029  0.1277  0.0526  0.3822
 8009SOL    HW135486   3.756   1.645  15.942 -1.3376 -1.6703 -0.5433
 8009SOL    HW235487   3.661   1.563  16.028  0.9037 -1.4514  0.0511
 8010SOL     OW35488   3.713   3.408  13.203 -0.6904  0.1727 -0.0703
 8010SOL    HW135489   3.738   3.317  13.221 -0.5215  0.3270  0.4975
 8010SOL    HW235490   3.627   3.392  13.166 -0.4445 -2.2962  0.4425
 8011SOL     OW35491   3.568   1.483  12.830  0.1149  0.4095  0.6980
 8011SOL    HW135492   3.538   1.453  12.916 -0.5259 -0.8934  0.0175
 8011SOL    HW235493   3.544   1.409  12.775  0.2272 -0.3822  1.6997
 8012SOL     OW35494   0.276   4.276   4.805  0.1814 -0.3032  0.0672
 8012SOL    HW135495   0.305   4.239   4.887  1.9857  1.4470  0.2242
 8012SOL    HW235496   0.195   4.325   4.822 -0.2484 -1.4729  1.3746
 8013SOL     OW35497   3.093   2.250   8.296  0.1839 -0.6070  0.3663
 8013SOL    HW135498   3.056   2.328   8.255  1.2450 -0.5952 -0.5812
 8013SOL    HW235499   3.020   2.220   8.350 -0.9089  1.2417 -0.1034
 8014SOL     OW35500   4.358   3.519  12.328 -0.1665  0.3638 -0.5765
 8014SOL    HW135501   4.429   3.455  12.339  0.8401  1.6856  0.6715
 8014SOL    HW235502   4.315   3.511  12.413  1.4088 -2.9156 -0.0808
 8015SOL     OW35503   1.031   4.497   7.558 -0.1261 -0.1908  0.1524
 8015SOL    HW135504   1.082   4.458   7.487  0.6770 -1.3688  1.3790
 8015SOL    HW235505   0.940   4.493   7.530  0.1796 -2.8081 -0.4984
 8016SOL     OW35506   4.368   4.625   5.835 -0.1366  0.3085  0.6227
 8016SOL    HW135507   4.278   4.595   5.821 -0.4438  0.0609  3.1466
 8016SOL    HW235508   4.367   4.609   5.929 -0.6574  1.9220  0.8936
 8017SOL     OW35509   0.180   2.012   4.689 -1.0356  0.2622 -0.1182
 8017SOL    HW135510   0.251   1.976   4.637 -0.9551 -1.2720  1.0564
 8017SOL    HW235511   0.211   2.102   4.696 -2.7400  0.9547 -1.3471
 8018SOL     OW35512   4.093   2.860   6.612 -0.0336 -0.6101  0.4224
 8018SOL    HW135513   4.057   2.809   6.684  0.2874  0.3226  1.2487
 8018SOL    HW235514   4.020   2.909   6.572  0.7723  0.4146  0.2083
 8019SOL     OW35515   3.504   2.554   4.744  0.8232  0.2983 -0.3767
 8019SOL    HW135516   3.473   2.476   4.697 -0.4624  0.8063 -0.3694
 8019SOL    HW235517   3.435   2.614   4.717  1.4940  1.5540  0.6915
 8020SOL     OW35518   1.826   1.355   5.830  0.5008 -0.4996  0.5785
 8020SOL    HW135519   1.900   1.299   5.854 -0.7833 -1.7582  1.5883
 8020SOL    HW235520   1.749   1.298   5.831  0.5498 -0.6059 -1.0901
 8021SOL     OW35521   2.367   4.397  16.985  0.1894 -0.1323 -0.0581
 8021SOL    HW135522   2.291   4.454  16.993  1.0209  0.7685  1.4753
 8021SOL    HW235523   2.345   4.330  17.049  1.5519 -1.1523 -0.6557
 8022SOL     OW35524   1.335   2.615   3.390  0.0289  0.1850 -0.5020
 8022SOL    HW135525   1.418   2.588   3.350 -0.3403  1.5746 -2.2000
 8022SOL    HW235526   1.327   2.699   3.345 -1.1149 -1.0178 -2.5176
 8023SOL     OW35527   1.382   2.996  15.080 -0.0600  0.4715  0.1430
 8023SOL    HW135528   1.301   3.032  15.044 -1.3448  0.0699  2.5909
 8023SOL    HW235529   1.335   2.925  15.125 -0.8011 -0.4504 -2.1140
 8024SOL     OW35530   2.268   1.903   3.090 -0.2924  0.2306  0.5525
 8024SOL    HW135531   2.317   1.924   3.010 -0.9527  1.0883  0.3748
 8024SOL    HW235532   2.220   1.822   3.069  0.0119  0.8830 -2.7060
 8025SOL     OW35533   1.404   1.333   7.554 -0.2185  0.1970  0.2966
 8025SOL    HW135534   1.461   1.347   7.630  0.9966 -1.5434 -0.2821
 8025SOL    HW235535   1.346   1.410   7.552  1.0358  1.1457  0.2194
 8026SOL     OW35536   3.158   1.878   3.970  0.8857 -0.6149 -0.0486
 8026SOL    HW135537   3.081   1.919   3.929  1.3268 -0.0180 -0.2776
 8026SOL    HW235538   3.224   1.884   3.900  2.2416  0.6540  1.3524
 8027SOL     OW35539   3.069   4.679   3.007 -0.3013 -0.6931 -0.1536
 8027SOL    HW135540   3.120   4.700   3.085 -0.8330  0.8799 -0.2408
 8027SOL    HW235541   3.001   0.022   3.014  0.6248  0.0746  1.3893
 8028SOL     OW35542   4.555   0.592   8.107 -0.5038 -0.4948 -0.9610
 8028SOL    HW135543   4.604   0.672   8.127  0.7852 -1.3048 -0.9004
 8028SOL    HW235544   4.482   0.596   8.169 -0.6216 -0.7191 -1.0856
 8029SOL     OW35545   1.374   3.337   3.803 -0.1595 -0.2877  0.0150
 8029SOL    HW135546   1.371   3.350   3.708 -1.4122 -0.0718  0.0798
 8029SOL    HW235547   1.281   3.340   3.826 -0.3051  0.5412 -0.6594
 8030SOL     OW35548   1.095   1.121   6.298 -0.2497  0.3139 -0.5463
 8030SOL    HW135549   1.073   1.171   6.219 -1.1636  0.9710  0.1302
 8030SOL    HW235550   1.162   1.178   6.337  0.4016  0.3947 -1.7613
 8031SOL     OW35551   4.598   0.423   2.882 -0.1890  0.4799  0.5702
 8031SOL    HW135552   4.539   0.348   2.881  1.3653 -0.6819 -3.3484
 8031SOL    HW235553   4.648   0.397   2.804 -2.0640 -1.5382  0.0441
 8032SOL     OW35554   0.969   4.580  17.083  0.4979 -0.4813  0.1181
 8032SOL    HW135555   1.032   4.578  17.155  1.1066 -0.5243 -0.4095
 8032SOL    HW235556   0.889   4.584  17.135 -0.6379 -1.0637 -1.5894
 8033SOL     OW35557   0.923   0.491   5.409  0.1216  0.4408 -0.2068
 8033SOL    HW135558   0.885   0.529   5.330 -3.1258  1.8291  2.0093
 8033SOL    HW235559   0.860   0.525   5.472  0.9543 -1.1296  1.4613
 8034SOL     OW35560   1.670   3.389   4.120  0.1419 -0.2469  0.2983
 8034SOL    HW135561   1.686   3.451   4.048  0.6846  0.4510  1.0154
 8034SOL    HW235562   1.657   3.309   4.070 -0.0413 -1.3418  2.0920
 8035SOL     OW35563   2.347   0.126   7.346  0.2580 -0.2176 -0.2721
 8035SOL    HW135564   2.418   0.105   7.285 -0.1752 -0.7337 -0.5997
 8035SOL    HW235565   2.296   0.045   7.349  1.3349 -0.8858  0.0953
 8036SOL     OW35566   1.744   4.680   3.415 -0.2228  0.5887 -0.0337
 8036SOL    HW135567   1.746   4.671   3.319  1.1025  0.6527 -0.0110
 8036SOL    HW235568   1.835   4.702   3.434 -0.1438  0.3693 -0.1525
 8037SOL     OW35569   1.411   2.396   1.796 -0.0853 -0.0790 -0.0448
 8037SOL    HW135570   1.497   2.439   1.795 -0.1166  0.0082  1.0029
 8037SOL    HW235571   1.378   2.437   1.876  0.5738 -0.7267  0.5574
 8038SOL     OW35572   3.220   0.311   4.509  0.2998 -0.2853  0.0163
 8038SOL    HW135573   3.150   0.258   4.471 -2.6148  1.7889  2.4368
 8038SOL    HW235574   3.292   0.259   4.475  0.8476 -0.1874  1.0191
 8039SOL     OW35575   2.655   3.126  11.054  0.3831 -0.5888  0.4603
 8039SOL    HW135576   2.596   3.180  11.108 -2.5360 -1.6567 -1.6636
 8039SOL    HW235577   2.605   3.130  10.972 -1.0055 -0.3187  1.3108
 8040SOL     OW35578   0.339   3.073   4.231 -0.6632  0.2022  0.5099
 8040SOL    HW135579   0.388   2.995   4.204  0.1995  1.1365 -0.5987
 8040SOL    HW235580   0.333   3.118   4.147 -1.8766 -2.6319 -0.9097
 8041SOL     OW35581   1.860   4.345   3.820  0.3544 -0.0025 -0.3060
 8041SOL    HW135582   1.882   4.257   3.791  1.1336  0.1319 -0.1139
 8041SOL    HW235583   1.799   4.320   3.889  0.1963 -0.0315 -0.4548
 8042SOL     OW35584   4.626   3.830  12.979 -0.6510  0.0463 -0.2691
 8042SOL    HW135585   4.673   3.899  12.934  0.6623 -0.5757  0.1525
 8042SOL    HW235586   4.581   3.789  12.905 -3.0619  1.5728  0.3371
 8043SOL     OW35587   4.314   3.374   5.612 -0.0979 -0.7538  0.4754
 8043SOL    HW135588   4.371   3.449   5.594 -1.2266 -0.2278 -0.8865
 8043SOL    HW235589   4.312   3.365   5.707 -2.1686 -1.6318  0.3427
 8044SOL     OW35590   2.069   4.101   1.896  0.0163 -0.0704 -0.3472
 8044SOL    HW135591   2.076   4.012   1.928  1.1414  0.1355 -0.0065
 8044SOL    HW235592   1.976   4.120   1.906  0.1995  2.0294 -2.4314
 8045SOL     OW35593   2.647   1.032   4.710 -0.6179 -0.1714 -0.3634
 8045SOL    HW135594   2.577   0.990   4.662  0.4981 -3.8131  1.1886
 8045SOL    HW235595   2.686   1.104   4.659 -0.8815  0.4181  0.2661
 8046SOL     OW35596   3.114   1.535   8.242 -0.8469 -0.2958  0.1337
 8046SOL    HW135597   3.115   1.462   8.304  0.6057  1.0486  1.6618
 8046SOL    HW235598   3.183   1.594   8.270 -0.6316  0.2463 -1.5480
 8047SOL     OW35599   3.263   4.491  16.604  0.8033 -0.5976 -0.0364
 8047SOL    HW135600   3.349   4.514  16.570  0.0767  0.7115 -1.0199
 8047SOL    HW235601   3.271   4.495  16.699 -0.4045  1.5088 -0.0181
 8048SOL     OW35602   0.780   1.668   5.282 -0.2512 -0.0019 -0.0489
 8048SOL    HW135603   0.701   1.664   5.228 -0.2008 -2.2633  0.0130
 8048SOL    HW235604   0.755   1.743   5.336 -0.3094  0.0888 -0.2021
 8049SOL     OW35605   3.445   2.350   3.284  0.2788  0.0272 -0.1868
 8049SOL    HW135606   3.455   2.276   3.225  3.0584  0.4405 -0.2157
 8049SOL    HW235607   3.394   2.406   3.224  0.6087  1.3026  0.7269
 8050SOL     OW35608   2.646   4.602   6.375 -0.0577  0.4713  0.4456
 8050SOL    HW135609   2.609   4.679   6.419  1.5213  2.9686 -2.6407
 8050SOL    HW235610   2.606   4.605   6.289 -0.8708 -1.2884  0.7704
 8051SOL     OW35611   0.483   1.832   2.152  0.5889 -0.0521 -0.0884
 8051SOL    HW135612   0.444   1.917   2.130 -1.7463 -0.4207  2.5593
 8051SOL    HW235613   0.491   1.836   2.248  0.5774 -2.0109 -0.0063
 8052SOL     OW35614   4.217   1.010   7.581 -0.2396 -0.0756 -1.1493
 8052SOL    HW135615   4.156   0.944   7.547 -0.7276 -0.2623  0.0979
 8052SOL    HW235616   4.292   0.991   7.526 -1.1757 -2.8570 -1.4610
 8053SOL     OW35617   3.308   4.648   7.577  0.6247  0.3519  0.7882
 8053SOL    HW135618   3.314   4.711   7.649  2.2252 -0.6568  1.5534
 8053SOL    HW235619   3.257   4.575   7.611 -1.4039  1.7310  0.7296
 8054SOL     OW35620   0.605   0.604   4.995 -0.4750  0.0150 -0.3503
 8054SOL    HW135621   0.651   0.679   5.034 -2.3292 -0.1886  2.2679
 8054SOL    HW235622   0.522   0.651   4.985 -0.5968 -0.2687 -0.6665
 8055SOL     OW35623   2.921   3.770   5.932 -0.5032  0.2344 -0.0076
 8055SOL    HW135624   2.950   3.851   5.974 -0.3188  0.6961 -1.0362
 8055SOL    HW235625   2.942   3.708   6.002 -2.5135  0.3399  0.6897
 8056SOL     OW35626   0.307   3.940   2.554  0.1413 -0.2645 -0.3823
 8056SOL    HW135627   0.364   4.015   2.537  1.4726 -1.5419 -1.6081
 8056SOL    HW235628   0.309   3.928   2.649 -0.8697 -1.5827 -0.5170
 8057SOL     OW35629   2.966   0.713   9.696 -0.3771  0.1808  0.6546
 8057SOL    HW135630   2.916   0.684   9.619  1.2374  2.8577 -1.3965
 8057SOL    HW235631   2.904   0.783   9.718 -0.2654  0.2774  0.6602
 8058SOL     OW35632   3.657   4.373  15.011 -0.1243 -0.3087 -0.4683
 8058SOL    HW135633   3.655   4.396  15.104 -0.9062  0.7221 -0.7424
 8058SOL    HW235634   3.584   4.430  14.987  0.0067  0.1949  0.3149
 8059SOL     OW35635   0.471   1.851   7.581 -0.2139 -0.3094  0.2810
 8059SOL    HW135636   0.527   1.843   7.504  1.6540  1.5726  1.4527
 8059SOL    HW235637   0.419   1.932   7.575 -1.2164 -1.0315 -0.7221
 8060SOL     OW35638   0.647   1.555   6.507 -0.2840 -0.3110  0.3841
 8060SOL    HW135639   0.587   1.495   6.551  2.3077 -3.5803 -0.5291
 8060SOL    HW235640   0.616   1.578   6.419  0.8215 -2.8237 -0.6786
 8061SOL     OW35641   2.792   2.922   0.137 -0.1923  0.1797 -0.6855
 8061SOL    HW135642   2.871   2.868   0.144 -1.6713 -1.9109 -0.1205
 8061SOL    HW235643   2.724   2.855   0.137  1.2152 -1.2550 -0.5943
 8062SOL     OW35644   0.486   4.623   4.845 -0.1822  0.4302  0.7111
 8062SOL    HW135645   0.545   4.641   4.772  0.7073  0.7295  1.4978
 8062SOL    HW235646   0.540   4.651   4.919  2.5178  1.0106 -1.4604
 8063SOL     OW35647   0.733   2.184   3.155  0.0018  0.0780 -0.1033
 8063SOL    HW135648   0.683   2.230   3.222  1.6448  0.3832  0.8955
 8063SOL    HW235649   0.814   2.163   3.202  0.0280  0.8797  0.2116
 8064SOL     OW35650   3.237   0.703   8.404  0.1513  0.1871  0.3758
 8064SOL    HW135651   3.316   0.665   8.366  0.0616 -1.7802  2.1927
 8064SOL    HW235652   3.237   0.649   8.483 -3.7167 -1.0056 -0.4552
 8065SOL     OW35653   2.946   4.349   4.557 -0.6560 -0.4435 -0.2178
 8065SOL    HW135654   2.988   4.403   4.489 -3.8966  1.2142 -0.8907
 8065SOL    HW235655   2.868   4.321   4.510 -0.5731  0.1492 -0.7195
 8066SOL     OW35656   1.165   3.839  14.192  0.3654  0.8438 -0.1999
 8066SOL    HW135657   1.102   3.828  14.264 -1.2100  1.0743 -1.5448
 8066SOL    HW235658   1.232   3.902  14.218  1.8098 -0.4253 -0.8321
 8067SOL     OW35659   1.548   1.323   5.211  0.5303 -0.6538 -0.3216
 8067SOL    HW135660   1.552   1.259   5.140 -1.5046 -0.8397 -0.2801
 8067SOL    HW235661   1.537   1.267   5.287 -2.0196 -0.9854 -0.9396
 8068SOL     OW35662   1.862   1.622  10.803 -1.1594  0.4835  0.0233
 8068SOL    HW135663   1.794   1.632  10.737 -2.9088 -0.4904  1.6855
 8068SOL    HW235664   1.835   1.535  10.833 -0.6670  0.5180  0.5679
 8069SOL     OW35665   4.659   4.357   7.196  0.2034  0.4664 -0.1063
 8069SOL    HW135666   4.682   4.276   7.152  2.0644  0.1769  1.4267
 8069SOL    HW235667   4.571   4.372   7.161 -0.1028 -1.0194  0.0334
 8070SOL     OW35668   4.566   2.770   3.879  0.4033  0.3783 -0.2595
 8070SOL    HW135669   4.636   2.832   3.859  0.9219 -0.7719 -2.0078
 8070SOL    HW235670   4.524   2.762   3.793 -1.1427 -2.7738  0.7974
 8071SOL     OW35671   2.869   2.861   5.468  0.0077  0.2702  0.0364
 8071SOL    HW135672   2.833   2.949   5.454  0.2424  0.1727 -1.1831
 8071SOL    HW235673   2.796   2.801   5.481  0.5288 -0.8109 -1.9811
 8072SOL     OW35674   2.694   3.739   3.935 -0.3527 -0.2909  0.3569
 8072SOL    HW135675   2.768   3.686   3.904  1.6192  1.6261  1.8476
 8072SOL    HW235676   2.704   3.718   4.028  0.0705  1.9005  0.7873
 8073SOL     OW35677   2.077   1.092   3.819  0.0674  0.1444 -1.0980
 8073SOL    HW135678   2.126   1.161   3.773 -1.5820  0.6222 -2.1289
 8073SOL    HW235679   1.994   1.138   3.832  1.5251  1.7551  2.5366
 8074SOL     OW35680   2.873   2.538   1.818  0.0634 -0.5270 -0.3684
 8074SOL    HW135681   2.963   2.515   1.798  0.3784  0.3615  0.0327
 8074SOL    HW235682   2.851   2.503   1.904 -0.5534  0.0323 -0.2971
 8075SOL     OW35683   3.686   2.190   5.269  0.1108 -0.8655 -0.1255
 8075SOL    HW135684   3.683   2.265   5.210  0.7808 -1.6791 -1.1833
 8075SOL    HW235685   3.775   2.155   5.276 -0.2770 -1.3944  2.2370
 8076SOL     OW35686   1.853   3.386   7.163  0.0436  0.2503  0.8455
 8076SOL    HW135687   1.850   3.432   7.079  0.4438  1.4608  1.4858
 8076SOL    HW235688   1.778   3.327   7.161  0.0133  0.2564  1.7025
 8077SOL     OW35689   1.020   3.867  17.019 -0.0435  0.1874 -0.4822
 8077SOL    HW135690   0.933   3.863  17.060 -0.4503  0.8806 -1.2787
 8077SOL    HW235691   0.995   3.871  16.926  0.0947  0.6302 -0.4993
 8078SOL     OW35692   0.057   1.145   1.385  0.2181  0.6370  0.0621
 8078SOL    HW135693   0.103   1.174   1.464 -1.3817 -3.9741  2.6608
 8078SOL    HW235694   4.711   1.090   1.419 -0.3895  0.9605 -0.6689
 8079SOL     OW35695   1.200   3.650   9.254 -0.1883 -0.1986  0.3148
 8079SOL    HW135696   1.120   3.656   9.202  0.9573  1.7590 -1.2093
 8079SOL    HW235697   1.212   3.557   9.272  0.7500 -0.2070 -0.3374
 8080SOL     OW35698   3.385   0.310   8.632 -0.2393  0.4177 -0.0906
 8080SOL    HW135699   3.309   0.321   8.689 -0.0303  1.3373  0.0122
 8080SOL    HW235700   3.456   0.311   8.696 -0.7600 -0.4182  0.4988
 8081SOL     OW35701   3.449   3.270   3.577  0.0647 -0.4617  0.1797
 8081SOL    HW135702   3.444   3.182   3.539  0.1872  0.6574 -2.4174
 8081SOL    HW235703   3.542   3.283   3.558 -0.4016  1.8518 -0.4496
 8082SOL     OW35704   4.470   0.192   9.510 -0.5798 -0.6399  0.8329
 8082SOL    HW135705   4.443   0.276   9.474  0.5834  0.1645  1.8215
 8082SOL    HW235706   4.466   0.203   9.605  0.0792 -0.8561  0.8831
 8083SOL     OW35707   4.383   1.861   2.816  0.5182  0.5798  0.0801
 8083SOL    HW135708   4.424   1.917   2.882 -1.7380  3.1633 -0.7287
 8083SOL    HW235709   4.298   1.861   2.859  1.0442 -1.0229  1.1140
 8084SOL     OW35710   3.885   2.571  16.003 -0.7139 -0.6297  0.0352
 8084SOL    HW135711   3.951   2.579  16.073  0.5830  2.0033 -1.4985
 8084SOL    HW235712   3.944   2.601  15.934 -1.5591  0.8167 -0.0696
 8085SOL     OW35713   0.340   2.895   7.792  0.3675 -0.0706 -0.0616
 8085SOL    HW135714   0.258   2.880   7.746 -0.7868  1.3717  1.5194
 8085SOL    HW235715   0.367   2.812   7.831 -0.6704 -0.7459 -0.7729
 8086SOL     OW35716   0.674   0.881   5.100  0.1535  0.4340 -0.1313
 8086SOL    HW135717   0.652   0.838   5.184  3.0419 -1.2385 -0.2476
 8086SOL    HW235718   0.758   0.924   5.115 -0.3875  1.2006  0.7053
 8087SOL     OW35719   3.759   0.730   5.605  0.4812 -0.0646 -0.2137
 8087SOL    HW135720   3.808   0.700   5.528 -0.2509 -0.2821 -0.5962
 8087SOL    HW235721   3.773   0.653   5.660 -0.2722  0.1019  0.1965
 8088SOL     OW35722   4.558   2.776   2.558  0.6303 -0.0980  0.0784
 8088SOL    HW135723   4.587   2.685   2.560  2.9022  0.6418  0.6440
 8088SOL    HW235724   4.466   2.760   2.577  0.9827  0.3663  2.1381
 8089SOL     OW35725   0.245   0.352   5.848  0.1915  0.2260 -0.2065
 8089SOL    HW135726   0.257   0.388   5.760 -0.7483 -2.4173 -1.4121
 8089SOL    HW235727   0.313   0.284   5.850 -0.4564 -0.3975  0.6228
 8090SOL     OW35728   1.398   4.316  14.539  0.0782 -0.6846 -0.2359
 8090SOL    HW135729   1.449   4.259  14.481 -1.6759  0.9816 -3.3862
 8090SOL    HW235730   1.353   4.256  14.598  1.8427 -1.2519  0.5446
 8091SOL     OW35731   0.242   0.507   9.929 -0.5370 -0.3854  0.2791
 8091SOL    HW135732   0.284   0.588   9.958  0.7407 -0.1539 -2.2429
 8091SOL    HW235733   0.262   0.502   9.836  0.2210 -1.1981  0.4841
 8092SOL     OW35734   1.314   2.326   1.502 -0.1510 -0.0934 -0.2043
 8092SOL    HW135735   1.364   2.372   1.435  1.4720 -0.5808  0.6698
 8092SOL    HW235736   1.354   2.348   1.585 -0.7954  1.6438 -0.3533
 8093SOL     OW35737   4.417   1.005   4.333  0.9825  0.3435 -0.3065
 8093SOL    HW135738   4.355   1.004   4.407 -0.8475  1.8180 -1.8062
 8093SOL    HW235739   4.391   0.934   4.274  1.1765 -0.7095  0.8610
 8094SOL     OW35740   3.652   3.963   4.486 -0.0793 -0.3717 -0.1020
 8094SOL    HW135741   3.666   3.869   4.502 -0.4944 -0.1244  1.6877
 8094SOL    HW235742   3.582   3.963   4.421  0.7086  1.6211 -0.9595
 8095SOL     OW35743   1.046   3.934   6.763  0.0973 -0.4809  0.0066
 8095SOL    HW135744   1.126   3.934   6.710  0.5259  1.7195  0.6379
 8095SOL    HW235745   1.008   3.853   6.731 -0.8421 -0.1950  0.3805
 8096SOL     OW35746   0.688   0.614  14.204 -0.2863  0.0640  0.2317
 8096SOL    HW135747   0.654   0.676  14.268  1.2751  1.1974 -0.0433
 8096SOL    HW235748   0.773   0.656  14.185 -0.5678  0.6036  0.1518
 8097SOL     OW35749   2.513   3.490   7.838  0.0255 -0.2957  0.2285
 8097SOL    HW135750   2.470   3.417   7.881 -0.1907 -1.6114 -2.2154
 8097SOL    HW235751   2.606   3.467   7.846 -0.5672 -2.9519 -0.6430
 8098SOL     OW35752   2.956   3.608   6.648 -0.1919  0.0830  0.6221
 8098SOL    HW135753   2.895   3.545   6.685 -0.4860 -0.2914 -0.4845
 8098SOL    HW235754   2.932   3.686   6.697 -2.6282 -0.7523  0.7552
 8099SOL     OW35755   1.595   1.421  14.372  0.9823  0.4009 -0.4679
 8099SOL    HW135756   1.670   1.408  14.314  1.1045  0.2231 -0.2713
 8099SOL    HW235757   1.532   1.469  14.318  1.7452  1.6679 -0.2159
 8100SOL     OW35758   3.828   0.202   1.623 -0.0066  0.1197 -0.2919
 8100SOL    HW135759   3.780   0.222   1.703 -0.3188 -1.0013 -0.1954
 8100SOL    HW235760   3.915   0.211   1.663  0.4886  0.2671 -1.3994
 8101SOL     OW35761   2.986   2.232   3.380  0.5986  0.6318 -0.1314
 8101SOL    HW135762   2.895   2.242   3.353  0.9842 -0.3114 -1.8276
 8101SOL    HW235763   3.026   2.260   3.298  1.1527 -0.0379 -0.0966
 8102SOL     OW35764   4.718   0.087   5.063 -0.0143 -0.1661  0.2942
 8102SOL    HW135765   0.077   0.057   5.026  0.1072  0.5756 -0.0480
 8102SOL    HW235766   0.003   0.048   5.149 -0.6204 -1.9573 -0.4608
 8103SOL     OW35767   4.512   1.204   6.000 -0.6820  0.4704  0.0406
 8103SOL    HW135768   4.419   1.222   6.011 -0.8917 -0.2350 -0.5659
 8103SOL    HW235769   4.547   1.178   6.085 -3.4572  2.6107  1.8020
 8104SOL     OW35770   2.232   2.427   7.287 -0.3748  0.0348  0.1146
 8104SOL    HW135771   2.208   2.473   7.206  2.2714  0.9655 -0.1437
 8104SOL    HW235772   2.172   2.354   7.276 -1.9206  1.7686 -3.0126
 8105SOL     OW35773   1.459   3.726   5.282  0.0884  0.6127  0.2321
 8105SOL    HW135774   1.379   3.677   5.264  0.1204  0.4536  0.5316
 8105SOL    HW235775   1.425   3.785   5.350  0.9798 -0.0382  1.2336
 8106SOL     OW35776   4.548   3.710  16.797 -0.4336  0.1368 -0.2937
 8106SOL    HW135777   4.614   3.690  16.863 -0.9302 -0.7233 -0.0636
 8106SOL    HW235778   4.526   3.798  16.828 -2.4568  0.3092 -2.2339
 8107SOL     OW35779   0.595   0.986   3.056 -0.0201 -0.0872 -0.3904
 8107SOL    HW135780   0.560   1.045   3.124 -1.5988 -1.6775  0.1914
 8107SOL    HW235781   0.512   0.945   3.033 -0.0063 -1.0894  1.3130
 8108SOL     OW35782   0.460   3.697   4.450  0.0727 -0.1465 -0.1154
 8108SOL    HW135783   0.520   3.746   4.506 -0.4301  0.4588 -0.1168
 8108SOL    HW235784   0.478   3.732   4.363  2.3753 -0.4823  0.2159
 8109SOL     OW35785   0.955   2.606   8.549  0.2435  0.0157 -0.4375
 8109SOL    HW135786   0.922   2.663   8.619  1.7491 -0.1826  0.4282
 8109SOL    HW235787   0.895   2.532   8.563 -1.2799  0.9765 -1.9784
 8110SOL     OW35788   0.339   2.346  11.191 -0.2278  0.4284  0.0791
 8110SOL    HW135789   0.278   2.418  11.211  0.9539  1.3752  0.2653
 8110SOL    HW235790   0.387   2.396  11.125 -0.8399 -0.8635 -1.3458
 8111SOL     OW35791   4.157   1.694   5.344 -0.3683  0.3066  0.2144
 8111SOL    HW135792   4.093   1.627   5.319 -1.5183  0.9442  1.4055
 8111SOL    HW235793   4.106   1.745   5.408  0.4388  0.9507  0.3446
 8112SOL     OW35794   4.156   3.358   3.173 -0.2645  0.3706  0.4135
 8112SOL    HW135795   4.177   3.307   3.251  0.4585  0.6442  0.3958
 8112SOL    HW235796   4.223   3.318   3.117 -0.8070  0.4810 -0.3111
 8113SOL     OW35797   0.930   1.428  10.374  0.4457  0.0624 -0.1251
 8113SOL    HW135798   0.920   1.492  10.303  0.5032 -0.2273 -0.3942
 8113SOL    HW235799   1.020   1.398  10.368  1.6598  3.4175  1.1092
 8114SOL     OW35800   4.685   4.207   3.038  0.1716  0.5336  0.3561
 8114SOL    HW135801   4.596   4.187   3.066 -0.0987 -1.8582 -2.1724
 8114SOL    HW235802   0.013   4.159   3.103 -1.2722 -2.1453 -0.4679
 8115SOL     OW35803   1.294   0.102   0.592  0.5990 -0.8135  0.4249
 8115SOL    HW135804   1.309   0.167   0.523 -2.0427 -0.3553  0.2995
 8115SOL    HW235805   1.386   0.103   0.617  0.5277  2.0331  0.6668
 8116SOL     OW35806   0.887   0.040  16.488  0.3805 -0.4993  0.0214
 8116SOL    HW135807   0.904   0.112  16.426 -1.4370 -0.0886  0.0054
 8116SOL    HW235808   0.792   0.040  16.499  0.7541  1.6535  3.4686
 8117SOL     OW35809   4.595   4.323  13.421 -0.1948  0.4518 -0.0920
 8117SOL    HW135810   4.667   4.265  13.447  1.9176  2.5606 -1.2078
 8117SOL    HW235811   4.534   4.259  13.385 -0.3094  1.5405 -1.8259
 8118SOL     OW35812   0.952   1.766  12.559 -0.8610  0.8068 -0.2041
 8118SOL    HW135813   0.972   1.804  12.644 -2.0965  1.8551 -0.3828
 8118SOL    HW235814   1.042   1.745  12.535 -0.8426  0.4915  0.1425
 8119SOL     OW35815   1.603   4.450   5.821  0.3171  0.6396  0.1181
 8119SOL    HW135816   1.692   4.484   5.817 -0.5635  2.6149 -3.4414
 8119SOL    HW235817   1.612   4.371   5.769  0.3987  0.8599 -0.2045
 8120SOL     OW35818   2.236   4.347   8.968  0.4972 -0.0483  0.4361
 8120SOL    HW135819   2.187   4.284   9.021 -0.4107  1.8332  1.8190
 8120SOL    HW235820   2.177   4.423   8.971  1.2207  0.5070  0.5070
 8121SOL     OW35821   3.217   3.316   3.831 -0.2643 -0.1654  0.1371
 8121SOL    HW135822   3.264   3.302   3.749  0.2444 -0.7630  0.5307
 8121SOL    HW235823   3.257   3.395   3.868 -1.0046 -0.7924  2.2505
 8122SOL     OW35824   2.526   4.498   3.036 -0.7505  0.5195  0.1123
 8122SOL    HW135825   2.467   4.426   3.058 -0.1992  0.4853  1.5248
 8122SOL    HW235826   2.487   4.537   2.958 -0.1822  0.3775 -0.2447
 8123SOL     OW35827   2.063   0.051   1.513  0.4641  0.3915 -0.6240
 8123SOL    HW135828   2.068   0.124   1.451  0.1273 -0.4107 -1.5946
 8123SOL    HW235829   2.085   0.094   1.596  0.2090 -2.0328  0.6786
 8124SOL     OW35830   1.219   4.007   6.534 -0.2859 -0.6514 -0.3038
 8124SOL    HW135831   1.131   3.999   6.497 -0.1876  1.4219 -0.9943
 8124SOL    HW235832   1.246   3.915   6.529 -1.3848 -1.0734  1.5821
 8125SOL     OW35833   4.199   0.916   8.731 -0.6360 -0.3738  0.2547
 8125SOL    HW135834   4.181   0.823   8.723 -0.0573 -0.1841 -3.3476
 8125SOL    HW235835   4.112   0.954   8.733 -1.8316 -3.1233 -0.1085
 8126SOL     OW35836   3.324   0.762   6.171  0.0339 -0.2505 -0.4012
 8126SOL    HW135837   3.325   0.844   6.121  1.5025  1.9982  3.2542
 8126SOL    HW235838   3.418   0.759   6.186 -0.2172  2.4334  1.9734
 8127SOL     OW35839   1.689   1.614   7.742 -0.4188  0.7165  0.1908
 8127SOL    HW135840   1.751   1.595   7.811  0.4375 -0.7229 -0.9881
 8127SOL    HW235841   1.619   1.558   7.776 -1.7520  3.4708  2.0154
 8128SOL     OW35842   1.860   4.391   3.525  0.1877  0.1309 -0.3067
 8128SOL    HW135843   1.878   4.484   3.539  0.9865 -0.2407  1.1222
 8128SOL    HW235844   1.884   4.360   3.612  1.0317  3.1253  0.5234
 8129SOL     OW35845   2.421   1.609   2.227 -0.5657  0.6233 -0.4794
 8129SOL    HW135846   2.426   1.639   2.136  0.4591  0.5196 -0.4615
 8129SOL    HW235847   2.331   1.579   2.238 -0.3594 -0.2211 -1.0595
 8130SOL     OW35848   1.828   0.659   6.991  0.3936  0.5414  0.4442
 8130SOL    HW135849   1.862   0.748   7.003  2.9397 -0.4411  0.5178
 8130SOL    HW235850   1.907   0.622   6.951  0.8877  1.9683  0.1141
 8131SOL     OW35851   1.151   0.982   3.108 -0.4988  0.2964 -0.0594
 8131SOL    HW135852   1.173   1.050   3.043  0.7534  0.3657  0.4256
 8131SOL    HW235853   1.057   0.995   3.116 -0.4016  1.5024 -0.7607
 8132SOL     OW35854   4.047   4.173   2.919 -0.1741  0.2022 -0.1984
 8132SOL    HW135855   4.082   4.206   2.836 -1.8227  0.6732 -0.7010
 8132SOL    HW235856   4.058   4.245   2.981 -0.4024 -0.3984  0.5313
 8133SOL     OW35857   2.364   2.607   1.370  0.0290  0.2035  0.5323
 8133SOL    HW135858   2.297   2.614   1.439 -0.2447  1.1892  0.1575
 8133SOL    HW235859   2.380   2.696   1.338 -0.8499  0.4530  0.7758
 8134SOL     OW35860   1.309   3.389  12.285  0.1969 -0.1321  0.1319
 8134SOL    HW135861   1.366   3.362  12.357  2.1888  0.6235 -1.1913
 8134SOL    HW235862   1.368   3.449  12.240  1.5664 -1.0411  0.7059
 8135SOL     OW35863   2.895   1.064   0.070 -0.0843  0.3438 -0.4550
 8135SOL    HW135864   2.964   1.113   0.113  0.8586 -1.7295  0.3913
 8135SOL    HW235865   2.873   0.989   0.125  1.5892 -0.1643 -0.4882
 8136SOL     OW35866   2.539   0.388   3.514 -0.0388  0.1034  0.3741
 8136SOL    HW135867   2.533   0.320   3.582 -1.8053 -3.3066 -3.2333
 8136SOL    HW235868   2.481   0.366   3.442 -0.2608  0.7047  0.3657
 8137SOL     OW35869   1.999   3.386  14.181 -0.5096  0.4936 -0.0979
 8137SOL    HW135870   1.950   3.380  14.264 -0.3423 -0.2230 -0.0460
 8137SOL    HW235871   1.962   3.459  14.132 -0.9014 -1.0551 -2.1051
 8138SOL     OW35872   1.768   0.253  13.522  0.0318  0.3266  0.0359
 8138SOL    HW135873   1.792   0.180  13.465  2.8404  1.2247  0.0815
 8138SOL    HW235874   1.842   0.253  13.582 -0.5045 -1.3572  0.6871
 8139SOL     OW35875   2.114   3.946   4.794  0.0074  0.0123 -0.2920
 8139SOL    HW135876   2.026   3.960   4.828  0.2480  0.2569  0.2259
 8139SOL    HW235877   2.107   3.972   4.703 -0.6754  2.1469  0.3770
 8140SOL     OW35878   0.237   3.937   7.716  0.4919  0.0603 -0.7499
 8140SOL    HW135879   0.234   3.929   7.621 -0.2620 -0.8742 -0.6583
 8140SOL    HW235880   0.282   4.020   7.729  1.4026 -0.5846  0.2167
 8141SOL     OW35881   3.837   3.508  14.193  0.2138  0.3360 -0.2352
 8141SOL    HW135882   3.903   3.470  14.136 -0.5467 -1.4649  0.0753
 8141SOL    HW235883   3.778   3.433  14.198  1.3707 -0.6252 -1.1530
 8142SOL     OW35884   0.307   3.645   7.031 -0.4128 -0.0027  0.2608
 8142SOL    HW135885   0.268   3.565   6.997 -3.6661  1.7351 -0.0781
 8142SOL    HW235886   0.271   3.663   7.118 -0.3233 -2.3181  0.7698
 8143SOL     OW35887   0.337   3.063  15.205 -0.1763  0.4772  0.7843
 8143SOL    HW135888   0.378   3.028  15.285 -0.2545 -1.8252 -0.1650
 8143SOL    HW235889   0.307   2.976  15.177 -1.1473  1.5253 -1.3763
 8144SOL     OW35890   3.135   0.773   9.437 -0.4233 -0.1202 -0.3373
 8144SOL    HW135891   3.117   0.771   9.531  0.0026  0.2052 -0.2485
 8144SOL    HW235892   3.088   0.847   9.400 -1.4828 -1.7600 -2.2551
 8145SOL     OW35893   4.090   4.216   8.029 -0.3505  0.3284  1.3226
 8145SOL    HW135894   4.085   4.310   8.046 -2.0213  0.4583  0.0797
 8145SOL    HW235895   4.002   4.181   8.036 -2.0727  3.8760 -2.5006
 8146SOL     OW35896   3.014   1.672   5.191 -0.1498 -0.0769 -0.0435
 8146SOL    HW135897   2.992   1.662   5.099  1.0002  2.2997 -0.5779
 8146SOL    HW235898   3.054   1.759   5.193  0.7486 -0.4435 -1.8946
 8147SOL     OW35899   1.077   0.146   0.745 -0.3648  0.4632  0.7589
 8147SOL    HW135900   1.160   0.133   0.700 -0.7820 -1.0068  0.4160
 8147SOL    HW235901   1.081   0.080   0.814 -1.7921 -0.2097  0.1970
 8148SOL     OW35902   4.059   1.520   9.591 -0.1175  0.2219 -0.4015
 8148SOL    HW135903   4.062   1.489   9.682 -2.1295  1.3460  0.0543
 8148SOL    HW235904   3.998   1.454   9.556  1.8479  0.2597 -3.8832
 8149SOL     OW35905   2.772   2.581   6.133 -0.4301  0.2120  0.4750
 8149SOL    HW135906   2.725   2.587   6.217 -0.0745  0.8249  0.6258
 8149SOL    HW235907   2.810   2.496   6.157  0.5162  0.1068 -1.4109
 8150SOL     OW35908   1.682   1.367   2.640  0.1350  0.0662 -0.0883
 8150SOL    HW135909   1.612   1.323   2.688 -0.6969 -0.2383 -1.5566
 8150SOL    HW235910   1.670   1.332   2.551 -1.6309 -0.7470  0.4579
 8151SOL     OW35911   0.478   4.051   7.062  0.3024  0.1505  0.6283
 8151SOL    HW135912   0.445   4.040   7.152  3.3251  0.1491  1.7155
 8151SOL    HW235913   0.402   4.021   7.012 -0.7196 -1.1367  2.9612
 8152SOL     OW35914   0.046   0.144  11.228  0.1584 -0.2127 -0.0841
 8152SOL    HW135915   0.100   0.071  11.258 -0.5670 -0.7577 -0.0915
 8152SOL    HW235916   0.089   0.226  11.251  0.8734 -0.8223  0.7364
 8153SOL     OW35917   0.040   1.326   2.760  0.3641 -0.0436  0.2077
 8153SOL    HW135918   4.686   1.364   2.719 -0.2448 -1.2529  0.2491
 8153SOL    HW235919   0.038   1.367   2.846  0.7086 -0.9070  0.6291
 8154SOL     OW35920   4.281   0.520  11.037 -0.2818 -0.2037 -0.2131
 8154SOL    HW135921   4.264   0.478  10.953  2.3136 -0.0585 -0.8274
 8154SOL    HW235922   4.242   0.453  11.092  3.1499 -1.6333  0.4620
 8155SOL     OW35923   2.312   2.050   6.944 -0.2770 -0.2659  0.1400
 8155SOL    HW135924   2.393   1.999   6.948  0.2827  0.3382 -2.9580
 8155SOL    HW235925   2.279   2.017   7.027 -0.2296 -3.6602 -1.1521
 8156SOL     OW35926   0.283   0.344   7.163 -0.1662 -0.3921 -0.4754
 8156SOL    HW135927   0.211   0.406   7.153 -0.5941 -0.9788 -0.9923
 8156SOL    HW235928   0.360   0.400   7.149 -0.6477  0.4682  0.3436
 8157SOL     OW35929   2.332   2.549   7.686  0.2987 -0.3638 -0.1008
 8157SOL    HW135930   2.421   2.566   7.659  0.8077  0.4262  2.0315
 8157SOL    HW235931   2.286   2.605   7.624  0.5228  1.7920  1.6600
 8158SOL     OW35932   1.718   1.464   4.962 -0.0476 -0.2988  0.3016
 8158SOL    HW135933   1.730   1.370   4.954 -0.8952 -0.4844  1.2068
 8158SOL    HW235934   1.643   1.482   4.906 -0.3142  1.6098  1.2792
 8159SOL     OW35935   4.707   0.667  11.222  0.4859  0.6583 -0.2608
 8159SOL    HW135936   4.658   0.615  11.285  0.8797 -1.5069 -1.7497
 8159SOL    HW235937   0.060   0.612  11.206 -0.5419 -0.0780 -2.6438
 8160SOL     OW35938   1.528   3.791   6.750 -0.0761 -0.4771 -0.1724
 8160SOL    HW135939   1.577   3.802   6.669 -0.9846  2.7637 -0.2600
 8160SOL    HW235940   1.520   3.696   6.764 -0.5302 -0.3443  0.5069
 8161SOL     OW35941   3.948   3.715  11.692  0.3906 -0.3958 -0.3268
 8161SOL    HW135942   3.948   3.648  11.623 -2.2530  0.1095 -0.8046
 8161SOL    HW235943   4.030   3.756  11.664  2.0335 -0.7549  4.0146
 8162SOL     OW35944   0.607   3.478   5.486 -0.6541  0.4351 -0.3493
 8162SOL    HW135945   0.523   3.515   5.512 -1.3149 -1.8223  0.7682
 8162SOL    HW235946   0.669   3.540   5.524 -0.8586 -0.8032  2.0467
 8163SOL     OW35947   0.114   0.575   9.137 -0.6038 -0.7610 -0.0964
 8163SOL    HW135948   0.084   0.641   9.200  1.1477 -0.3095  0.2486
 8163SOL    HW235949   0.144   0.503   9.191  1.7501  0.6211  0.4176
 8164SOL     OW35950   3.142   1.887   4.443 -0.4955  0.4063  0.6206
 8164SOL    HW135951   3.113   1.969   4.402 -1.0919 -1.0474 -1.8287
 8164SOL    HW235952   3.125   1.910   4.535 -0.5080 -0.8828  0.9341
 8165SOL     OW35953   0.645   1.411   5.846 -0.4481  0.1185 -0.0457
 8165SOL    HW135954   0.678   1.478   5.787  0.7305  0.9540  1.5518
 8165SOL    HW235955   0.609   1.461   5.920 -1.7909  1.3965 -1.5754
 8166SOL     OW35956   2.887   1.679  14.662  0.1348 -0.1152  0.5149
 8166SOL    HW135957   2.951   1.624  14.708  0.8851  1.0774  0.8846
 8166SOL    HW235958   2.927   1.766  14.658 -0.3227  0.1445  1.6773
 8167SOL     OW35959   1.119   3.786   8.565  0.9212  0.1095  0.3282
 8167SOL    HW135960   1.141   3.740   8.646 -0.5964 -2.1056 -0.5303
 8167SOL    HW235961   1.205   3.779   8.525  0.8373 -1.2683  0.3940
 8168SOL     OW35962   4.698   4.498   5.425 -0.3614  0.0246  0.1200
 8168SOL    HW135963   4.610   4.497   5.463 -0.8399 -2.4643 -1.0103
 8168SOL    HW235964   4.697   4.415   5.376  0.3348  0.2190 -0.2137
 8169SOL     OW35965   2.184   2.242   2.436  0.4357 -0.0381 -0.7821
 8169SOL    HW135966   2.254   2.213   2.495  0.2625  1.1859  0.0151
 8169SOL    HW235967   2.176   2.159   2.388 -1.9717 -0.3240  0.1063
 8170SOL     OW35968   2.880   2.068   6.275 -0.1054  0.0351  0.2826
 8170SOL    HW135969   2.824   2.005   6.229  0.8879 -1.3929  1.0658
 8170SOL    HW235970   2.959   2.066   6.220 -0.9029 -1.7079 -0.7751
 8171SOL     OW35971   2.738   3.261   9.338 -0.4037 -0.4468  0.0678
 8171SOL    HW135972   2.774   3.348   9.321  0.8272 -0.4613  2.5889
 8171SOL    HW235973   2.813   3.225   9.385  0.0933  0.3633 -0.1034
 8172SOL     OW35974   3.013   3.413   4.133 -0.4892  1.4612  0.4924
 8172SOL    HW135975   2.996   3.332   4.086 -0.6497 -0.6372  4.1084
 8172SOL    HW235976   2.927   3.440   4.164 -0.7397 -0.3938  1.4069
 8173SOL     OW35977   3.552   1.575  14.318  0.1332  0.2489 -0.3471
 8173SOL    HW135978   3.560   1.671  14.321  2.8934  0.0199 -1.0561
 8173SOL    HW235979   3.480   1.558  14.379 -0.0049  3.9062  0.5328
 8174SOL     OW35980   3.786   3.022   8.249  0.2638  0.0517 -0.0382
 8174SOL    HW135981   3.720   2.972   8.202 -1.7437 -0.3088  3.2174
 8174SOL    HW235982   3.735   3.095   8.282 -0.3452 -1.3605  2.1847
 8175SOL     OW35983   4.530   4.311   9.356 -0.1309  0.1248  0.3857
 8175SOL    HW135984   4.440   4.281   9.364 -0.1411 -0.2330 -1.0374
 8175SOL    HW235985   4.566   4.267   9.433  0.8220 -1.1240 -0.7683
 8176SOL     OW35986   3.415   3.969   4.839  0.0154  0.4689  0.0148
 8176SOL    HW135987   3.355   4.027   4.886 -0.2936  0.9565 -0.9829
 8176SOL    HW235988   3.434   4.020   4.760 -0.6056  1.0983  0.2721
 8177SOL     OW35989   1.085   1.750  10.384 -0.2913 -0.6567 -0.3114
 8177SOL    HW135990   0.991   1.757  10.370 -0.3643 -0.6501  0.1903
 8177SOL    HW235991   1.099   1.717  10.473 -4.4934  0.6202  0.8223
 8178SOL     OW35992   4.444   4.287  14.430 -0.3623  0.2412 -0.2777
 8178SOL    HW135993   4.391   4.365  14.448 -0.4774 -0.3339  1.9308
 8178SOL    HW235994   4.443   4.291  14.335  1.6400  0.3058 -0.2822
 8179SOL     OW35995   1.498   0.507   7.465 -0.3413 -0.3919  0.0219
 8179SOL    HW135996   1.433   0.461   7.411 -0.3871 -0.7033  0.3424
 8179SOL    HW235997   1.546   0.436   7.506 -0.1665  0.2800  0.9753
 8180SOL     OW35998   1.060   0.406   3.917 -0.4109 -0.0840  0.1016
 8180SOL    HW135999   1.023   0.494   3.905  2.0673  0.8991 -0.3827
 8180SOL    HW236000   1.147   0.427   3.951  0.9853 -2.3700 -2.0573
 8181SOL     OW36001   3.467   4.173   6.630 -0.0153 -0.1772 -0.0311
 8181SOL    HW136002   3.535   4.118   6.668  0.7749 -0.0351 -1.2103
 8181SOL    HW236003   3.517   4.243   6.588 -0.3790 -0.2488 -0.5902
 8182SOL     OW36004   2.704   1.754  15.748  0.1892  0.0425  0.2602
 8182SOL    HW136005   2.710   1.774  15.655  3.9266 -2.6460 -0.0595
 8182SOL    HW236006   2.792   1.717  15.753  0.2073 -0.0261 -0.6369
 8183SOL     OW36007   4.300   3.672   2.666  0.1464  0.5802 -0.2854
 8183SOL    HW136008   4.361   3.739   2.694  0.6347  0.4155 -0.9337
 8183SOL    HW236009   4.268   3.646   2.752  0.9009 -1.1628 -0.5238
 8184SOL     OW36010   3.177   0.834   5.068 -0.1413  0.6636 -0.0522
 8184SOL    HW136011   3.087   0.860   5.050 -0.5334 -1.8951 -1.8531
 8184SOL    HW236012   3.165   0.744   5.095 -2.4895  1.0171  0.1137
 8185SOL     OW36013   0.918   4.217   4.821  0.3337 -0.3433  0.5415
 8185SOL    HW136014   0.923   4.168   4.903  0.2683 -1.8351 -0.3503
 8185SOL    HW236015   1.011   4.228   4.801  0.3411 -0.0420  0.7266
 8186SOL     OW36016   3.432   0.310  10.320 -0.9581  0.0552 -0.5380
 8186SOL    HW136017   3.457   0.241  10.382  0.7742  0.5031 -0.7504
 8186SOL    HW236018   3.377   0.261  10.259 -1.2532  0.2600 -0.4392
 8187SOL     OW36019   1.323   3.306   2.669  0.1225 -0.0075  0.4055
 8187SOL    HW136020   1.264   3.234   2.646 -1.9546  2.3839 -1.8581
 8187SOL    HW236021   1.258   3.361   2.713 -1.9487 -1.9309 -0.2789
 8188SOL     OW36022   4.304   2.670   3.913  0.4398 -0.2908 -0.0186
 8188SOL    HW136023   4.325   2.617   3.836 -0.0282  1.1205 -1.1376
 8188SOL    HW236024   4.390   2.710   3.927  0.4936 -0.2548 -0.4500
 8189SOL     OW36025   3.618   4.029   4.993 -0.0747 -0.4395  0.2899
 8189SOL    HW136026   3.591   4.004   5.081 -2.1315  0.2104 -0.1590
 8189SOL    HW236027   3.557   4.013   4.921 -0.6126  1.5738  0.3021
 8190SOL     OW36028   2.482   1.083  16.231  0.3003 -0.3792  0.3479
 8190SOL    HW136029   2.536   1.124  16.164 -1.4772  0.1240 -0.7690
 8190SOL    HW236030   2.437   1.160  16.266 -0.6665 -0.9632  0.3821
 8191SOL     OW36031   2.683   2.913  13.731 -0.3765  0.4637  0.3309
 8191SOL    HW136032   2.754   2.914  13.796  0.5953  0.3427 -0.7209
 8191SOL    HW236033   2.608   2.924  13.789  0.1270  1.2239  0.8442
 8192SOL     OW36034   3.950   3.432   1.387  0.3477  0.1551  0.2677
 8192SOL    HW136035   3.963   3.526   1.381  0.1314  0.2079  0.5844
 8192SOL    HW236036   3.884   3.424   1.457  1.9152 -2.4062  1.4411
 8193SOL     OW36037   1.717   3.930  16.734 -0.1775  0.0943  0.0869
 8193SOL    HW136038   1.741   3.862  16.797  1.1657  1.0856  0.6295
 8193SOL    HW236039   1.715   4.007  16.791  0.6243 -0.3511  0.7200
 8194SOL     OW36040   1.488   2.172   6.648 -0.0085  0.3120  0.3856
 8194SOL    HW136041   1.576   2.196   6.620  0.5263 -1.0862  0.8826
 8194SOL    HW236042   1.439   2.199   6.570 -1.1524 -0.1727  0.9346
 8195SOL     OW36043   2.088   0.610   6.910  0.8522 -0.4261 -0.5957
 8195SOL    HW136044   2.120   0.618   6.820 -0.8458  0.9813 -1.0814
 8195SOL    HW236045   2.164   0.598   6.966  1.5726 -1.1541 -1.7476
 8196SOL     OW36046   0.061   0.275   4.055  1.1526 -0.5385  0.0196
 8196SOL    HW136047   0.104   0.206   4.003 -0.0488 -0.9522 -0.4199
 8196SOL    HW236048   0.071   0.351   3.997  0.0774  0.6652  1.4243
 8197SOL     OW36049   1.902   4.563   5.375 -0.3319  0.4810 -0.5106
 8197SOL    HW136050   1.868   4.628   5.436  0.6271 -0.8196  1.4047
 8197SOL    HW236051   1.890   4.483   5.427 -0.4490  2.5327  2.5743
 8198SOL     OW36052   1.727   2.479  15.466  0.6907  0.0448  0.1076
 8198SOL    HW136053   1.691   2.568  15.467  1.2037  0.2547  0.3685
 8198SOL    HW236054   1.664   2.429  15.517  0.5692  0.6049  0.5054
 8199SOL     OW36055   3.119   2.167   2.868 -0.8520  0.0291 -0.2137
 8199SOL    HW136056   3.183   2.199   2.805  0.6336 -1.5705  0.4927
 8199SOL    HW236057   3.181   2.122   2.926 -0.2122  0.9147 -0.2112
 8200SOL     OW36058   3.295   2.669   5.705 -0.5518  0.9075 -0.0992
 8200SOL    HW136059   3.296   2.749   5.758 -1.7530  0.3298  0.7724
 8200SOL    HW236060   3.378   2.686   5.660 -0.1810  0.0662  0.2701
 8201SOL     OW36061   0.927   4.285   6.298  0.0998  0.0229  0.2835
 8201SOL    HW136062   0.952   4.375   6.321  0.3728 -0.0262  0.1794
 8201SOL    HW236063   0.877   4.270   6.378  0.2875  0.4978  0.4888
 8202SOL     OW36064   2.123   0.201   3.378 -0.2895 -0.4781  0.1353
 8202SOL    HW136065   2.080   0.230   3.459 -0.1143  0.5547 -0.1443
 8202SOL    HW236066   2.104   0.107   3.382 -3.0257  0.0338 -0.8430
 8203SOL     OW36067   3.467   3.569   9.625  0.0700  0.2936 -0.0925
 8203SOL    HW136068   3.562   3.555   9.622 -0.2122 -1.4490 -1.4110
 8203SOL    HW236069   3.448   3.504   9.693  0.1087  0.2854 -0.0890
 8204SOL     OW36070   0.165   1.238  12.188  0.1945 -0.4092 -0.0870
 8204SOL    HW136071   0.104   1.174  12.225  2.0362 -1.1676  1.6435
 8204SOL    HW236072   0.146   1.231  12.094 -0.0834 -0.4188 -0.0310
 8205SOL     OW36073   2.324   2.744   5.124  0.0901  0.2756 -0.4679
 8205SOL    HW136074   2.244   2.792   5.147 -0.1924 -0.4129 -0.0217
 8205SOL    HW236075   2.285   2.670   5.077  0.2256 -0.0271 -0.1006
 8206SOL     OW36076   1.234   1.113  14.865 -0.3715  0.0975  0.2333
 8206SOL    HW136077   1.147   1.152  14.873 -1.2741 -1.5686 -1.6612
 8206SOL    HW236078   1.216   1.039  14.808 -0.4615 -0.7052  1.3023
 8207SOL     OW36079   3.361   1.690   4.417  0.0110 -0.2852 -0.3123
 8207SOL    HW136080   3.417   1.733   4.482 -1.0692  0.8380 -0.1249
 8207SOL    HW236081   3.289   1.753   4.413 -0.8297 -1.1653  1.1814
 8208SOL     OW36082   1.172   0.166   8.289  0.4442 -0.1738 -0.6340
 8208SOL    HW136083   1.175   0.139   8.381  1.1638 -0.1005 -0.6392
 8208SOL    HW236084   1.090   0.122   8.266  0.1271  1.9808 -3.6786
 8209SOL     OW36085   4.404   3.112   2.300  0.1354 -0.4006  0.9125
 8209SOL    HW136086   4.368   3.198   2.325  2.1947  1.3390 -2.1490
 8209SOL    HW236087   4.337   3.052   2.334  1.4506 -0.8445  2.7127
 8210SOL     OW36088   3.441   4.142   8.817 -0.3659  0.8619  0.0358
 8210SOL    HW136089   3.486   4.147   8.732  2.3811  1.1939  1.4971
 8210SOL    HW236090   3.432   4.234   8.842  0.2246  1.0803 -0.5349
 8211SOL     OW36091   2.725   2.127   5.837 -0.2139  0.5019 -0.3092
 8211SOL    HW136092   2.788   2.109   5.907 -0.3437 -2.3498 -0.9362
 8211SOL    HW236093   2.656   2.173   5.885  2.0620  2.2017  1.3543
 8212SOL     OW36094   4.183   3.182   3.391 -0.4068 -0.5119 -0.4641
 8212SOL    HW136095   4.258   3.133   3.358  0.7784  0.5496  0.6177
 8212SOL    HW236096   4.121   3.114   3.417  0.6085 -1.3116 -0.1060
 8213SOL     OW36097   2.394   3.814  16.834 -0.1117  0.7932  0.3597
 8213SOL    HW136098   2.470   3.779  16.880 -1.6332 -0.0444  2.2469
 8213SOL    HW236099   2.324   3.771  16.882  0.9750 -1.2600  0.0985
 8214SOL     OW36100   3.310   1.982   2.756 -0.0074 -0.6774 -0.4723
 8214SOL    HW136101   3.372   1.950   2.690 -0.0678 -1.2135 -0.2679
 8214SOL    HW236102   3.228   1.954   2.714 -1.6742  1.4363  1.4022
 8215SOL     OW36103   1.910   4.050   5.139  0.1402 -0.0386 -0.1450
 8215SOL    HW136104   1.957   4.089   5.066  2.3927 -1.5666  0.4935
 8215SOL    HW236105   1.982   4.029   5.198 -0.4876  0.4605  0.8072
 8216SOL     OW36106   2.465   1.889   1.030 -0.8888 -0.0375 -0.3349
 8216SOL    HW136107   2.411   1.840   0.968 -0.3163 -0.8842 -0.1595
 8216SOL    HW236108   2.437   1.848   1.112 -3.8798  1.0719 -0.8011
 8217SOL     OW36109   2.315   3.495   7.204 -0.0992 -0.7430 -0.0049
 8217SOL    HW136110   2.322   3.557   7.131  0.5651 -2.2856 -1.2486
 8217SOL    HW236111   2.405   3.481   7.234  0.1037  0.5232 -0.0181
 8218SOL     OW36112   0.457   1.876  10.728 -0.3806  0.5153 -0.1439
 8218SOL    HW136113   0.535   1.903  10.679 -0.4415  1.6650  0.3989
 8218SOL    HW236114   0.394   1.919  10.669 -1.3574 -0.4579  0.1911
 8219SOL     OW36115   0.722   3.325  17.210  0.3843  0.1868 -0.1259
 8219SOL    HW136116   0.655   3.291  17.151  0.1531  3.6092 -1.8597
 8219SOL    HW236117   0.791   3.259  17.206  0.3577  0.2079 -0.9221
 8220SOL     OW36118   0.793   1.282   8.468  1.0108  0.6117 -0.5750
 8220SOL    HW136119   0.745   1.205   8.501  2.5297 -0.2657 -0.4213
 8220SOL    HW236120   0.768   1.279   8.376 -3.7413 -0.3178  0.7266
 8221SOL     OW36121   2.295   1.910   8.699  0.2601  0.3626  0.3883
 8221SOL    HW136122   2.199   1.902   8.692  0.3444  0.1795 -0.5046
 8221SOL    HW236123   2.313   1.979   8.636  0.1580 -0.2242 -0.2892
 8222SOL     OW36124   4.495   3.715  14.288  0.2047 -0.1285 -0.0052
 8222SOL    HW136125   4.449   3.704  14.372  0.1027  2.0966  0.2563
 8222SOL    HW236126   4.502   3.811  14.283  0.9896 -0.1910 -0.0257
 8223SOL     OW36127   1.946   4.596   3.702 -0.2292  0.2292 -0.4300
 8223SOL    HW136128   1.904   4.657   3.762 -1.3884  0.2913 -1.2962
 8223SOL    HW236129   1.964   4.517   3.752 -0.5411  0.1467 -0.4443
 8224SOL     OW36130   0.458   2.144   0.495  0.5827  0.0777 -0.4273
 8224SOL    HW136131   0.502   2.226   0.515 -1.9078  1.1908  0.4791
 8224SOL    HW236132   0.454   2.142   0.399 -2.8734 -1.9247 -0.2490
 8225SOL     OW36133   4.307   2.829   6.478  0.0983 -0.2659 -0.0459
 8225SOL    HW136134   4.239   2.809   6.543 -0.4731  0.5153 -0.4030
 8225SOL    HW236135   4.250   2.867   6.411  0.6095 -1.5875 -1.2179
 8226SOL     OW36136   3.229   1.434   0.145  0.5639  0.1891 -0.1495
 8226SOL    HW136137   3.281   1.413   0.068  2.9493  2.0309  0.9620
 8226SOL    HW236138   3.243   1.528   0.157  3.0552  0.1171 -2.6305
 8227SOL     OW36139   4.226   2.724   8.086  0.1755 -0.3069 -0.6133
 8227SOL    HW136140   4.206   2.791   8.151 -0.0680 -2.1549  1.2218
 8227SOL    HW236141   4.317   2.706   8.109  0.3395  0.3214 -0.7814
 8228SOL     OW36142   2.576   3.219   7.927  0.1239 -0.0441  0.5823
 8228SOL    HW136143   2.594   3.178   7.843 -0.7123 -2.2030  1.4554
 8228SOL    HW236144   2.602   3.146   7.983  0.6999 -0.8767 -0.7835
 8229SOL     OW36145   3.645   3.844  12.759 -0.3553 -0.3905  0.2041
 8229SOL    HW136146   3.716   3.903  12.735 -0.2556 -0.8052 -0.5412
 8229SOL    HW236147   3.681   3.787  12.828 -0.1516 -0.4154  0.0778
 8230SOL     OW36148   2.697   2.547   0.568  0.3610  0.1182  0.1153
 8230SOL    HW136149   2.735   2.561   0.481  1.4995 -2.0713  0.2836
 8230SOL    HW236150   2.641   2.474   0.541 -0.1694  1.1376 -1.5888
 8231SOL     OW36151   2.821   1.516   3.175 -0.5954 -0.1917 -0.0159
 8231SOL    HW136152   2.828   1.609   3.154 -1.2412 -0.5341 -1.7451
 8231SOL    HW236153   2.726   1.507   3.165 -0.4898 -0.0175 -1.1710
 8232SOL     OW36154   1.577   2.157   2.051 -0.3736  0.2573  0.2107
 8232SOL    HW136155   1.655   2.151   2.105  0.0036  1.2764 -0.2366
 8232SOL    HW236156   1.518   2.099   2.100 -0.4452  0.0844 -0.0767
 8233SOL     OW36157   1.842   4.175  16.100  0.3277 -0.3239 -0.0170
 8233SOL    HW136158   1.867   4.211  16.185  1.1902  0.2588 -0.5212
 8233SOL    HW236159   1.796   4.094  16.122  0.2703  0.5762  3.1447
 8234SOL     OW36160   0.466   2.670   1.697 -0.8799 -0.2759 -0.4039
 8234SOL    HW136161   0.504   2.724   1.627 -0.1470  2.2684  1.9465
 8234SOL    HW236162   0.487   2.584   1.661  0.7196 -0.2381  0.4325
 8235SOL     OW36163   3.429   3.961   7.274 -0.4248  0.2922 -0.0353
 8235SOL    HW136164   3.406   4.016   7.349  0.8456 -0.0945  0.6438
 8235SOL    HW236165   3.381   4.016   7.212  2.3534  0.9453 -1.5959
 8236SOL     OW36166   3.290   3.120  16.537  0.2853 -0.2217 -0.3488
 8236SOL    HW136167   3.351   3.178  16.583  0.4063 -0.2600 -0.4620
 8236SOL    HW236168   3.240   3.078  16.607 -0.8035  2.2743  0.3345
 8237SOL     OW36169   1.630   4.397   7.724 -0.1222  0.4979  0.0627
 8237SOL    HW136170   1.635   4.479   7.676 -0.9911  0.5937  0.1382
 8237SOL    HW236171   1.724   4.390   7.740 -0.2816  1.9114  1.4922
 8238SOL     OW36172   1.182   2.017   8.173 -0.0529  0.3408 -0.0262
 8238SOL    HW136173   1.091   2.030   8.198 -0.0750 -0.0085  0.0690
 8238SOL    HW236174   1.169   2.039   8.081  0.2871 -1.0873 -0.4194
 8239SOL     OW36175   2.927   0.452   5.808 -0.1704  0.3267  0.3648
 8239SOL    HW136176   2.986   0.413   5.744 -0.6664  0.1140  0.0413
 8239SOL    HW236177   2.975   0.534   5.824  1.0194 -0.2819 -0.0879
 8240SOL     OW36178   1.606   3.038   3.129 -0.8118  0.0195 -0.2988
 8240SOL    HW136179   1.601   3.035   3.033 -1.6327  0.8452 -0.2676
 8240SOL    HW236180   1.570   3.125   3.142  1.9262  1.1101 -0.0433
 8241SOL     OW36181   3.395   0.462   7.675  0.1499 -0.2042 -0.4792
 8241SOL    HW136182   3.449   0.536   7.648  0.1506 -0.2465 -0.5926
 8241SOL    HW236183   3.414   0.409   7.598  0.1661  0.2364 -0.7785
 8242SOL     OW36184   1.719   0.523  10.944 -0.0404 -0.0278  0.2733
 8242SOL    HW136185   1.734   0.608  10.985 -0.2488 -0.0495  0.3963
 8242SOL    HW236186   1.649   0.482  10.995  1.1226 -0.0838  1.8137
 8243SOL     OW36187   3.899   1.663   6.358  0.0954 -0.3225 -0.5273
 8243SOL    HW136188   3.977   1.686   6.308 -0.0108 -0.4516 -0.7503
 8243SOL    HW236189   3.838   1.734   6.338  0.9129  0.6569  0.4388
 8244SOL     OW36190   2.661   2.137   0.678 -0.5798 -0.1388 -0.1963
 8244SOL    HW136191   2.671   2.193   0.601 -0.9152  0.9406  0.5450
 8244SOL    HW236192   2.727   2.071   0.656  0.1682  0.3547  0.5182
 8245SOL     OW36193   4.247   4.200   7.447  0.2695 -0.4217  0.2278
 8245SOL    HW136194   4.258   4.110   7.418  2.3295  0.5370 -1.8877
 8245SOL    HW236195   4.156   4.203   7.477 -0.6900 -2.2604 -2.5526
 8246SOL     OW36196   2.783   0.927   6.257  0.7139  0.1113 -0.2333
 8246SOL    HW136197   2.711   0.865   6.266  0.5739  0.4887  1.3838
 8246SOL    HW236198   2.838   0.871   6.203  0.5794  0.7242 -1.0144
 8247SOL     OW36199   3.622   3.334   6.090  0.0944 -0.2284 -0.2394
 8247SOL    HW136200   3.700   3.384   6.067 -1.0846  1.6781 -0.0180
 8247SOL    HW236201   3.585   3.384   6.162  0.4283 -0.1125 -0.1520
 8248SOL     OW36202   4.328   0.794   5.875  0.2435  0.1031 -0.1944
 8248SOL    HW136203   4.364   0.705   5.880  0.8160  0.2661 -1.2908
 8248SOL    HW236204   4.255   0.785   5.814 -0.4767 -2.1494  1.0423
 8249SOL     OW36205   0.278   2.198   0.986 -0.7183 -0.0003  0.4429
 8249SOL    HW136206   0.353   2.146   1.015  0.7383  0.9856 -1.6097
 8249SOL    HW236207   0.260   2.171   0.896 -0.8236 -0.7336  0.6782
 8250SOL     OW36208   2.292   1.990   4.651  0.3653  0.0163 -0.7660
 8250SOL    HW136209   2.304   1.946   4.567  3.6936  0.2451 -0.4149
 8250SOL    HW236210   2.231   2.062   4.636  1.8406  1.5793  0.7519
 8251SOL     OW36211   1.374   1.675   9.711 -0.6568 -0.4708 -0.6256
 8251SOL    HW136212   1.327   1.648   9.789  2.0585  1.1463  1.5876
 8251SOL    HW236213   1.382   1.770   9.714 -0.3768 -0.5596  1.5346
 8252SOL     OW36214   1.630   2.061   1.787  0.3435  0.2114 -0.0576
 8252SOL    HW136215   1.575   2.000   1.737  1.0049 -0.6245  0.2276
 8252SOL    HW236216   1.564   2.086   1.852 -0.0925  2.0521 -1.2324
 8253SOL     OW36217   1.712   1.329  11.886 -0.0418  1.0029 -0.4725
 8253SOL    HW136218   1.768   1.263  11.846  2.6478  2.1241  1.4489
 8253SOL    HW236219   1.624   1.291  11.879  0.7331 -1.0439  0.9423
 8254SOL     OW36220   0.047   1.435   1.758  0.0504  0.1876  0.1805
 8254SOL    HW136221   0.137   1.428   1.790 -0.0109  0.6989  0.4649
 8254SOL    HW236222   0.036   1.529   1.766 -0.2879  0.1996 -0.4403
 8255SOL     OW36223   1.557   3.221   7.469 -0.5280 -0.0385  0.3836
 8255SOL    HW136224   1.564   3.240   7.562  0.1676  0.0787  0.3053
 8255SOL    HW236225   1.649   3.220   7.440 -1.0178 -2.0416 -1.1626
 8256SOL     OW36226   0.721   2.546   8.987  0.2223 -0.8514 -0.1221
 8256SOL    HW136227   0.638   2.533   9.032  0.1335  0.0903 -0.0047
 8256SOL    HW236228   0.776   2.562   9.064 -2.1555 -0.2156  1.4497
 8257SOL     OW36229   2.558   4.403   3.686 -0.5078 -0.4313 -0.0078
 8257SOL    HW136230   2.515   4.353   3.756  1.8437  0.6036  2.1571
 8257SOL    HW236231   2.646   4.401   3.723 -1.0188 -0.0151  1.2372
 8258SOL     OW36232   4.664   3.514   9.483 -0.0094 -0.2274  1.2792
 8258SOL    HW136233   0.030   3.505   9.451 -0.4645  4.5451 -1.3205
 8258SOL    HW236234   4.664   3.604   9.514 -0.3617 -0.6533  2.5377
 8259SOL     OW36235   3.535   0.352   9.456 -0.2568 -0.2410 -0.5841
 8259SOL    HW136236   3.530   0.342   9.361  2.0810  0.7639 -0.8186
 8259SOL    HW236237   3.598   0.422   9.470 -0.0439  0.0500 -2.8938
 8260SOL     OW36238   2.153   3.876  13.575  0.3755 -0.5356 -0.4193
 8260SOL    HW136239   2.158   3.962  13.532  1.6359 -1.2817 -1.7517
 8260SOL    HW236240   2.141   3.910  13.664 -1.4811  1.0346 -1.2625
 8261SOL     OW36241   3.005   1.877   3.633 -0.1814  0.2038 -0.1435
 8261SOL    HW136242   2.961   1.943   3.687  1.3623 -0.4689  1.9349
 8261SOL    HW236243   3.095   1.900   3.656  0.0874 -1.6228  0.5899
 8262SOL     OW36244   4.577   2.273   6.196 -0.1004  0.0162  0.0731
 8262SOL    HW136245   4.557   2.235   6.281  1.8159  0.5601  0.7786
 8262SOL    HW236246   4.637   2.342   6.225 -0.4785  0.7936 -0.9949
 8263SOL     OW36247   2.907   0.400   4.332 -0.1730  0.2017 -0.0798
 8263SOL    HW136248   2.958   0.322   4.313  1.2874  0.8717  1.1172
 8263SOL    HW236249   2.931   0.449   4.253 -1.4033  0.0082 -0.5890
 8264SOL     OW36250   1.506   1.000  15.888  0.3880  0.2113 -0.3977
 8264SOL    HW136251   1.578   0.940  15.869 -1.4424 -1.3347 -2.4913
 8264SOL    HW236252   1.440   0.971  15.825 -0.2994 -0.3733  0.6013
 8265SOL     OW36253   2.440   2.099   6.392  0.1822  0.1964  0.5829
 8265SOL    HW136254   2.405   2.019   6.433 -0.9527 -0.1791 -1.1209
 8265SOL    HW236255   2.526   2.102   6.432  0.5404  0.3157 -0.2010
 8266SOL     OW36256   1.763   2.293   8.079  0.1449 -0.1708  0.0142
 8266SOL    HW136257   1.720   2.346   8.147 -1.4733 -1.3600 -0.0742
 8266SOL    HW236258   1.855   2.294   8.105  0.6896  0.8196 -1.9972
 8267SOL     OW36259   0.365   1.084   2.413  0.2040 -0.1002  0.0284
 8267SOL    HW136260   0.320   1.071   2.496  0.4208 -0.7739  0.0476
 8267SOL    HW236261   0.335   1.012   2.357  1.0223 -0.8377  0.5422
 8268SOL     OW36262   4.408   1.924  16.438  0.1803  0.3371 -0.9844
 8268SOL    HW136263   4.502   1.945  16.435  0.2011  0.2897 -0.6677
 8268SOL    HW236264   4.399   1.891  16.349 -0.3043  0.1734 -0.8707
 8269SOL     OW36265   2.001   1.588   3.221  0.2250 -0.4126 -0.1822
 8269SOL    HW136266   1.958   1.559   3.140  0.0663 -1.6383  0.3465
 8269SOL    HW236267   2.044   1.505   3.239 -1.4546 -1.2112  0.1254
 8270SOL     OW36268   1.248   0.778  16.241  0.2385 -0.0479  0.2913
 8270SOL    HW136269   1.250   0.838  16.166 -1.7988  0.5487  0.7278
 8270SOL    HW236270   1.184   0.719  16.201  0.4080  0.3730 -0.5971
 8271SOL     OW36271   0.012   4.541   0.538  0.3676  0.0711 -0.1649
 8271SOL    HW136272   0.089   4.509   0.586  1.1024  3.5046  1.0125
 8271SOL    HW236273   0.032   4.635   0.546 -0.2171  0.2569 -1.0017
 8272SOL     OW36274   0.328   3.223   7.743  0.0582 -0.2729 -0.2739
 8272SOL    HW136275   0.362   3.140   7.709 -2.7551 -0.8217 -1.7558
 8272SOL    HW236276   0.260   3.191   7.802  0.0676  0.5071  0.1695
 8273SOL     OW36277   2.474   3.575   4.164  0.4488  0.2111  0.1833
 8273SOL    HW136278   2.428   3.639   4.110  0.1558 -0.0868  0.0771
 8273SOL    HW236279   2.415   3.502   4.145  2.0144 -1.4736  1.8003
 8274SOL     OW36280   1.063   3.650   0.601 -0.3066  0.0519 -0.1248
 8274SOL    HW136281   1.030   3.586   0.538 -3.1409  3.3153 -1.9335
 8274SOL    HW236282   1.091   3.587   0.668  1.6671  0.7441 -0.2866
 8275SOL     OW36283   2.941   1.908   4.206 -0.1388  0.3397  0.5071
 8275SOL    HW136284   2.998   1.963   4.152 -2.0611  1.9842  0.1544
 8275SOL    HW236285   2.905   1.855   4.134 -1.7872  2.8557 -0.5052
 8276SOL     OW36286   2.819   3.020   8.321  0.2179  0.3958  0.1207
 8276SOL    HW136287   2.892   2.960   8.336  0.6136  0.3369 -2.0256
 8276SOL    HW236288   2.769   3.028   8.402  1.3654  3.1333  0.5619
 8277SOL     OW36289   2.396   3.807   5.663  0.6784  0.0692  0.7265
 8277SOL    HW136290   2.405   3.712   5.668  1.7772  0.1875  0.9836
 8277SOL    HW236291   2.488   3.832   5.670  1.7455 -3.5766 -0.1869
 8278SOL     OW36292   0.287   0.640   8.330 -0.9778 -0.0912 -0.1628
 8278SOL    HW136293   0.356   0.599   8.380  0.0754  1.8795  0.0110
 8278SOL    HW236294   0.302   0.733   8.351 -0.2672 -0.0822 -0.7227
 8279SOL     OW36295   4.678   2.548   1.912 -0.2374 -0.2720  0.0258
 8279SOL    HW136296   0.034   2.549   1.860 -0.0784  1.6016  0.2982
 8279SOL    HW236297   4.719   2.586   1.989  1.3438  1.2069 -1.5510
 8280SOL     OW36298   0.354   3.041   5.415 -0.3192  0.3684 -0.0038
 8280SOL    HW136299   0.398   3.119   5.382  0.0208  0.0721 -0.2360
 8280SOL    HW236300   0.380   3.039   5.507 -0.8646 -0.5371  0.1272
 8281SOL     OW36301   2.094   2.428   4.078  0.1109  0.3976  0.0838
 8281SOL    HW136302   2.044   2.476   4.011  0.6295 -0.7703 -1.1462
 8281SOL    HW236303   2.090   2.346   4.028  0.8044  0.7735 -0.5775
 8282SOL     OW36304   2.449   3.493   0.018  0.3600 -0.0822  0.1607
 8282SOL    HW136305   2.506   3.541  17.653 -0.4239 -0.5467 -0.9482
 8282SOL    HW236306   2.414   3.433  17.648  2.0118  0.7781 -1.5088
 8283SOL     OW36307   0.151   2.116   3.678 -0.2819 -0.2082  0.2989
 8283SOL    HW136308   0.061   2.087   3.669  0.4059 -2.0739 -0.6715
 8283SOL    HW236309   0.193   2.041   3.636 -0.7733 -0.8806  1.0131
 8284SOL     OW36310   3.758   2.028   7.485  0.0743 -0.0568 -0.0916
 8284SOL    HW136311   3.815   2.099   7.455 -0.3337 -0.2571 -1.3562
 8284SOL    HW236312   3.743   1.989   7.399  1.5026  0.6425 -0.6620
 8285SOL     OW36313   2.268   2.261   6.252  0.5115  0.3625 -0.1838
 8285SOL    HW136314   2.331   2.197   6.283  1.9109  0.0216 -3.6640
 8285SOL    HW236315   2.325   2.321   6.202  1.5808 -1.5571 -1.2614
 8286SOL     OW36316   2.702   2.676   8.011 -0.3189  0.0638 -0.6734
 8286SOL    HW136317   2.661   2.713   8.089  0.2278  0.1593 -0.4289
 8286SOL    HW236318   2.668   2.587   8.012 -0.6178  0.1815 -0.4232
 8287SOL     OW36319   3.391   2.946   5.431 -0.2859 -0.6343 -0.6862
 8287SOL    HW136320   3.304   2.965   5.464 -0.0885 -2.3346  0.8159
 8287SOL    HW236321   3.443   2.941   5.512 -0.1766  1.7261 -0.6074
 8288SOL     OW36322   2.376   1.306   7.325  0.1250 -0.0817 -0.3926
 8288SOL    HW136323   2.413   1.246   7.260  0.9360  0.3750 -0.3626
 8288SOL    HW236324   2.297   1.268   7.363 -0.6268  0.3978 -1.4971
 8289SOL     OW36325   3.968   4.469   1.590  0.8883  0.3084  0.2997
 8289SOL    HW136326   4.058   4.499   1.577  1.1029 -0.4030  0.1121
 8289SOL    HW236327   3.922   4.552   1.583  0.1976 -0.1821 -0.9140
 8290SOL     OW36328   1.111   0.696   9.190 -0.0284  0.3326 -0.3712
 8290SOL    HW136329   1.083   0.647   9.268  0.6273  3.1633  1.6687
 8290SOL    HW236330   1.088   0.788   9.206  0.2681  0.6922 -2.0898
 8291SOL     OW36331   4.644   3.159   0.856 -0.0991  0.2473 -0.1276
 8291SOL    HW136332   4.621   3.119   0.940  1.6301 -1.4122 -0.4526
 8291SOL    HW236333   4.568   3.127   0.806 -0.4857  1.8219 -0.5487
 8292SOL     OW36334   3.725   4.321   2.658 -0.1960  0.2364 -0.2469
 8292SOL    HW136335   3.794   4.388   2.651 -0.5678  0.7702  1.2550
 8292SOL    HW236336   3.664   4.377   2.705 -0.4626  1.0215 -1.5332
 8293SOL     OW36337   2.799   2.703  15.980  0.1946  0.1682 -0.3984
 8293SOL    HW136338   2.704   2.697  15.991  0.0290  0.7328 -1.5420
 8293SOL    HW236339   2.839   2.712  16.067  0.2688 -0.2923 -0.3875
 8294SOL     OW36340   0.371   2.388   8.252  0.2037  0.2250  0.4981
 8294SOL    HW136341   0.411   2.451   8.311  0.9440  0.0997  0.1372
 8294SOL    HW236342   0.339   2.325   8.318 -0.6237 -0.2043 -0.3128
 8295SOL     OW36343   2.879   2.557   2.358  0.3135 -0.0836  0.1177
 8295SOL    HW136344   2.845   2.549   2.447  1.7306 -0.8374  0.5994
 8295SOL    HW236345   2.966   2.587   2.382  0.4631 -0.7294  0.3983
 8296SOL     OW36346   2.364   1.823   3.600 -0.1349  0.2459  0.2036
 8296SOL    HW136347   2.381   1.913   3.627 -2.6503  0.7499  0.0427
 8296SOL    HW236348   2.369   1.834   3.505 -0.0735 -0.3193  0.1421
 8297SOL     OW36349   3.891   0.098  11.825  0.0568  0.2025  0.6596
 8297SOL    HW136350   3.981   0.070  11.808 -0.4809 -1.3463  0.3954
 8297SOL    HW236351   3.860   0.099  11.735 -1.0124  1.2259  1.0322
 8298SOL     OW36352   4.658   4.433   4.372 -0.4418  0.1835 -0.5432
 8298SOL    HW136353   4.682   4.520   4.341  0.7876  0.6118  1.6385
 8298SOL    HW236354   4.640   4.466   4.460  0.2665  1.3330 -0.8362
 8299SOL     OW36355   3.943   1.349   3.962 -0.3596  0.3186  0.0399
 8299SOL    HW136356   4.017   1.368   4.020  0.2650  1.9472 -1.3139
 8299SOL    HW236357   3.893   1.291   4.020 -0.0880 -1.5924 -1.6326
 8300SOL     OW36358   4.073   3.969  12.517 -0.3401 -0.3024 -0.3765
 8300SOL    HW136359   4.139   4.032  12.545 -0.6780  0.9002 -2.3292
 8300SOL    HW236360   4.027   3.956  12.600  0.1302 -1.3024 -0.2659
 8301SOL     OW36361   0.850   1.250   7.936  0.4235 -0.5188 -0.4773
 8301SOL    HW136362   0.788   1.318   7.910 -1.0816 -1.0038  1.9247
 8301SOL    HW236363   0.842   1.190   7.862 -2.6043 -0.6822 -0.0243
 8302SOL     OW36364   2.404   0.196   6.021  0.3868 -0.2932  0.0707
 8302SOL    HW136365   2.402   0.287   5.991 -0.1161 -1.0202 -2.1427
 8302SOL    HW236366   2.347   0.186   6.097  0.4101  1.0968  0.2642
 8303SOL     OW36367   3.679   3.320   4.343  0.2770 -0.2480 -0.3530
 8303SOL    HW136368   3.591   3.357   4.345 -0.1365 -1.1704 -1.5465
 8303SOL    HW236369   3.649   3.234   4.371  1.6790  0.3495  2.9528
 8304SOL     OW36370   2.767   2.932   4.193  0.7257 -0.7848 -0.0590
 8304SOL    HW136371   2.712   2.979   4.130  0.7599 -0.5269  0.1016
 8304SOL    HW236372   2.739   2.842   4.177 -1.2125 -0.0895 -0.6606
 8305SOL     OW36373   2.661   4.436  17.044 -0.2586  0.7198  0.5614
 8305SOL    HW136374   2.704   4.411  16.962  2.1217 -1.5504  2.5023
 8305SOL    HW236375   2.569   4.416  17.027 -0.5722  1.5909  1.2217
 8306SOL     OW36376   0.517   1.487   7.572  0.4238  0.4375 -0.5903
 8306SOL    HW136377   0.442   1.429   7.559  1.4884 -0.8529 -1.0291
 8306SOL    HW236378   0.481   1.551   7.633  1.1836  0.0228  0.2848
 8307SOL     OW36379   1.387   3.816   1.383  0.2030 -0.6362 -0.5026
 8307SOL    HW136380   1.326   3.838   1.454  3.6763  0.9479  1.9781
 8307SOL    HW236381   1.379   3.893   1.328  0.5131 -2.2697 -2.8169
 8308SOL     OW36382   4.165   3.347   2.268  0.0178 -0.0841  0.1160
 8308SOL    HW136383   4.172   3.339   2.363 -0.6830  2.5922  0.3769
 8308SOL    HW236384   4.201   3.433   2.247 -0.3329  0.3614  1.3355
 8309SOL     OW36385   4.228   2.332   8.941  0.0242 -0.1462  0.0762
 8309SOL    HW136386   4.320   2.324   8.965 -0.1267 -0.9488  0.3654
 8309SOL    HW236387   4.190   2.312   9.026  3.0463  1.0289  1.6831
 8310SOL     OW36388   4.028   2.061   6.268  0.3946 -0.5193  0.5487
 8310SOL    HW136389   4.045   2.099   6.182 -2.3407 -1.7512 -0.5494
 8310SOL    HW236390   4.121   2.057   6.288  0.7381  2.4078 -0.3878
 8311SOL     OW36391   4.481   3.798  11.066  0.2014  0.0432 -0.1139
 8311SOL    HW136392   4.416   3.848  11.115  0.4618 -1.1204  1.4615
 8311SOL    HW236393   4.519   3.870  11.017 -0.6461  0.8178  0.3707
 8312SOL     OW36394   0.062   2.024   6.306 -0.0128 -0.0661 -0.1410
 8312SOL    HW136395   0.141   2.000   6.258 -0.2006 -2.1215  0.5655
 8312SOL    HW236396   0.093   2.096   6.360  0.1530  0.3329 -0.7672
 8313SOL     OW36397   2.064   0.922   7.705 -0.1214  0.1429 -0.0463
 8313SOL    HW136398   2.102   0.840   7.672  1.6419  0.5448  0.9791
 8313SOL    HW236399   2.105   0.988   7.649  0.0423  0.0781 -0.0033
 8314SOL     OW36400   0.467   1.036  15.339  0.3923 -0.5803 -0.1084
 8314SOL    HW136401   0.550   1.067  15.304  0.3355 -0.7786 -0.4094
 8314SOL    HW236402   0.430   0.991  15.264  0.2384  1.2547 -1.1448
 8315SOL     OW36403   2.528   1.022  10.011  0.1738  0.3242  0.5637
 8315SOL    HW136404   2.503   0.931  10.003  1.7925  0.2154 -3.1461
 8315SOL    HW236405   2.487   1.067   9.937  1.4738  1.5718  0.5946
 8316SOL     OW36406   4.688   1.220   7.809 -0.5269  0.7628  0.8189
 8316SOL    HW136407   4.666   1.148   7.868  1.0966  0.2286  0.7682
 8316SOL    HW236408   0.007   1.165   7.743 -0.0384  3.7851 -1.4163
 8317SOL     OW36409   4.218   0.005  11.335 -0.4798  0.0704 -0.1858
 8317SOL    HW136410   4.290   0.063  11.311  1.8214 -1.7746  2.2686
 8317SOL    HW236411   4.159   0.002  11.259  0.4160 -0.8525 -0.8321
 8318SOL     OW36412   3.675   3.224  13.777 -0.4748  0.3280 -0.0908
 8318SOL    HW136413   3.705   3.314  13.790 -0.0454 -0.0912  1.7029
 8318SOL    HW236414   3.721   3.207  13.694  0.1480  1.4571  0.0282
 8319SOL     OW36415   3.892   3.463  15.477  0.1208 -0.2284  0.4402
 8319SOL    HW136416   3.855   3.408  15.408  1.0282  1.8328 -1.6882
 8319SOL    HW236417   3.914   3.391  15.536 -0.8729 -0.6444  0.3155
 8320SOL     OW36418   1.136   1.669   8.026 -0.2630  0.3130  0.1277
 8320SOL    HW136419   1.142   1.578   8.055 -2.7525 -0.3993 -1.6261
 8320SOL    HW236420   1.160   1.715   8.107  0.1726 -1.0223  0.7661
 8321SOL     OW36421   0.638   4.001   4.075 -0.3175 -0.2024  0.5790
 8321SOL    HW136422   0.621   4.077   4.130 -1.3167  0.3634 -0.5067
 8321SOL    HW236423   0.613   4.023   3.985 -0.0258 -1.2488  0.2350
 8322SOL     OW36424   4.376   2.948  15.868  0.0409 -0.0192  0.7229
 8322SOL    HW136425   4.357   2.928  15.776 -0.9908  1.9575  0.4961
 8322SOL    HW236426   4.424   3.030  15.858  0.8451 -0.5532  0.1443
 8323SOL     OW36427   0.028   3.194   9.096 -0.2156 -0.3387  0.2291
 8323SOL    HW136428   4.680   3.258   9.091 -0.9334 -1.1547  0.1168
 8323SOL    HW236429   0.043   3.197   9.190 -0.2012  0.1926  0.2115
 8324SOL     OW36430   3.039   4.086   3.139 -0.1039 -0.7424  0.4149
 8324SOL    HW136431   3.077   4.163   3.182 -2.4483  0.7598 -0.1628
 8324SOL    HW236432   2.979   4.050   3.205  0.6492  2.8066  3.0126
 8325SOL     OW36433   2.783   1.795   6.615  0.1523  0.3592 -0.4080
 8325SOL    HW136434   2.869   1.819   6.581 -0.3093 -0.8249 -2.4482
 8325SOL    HW236435   2.723   1.863   6.584 -0.0026  0.0177 -0.8571
 8326SOL     OW36436   2.983   1.341  16.043  0.2039 -0.0241  0.4309
 8326SOL    HW136437   2.929   1.262  16.047 -1.6518  1.4113  3.8590
 8326SOL    HW236438   2.967   1.373  15.954 -1.0394 -0.9939  0.3131
 8327SOL     OW36439   1.849   0.535  17.357  0.3006 -0.7342  0.3825
 8327SOL    HW136440   1.807   0.621  17.367  3.5822  0.7349  1.3979
 8327SOL    HW236441   1.890   0.521  17.442 -0.4883 -0.6601  0.7734
 8328SOL     OW36442   0.005   2.201  16.140 -0.4011  0.1614 -0.2993
 8328SOL    HW136443   0.075   2.249  16.096 -0.3827  1.6810  1.3657
 8328SOL    HW236444   0.043   2.114  16.137  0.8681  0.6933  0.1986
 8329SOL     OW36445   0.038   1.324   4.327 -0.4890  0.1497  0.0431
 8329SOL    HW136446   0.031   1.404   4.379  1.4516 -2.1473  3.8612
 8329SOL    HW236447   0.119   1.341   4.280  1.2970  3.4975  4.2749
 8330SOL     OW36448   3.042   3.173   2.945  0.5761  0.5465  0.0639
 8330SOL    HW136449   2.984   3.219   3.006 -0.8009 -0.9892 -0.0764
 8330SOL    HW236450   3.126   3.208   2.974  0.5971  0.0538  0.5937
 8331SOL     OW36451   4.108   1.634   7.842 -0.4634 -0.4341 -0.2877
 8331SOL    HW136452   4.129   1.722   7.874  1.2121 -1.0765  0.3887
 8331SOL    HW236453   4.107   1.589   7.927  1.9094 -0.1920 -0.1173
 8332SOL     OW36454   1.148   1.148   8.245 -0.1072 -0.5072  0.1562
 8332SOL    HW136455   1.088   1.223   8.238  0.6489  0.4905  4.1395
 8332SOL    HW236456   1.106   1.084   8.187 -1.0556  1.3146 -1.1487
 8333SOL     OW36457   0.668   2.326   5.804 -0.0179  0.3827 -0.3189
 8333SOL    HW136458   0.724   2.250   5.787 -0.7575  0.0081 -1.1041
 8333SOL    HW236459   0.712   2.376   5.735  1.7683 -0.4034  0.2594
 8334SOL     OW36460   2.574   0.780   6.354 -0.2145  0.2967  0.4218
 8334SOL    HW136461   2.506   0.786   6.287  2.4216  1.9772 -2.1190
 8334SOL    HW236462   2.608   0.691   6.339 -0.5673  0.2662 -0.2065
 8335SOL     OW36463   2.912   4.443   9.702  0.4633 -1.0275  0.5168
 8335SOL    HW136464   2.994   4.400   9.676  1.8678 -0.8042  4.5319
 8335SOL    HW236465   2.913   4.522   9.648 -0.7194  0.5187  2.7884
 8336SOL     OW36466   1.098   0.430  13.873  0.2310  0.9927 -0.5074
 8336SOL    HW136467   1.188   0.401  13.859 -0.2055 -1.5270  2.0452
 8336SOL    HW236468   1.073   0.462  13.786  2.3789  1.1131 -1.0776
 8337SOL     OW36469   1.736   3.421   6.474  0.3882 -0.3027  0.9426
 8337SOL    HW136470   1.678   3.400   6.401  1.3440  2.9602 -0.7214
 8337SOL    HW236471   1.760   3.512   6.459  0.7793 -0.4691  0.5393
 8338SOL     OW36472   2.942   3.632   3.881  0.7176 -0.6531  0.0425
 8338SOL    HW136473   2.959   3.688   3.806  1.1133  2.1332  2.2153
 8338SOL    HW236474   3.002   3.666   3.947  0.2289 -1.7788  1.0888
 8339SOL     OW36475   0.544   4.569  10.180 -0.0484  0.4642 -0.1351
 8339SOL    HW136476   0.563   4.546  10.089 -1.6060 -0.6967 -0.1482
 8339SOL    HW236477   0.627   4.611  10.206  0.3119 -0.6554  0.5033
 8340SOL     OW36478   0.252   1.276   0.997  0.3502  0.5494  0.1240
 8340SOL    HW136479   0.301   1.257   0.917 -0.8837 -1.6927 -0.1074
 8340SOL    HW236480   0.321   1.297   1.059 -1.6691  1.7310  1.9553
 8341SOL     OW36481   4.501   2.884   6.059  0.1116 -0.2649 -0.5961
 8341SOL    HW136482   4.554   2.804   6.069  0.2772 -0.6114 -4.3396
 8341SOL    HW236483   4.413   2.849   6.071 -0.3598  0.9822 -0.5235
 8342SOL     OW36484   2.593   3.589   3.202 -0.5554  0.4194  0.4059
 8342SOL    HW136485   2.528   3.588   3.133  0.3209 -1.0720 -0.4016
 8342SOL    HW236486   2.639   3.671   3.186 -0.3872  0.2401 -0.0415
 8343SOL     OW36487   0.646   4.548   0.268 -0.3286  0.1368 -0.6966
 8343SOL    HW136488   0.731   4.559   0.311  0.0530  0.3352 -1.4941
 8343SOL    HW236489   0.648   4.453   0.260  1.1539  0.2085 -1.1951
 8344SOL     OW36490   4.457   2.468   7.007  0.5388 -0.3335  0.3827
 8344SOL    HW136491   4.515   2.501   7.075 -0.3110  2.9326 -0.4798
 8344SOL    HW236492   4.373   2.459   7.054  1.1139 -0.4138  1.3937
 8345SOL     OW36493   2.602   3.931  16.200  0.3144  0.1536 -0.3244
 8345SOL    HW136494   2.627   3.839  16.197  0.1492  0.0817  0.7903
 8345SOL    HW236495   2.522   3.913  16.249  1.2256 -1.5889  0.5339
 8346SOL     OW36496   3.737   2.935   5.429  0.0524  0.0523 -0.4320
 8346SOL    HW136497   3.650   2.928   5.390 -0.7829 -1.2407  1.6444
 8346SOL    HW236498   3.797   2.920   5.356 -0.2747  0.8311 -0.8544
 8347SOL     OW36499   0.324   3.842  15.476 -0.6980 -0.1297  0.0383
 8347SOL    HW136500   0.230   3.829  15.476 -0.5639 -1.0498  1.6330
 8347SOL    HW236501   0.336   3.843  15.381  1.0016 -1.2054  0.2305
 8348SOL     OW36502   3.883   1.757   3.098  0.0711  0.1746  0.1702
 8348SOL    HW136503   3.908   1.714   3.016  1.0834  0.5375  0.2904
 8348SOL    HW236504   3.835   1.686   3.140 -1.7179  3.1651  3.1637
 8349SOL     OW36505   1.551   2.625  16.983  0.3868 -0.0328 -0.4025
 8349SOL    HW136506   1.468   2.596  17.021  1.5821 -1.0058  1.5283
 8349SOL    HW236507   1.538   2.720  16.982  1.1184  0.0445 -2.1685
 8350SOL     OW36508   0.118   1.498   0.498 -0.4395  0.5151 -0.0863
 8350SOL    HW136509   0.044   1.504   0.438 -0.8197  0.1140  0.3429
 8350SOL    HW236510   0.118   1.580   0.548 -2.2551 -0.3462  1.3548
 8351SOL     OW36511   1.064   1.545   8.309 -0.0854 -0.1706 -0.0349
 8351SOL    HW136512   0.994   1.489   8.274 -0.4696 -0.1137  0.6304
 8351SOL    HW236513   1.047   1.520   8.400  2.6133  0.4830  0.6411
 8352SOL     OW36514   3.680   2.171   2.293  0.2476  0.5610  0.1398
 8352SOL    HW136515   3.634   2.252   2.270  0.2546  0.8713  1.1974
 8352SOL    HW236516   3.616   2.124   2.346  0.4573 -1.2762 -1.2133
 8353SOL     OW36517   2.657   2.352   4.426 -0.0300 -0.1731  0.3016
 8353SOL    HW136518   2.622   2.306   4.502 -3.0742 -1.4366 -1.8917
 8353SOL    HW236519   2.673   2.286   4.358  2.2847  0.2464  0.4401
 8354SOL     OW36520   1.889   4.235  10.969  0.0074  0.0119  0.3488
 8354SOL    HW136521   1.838   4.253  11.048 -0.0964  1.0039  0.0494
 8354SOL    HW236522   1.915   4.324  10.947 -0.6994 -0.3233 -1.8515
 8355SOL     OW36523   4.158   0.081  10.323  0.4506 -0.4537  0.2370
 8355SOL    HW136524   4.213   0.003  10.313 -0.0953 -1.0140  1.5269
 8355SOL    HW236525   4.123   0.088  10.234  0.4765 -1.7321  0.1238
 8356SOL     OW36526   1.684   0.744  17.374  0.2127  0.2913  0.2672
 8356SOL    HW136527   1.686   0.835  17.402 -0.0530 -0.0495  1.3994
 8356SOL    HW236528   1.670   0.748  17.280 -0.1074  1.0045  0.3524
 8357SOL     OW36529   0.518   0.592   5.581  0.0759  0.1577 -0.1906
 8357SOL    HW136530   0.571   0.566   5.506 -1.9918 -1.1781 -1.1936
 8357SOL    HW236531   0.433   0.550   5.564  1.5496 -1.9308 -2.3921
 8358SOL     OW36532   3.192   2.863  17.640 -0.5014 -0.2461 -0.0768
 8358SOL    HW136533   3.270   2.808  17.633 -0.5858 -0.2271 -1.1123
 8358SOL    HW236534   3.166   2.846   0.035 -1.0043 -0.9611 -0.3546
 8359SOL     OW36535   2.691   2.852   5.738 -0.3884  0.4308  0.6497
 8359SOL    HW136536   2.707   2.794   5.663  0.6509  1.8306 -0.2208
 8359SOL    HW236537   2.760   2.814   5.792 -1.5223 -1.3163  0.8425
 8360SOL     OW36538   1.076   1.595   4.915  0.3397 -0.6777  0.1363
 8360SOL    HW136539   1.128   1.517   4.935 -1.8317 -2.5606 -1.6713
 8360SOL    HW236540   1.013   1.555   4.855  0.2945  2.2593 -1.7615
 8361SOL     OW36541   1.989   4.502  15.316  0.2988 -0.3280 -0.3918
 8361SOL    HW136542   1.940   4.509  15.234 -2.0886 -0.1418  1.0417
 8361SOL    HW236543   2.056   4.442  15.284  0.9961  0.3359 -0.1659
 8362SOL     OW36544   0.137   2.834  12.277 -0.2277  0.5219  0.3049
 8362SOL    HW136545   0.055   2.844  12.230 -1.6369 -1.6191  2.3178
 8362SOL    HW236546   0.158   2.747  12.244 -0.6640  0.7035 -0.4361
 8363SOL     OW36547   3.131   2.164   5.452  1.1265  0.1246  0.1384
 8363SOL    HW136548   3.081   2.152   5.371  1.8232  1.9418 -0.5702
 8363SOL    HW236549   3.198   2.227   5.425 -1.5884  2.6131 -0.8187
 8364SOL     OW36550   0.551   0.197   7.247 -0.0461 -0.5449 -0.5611
 8364SOL    HW136551   0.493   0.272   7.233  0.8210 -0.3796 -3.1985
 8364SOL    HW236552   0.495   0.119   7.250 -0.9744  0.1345 -0.1806
 8365SOL     OW36553   2.691   3.476  13.236  0.3135  0.0208 -0.2145
 8365SOL    HW136554   2.633   3.535  13.283 -1.4542 -1.0624 -1.0297
 8365SOL    HW236555   2.746   3.460  13.313  1.8782 -0.0888 -1.3473
 8366SOL     OW36556   2.513   3.680  13.388 -0.1026  0.1319  1.3343
 8366SOL    HW136557   2.458   3.697  13.465 -1.0533 -1.8697  1.0805
 8366SOL    HW236558   2.593   3.727  13.411  1.4286 -0.9611 -1.7573
 8367SOL     OW36559   1.844   2.214   4.417 -0.6413  0.1961 -0.2451
 8367SOL    HW136560   1.829   2.308   4.410  0.6359  0.4093 -0.0135
 8367SOL    HW236561   1.808   2.196   4.503  1.0158  0.2055  0.4460
 8368SOL     OW36562   3.404   0.892  12.064 -0.3186  0.1116  0.2154
 8368SOL    HW136563   3.467   0.833  12.105  1.2752  0.8431 -1.1999
 8368SOL    HW236564   3.459   0.969  12.049 -0.6764  0.9195  3.1967
 8369SOL     OW36565   4.429   1.950   4.691 -0.2998  0.1395 -0.2093
 8369SOL    HW136566   4.337   1.947   4.718 -0.4694  3.4906 -0.5253
 8369SOL    HW236567   4.459   2.016   4.753 -1.8748 -1.1923  2.0035
 8370SOL     OW36568   0.305   1.879   8.150 -0.5259  0.8560  0.2822
 8370SOL    HW136569   0.235   1.835   8.197 -1.2565  2.1057  0.3730
 8370SOL    HW236570   0.373   1.812   8.149 -0.4454  0.9012  2.5889
 8371SOL     OW36571   1.915   2.914   8.232 -0.6069  0.5021 -0.1244
 8371SOL    HW136572   1.964   2.896   8.152 -0.5126  0.6705 -0.1053
 8371SOL    HW236573   1.982   2.944   8.293 -0.5852  0.0122  0.0932
 8372SOL     OW36574   3.360   0.542  11.043  0.3968  0.6583 -0.2402
 8372SOL    HW136575   3.368   0.545  10.948 -0.1560 -0.5373 -0.3297
 8372SOL    HW236576   3.451   0.551  11.072  0.2628  2.2307 -0.3338
 8373SOL     OW36577   3.498   1.759   4.662 -0.5268 -0.5668 -0.0979
 8373SOL    HW136578   3.537   1.682   4.702  1.8087 -0.2920 -1.8369
 8373SOL    HW236579   3.420   1.778   4.714 -0.3831 -0.8852  0.2307
 8374SOL     OW36580   2.655   2.486   3.373  0.2932 -0.1194 -0.4242
 8374SOL    HW136581   2.567   2.490   3.411  0.0252  2.6524 -1.2940
 8374SOL    HW236582   2.678   2.399   3.404  1.9250 -0.3084 -2.1731
 8375SOL     OW36583   2.618   3.400   2.792 -0.0887 -0.2598  0.5894
 8375SOL    HW136584   2.545   3.337   2.793  0.0174 -0.3913  0.1628
 8375SOL    HW236585   2.592   3.456   2.719 -2.7908  1.1423  2.6333
 8376SOL     OW36586   1.042   0.805   0.996  0.1426  0.4124  0.0117
 8376SOL    HW136587   1.005   0.886   1.030 -0.7385  0.2584 -0.6114
 8376SOL    HW236588   0.964   0.751   0.992  0.5163 -0.1354  0.0303
 8377SOL     OW36589   0.553   0.913   0.235 -0.8186  0.2606  0.6880
 8377SOL    HW136590   0.488   0.845   0.214 -1.3274  1.3475 -1.2268
 8377SOL    HW236591   0.499   0.992   0.230  1.2074  1.7810  3.1702
 8378SOL     OW36592   2.538   2.659   5.996  0.3167 -0.2421  0.0775
 8378SOL    HW136593   2.485   2.599   6.048 -1.3806  1.4190  0.2603
 8378SOL    HW236594   2.626   2.630   6.020  0.2927 -0.5340 -0.1810
 8379SOL     OW36595   0.410   0.871   4.762 -0.0269 -0.1646 -0.0268
 8379SOL    HW136596   0.450   0.929   4.826 -1.5823  0.9305 -0.0663
 8379SOL    HW236597   0.373   0.930   4.697 -1.4804 -0.4936  0.4897
 8380SOL     OW36598   2.078   0.800   5.689  0.2347 -0.3254  0.0675
 8380SOL    HW136599   2.026   0.879   5.699  0.4600 -0.3652  1.6157
 8380SOL    HW236600   2.042   0.742   5.757  0.6632 -2.1239 -1.2502
 8381SOL     OW36601   0.407   4.586   7.598 -0.1801 -0.5472 -0.6757
 8381SOL    HW136602   0.312   4.576   7.585 -0.4329 -0.0122  0.7761
 8381SOL    HW236603   0.422   4.680   7.589  3.2047 -1.0610 -0.2993
 8382SOL     OW36604   0.895   3.860   7.383 -0.1339  0.4429 -0.1584
 8382SOL    HW136605   0.918   3.815   7.303  1.6233  1.0956 -0.0124
 8382SOL    HW236606   0.815   3.903   7.353 -0.6791 -0.5729 -0.1401
 8383SOL     OW36607   4.156   4.341   6.251 -0.3985  0.0869  0.5813
 8383SOL    HW136608   4.068   4.379   6.256 -0.9723 -1.1402 -0.6314
 8383SOL    HW236609   4.203   4.425   6.252  1.0882 -0.7380 -0.1134
 8384SOL     OW36610   0.411   3.472   4.645 -0.1047 -0.2830  0.0783
 8384SOL    HW136611   0.368   3.557   4.635  0.3131 -0.0353  0.3703
 8384SOL    HW236612   0.371   3.430   4.569 -1.4954 -0.8644  1.1348
 8385SOL     OW36613   1.652   2.202  12.884  0.1514 -0.2595  0.0621
 8385SOL    HW136614   1.694   2.147  12.817 -0.5685  0.2310 -0.7995
 8385SOL    HW236615   1.737   2.230  12.916  0.4168  0.4532 -1.2741
 8386SOL     OW36616   3.941   0.820  16.308 -0.0702 -0.3641  0.1155
 8386SOL    HW136617   3.984   0.899  16.278  0.8303 -2.0343 -2.9677
 8386SOL    HW236618   4.002   0.780  16.370  1.3870  0.6836 -0.6587
 8387SOL     OW36619   2.497   4.581   5.122  0.4682  0.5111  0.5277
 8387SOL    HW136620   2.536   4.612   5.040  0.4842  0.5796  0.5609
 8387SOL    HW236621   2.428   4.645   5.137 -0.9656 -0.3659 -2.4031
 8388SOL     OW36622   2.665   3.426   3.674 -0.4672  0.4504 -0.3292
 8388SOL    HW136623   2.712   3.344   3.692 -0.5837  0.8228  1.6779
 8388SOL    HW236624   2.714   3.465   3.602 -0.9923  1.4226 -0.1540
 8389SOL     OW36625   0.754   2.044   0.744  0.2196 -0.0519  0.9850
 8389SOL    HW136626   0.811   1.996   0.684 -2.5741 -0.8392 -1.0633
 8389SOL    HW236627   0.666   2.007   0.731 -0.1164  0.9373  0.4089
 8390SOL     OW36628   4.524   3.554   3.842 -0.4070  0.6779  0.0955
 8390SOL    HW136629   4.480   3.635   3.866  0.7133  0.3223  3.2970
 8390SOL    HW236630   4.485   3.528   3.758  1.1886  1.9971 -1.0831
 8391SOL     OW36631   4.493   1.553   7.191 -0.1642  0.4188 -0.0524
 8391SOL    HW136632   4.482   1.584   7.281 -0.3672  1.7038 -0.5195
 8391SOL    HW236633   4.400   1.535   7.175 -0.0437 -1.3659  1.2384
 8392SOL     OW36634   4.531   3.403   5.372 -0.0780 -0.5337 -0.0713
 8392SOL    HW136635   4.590   3.453   5.316 -2.1621  2.6666  0.5573
 8392SOL    HW236636   4.444   3.413   5.332  0.3388  2.8235 -0.1649
 8393SOL     OW36637   0.731   0.115   5.615  0.0513  0.2193  0.3118
 8393SOL    HW136638   0.768   0.187   5.666  0.9594 -2.4102  3.4272
 8393SOL    HW236639   0.747   0.143   5.525 -3.2824 -1.6218 -0.8487
 8394SOL     OW36640   2.146   1.595   2.635 -0.1284  0.6010  0.0861
 8394SOL    HW136641   2.214   1.564   2.575 -0.6667  0.8368 -0.6416
 8394SOL    HW236642   2.087   1.521   2.646  0.2339 -0.1733 -3.0540
 8395SOL     OW36643   3.494   4.409   4.709  0.2681  0.2900 -0.2095
 8395SOL    HW136644   3.400   4.391   4.710  0.1805  0.6435 -1.6945
 8395SOL    HW236645   3.531   4.327   4.743 -0.2901 -0.1378 -0.6292
 8396SOL     OW36646   1.614   3.440   3.856  0.3707  0.1793 -0.2221
 8396SOL    HW136647   1.636   3.412   3.767 -2.2576  0.0395 -0.8181
 8396SOL    HW236648   1.533   3.392   3.872 -1.4531  2.2521 -3.1911
 8397SOL     OW36649   1.317   3.096   2.091  0.0866 -0.1573  0.1813
 8397SOL    HW136650   1.405   3.068   2.068  0.5807  0.6698  1.1210
 8397SOL    HW236651   1.323   3.075   2.184  1.1779 -0.7989 -0.0345
 8398SOL     OW36652   2.761   0.887  16.325  0.2254  0.3095  0.0937
 8398SOL    HW136653   2.681   0.847  16.361  1.1210  0.6706  2.5121
 8398SOL    HW236654   2.820   0.813  16.319 -0.2503 -0.1771  1.2591
 8399SOL     OW36655   1.136   2.314   0.414  0.5542 -0.2335 -0.0417
 8399SOL    HW136656   1.135   2.267   0.331 -0.0033 -0.3041  0.0071
 8399SOL    HW236657   1.042   2.307   0.425  0.4795  0.7867 -0.0516
 8400SOL     OW36658   4.622   3.786   6.431  0.2318  0.0614  0.0887
 8400SOL    HW136659   4.634   3.709   6.375  0.2620  1.1024 -1.3400
 8400SOL    HW236660   4.711   3.817   6.450  1.7411 -2.8353 -2.1453
 8401SOL     OW36661   1.945   2.542   1.384 -0.2080 -0.1766 -0.3417
 8401SOL    HW136662   2.028   2.584   1.409 -2.4503  1.2265  4.7846
 8401SOL    HW236663   1.936   2.465   1.439  1.2875 -0.8393 -1.0209
 8402SOL     OW36664   1.213   4.316   4.875  0.4320  0.3062  0.2051
 8402SOL    HW136665   1.240   4.245   4.817  1.5086  0.3822  0.6179
 8402SOL    HW236666   1.290   4.323   4.931  0.7929 -1.1976 -0.1101
 8403SOL     OW36667   1.591   2.397  12.249 -0.1050 -0.2065 -0.2765
 8403SOL    HW136668   1.594   2.400  12.344  1.8784 -0.6542 -0.3223
 8403SOL    HW236669   1.563   2.305  12.243 -2.9974  0.6480  0.5094
 8404SOL     OW36670   3.640   3.170   0.014  0.0963 -0.2587 -0.1269
 8404SOL    HW136671   3.635   3.253  17.662  0.0387  0.2201  0.7108
 8404SOL    HW236672   3.672   3.200   0.099 -0.9591  3.5215 -1.0436
 8405SOL     OW36673   0.308   1.235  10.273 -0.2568  0.1237  0.0353
 8405SOL    HW136674   0.399   1.265  10.270  0.6266 -2.7044 -0.7861
 8405SOL    HW236675   0.316   1.152  10.319  1.4849 -0.0220 -0.5403
 8406SOL     OW36676   3.417   0.969   8.355 -0.1498  0.1759 -0.0095
 8406SOL    HW136677   3.428   0.874   8.353 -1.2036  0.0499  0.3601
 8406SOL    HW236678   3.441   0.986   8.446 -1.2932 -0.0581  0.3245
 8407SOL     OW36679   0.041   0.411   0.110  0.1831  0.2305 -0.3231
 8407SOL    HW136680   4.691   0.384   0.055 -2.8678  1.0922  3.3526
 8407SOL    HW236681   0.050   0.331   0.162 -0.1470  0.8768  0.7416
 8408SOL     OW36682   2.528   2.717   1.024 -0.4953 -0.8048  0.2380
 8408SOL    HW136683   2.495   2.751   1.107 -1.5784 -1.1167 -0.0566
 8408SOL    HW236684   2.506   2.624   1.035  0.1245 -0.9678  0.1094
 8409SOL     OW36685   3.492   0.783   4.534  0.2682 -0.1973  0.2156
 8409SOL    HW136686   3.451   0.707   4.494  1.9839 -0.2234 -1.4996
 8409SOL    HW236687   3.447   0.859   4.497  0.5636 -0.2205 -0.1873
 8410SOL     OW36688   0.232   0.362  12.350  0.7459  0.0494 -0.5609
 8410SOL    HW136689   0.163   0.296  12.341  1.9147 -1.6288  2.7298
 8410SOL    HW236690   0.189   0.447  12.345  0.4813  0.1359  2.7996
 8411SOL     OW36691   0.279   3.596   3.886  0.2113  0.5178  0.0315
 8411SOL    HW136692   0.201   3.562   3.930  0.9163 -0.4805  0.5006
 8411SOL    HW236693   0.348   3.531   3.900 -1.3400 -1.2955 -0.6200
 8412SOL     OW36694   2.477   4.107  12.391  0.5911 -0.8766  0.0950
 8412SOL    HW136695   2.385   4.087  12.411  0.3348  0.8086  0.6668
 8412SOL    HW236696   2.499   4.023  12.351  2.4222  0.6054 -1.9896
 8413SOL     OW36697   0.027   2.056  15.209 -0.3490  0.2086 -0.5129
 8413SOL    HW136698   0.007   2.077  15.117 -0.3128 -1.6731 -0.9514
 8413SOL    HW236699   4.692   2.109  15.263  2.4247  0.0257  2.6440
 8414SOL     OW36700   4.164   0.799   9.830  0.1133  0.2641 -0.3060
 8414SOL    HW136701   4.235   0.735   9.837  0.6548  1.0708  1.6065
 8414SOL    HW236702   4.205   0.885   9.825  2.4379 -0.8219  0.0417
 8415SOL     OW36703   1.749   1.062  11.815 -0.0082 -0.9357 -0.3058
 8415SOL    HW136704   1.666   1.086  11.773 -0.3756 -1.9851 -0.1617
 8415SOL    HW236705   1.722   0.975  11.843 -0.6677 -0.2546  1.1853
 8416SOL     OW36706   2.985   4.202   2.182 -0.1367  0.2602  0.1901
 8416SOL    HW136707   2.983   4.221   2.276 -0.3316  0.2738  0.1836
 8416SOL    HW236708   2.995   4.289   2.144 -0.4776 -0.3406 -1.2519
 8417SOL     OW36709   0.907   0.327  14.777 -0.0622  0.9380  0.1079
 8417SOL    HW136710   0.856   0.254  14.810 -1.1626  0.9753 -1.5400
 8417SOL    HW236711   0.931   0.304  14.688  1.4107 -0.6268  0.9025
 8418SOL     OW36712   4.115   2.611   3.395 -0.1090  0.0047  0.6083
 8418SOL    HW136713   4.100   2.591   3.487  1.1842 -0.4954  0.7253
 8418SOL    HW236714   4.043   2.670   3.375 -0.8071 -0.8411  0.6111
 8419SOL     OW36715   4.182   0.646   7.166 -0.3481  0.6571  0.1722
 8419SOL    HW136716   4.226   0.678   7.244 -1.1721  1.6592  0.2266
 8419SOL    HW236717   4.117   0.592   7.211 -2.6701  3.3098 -0.0000
 8420SOL     OW36718   4.270   0.484   5.761  0.6803  0.0511 -0.4222
 8420SOL    HW136719   4.364   0.489   5.782  0.3539  0.6064  0.9452
 8420SOL    HW236720   4.271   0.416   5.694 -0.4538  0.2031 -0.5869
 8421SOL     OW36721   4.547   3.914   8.175 -0.0361 -0.3137 -0.4317
 8421SOL    HW136722   4.507   4.001   8.168 -0.1149 -0.2906  0.3418
 8421SOL    HW236723   4.533   3.887   8.084  2.8066 -0.7050 -0.7684
 8422SOL     OW36724   0.480   2.927   7.577  0.1130 -0.3029 -0.1269
 8422SOL    HW136725   0.452   2.916   7.668  0.7419 -2.1080 -0.1408
 8422SOL    HW236726   0.576   2.928   7.572  0.1368 -2.1504 -0.0761
 8423SOL     OW36727   1.794   4.100   5.460 -0.1422 -0.2961  0.8065
 8423SOL    HW136728   1.887   4.121   5.472 -0.7081  2.4208  0.5404
 8423SOL    HW236729   1.796   4.008   5.487  1.6190 -0.7344 -0.7626
 8424SOL     OW36730   4.075   4.618   2.136  0.4159 -0.2679  0.0266
 8424SOL    HW136731   4.159   4.666   2.139  0.3691 -0.1522 -0.5445
 8424SOL    HW236732   4.096   4.541   2.083 -1.0415 -0.4163 -0.3257
 8425SOL     OW36733   0.003   0.386   8.014 -0.4875  0.2668 -0.1437
 8425SOL    HW136734   4.700   0.467   8.057  2.6227  0.5965  1.1500
 8425SOL    HW236735   0.095   0.409   8.001 -0.7863  0.2614 -2.2460
 8426SOL     OW36736   4.038   1.802   3.558 -0.0176 -0.2706  0.4971
 8426SOL    HW136737   3.978   1.745   3.509  1.4681 -1.4629  0.0413
 8426SOL    HW236738   4.081   1.748   3.624 -1.1436 -2.9674 -0.9337
 8427SOL     OW36739   3.517   2.385   5.564 -0.5539  0.1290 -0.1811
 8427SOL    HW136740   3.478   2.302   5.538  2.0291 -0.5775 -1.7359
 8427SOL    HW236741   3.609   2.374   5.540 -0.3455  0.5528  0.4002
 8428SOL     OW36742   1.328   1.828   5.083  0.2476 -0.5757 -0.8080
 8428SOL    HW136743   1.419   1.842   5.058  0.1641 -0.8742 -1.2822
 8428SOL    HW236744   1.340   1.772   5.160 -1.7636  2.4496  1.7210
 8429SOL     OW36745   0.844   0.293   5.816  0.2805  0.4018 -0.6481
 8429SOL    HW136746   0.847   0.244   5.898  0.4188  0.7415 -0.4539
 8429SOL    HW236747   0.769   0.351   5.831  0.5778 -0.2349  3.2230
 8430SOL     OW36748   2.176   0.843   6.633 -0.2737  0.2664 -0.7355
 8430SOL    HW136749   2.252   0.880   6.588  0.1757  0.7419  0.4082
 8430SOL    HW236750   2.224   0.779   6.685  0.3465  0.6844 -0.7929
 8431SOL     OW36751   2.459   4.499   9.219 -0.0037 -0.1186  0.4297
 8431SOL    HW136752   2.456   4.433   9.289  0.2123 -1.6790 -1.0373
 8431SOL    HW236753   2.370   4.532   9.223  0.5024  1.3210 -0.1454
 8432SOL     OW36754   3.499   0.586  10.798  0.2767 -0.5991  0.5093
 8432SOL    HW136755   3.554   0.644  10.745 -0.6787 -1.2066 -1.1460
 8432SOL    HW236756   3.516   0.502  10.756 -0.8235 -0.1971 -0.7875
 8433SOL     OW36757   0.726   1.556   5.634  0.1837  0.2485 -0.8462
 8433SOL    HW136758   0.706   1.477   5.584 -2.6558 -0.6573  1.7308
 8433SOL    HW236759   0.778   1.599   5.565  1.2085  0.3735  0.0172
 8434SOL     OW36760   3.614   0.258  16.729  0.6139 -0.1065 -0.4209
 8434SOL    HW136761   3.589   0.239  16.819  0.3415  0.5221 -0.3662
 8434SOL    HW236762   3.561   0.184  16.697 -0.8946  0.7285  0.1348
 8435SOL     OW36763   4.657   4.502   7.444  0.7068  0.2507  0.5875
 8435SOL    HW136764   4.665   4.475   7.352  0.0154 -2.0814  1.2169
 8435SOL    HW236765   4.618   4.425   7.486  0.3691 -0.7205 -1.4894
 8436SOL     OW36766   3.481   3.702   7.409  0.3565 -0.0437  0.1714
 8436SOL    HW136767   3.460   3.777   7.353  0.7886 -0.1012 -0.0737
 8436SOL    HW236768   3.475   3.747   7.493  2.8360 -0.4868  0.5896
 8437SOL     OW36769   1.995   2.857   7.972  0.5132  0.4621 -0.0553
 8437SOL    HW136770   1.943   2.826   7.897 -1.0151  0.1895  1.1098
 8437SOL    HW236771   2.078   2.821   7.942 -0.3934 -0.8461 -1.0320
 8438SOL     OW36772   2.212   1.947   3.875 -0.5057 -0.8161 -0.2488
 8438SOL    HW136773   2.144   1.941   3.808  0.7058  0.3432 -1.6081
 8438SOL    HW236774   2.237   2.039   3.865  0.0113 -0.6633  2.4684
 8439SOL     OW36775   3.004   3.483   4.565 -0.2077  0.4027  0.2981
 8439SOL    HW136776   3.008   3.395   4.527  0.5875 -0.3004  2.0455
 8439SOL    HW236777   2.924   3.482   4.617 -2.0493 -0.9211 -2.5542
 8440SOL     OW36778   3.249   1.550   6.140  0.1783  0.1746  0.1787
 8440SOL    HW136779   3.285   1.629   6.101 -2.1599  0.5373 -1.2440
 8440SOL    HW236780   3.190   1.521   6.071  1.1127  0.3628 -0.6998
 8441SOL     OW36781   4.606   0.177   5.455 -0.2433  0.3547  0.1931
 8441SOL    HW136782   4.584   0.084   5.456  0.6328  0.1439  0.0586
 8441SOL    HW236783   4.695   0.183   5.490 -0.2447  0.3907  0.1902
 8442SOL     OW36784   4.261   2.755   6.053 -0.4099 -0.2581  0.1067
 8442SOL    HW136785   4.188   2.771   5.992  0.2031  0.3801 -0.4616
 8442SOL    HW236786   4.260   2.660   6.064  0.9190 -0.1703  0.9704
 8443SOL     OW36787   0.967   1.533  11.098 -0.5525 -0.4322  0.3421
 8443SOL    HW136788   1.009   1.537  11.184 -0.0644 -2.3732  0.2017
 8443SOL    HW236789   0.997   1.618  11.066  0.9274 -1.2297 -0.4402
 8444SOL     OW36790   4.676   4.295   6.591  0.0560 -0.1102 -0.0813
 8444SOL    HW136791   4.639   4.315   6.505  0.7193  0.2489 -0.2808
 8444SOL    HW236792   4.605   4.233   6.610 -1.6598  0.7024 -3.7805
 8445SOL     OW36793   2.690   4.658   9.267  0.1048  0.5742  0.6234
 8445SOL    HW136794   2.721   4.633   9.354 -0.4410 -1.1393  0.3233
 8445SOL    HW236795   2.631   4.585   9.248 -0.0762  0.6369  0.9515
 8446SOL     OW36796   1.604   1.769  16.007  0.3976  0.7043  0.3041
 8446SOL    HW136797   1.595   1.854  16.050  1.0091  0.3150  1.2033
 8446SOL    HW236798   1.699   1.767  15.996  0.5950 -0.1999  2.0684
 8447SOL     OW36799   4.403   0.353   4.574 -0.5162  0.2471  0.1408
 8447SOL    HW136800   4.371   0.436   4.539 -0.1575 -0.0920 -1.0009
 8447SOL    HW236801   4.482   0.382   4.619 -0.3750 -0.7149  0.5184
 8448SOL     OW36802   3.099   4.556   1.019 -0.6439  0.1617 -0.1097
 8448SOL    HW136803   3.123   4.471   1.058 -2.1245 -0.4950 -0.6129
 8448SOL    HW236804   3.184   4.599   1.018  0.0641 -1.2341 -0.6017
 8449SOL     OW36805   3.603   1.324  17.327  0.2685  0.3339 -0.4144
 8449SOL    HW136806   3.603   1.398  17.266  1.7841 -0.5074 -1.4347
 8449SOL    HW236807   3.515   1.339  17.362  0.0572 -0.8795 -0.4272
 8450SOL     OW36808   0.096   1.230   7.011  0.3646  0.0770  0.1316
 8450SOL    HW136809   0.034   1.298   6.986 -0.1542 -0.1993  0.6730
 8450SOL    HW236810   0.040   1.185   7.074 -0.9766  0.3739 -0.8476
 8451SOL     OW36811   2.593   1.071   7.248  0.4673 -0.1666 -0.7521
 8451SOL    HW136812   2.663   1.123   7.288 -0.0388  0.9970 -1.3817
 8451SOL    HW236813   2.598   0.983   7.288 -0.5097  0.2361  0.2637
 8452SOL     OW36814   1.641   0.996   4.615 -0.6415  0.3202 -0.3338
 8452SOL    HW136815   1.702   1.070   4.619  0.5410 -0.6842  0.3859
 8452SOL    HW236816   1.691   0.923   4.652 -0.8199  1.5518  2.3798
 8453SOL     OW36817   4.330   2.364   4.331  0.2733  0.7257  0.3691
 8453SOL    HW136818   4.313   2.400   4.244  2.3838 -1.1210 -0.8036
 8453SOL    HW236819   4.414   2.325   4.308 -1.0610 -1.7681 -0.2207
 8454SOL     OW36820   2.488   0.795   3.165 -0.8903 -0.9364 -0.0762
 8454SOL    HW136821   2.583   0.790   3.176 -0.8016 -1.3044 -1.0694
 8454SOL    HW236822   2.461   0.709   3.134 -0.0218 -0.4814 -2.1045
 8455SOL     OW36823   1.322   2.615  16.386  0.3101 -0.3338  0.2005
 8455SOL    HW136824   1.276   2.631  16.469  2.4487 -1.6262  1.6368
 8455SOL    HW236825   1.262   2.641  16.316 -0.6344 -0.1512  1.0787
 8456SOL     OW36826   2.212   3.282   3.304 -0.1597 -0.1263  0.0655
 8456SOL    HW136827   2.135   3.235   3.272  0.7016  1.0483 -3.7631
 8456SOL    HW236828   2.233   3.234   3.384  1.6751  0.2487 -0.1960
 8457SOL     OW36829   4.534   4.294  16.922 -0.1443  0.1335  0.5140
 8457SOL    HW136830   4.472   4.365  16.904 -1.1690 -0.4172  1.8812
 8457SOL    HW236831   4.488   4.254  16.996 -2.0088 -1.3880 -1.4579
 8458SOL     OW36832   0.704   0.940   9.232  0.6829  0.1903 -0.0905
 8458SOL    HW136833   0.609   0.934   9.221  0.7126  2.1057 -1.2913
 8458SOL    HW236834   0.725   0.847   9.223  2.7924  0.8183 -1.6002
 8459SOL     OW36835   2.977   1.127   4.623 -0.1355 -0.1152 -0.3977
 8459SOL    HW136836   2.938   1.212   4.601 -1.3716 -0.2627  1.1821
 8459SOL    HW236837   2.948   1.070   4.552  0.4843  0.3360 -1.0019
 8460SOL     OW36838   1.389   0.625  13.788  0.1515 -0.0729 -0.3111
 8460SOL    HW136839   1.454   0.688  13.819  0.9088 -1.8409  1.6457
 8460SOL    HW236840   1.320   0.649  13.849  0.0836 -0.2977 -0.3020
 8461SOL     OW36841   0.758   2.591   6.486  0.2372 -0.6896  0.4635
 8461SOL    HW136842   0.787   2.678   6.512 -1.2314 -0.6373  1.9086
 8461SOL    HW236843   0.749   2.552   6.573 -0.0628 -0.7475  0.4089
 8462SOL     OW36844   3.277   1.858   4.806  0.5451  0.3900 -0.6865
 8462SOL    HW136845   3.251   1.771   4.775  1.4257  1.1920 -3.6447
 8462SOL    HW236846   3.198   1.909   4.786  0.1090  0.9066  2.3553
 8463SOL     OW36847   1.830   1.699   9.581  0.4459  0.0478  0.1363
 8463SOL    HW136848   1.799   1.647   9.655  0.0217 -1.5931 -1.1974
 8463SOL    HW236849   1.921   1.711   9.607  0.0720  1.7073  0.6907
 8464SOL     OW36850   1.307   0.141  11.139  0.2145 -0.3892  0.3493
 8464SOL    HW136851   1.351   0.067  11.182 -2.6868 -1.4138  1.5394
 8464SOL    HW236852   1.339   0.141  11.049 -1.2190 -1.0383 -0.1706
 8465SOL     OW36853   3.984   1.754   6.628  0.1693 -0.3249  0.2046
 8465SOL    HW136854   3.925   1.720   6.561 -1.2024 -0.4962  1.5055
 8465SOL    HW236855   3.960   1.709   6.709 -0.4162 -0.4656 -0.0449
 8466SOL     OW36856   0.871   1.062  15.602  0.0013 -0.1120 -0.5289
 8466SOL    HW136857   0.948   1.047  15.547 -0.9475 -0.2735 -1.8120
 8466SOL    HW236858   0.839   1.148  15.575 -0.1003 -0.3101 -1.0449
 8467SOL     OW36859   1.299   4.706   3.551 -0.4152  0.1023  0.8568
 8467SOL    HW136860   1.243   4.650   3.604 -0.3138 -0.0699  0.7805
 8467SOL    HW236861   1.246   0.062   3.546  0.7981  0.6440 -3.6057
 8468SOL     OW36862   0.954   2.693   4.035 -0.2194 -0.1788  0.0676
 8468SOL    HW136863   0.970   2.787   4.024  1.3216 -0.2732  1.4447
 8468SOL    HW236864   0.981   2.672   3.946 -1.2581  1.3466 -0.6106
 8469SOL     OW36865   4.049   1.284  15.536 -0.1046 -0.1114 -0.0864
 8469SOL    HW136866   4.041   1.377  15.517 -2.3447 -0.3774 -0.4981
 8469SOL    HW236867   4.143   1.267  15.527  0.1618  1.1539  0.3869
 8470SOL     OW36868   2.970   0.356   8.331 -0.2778 -0.4234 -0.3354
 8470SOL    HW136869   2.937   0.404   8.255 -1.3716  1.4624  1.3418
 8470SOL    HW236870   2.904   0.288   8.340  0.3058 -1.0418 -0.7114
 8471SOL     OW36871   3.377   1.337  11.959  0.1460  0.5967  0.1118
 8471SOL    HW136872   3.378   1.367  12.050 -0.1566  0.5733  0.1250
 8471SOL    HW236873   3.416   1.408  11.909 -1.9719  2.0540  0.5069
 8472SOL     OW36874   3.070   4.264   4.078  0.2200  0.3148  0.0538
 8472SOL    HW136875   3.031   4.195   4.024 -2.2084  0.6068  1.4195
 8472SOL    HW236876   3.001   4.297   4.136 -0.1956 -0.0390 -0.2394
 8473SOL     OW36877   0.089   2.794   4.566  1.0142  0.1320 -0.0073
 8473SOL    HW136878   0.066   2.733   4.497  0.2700  1.0141 -0.5413
 8473SOL    HW236879   0.094   2.872   4.511  0.0182  0.5456  0.4610
 8474SOL     OW36880   2.984   0.743   8.766  0.3913 -0.1999 -1.1008
 8474SOL    HW136881   3.027   0.771   8.846 -1.5712  0.4118 -0.2607
 8474SOL    HW236882   3.053   0.685   8.734  1.2557 -0.2982  0.9506
 8475SOL     OW36883   0.790   1.742   3.066 -0.1222 -0.5467  0.1341
 8475SOL    HW136884   0.759   1.828   3.036 -0.6982 -0.7973  0.0014
 8475SOL    HW236885   0.880   1.741   3.034  1.0925 -0.7838  3.6307
 8476SOL     OW36886   1.992   0.748   3.346  0.2894 -0.3302 -0.2682
 8476SOL    HW136887   1.967   0.685   3.279  1.1965 -1.3958  0.3991
 8476SOL    HW236888   2.050   0.694   3.400  1.4708 -0.8068 -2.0388
 8477SOL     OW36889   0.175   1.537   4.201  0.2232 -0.1245  0.2401
 8477SOL    HW136890   0.099   1.595   4.200  1.8741  1.9752 -1.7956
 8477SOL    HW236891   0.211   1.548   4.289  0.4466  1.7851 -0.0994
 8478SOL     OW36892   4.517   3.705  12.724 -0.6110  0.2483 -0.3091
 8478SOL    HW136893   4.481   3.624  12.688 -0.1118 -0.2253  0.2653
 8478SOL    HW236894   4.473   3.771  12.670  0.9589  1.5231 -0.0260
 8479SOL     OW36895   2.930   1.943  14.610 -0.8527  0.0232 -0.3232
 8479SOL    HW136896   2.948   1.992  14.690 -0.3681 -3.1612  1.5199
 8479SOL    HW236897   2.903   2.015  14.552 -0.3437  1.2711  0.9825
 8480SOL     OW36898   3.397   0.438  12.884 -0.7122 -0.0160  0.1297
 8480SOL    HW136899   3.417   0.476  12.798 -0.3458 -0.7142 -0.0934
 8480SOL    HW236900   3.356   0.518  12.917  0.1489 -0.3624  2.0367
 8481SOL     OW36901   0.452   4.032   4.607 -0.2067  0.3463 -0.2857
 8481SOL    HW136902   0.520   4.044   4.673 -1.9530 -1.8690  1.9148
 8481SOL    HW236903   0.478   4.099   4.544  0.8895 -0.1769 -0.3795
 8482SOL     OW36904   3.828   0.911   6.952  0.1977 -0.4373 -0.3251
 8482SOL    HW136905   3.827   0.929   6.858  0.7548 -3.0292 -0.8151
 8482SOL    HW236906   3.875   0.828   6.945 -1.4212 -1.3662 -0.0374
 8483SOL     OW36907   1.445   1.164   2.514  0.0654  0.6338 -0.6431
 8483SOL    HW136908   1.353   1.144   2.531  0.7263 -1.8698 -0.1020
 8483SOL    HW236909   1.436   1.186   2.422 -1.0636  0.5053 -0.5625
 8484SOL     OW36910   1.407   1.261  14.724 -0.0338  0.5791  0.0569
 8484SOL    HW136911   1.457   1.290  14.800 -1.0671 -1.0070  1.3189
 8484SOL    HW236912   1.339   1.207  14.763 -0.8943  0.7942 -1.1425
 8485SOL     OW36913   0.500   0.856   2.023 -0.7037 -0.0628  0.0434
 8485SOL    HW136914   0.557   0.781   2.043  0.8479  1.0980 -0.0486
 8485SOL    HW236915   0.446   0.849   2.101  0.5861  1.1427  1.0391
 8486SOL     OW36916   0.471   3.452  11.918  0.4822 -0.9482 -0.0786
 8486SOL    HW136917   0.523   3.377  11.945 -1.4510 -2.1646  0.2800
 8486SOL    HW236918   0.542   3.516  11.916 -0.8982  0.6693  1.9430
 8487SOL     OW36919   3.933   2.409  14.613 -0.3785  0.1503 -0.3098
 8487SOL    HW136920   3.912   2.327  14.568  0.6542  1.2049 -2.7068
 8487SOL    HW236921   4.018   2.383  14.648  1.0078  1.0415 -2.9726
 8488SOL     OW36922   1.386   1.719   1.864  0.0221 -0.5185 -0.6630
 8488SOL    HW136923   1.400   1.783   1.794 -1.2855 -0.0179 -0.4664
 8488SOL    HW236924   1.427   1.644   1.821  1.5754 -0.3152  0.4756
 8489SOL     OW36925   4.428   1.316   6.401  0.1755 -0.3487  0.7772
 8489SOL    HW136926   4.453   1.232   6.438 -0.2203 -0.0501  1.7203
 8489SOL    HW236927   4.350   1.348   6.446 -1.4023 -0.6836 -1.7555
 8490SOL     OW36928   3.340   0.431   1.355 -0.6186  0.3842  0.3800
 8490SOL    HW136929   3.245   0.443   1.364 -0.5817  0.5242  0.5877
 8490SOL    HW236930   3.358   0.523   1.337  2.0482 -0.0281  1.0283
 8491SOL     OW36931   2.604   3.328  16.445  0.3973  0.3381 -0.5713
 8491SOL    HW136932   2.518   3.286  16.450  0.8553 -0.5797 -0.4443
 8491SOL    HW236933   2.641   3.314  16.532 -0.9247  1.3474  0.1651
 8492SOL     OW36934   3.536   4.177   2.354 -0.4560  0.0729 -0.1690
 8492SOL    HW136935   3.580   4.134   2.427 -2.3168  0.0415  0.9471
 8492SOL    HW236936   3.570   4.123   2.283 -1.3312 -1.7147  0.7724
 8493SOL     OW36937   2.735   4.046   1.885 -0.2622  0.1816  0.4423
 8493SOL    HW136938   2.692   4.103   1.949  0.5000  2.5964 -1.1680
 8493SOL    HW236939   2.730   3.962   1.929  0.0746  0.0091  0.1587
 8494SOL     OW36940   3.402   4.521   3.092 -0.3309 -0.3219  0.5530
 8494SOL    HW136941   3.385   4.594   3.032 -2.8730 -2.0861 -0.8365
 8494SOL    HW236942   3.497   4.524   3.080 -0.2268 -0.2681  1.3751
 8495SOL     OW36943   1.555   2.569   8.022  0.2991 -0.0558  0.4027
 8495SOL    HW136944   1.608   2.618   8.086  0.6617 -0.8563  0.7188
 8495SOL    HW236945   1.617   2.503   7.990  0.5158  0.2355  0.2248
 8496SOL     OW36946   0.922   4.597   3.178 -0.0218  0.2088 -0.0652
 8496SOL    HW136947   0.983   4.671   3.175  0.3841 -0.0461  1.8091
 8496SOL    HW236948   0.917   4.580   3.272 -0.4265 -0.8376 -0.2830
 8497SOL     OW36949   2.039   4.276  13.736 -0.3146  0.3789  0.4645
 8497SOL    HW136950   2.101   4.343  13.761  1.2269 -1.0762  0.5436
 8497SOL    HW236951   1.967   4.323  13.694  0.1157 -0.0861 -0.7987
 8498SOL     OW36952   0.702   0.343   7.015 -0.1129  0.1655  0.0630
 8498SOL    HW136953   0.679   0.348   6.922  0.7127 -0.7401 -0.2036
 8498SOL    HW236954   0.677   0.253   7.036 -3.0199  0.7932 -0.7281
 8499SOL     OW36955   3.987   3.882  14.816 -0.1435 -0.5057  0.2677
 8499SOL    HW136956   4.050   3.816  14.845  0.0898 -0.2402  0.3592
 8499SOL    HW236957   3.955   3.842  14.735  0.1130 -0.5652  0.1967
 8500SOL     OW36958   0.281   1.269   2.889  0.4397  0.7072  0.0653
 8500SOL    HW136959   0.305   1.352   2.931  0.7390  0.4453  0.4090
 8500SOL    HW236960   0.199   1.286   2.842 -0.4367 -1.7359  0.7457
 8501SOL     OW36961   2.163   1.868  17.239  0.3288 -0.3684  0.3799
 8501SOL    HW136962   2.128   1.949  17.202  1.3010  0.5679  1.5211
 8501SOL    HW236963   2.163   1.806  17.166 -2.5418  1.7698 -1.4414
 8502SOL     OW36964   0.339   2.534   2.986 -0.2613 -0.0454 -0.7564
 8502SOL    HW136965   0.371   2.572   2.904 -0.0984 -1.2143 -1.2439
 8502SOL    HW236966   0.424   2.531   3.031 -0.6499 -1.9973 -0.1463
 8503SOL     OW36967   2.607   2.833   2.077 -0.2703 -0.3349 -0.5468
 8503SOL    HW136968   2.566   2.760   2.124 -0.2242  0.0354  0.0626
 8503SOL    HW236969   2.690   2.834   2.124  1.3992 -0.1304 -3.5011
 8504SOL     OW36970   0.077   2.854   0.462  0.0201 -0.3461 -0.3207
 8504SOL    HW136971   0.075   2.767   0.422  0.4838 -1.2191  1.5423
 8504SOL    HW236972   0.007   2.854   0.528  1.0122 -2.0686  0.7117
 8505SOL     OW36973   3.901   0.875   2.155  0.1251  0.4992  0.2130
 8505SOL    HW136974   3.930   0.966   2.144  1.0816  0.3097  1.2066
 8505SOL    HW236975   3.809   0.896   2.170  0.2437  0.0574  1.5147
 8506SOL     OW36976   2.404   4.010   9.754  0.4700 -0.5054  0.6830
 8506SOL    HW136977   2.493   3.986   9.729  0.2184 -0.2632 -0.4568
 8506SOL    HW236978   2.412   4.079   9.821  0.3205 -0.6967  0.8971
 8507SOL     OW36979   2.992   2.695   5.182 -0.3991  0.0438  0.8740
 8507SOL    HW136980   3.000   2.770   5.240 -0.0826  1.8178 -1.4684
 8507SOL    HW236981   2.938   2.734   5.113  1.8207  3.0556  0.8789
 8508SOL     OW36982   3.831   3.003   1.821 -0.1043 -0.3626  0.0361
 8508SOL    HW136983   3.916   3.006   1.865 -0.7245  0.4356  1.1734
 8508SOL    HW236984   3.770   3.016   1.893 -0.0042 -1.4071  0.3194
 8509SOL     OW36985   0.280   0.064   6.221  0.3552  0.2085 -0.1414
 8509SOL    HW136986   0.271   0.157   6.200  1.1671  1.2869  4.2022
 8509SOL    HW236987   0.311   0.087   6.309  1.1627  2.8523 -1.1215
 8510SOL     OW36988   4.494   2.848  17.087 -0.7138 -0.3997 -0.0680
 8510SOL    HW136989   4.545   2.826  17.010  0.0908 -1.3073  0.7265
 8510SOL    HW236990   4.571   2.839  17.144 -0.6553  1.0559  0.0926
 8511SOL     OW36991   3.854   1.103   8.224  0.3903  0.0151 -0.1183
 8511SOL    HW136992   3.813   1.169   8.280 -1.6670 -1.6631  0.3416
 8511SOL    HW236993   3.796   1.123   8.151 -0.8974  1.0457  1.1751
 8512SOL     OW36994   4.127   1.105   2.770  0.3596  0.2120  0.3106
 8512SOL    HW136995   4.080   1.181   2.804 -0.7204 -0.1857 -0.2939
 8512SOL    HW236996   4.073   1.030   2.796 -0.6225  1.6336  2.3807
 8513SOL     OW36997   0.536   4.419   1.438  0.3370 -0.4499  0.7262
 8513SOL    HW136998   0.615   4.471   1.448  0.8811 -1.0710 -0.3248
 8513SOL    HW236999   0.466   4.482   1.453  0.0977 -0.3692 -0.7073
 8514SOL     OW37000   1.464   2.417  17.357  0.0249 -0.0278 -0.4192
 8514SOL    HW137001   1.418   2.333  17.365 -0.3489  0.2465  0.2957
 8514SOL    HW237002   1.451   2.448  17.446 -1.5843 -0.8670 -0.3560
 8515SOL     OW37003   1.752   1.595   2.804  0.4064 -0.2158 -0.0792
 8515SOL    HW137004   1.702   1.531   2.754 -0.0289 -0.8064  1.1177
 8515SOL    HW237005   1.712   1.598   2.890 -0.7673  1.1634 -0.6680
 8516SOL     OW37006   0.171   4.038   8.674  0.5262  0.0559  0.2942
 8516SOL    HW137007   0.091   4.058   8.626  1.1877 -1.4428 -1.4335
 8516SOL    HW237008   0.235   4.049   8.605 -1.1306 -1.9599 -1.5585
 8517SOL     OW37009   3.085   1.361   5.891  0.4366  0.1224 -0.0390
 8517SOL    HW137010   3.027   1.379   5.817  0.0729  1.0385  0.4680
 8517SOL    HW237011   3.169   1.362   5.845 -0.3751 -0.6944 -1.5247
 8518SOL     OW37012   1.544   1.250   3.455 -0.3290  0.1654  0.7143
 8518SOL    HW137013   1.485   1.204   3.395  0.8735  0.4847 -0.7269
 8518SOL    HW237014   1.577   1.173   3.502  0.1445 -0.0104  0.0963
 8519SOL     OW37015   0.104   0.483   8.884  0.0180  0.2410 -0.0503
 8519SOL    HW137016   0.159   0.407   8.901 -0.9793 -0.4439  0.0862
 8519SOL    HW237017   0.117   0.524   8.969  2.6250  0.7079 -0.6733
 8520SOL     OW37018   0.623   1.202   6.664 -0.2495 -0.2370 -0.5995
 8520SOL    HW137019   0.578   1.271   6.713  1.5274  1.2542 -1.0436
 8520SOL    HW237020   0.593   1.116   6.693 -2.6444  0.3458 -1.3924
 8521SOL     OW37021   2.132   1.245   6.603  0.1972 -0.3379 -0.0376
 8521SOL    HW137022   2.055   1.196   6.573  0.1737 -1.3321  1.6372
 8521SOL    HW237023   2.119   1.244   6.698 -2.0948 -1.7378 -0.3598
 8522SOL     OW37024   2.736   2.822   3.657 -0.2921  0.1554 -0.6727
 8522SOL    HW137025   2.783   2.758   3.603  0.7280  2.2238 -2.2606
 8522SOL    HW237026   2.811   2.866   3.698 -1.3747  1.0951  0.2651
 8523SOL     OW37027   2.497   1.042  11.777  0.3824 -0.1084 -0.1367
 8523SOL    HW137028   2.417   1.038  11.725 -0.2507 -2.2490  1.0047
 8523SOL    HW237029   2.494   1.123  11.827  2.7971  0.3393 -0.7292
 8524SOL     OW37030   3.793   4.707   2.074 -0.6528  0.4666 -0.2072
 8524SOL    HW137031   3.745   4.628   2.100  0.4959  0.2183  1.1749
 8524SOL    HW237032   3.864   4.663   2.027 -1.4074 -1.2582  0.2750
 8525SOL     OW37033   0.186   2.534  12.434  0.3693 -0.0592  0.1217
 8525SOL    HW137034   0.185   2.441  12.410  0.2323 -0.3999  1.4630
 8525SOL    HW237035   0.183   2.575  12.348 -0.7734 -1.0170 -0.3015
 8526SOL     OW37036   2.102   2.870   7.336 -0.4467  0.3204 -0.0845
 8526SOL    HW137037   2.057   2.949   7.306  3.2898  1.6785 -2.0669
 8526SOL    HW237038   2.191   2.901   7.353 -0.5259 -0.1079  1.1611
 8527SOL     OW37039   2.482   3.432   8.469  0.0969 -0.3505  0.4357
 8527SOL    HW137040   2.471   3.346   8.431 -0.2799 -0.0776 -0.0621
 8527SOL    HW237041   2.569   3.409   8.503  0.4774 -0.5316 -0.6522
 8528SOL     OW37042   4.415   0.281   3.303 -0.0700  0.1480  0.3376
 8528SOL    HW137043   4.424   0.188   3.280  2.1102  0.6822 -0.9367
 8528SOL    HW237044   4.423   0.331   3.222 -3.2828  2.0550  1.1973
 8529SOL     OW37045   0.840   3.907   5.282 -0.0034  0.4390  0.8010
 8529SOL    HW137046   0.910   3.858   5.325 -1.9962 -2.9561  0.1776
 8529SOL    HW237047   0.809   3.976   5.342 -1.5283 -0.4359  1.0154
 8530SOL     OW37048   3.867   1.830   7.302  0.0871  0.3842  0.4263
 8530SOL    HW137049   3.897   1.748   7.342 -0.7757  0.6439  1.6371
 8530SOL    HW237050   3.902   1.826   7.213  2.4863 -1.8320  1.4652
 8531SOL     OW37051   2.403   1.079  13.918 -0.0389  0.2457 -0.7261
 8531SOL    HW137052   2.310   1.093  13.934 -0.2940 -0.7878 -1.2886
 8531SOL    HW237053   2.416   1.146  13.851  2.4679  2.5927  2.1321
 8532SOL     OW37054   0.770   2.749   4.401  0.4190 -0.7105  0.2027
 8532SOL    HW137055   0.702   2.810   4.431  0.1342 -0.6453 -0.5653
 8532SOL    HW237056   0.833   2.748   4.473  0.5346 -0.1408  0.1087
 8533SOL     OW37057   1.294   1.240  15.534  0.5218 -0.6386 -0.0137
 8533SOL    HW137058   1.371   1.185  15.518  0.2729 -0.5746 -1.3948
 8533SOL    HW237059   1.323   1.331  15.532 -0.5036 -0.2740  1.1888
 8534SOL     OW37060   0.260   0.476   1.415 -0.1216  0.6613 -0.3818
 8534SOL    HW137061   0.344   0.466   1.460 -0.1201 -0.2089 -0.5896
 8534SOL    HW237062   0.195   0.452   1.481 -0.6701 -0.9460 -1.5105
 8535SOL     OW37063   0.547   4.593   3.533  0.1867 -0.0258 -0.0735
 8535SOL    HW137064   0.515   4.680   3.553 -0.6395 -0.1116 -1.0355
 8535SOL    HW237065   0.570   4.601   3.440  1.2198 -2.5169 -0.0571
 8536SOL     OW37066   4.291   4.067   8.611 -0.0409 -0.3031 -0.3215
 8536SOL    HW137067   4.369   4.018   8.584 -0.7160 -1.2509 -0.5455
 8536SOL    HW237068   4.264   4.036   8.698 -0.6341 -0.6133 -0.6158
 8537SOL     OW37069   0.737   3.863   2.870 -0.0762 -0.0416 -0.1392
 8537SOL    HW137070   0.694   3.794   2.921  1.2498 -0.2877  0.6301
 8537SOL    HW237071   0.828   3.848   2.894  0.3927  1.2931 -1.1047
 8538SOL     OW37072   1.794   0.221   7.803 -0.3638  0.6292  0.1598
 8538SOL    HW137073   1.812   0.210   7.709  1.7973  1.3287  0.4888
 8538SOL    HW237074   1.787   0.317   7.800  2.6972  0.8704  1.1081
 8539SOL     OW37075   0.439   1.474   5.463  0.4793  0.2285  0.2848
 8539SOL    HW137076   0.463   1.388   5.498 -1.5912 -0.0223  1.0640
 8539SOL    HW237077   0.429   1.457   5.370 -1.3545  3.2024 -0.0845
 8540SOL     OW37078   1.240   0.484   5.360 -0.2798 -0.1540 -0.0464
 8540SOL    HW137079   1.301   0.542   5.315 -0.7377 -0.1594 -0.6781
 8540SOL    HW237080   1.164   0.541   5.373 -0.7139 -0.9474  0.9310
 8541SOL     OW37081   0.773   4.355   4.151 -0.1780 -0.1675 -0.0215
 8541SOL    HW137082   0.810   4.267   4.140 -2.4792 -0.9212 -1.6756
 8541SOL    HW237083   0.682   4.334   4.169 -0.0504  1.2771  2.3347
 8542SOL     OW37084   4.558   1.381   3.109 -0.4507 -0.0150 -1.0035
 8542SOL    HW137085   4.593   1.292   3.112  1.7535  0.8960  1.1391
 8542SOL    HW237086   4.469   1.364   3.080 -1.5760  0.4262  2.2655
 8543SOL     OW37087   1.233   4.123   4.688  0.0608  0.0234  0.5410
 8543SOL    HW137088   1.228   4.173   4.607 -0.0347 -0.9030 -0.0294
 8543SOL    HW237089   1.239   4.035   4.651  1.1329 -0.6353  2.2952
 8544SOL     OW37090   3.671   3.107  14.901  0.0953  0.2765 -0.1273
 8544SOL    HW137091   3.762   3.080  14.912 -0.6342 -0.0795  5.0530
 8544SOL    HW237092   3.628   3.048  14.963  0.3990  0.7692  0.5600
 8545SOL     OW37093   1.100   0.744  15.314  0.5029  0.1561  0.2236
 8545SOL    HW137094   1.024   0.728  15.259  0.6308  0.2358  0.0222
 8545SOL    HW237095   1.151   0.810  15.267  0.5909 -1.3779 -1.8081
 8546SOL     OW37096   0.693   2.113   6.043  0.5153  0.3362  0.0259
 8546SOL    HW137097   0.765   2.160   6.086 -0.4230  2.8082 -1.0837
 8546SOL    HW237098   0.722   2.101   5.952 -0.4740  0.3178 -0.2866
 8547SOL     OW37099   2.225   0.600   9.218 -0.5423 -0.3063  0.0028
 8547SOL    HW137100   2.297   0.559   9.171  0.3027  0.4588  0.6229
 8547SOL    HW237101   2.154   0.543   9.189 -1.4512  0.3503  0.9333
 8548SOL     OW37102   2.873   3.009   7.862  0.0178 -0.6755 -0.2055
 8548SOL    HW137103   2.934   3.082   7.871 -1.5427  0.7807 -1.4551
 8548SOL    HW237104   2.806   3.028   7.928 -0.6544 -2.5995 -0.3373
 8549SOL     OW37105   3.814   0.357   5.534 -0.1996 -0.7258 -0.2931
 8549SOL    HW137106   3.843   0.380   5.446 -1.7298 -1.5137 -1.0115
 8549SOL    HW237107   3.738   0.301   5.516  0.1243 -0.9617 -0.9190
 8550SOL     OW37108   1.698   4.489  16.851  0.4613  0.4465  0.1673
 8550SOL    HW137109   1.659   4.481  16.938  2.3416  1.8527  1.1516
 8550SOL    HW237110   1.639   4.434  16.800  0.0571  1.4452 -0.4375
 8551SOL     OW37111   1.251   1.559   5.635 -0.0827  0.3926 -0.2403
 8551SOL    HW137112   1.173   1.518   5.598  0.3278 -3.4618  3.1730
 8551SOL    HW237113   1.323   1.538   5.575  0.8826  1.0030  0.6844
 8552SOL     OW37114   4.637   1.779   0.005  0.3444 -0.2085 -0.0405
 8552SOL    HW137115   4.542   1.771   0.002  0.3064  0.1753  0.0753
 8552SOL    HW237116   4.670   1.691   0.022  1.2200  0.3480  1.1552
 8553SOL     OW37117   2.171   3.070   1.669  0.2552  0.2409  0.0946
 8553SOL    HW137118   2.129   3.156   1.658  1.2132  0.2159 -3.4954
 8553SOL    HW237119   2.163   3.054   1.763 -1.5854  2.0675  0.2564
 8554SOL     OW37120   2.196   3.539   3.706 -0.1629 -0.3839 -0.0179
 8554SOL    HW137121   2.263   3.486   3.749 -2.2295 -0.5403  3.0353
 8554SOL    HW237122   2.120   3.480   3.705 -0.0213 -0.5982  1.2963
 8555SOL     OW37123   0.128   2.352   8.095  0.1626 -0.0409  0.0711
 8555SOL    HW137124   0.124   2.259   8.074 -0.5236  0.0719 -0.3124
 8555SOL    HW237125   0.213   2.352   8.138 -0.7372 -2.1163  1.8519
 8556SOL     OW37126   2.763   1.066   4.936  0.4222  0.0794 -0.0772
 8556SOL    HW137127   2.695   1.044   4.872 -0.3353 -1.3307  1.2008
 8556SOL    HW237128   2.835   1.024   4.890 -0.4048 -0.7501 -0.6045
 8557SOL     OW37129   0.419   4.166   7.793  0.1356  0.4924  0.1879
 8557SOL    HW137130   0.439   4.151   7.886  3.1414  3.4544  0.0317
 8557SOL    HW237131   0.418   4.262   7.799  1.6551  0.4043  1.7768
 8558SOL     OW37132   4.461   3.657  16.353 -0.4057 -0.2711 -0.0363
 8558SOL    HW137133   4.550   3.676  16.380 -0.4442 -1.1469  0.7210
 8558SOL    HW237134   4.438   3.743  16.319 -2.2993 -0.6085  0.3456
 8559SOL     OW37135   2.499   1.697   6.363  0.1395 -0.3460 -0.1240
 8559SOL    HW137136   2.456   1.746   6.433  0.1195  1.3337 -1.3226
 8559SOL    HW237137   2.514   1.612   6.405  0.8001  1.1023  2.5611
 8560SOL     OW37138   3.468   2.848   4.538 -0.5412 -0.5807 -0.6242
 8560SOL    HW137139   3.426   2.781   4.485 -1.8243  1.7990 -2.6333
 8560SOL    HW237140   3.416   2.839   4.618 -0.7450 -3.1436 -1.0553
 8561SOL     OW37141   1.901   0.557  14.514  0.0158 -0.2679 -0.5211
 8561SOL    HW137142   1.995   0.572  14.510  0.0897 -0.7188 -0.4811
 8561SOL    HW237143   1.862   0.640  14.485 -0.3940 -0.6053 -0.9371
 8562SOL     OW37144   4.378   1.871  15.427 -0.2014 -0.0430 -0.1552
 8562SOL    HW137145   4.335   1.950  15.395 -1.5752 -1.6882 -2.3454
 8562SOL    HW237146   4.316   1.826  15.484  1.7480  0.3138  2.2542
 8563SOL     OW37147   1.540   2.055   5.032  0.7831 -0.0302  0.2507
 8563SOL    HW137148   1.484   2.038   4.956 -2.4214 -1.0414  2.8209
 8563SOL    HW237149   1.547   2.150   5.020  2.1785  0.1164  2.2377
 8564SOL     OW37150   1.703   2.097   3.112 -0.2047  0.2711 -0.5901
 8564SOL    HW137151   1.620   2.092   3.159  0.0235  1.0710 -0.1148
 8564SOL    HW237152   1.772   2.095   3.178  0.8902  2.8244 -1.6847
 8565SOL     OW37153   2.219   0.125   9.217  0.4219  0.2252 -0.5009
 8565SOL    HW137154   2.294   0.136   9.274 -0.9173 -0.6067  1.4216
 8565SOL    HW237155   2.266   0.166   9.144  1.0288  2.9258  1.4436
 8566SOL     OW37156   0.522   1.065   4.957 -0.2011 -0.1124  0.3983
 8566SOL    HW137157   0.575   1.003   5.006  1.0289  0.9228  0.3845
 8566SOL    HW237158   0.449   1.078   5.017  1.2730 -1.2622  2.4075
 8567SOL     OW37159   3.109   1.702  17.253 -0.2283 -0.4113  1.4479
 8567SOL    HW137160   3.061   1.720  17.172  2.1288  0.5083  0.2569
 8567SOL    HW237161   3.085   1.780  17.302  0.7913  1.0073 -0.3015
 8568SOL     OW37162   0.053   3.331  13.237 -0.1277  0.6730  0.4202
 8568SOL    HW137163   4.718   3.389  13.188 -0.2738 -0.4657 -0.7511
 8568SOL    HW237164   0.129   3.389  13.242 -1.1434  2.1780 -1.7837
 8569SOL     OW37165   2.237   4.100   1.693 -0.1823  0.6296 -0.6785
 8569SOL    HW137166   2.311   4.135   1.742 -1.2873 -0.3099  1.7211
 8569SOL    HW237167   2.180   4.108   1.770  0.8870  1.9027 -0.0283
 8570SOL     OW37168   3.567   0.254  13.837  0.2063 -0.3673  0.6934
 8570SOL    HW137169   3.591   0.195  13.765 -2.0236 -1.5514  0.9340
 8570SOL    HW237170   3.477   0.270  13.809  0.7992  0.4898 -0.7227
 8571SOL     OW37171   0.387   3.676   2.500 -0.7973 -0.2383 -0.1781
 8571SOL    HW137172   0.390   3.771   2.498 -3.2650 -0.1315  0.7568
 8571SOL    HW237173   0.311   3.670   2.443 -1.6914 -1.5870  1.1363
 8572SOL     OW37174   4.270   3.979   2.927 -0.6253  0.1104 -0.2169
 8572SOL    HW137175   4.313   3.980   2.841 -2.1895 -1.6111 -1.0043
 8572SOL    HW237176   4.197   4.037   2.907 -0.2991  0.0524 -1.5617
 8573SOL     OW37177   1.049   1.970   0.783 -0.3716 -0.0232 -0.3106
 8573SOL    HW137178   1.042   1.893   0.840  0.5876  1.6841  2.1073
 8573SOL    HW237179   1.032   1.928   0.699  1.3894 -1.8802  0.2755
 8574SOL     OW37180   1.068   1.654  15.323  0.6505  0.3741 -0.1265
 8574SOL    HW137181   0.989   1.669  15.271 -0.8296 -0.1462  1.9699
 8574SOL    HW237182   1.116   1.583  15.280 -0.8162 -1.7019  1.6580
 8575SOL     OW37183   2.205   3.892   3.794  0.2075 -0.0950  0.5490
 8575SOL    HW137184   2.218   3.920   3.704 -0.9931  0.6221  0.5930
 8575SOL    HW237185   2.128   3.845   3.761  0.2272 -0.8013  1.5012
 8576SOL     OW37186   3.279   1.624   1.466 -0.3928  0.0079  0.4992
 8576SOL    HW137187   3.330   1.597   1.543 -0.2263 -2.5706 -0.5344
 8576SOL    HW237188   3.350   1.682   1.438 -0.3041  0.1440  1.0087
 8577SOL     OW37189   3.584   2.969   6.553 -0.4513 -0.1958  0.6792
 8577SOL    HW137190   3.580   3.010   6.640 -1.4573  1.0313  0.0457
 8577SOL    HW237191   3.585   2.876   6.577 -0.0092 -0.6628 -1.1971
 8578SOL     OW37192   0.286   2.330   1.923 -0.1314  0.0550  0.3408
 8578SOL    HW137193   0.341   2.406   1.939 -0.2145  0.0470  0.6739
 8578SOL    HW237194   0.254   2.361   1.838 -0.2382  0.7564  0.6402
 8579SOL     OW37195   4.559   1.413   1.271 -0.1973  0.3304  0.1342
 8579SOL    HW137196   4.498   1.339   1.272  0.3782 -0.1500  0.6393
 8579SOL    HW237197   4.641   1.370   1.244 -0.3300  0.9243 -1.1769
 8580SOL     OW37198   1.118   0.358   8.656  0.2311  0.1096 -0.1544
 8580SOL    HW137199   1.206   0.393   8.670 -0.5553  2.1837 -0.4009
 8580SOL    HW237200   1.082   0.380   8.741  0.0275  2.5746 -0.8642
 8581SOL     OW37201   0.113   2.389  10.208  0.1673  0.1074 -0.1489
 8581SOL    HW137202   0.178   2.458  10.223  1.5116 -1.8181  2.9690
 8581SOL    HW237203   0.117   2.369  10.115 -0.5352 -0.2792 -0.0923
 8582SOL     OW37204   0.170   0.897   5.106 -0.1862 -0.4756  0.1991
 8582SOL    HW137205   0.087   0.872   5.064 -0.9250 -0.9613  1.9316
 8582SOL    HW237206   0.152   0.888   5.200 -2.3480  0.5536 -0.1243
 8583SOL     OW37207   0.323   3.833  17.349  0.0952 -0.0314 -0.1359
 8583SOL    HW137208   0.364   3.864  17.429  1.0425  0.1597 -0.6908
 8583SOL    HW237209   0.229   3.834  17.365  0.2563  0.7236  0.7395
 8584SOL     OW37210   2.991   1.451   6.789  0.3901 -0.0937  0.4150
 8584SOL    HW137211   3.083   1.474   6.801 -0.1934  1.8702  1.1587
 8584SOL    HW237212   2.957   1.475   6.875 -0.7818  0.6158 -0.2501
 8585SOL     OW37213   1.019   2.253   3.972  0.2012 -0.6116  0.1464
 8585SOL    HW137214   1.080   2.206   3.915  0.1878 -2.7627  1.8937
 8585SOL    HW237215   1.000   2.185   4.037 -0.6983  0.6337  1.1960
 8586SOL     OW37216   0.428   0.226   4.110 -0.1104  0.5581  0.3597
 8586SOL    HW137217   0.400   0.190   4.026 -0.2954  0.8277  0.3078
 8586SOL    HW237218   0.377   0.304   4.129 -1.9527 -0.7692  0.8277
 8587SOL     OW37219   2.912   3.520  15.138  0.2538  0.4032  0.0516
 8587SOL    HW137220   2.956   3.582  15.196 -0.4314 -0.2315  1.2540
 8587SOL    HW237221   2.930   3.567  15.057  1.7457  0.2392  0.2936
 8588SOL     OW37222   3.943   4.088   6.512 -0.1417  0.5391 -0.2610
 8588SOL    HW137223   3.875   4.128   6.458 -1.5800 -0.6326  0.6648
 8588SOL    HW237224   3.950   4.153   6.582 -0.0113  2.1734 -1.8122
 8589SOL     OW37225   3.710   4.306   8.187 -0.1303 -0.0197  0.0520
 8589SOL    HW137226   3.724   4.357   8.107 -0.5510 -0.2544 -0.1703
 8589SOL    HW237227   3.765   4.231   8.164 -1.3570 -0.7072 -0.5893
 8590SOL     OW37228   3.746   0.493  11.285 -0.4950  0.8985  0.4865
 8590SOL    HW137229   3.708   0.528  11.204  1.0216  0.4286 -0.4225
 8590SOL    HW237230   3.709   0.545  11.356  0.5357 -0.3963  1.9814
 8591SOL     OW37231   1.777   2.914   9.645  0.2903 -0.2520  0.0774
 8591SOL    HW137232   1.820   3.000   9.644  0.0067 -0.0974  0.9447
 8591SOL    HW237233   1.829   2.869   9.711 -1.0768 -0.3998  1.0511
 8592SOL     OW37234   2.845   0.796   8.462  0.2069 -0.3410  0.0564
 8592SOL    HW137235   2.801   0.732   8.406 -0.4712  0.8133 -0.7307
 8592SOL    HW237236   2.848   0.759   8.550  0.5254  1.9261  1.0051
 8593SOL     OW37237   0.555   2.009   1.533 -0.2631 -0.7522 -0.1109
 8593SOL    HW137238   0.596   2.096   1.540  0.9299 -1.3386  0.1310
 8593SOL    HW237239   0.513   1.985   1.616  0.8072 -1.5806  0.1781
 8594SOL     OW37240   4.669   0.843   6.862  0.1332  0.1769 -0.1379
 8594SOL    HW137241   4.706   0.803   6.784 -1.1575 -0.4520 -0.4298
 8594SOL    HW237242   4.605   0.775   6.885 -1.1122  2.1556  2.2177
 8595SOL     OW37243   3.156   1.073   7.442  0.9560  0.2246 -0.2497
 8595SOL    HW137244   3.193   1.003   7.389 -0.9980  0.6771 -2.1946
 8595SOL    HW237245   3.131   1.134   7.373 -1.8477 -0.2089  0.3754
 8596SOL     OW37246   1.434   0.418  11.557 -0.5446  0.1145 -0.0318
 8596SOL    HW137247   1.347   0.378  11.561 -0.8017  0.8442  2.1653
 8596SOL    HW237248   1.476   0.367  11.488  1.6468 -0.0297  1.4258
 8597SOL     OW37249   1.006   1.668  13.550 -0.2148  0.1604 -0.3345
 8597SOL    HW137250   0.952   1.693  13.475  0.5814  2.9255 -0.0016
 8597SOL    HW237251   1.087   1.710  13.520 -0.7572  1.6606  0.3081
 8598SOL     OW37252   3.804   4.117   7.941  0.2820  0.1349  0.4706
 8598SOL    HW137253   3.851   4.038   7.967 -2.2717 -2.0822 -1.7454
 8598SOL    HW237254   3.720   4.100   7.983  0.1647 -0.5576 -0.0476
 8599SOL     OW37255   3.701   4.383  16.119  0.4873  0.1462 -0.5245
 8599SOL    HW137256   3.680   4.305  16.171  0.7488 -0.2594 -1.0192
 8599SOL    HW237257   3.644   4.452  16.154  1.1301  0.0980  0.5989
 8600SOL     OW37258   3.190   1.207   7.011 -0.1189  0.0780 -0.1988
 8600SOL    HW137259   3.283   1.210   7.031 -0.1305  1.2655 -0.3636
 8600SOL    HW237260   3.185   1.197   6.916  0.7667  1.8432 -0.4215
 8601SOL     OW37261   0.864   2.319  11.623  0.0068  0.1354  0.2011
 8601SOL    HW137262   0.947   2.279  11.650 -0.4499 -0.0599  1.2862
 8601SOL    HW237263   0.881   2.413  11.633  1.1806 -0.2141  1.5229
 8602SOL     OW37264   1.375   4.154   6.956 -0.3522  0.0075 -0.1272
 8602SOL    HW137265   1.443   4.102   6.998  0.7666  1.1382 -0.5248
 8602SOL    HW237266   1.359   4.104   6.876  0.4351 -0.9307  0.2987
 8603SOL     OW37267   2.518   1.524   5.629  0.1377 -0.1781  0.3709
 8603SOL    HW137268   2.525   1.541   5.722 -1.9929  0.1103  0.4890
 8603SOL    HW237269   2.607   1.549   5.604  0.0801  0.7330  1.1088
 8604SOL     OW37270   2.882   3.977   3.333 -0.0718 -0.0226  0.2170
 8604SOL    HW137271   2.806   3.943   3.287 -0.3376  0.9617 -0.0671
 8604SOL    HW237272   2.950   3.912   3.312 -0.6785 -0.8862  0.9071
 8605SOL     OW37273   4.444   2.095   4.940  0.3702 -0.9323 -0.2217
 8605SOL    HW137274   4.353   2.115   4.964  0.5006  0.4179 -0.8116
 8605SOL    HW237275   4.475   2.068   5.026 -2.2046 -0.6369  0.8116
 8606SOL     OW37276   3.129   1.541   7.487 -0.2053 -0.2398 -0.3819
 8606SOL    HW137277   3.088   1.627   7.495  1.6653  0.5647  0.5409
 8606SOL    HW237278   3.156   1.532   7.396  1.0150 -2.6945  0.2210
 8607SOL     OW37279   3.421   3.764   5.715  0.3817  0.1637 -0.2942
 8607SOL    HW137280   3.408   3.855   5.742 -0.8094 -0.4101  1.0887
 8607SOL    HW237281   3.478   3.745   5.789 -0.1858 -1.1096 -0.1885
 8608SOL     OW37282   1.302   4.272   5.322  0.2958 -0.0627 -0.1491
 8608SOL    HW137283   1.244   4.197   5.333 -0.7814  0.8648  0.6343
 8608SOL    HW237284   1.327   4.260   5.231 -0.5191  1.9181 -0.6364
 8609SOL     OW37285   2.302   4.040   3.996  0.1525 -0.1515  0.3952
 8609SOL    HW137286   2.242   3.984   4.046 -1.7753  2.1282  0.6265
 8609SOL    HW237287   2.277   3.999   3.914  0.7872 -0.5383  0.3901
 8610SOL     OW37288   2.369   2.549   3.990  0.3815 -0.3126  0.0972
 8610SOL    HW137289   2.391   2.458   3.972  1.8026  0.0495  0.0171
 8610SOL    HW237290   2.293   2.556   3.932  1.0560 -1.2576 -0.8973
 8611SOL     OW37291   2.160   0.183  11.800  0.0286 -0.4768 -0.1208
 8611SOL    HW137292   2.108   0.189  11.880 -0.2279  1.5555 -0.4383
 8611SOL    HW237293   2.237   0.231  11.832 -0.5871  1.7202 -1.9756
 8612SOL     OW37294   0.737   1.210  11.415  0.0551  0.2085 -0.2217
 8612SOL    HW137295   0.742   1.304  11.430  0.5107 -0.2168  2.3694
 8612SOL    HW237296   0.825   1.195  11.380  0.3253  1.1242  0.0753
 8613SOL     OW37297   4.671   4.029  16.581 -0.5172 -0.3633  0.3350
 8613SOL    HW137298   4.651   3.935  16.575  2.1000 -0.9633  1.1715
 8613SOL    HW237299   0.042   4.038  16.590 -0.4824  0.4066 -0.7726
 8614SOL     OW37300   1.968   1.184   2.174  0.8169  0.3939  0.1387
 8614SOL    HW137301   1.884   1.198   2.130  0.9314 -1.0439 -0.5516
 8614SOL    HW237302   1.946   1.116   2.238  0.6843  2.1330  1.9383
 8615SOL     OW37303   2.202   2.607   7.073 -0.4392 -0.1610  0.7766
 8615SOL    HW137304   2.209   2.596   6.979  0.0040 -1.9597  1.0193
 8615SOL    HW237305   2.136   2.676   7.084 -0.0187  0.1957  1.0693
 8616SOL     OW37306   3.971   4.095   9.568  0.2600  0.0835  0.0715
 8616SOL    HW137307   4.023   4.162   9.613 -0.0363  0.8456 -0.7029
 8616SOL    HW237308   3.932   4.153   9.502  0.8429 -0.7521 -1.0077
 8617SOL     OW37309   2.026   1.314   9.831 -0.0665  0.5714 -0.7576
 8617SOL    HW137310   1.960   1.307   9.899 -0.0147 -0.7778 -0.8423
 8617SOL    HW237311   2.055   1.224   9.815  1.7621  1.3688 -1.9912
 8618SOL     OW37312   4.477   2.296   9.042 -0.1930 -0.0889 -0.1571
 8618SOL    HW137313   4.523   2.213   9.052  1.0285  0.3779 -1.8604
 8618SOL    HW237314   4.500   2.335   9.126 -0.5779  0.9252 -0.5207
 8619SOL     OW37315   0.366   4.127   8.493 -0.2618  0.5470 -0.2525
 8619SOL    HW137316   0.439   4.188   8.488  0.5482 -0.4906 -1.0798
 8619SOL    HW237317   0.382   4.073   8.416 -0.8359 -2.0018  1.3844
 8620SOL     OW37318   1.802   2.170   5.136 -0.5884 -0.5596 -0.3900
 8620SOL    HW137319   1.784   2.099   5.197 -1.4030 -0.9723 -1.1208
 8620SOL    HW237320   1.890   2.201   5.158  0.1286 -2.0150 -1.2509
 8621SOL     OW37321   3.049   4.340   8.948  0.0065  0.1461  0.3635
 8621SOL    HW137322   3.013   4.274   9.008  0.2800 -1.9295 -1.7586
 8621SOL    HW237323   3.136   4.303   8.934  0.7744  2.0380  0.2503
 8622SOL     OW37324   3.967   3.460   4.890  0.1812 -0.0718 -0.1195
 8622SOL    HW137325   3.989   3.552   4.907  0.0838 -0.2918  1.2194
 8622SOL    HW237326   3.880   3.483   4.921 -0.4772 -0.9649 -1.3000
 8623SOL     OW37327   4.503   2.460   1.643  0.0627 -0.6673 -0.3667
 8623SOL    HW137328   4.532   2.457   1.552  1.6346 -0.6297  0.1446
 8623SOL    HW237329   4.542   2.541   1.674 -0.8096 -0.4361  0.1414
 8624SOL     OW37330   0.103   3.031   4.414 -0.3042  0.1171 -0.6448
 8624SOL    HW137331   0.193   3.038   4.382  0.5343 -1.2217  1.3914
 8624SOL    HW237332   0.044   3.036   4.339  0.8933  2.2304 -1.4332
 8625SOL     OW37333   2.298   0.235   4.884 -0.2801  0.3380  0.3088
 8625SOL    HW137334   2.350   0.314   4.877 -2.6488  1.9634  0.9619
 8625SOL    HW237335   2.295   0.235   4.980 -1.0625  2.7245  0.2864
 8626SOL     OW37336   0.636   2.207   2.227 -0.0303 -0.6830  0.2084
 8626SOL    HW137337   0.631   2.288   2.177 -1.0964 -2.0967 -1.9494
 8626SOL    HW237338   0.667   2.242   2.311  0.8796  1.1851 -0.9055
 8627SOL     OW37339   1.010   2.298   1.515 -0.0587  0.6138 -0.8637
 8627SOL    HW137340   1.102   2.299   1.489  0.5428  0.2010  1.1988
 8627SOL    HW237341   0.965   2.343   1.444 -2.0294  0.4230  0.2582
 8628SOL     OW37342   0.424   0.906   9.167 -0.1377  0.4155 -0.4500
 8628SOL    HW137343   0.445   0.816   9.141  3.1020  0.6385  1.4633
 8628SOL    HW237344   0.346   0.927   9.115 -0.2389 -1.2628 -0.9800
 8629SOL     OW37345   1.877   3.201   6.818 -0.0068 -0.3039  0.4565
 8629SOL    HW137346   1.884   3.202   6.723 -0.9690 -2.1265  0.3734
 8629SOL    HW237347   1.845   3.289   6.838  0.4589 -0.3012  1.2291
 8630SOL     OW37348   2.582   3.373   7.215 -0.5928 -0.1926 -0.2159
 8630SOL    HW137349   2.568   3.319   7.292  1.3030  3.6307  2.7997
 8630SOL    HW237350   2.676   3.388   7.226 -0.7920  0.2078  0.9087
 8631SOL     OW37351   0.221   2.182   4.007 -0.7389 -0.5489  0.6417
 8631SOL    HW137352   0.181   2.144   4.086  0.7168 -0.2565  1.5236
 8631SOL    HW237353   0.264   2.104   3.972 -1.2560 -0.1635 -0.8194
 8632SOL     OW37354   1.793   2.932   1.908 -0.8278  0.0208 -0.4583
 8632SOL    HW137355   1.825   2.926   1.998  0.9461  1.4576 -0.9890
 8632SOL    HW237356   1.706   2.967   1.925  0.0996  2.6198 -1.0974
 8633SOL     OW37357   0.395   4.468   0.453 -0.4140  0.4362  0.2552
 8633SOL    HW137358   0.332   4.456   0.524 -1.8944 -1.0962 -1.3370
 8633SOL    HW237359   0.398   4.385   0.405  0.4029  1.1515 -0.9483
 8634SOL     OW37360   1.627   1.173   7.435  0.0613 -0.2518  0.4449
 8634SOL    HW137361   1.605   1.230   7.362  0.9856 -0.3358  0.1010
 8634SOL    HW237362   1.550   1.190   7.491  0.2016 -1.4332  1.0056
 8635SOL     OW37363   0.809   0.920  15.836  0.1426  0.7031 -0.0093
 8635SOL    HW137364   0.841   0.935  15.747  3.0068 -2.5652  0.4799
 8635SOL    HW237365   0.793   0.825  15.830  0.7985  0.4898  1.4807
 8636SOL     OW37366   0.764   3.187  11.947  0.2571 -0.3764 -0.7194
 8636SOL    HW137367   0.804   3.217  11.865 -1.0722  0.3597 -1.0909
 8636SOL    HW237368   0.782   3.093  11.951 -0.6137 -0.4856  0.6290
 8637SOL     OW37369   1.236   0.539   2.991  0.0857  0.3911 -0.2000
 8637SOL    HW137370   1.229   0.615   3.048 -1.0946  0.7912 -0.8706
 8637SOL    HW237371   1.312   0.484   3.010  1.1342  2.2109  0.8378
 8638SOL     OW37372   2.155   3.369   8.448 -0.3645 -0.7103 -0.6031
 8638SOL    HW137373   2.141   3.318   8.367  1.1592 -0.7133 -0.8658
 8638SOL    HW237374   2.140   3.301   8.514 -0.7268  0.9635  1.0231
 8639SOL     OW37375   2.235   2.856   6.402  0.0034 -0.0855  0.2017
 8639SOL    HW137376   2.198   2.870   6.490  0.1444  2.8869 -0.2340
 8639SOL    HW237377   2.197   2.929   6.354  1.3587 -0.1813 -1.0067
 8640SOL     OW37378   0.344   1.060  12.757 -0.0583 -0.3482  0.0724
 8640SOL    HW137379   0.279   1.130  12.758 -0.6962 -0.9269 -0.8215
 8640SOL    HW237380   0.408   1.098  12.817 -0.3997  0.1538  0.1171
 8641SOL     OW37381   3.798   1.036   0.732  0.2640  0.5321 -0.4473
 8641SOL    HW137382   3.769   1.122   0.700  0.1063 -0.3426 -2.6834
 8641SOL    HW237383   3.723   0.977   0.742  1.2268 -0.6899 -0.4889
 8642SOL     OW37384   1.127   0.303  15.056  0.1000 -0.4581 -0.3488
 8642SOL    HW137385   1.190   0.281  15.125 -0.1138 -0.7694 -0.2538
 8642SOL    HW237386   1.055   0.252  15.093 -0.7273  2.2219  1.7586
 8643SOL     OW37387   1.162   2.299   8.457 -0.0216  0.3644  0.1371
 8643SOL    HW137388   1.171   2.364   8.387  2.4237  1.6541  1.6713
 8643SOL    HW237389   1.252   2.296   8.489 -0.0812 -0.4709  0.2328
 8644SOL     OW37390   0.103   2.171   5.198  0.1486 -0.6051 -0.4435
 8644SOL    HW137391   0.165   2.119   5.250  0.7556  0.1562 -0.4109
 8644SOL    HW237392   0.034   2.179   5.263 -2.0732 -0.4889 -2.8087
 8645SOL     OW37393   3.102   1.385   4.228  0.1557  0.3212 -0.1183
 8645SOL    HW137394   3.176   1.329   4.209  1.3750  2.0760 -0.5623
 8645SOL    HW237395   3.071   1.406   4.140  2.3290 -1.1652 -1.2107
 8646SOL     OW37396   0.919   4.005  12.887  0.0871 -0.3934  0.2765
 8646SOL    HW137397   0.874   4.050  12.958 -0.3994  0.2083 -0.4091
 8646SOL    HW237398   0.872   4.027  12.807 -2.0145 -0.9991  1.3244
 8647SOL     OW37399   3.675   0.439   2.224 -0.3786 -0.3075  0.3798
 8647SOL    HW137400   3.590   0.399   2.206  0.1497 -0.4848 -1.6799
 8647SOL    HW237401   3.733   0.363   2.224 -1.9518 -1.4995 -1.3039
 8648SOL     OW37402   0.619   0.917   6.858 -0.2884  0.6353  0.0509
 8648SOL    HW137403   0.585   0.828   6.851  0.4834  0.5196 -2.1017
 8648SOL    HW237404   0.543   0.972   6.879  0.0193  1.4496 -0.9516
 8649SOL     OW37405   3.340   1.293   8.951  0.5479  0.3597  0.6773
 8649SOL    HW137406   3.371   1.276   9.039  2.2321 -0.9481 -0.1763
 8649SOL    HW237407   3.246   1.282   8.966  0.4343 -0.1323 -0.3682
 8650SOL     OW37408   4.121   4.512   5.890 -0.4366  0.5692  0.5248
 8650SOL    HW137409   4.109   4.420   5.916 -2.6571  1.0267  1.1043
 8650SOL    HW237410   4.059   4.560   5.945  0.2747  1.2097  0.7685
 8651SOL     OW37411   0.186   1.657  11.591 -0.0543 -0.0794  0.7795
 8651SOL    HW137412   0.211   1.574  11.631  0.3414 -0.1280  0.4361
 8651SOL    HW237413   0.092   1.649  11.605  0.1014 -1.3769  1.0986
 8652SOL     OW37414   3.702   0.895   9.727 -0.5152  0.0315  0.7208
 8652SOL    HW137415   3.618   0.851   9.741 -0.5367  0.2835  1.3785
 8652SOL    HW237416   3.664   0.963   9.673 -2.9738 -0.3832  1.9280
 8653SOL     OW37417   0.846   2.600  11.625  0.5582 -0.0536 -0.1698
 8653SOL    HW137418   0.821   2.585  11.716  3.4445 -1.3569  0.4143
 8653SOL    HW237419   0.843   2.696  11.630  0.5051 -0.0661  0.0316
 8654SOL     OW37420   0.105   1.032   0.852 -0.3239  0.8021 -0.5421
 8654SOL    HW137421   0.040   1.102   0.851  0.4519  1.5539  0.7217
 8654SOL    HW237422   0.187   1.082   0.862  0.7543 -1.0306 -0.2222
 8655SOL     OW37423   3.852   3.742   9.433 -0.8005 -0.7128 -0.6073
 8655SOL    HW137424   3.792   3.683   9.387 -0.7921  0.7140 -2.4843
 8655SOL    HW237425   3.898   3.678   9.487 -1.9910 -1.4546 -0.4796
 8656SOL     OW37426   2.582   1.895   1.438 -0.0500 -0.6002 -0.0594
 8656SOL    HW137427   2.620   1.937   1.361 -1.9195 -0.2159 -0.7743
 8656SOL    HW237428   2.496   1.874   1.402  0.2398 -1.0579 -0.4835
 8657SOL     OW37429   2.492   0.720   7.418  0.4628  0.6750 -0.2374
 8657SOL    HW137430   2.453   0.738   7.333  0.2614 -2.0778 -0.7505
 8657SOL    HW237431   2.482   0.625   7.429  0.1380  0.5585 -1.5097
 8658SOL     OW37432   4.675   1.468   7.868  0.2215 -0.5383 -0.0202
 8658SOL    HW137433   4.681   1.374   7.850  1.5517 -0.4789  0.1794
 8658SOL    HW237434   4.717   1.476   7.953  0.6177  1.6578 -0.4424
 8659SOL     OW37435   1.152   3.874   4.581 -0.2703 -0.4033  0.1500
 8659SOL    HW137436   1.194   3.871   4.495  1.8330 -0.0320  1.1519
 8659SOL    HW237437   1.124   3.782   4.582  1.0584 -0.8015  0.9487
 8660SOL     OW37438   0.330   0.461   5.113  0.7424 -0.2165 -0.1241
 8660SOL    HW137439   0.235   0.459   5.104  0.8949 -1.0894 -1.5754
 8660SOL    HW237440   0.339   0.544   5.066 -1.2297  0.0078 -0.1206
 8661SOL     OW37441   0.387   0.213  12.533 -0.1140 -0.0566 -0.1069
 8661SOL    HW137442   0.324   0.240  12.466 -0.5458 -2.4832 -0.6829
 8661SOL    HW237443   0.421   0.298  12.562  0.7192 -0.1763 -0.7367
 8662SOL     OW37444   3.489   2.208   3.923  0.4047 -0.0684 -0.3112
 8662SOL    HW137445   3.532   2.195   3.838 -2.4846  1.0251 -1.9190
 8662SOL    HW237446   3.400   2.231   3.899  0.5381  1.7241  0.9696
 8663SOL     OW37447   1.458   3.953  17.540  0.3696 -0.2450  0.2107
 8663SOL    HW137448   1.444   3.862  17.564 -1.8298  0.0316  0.0145
 8663SOL    HW237449   1.501   3.933  17.457  1.2286  0.9048  0.3629
 8664SOL     OW37450   3.843   0.609   0.969 -0.1308  0.6796 -0.1531
 8664SOL    HW137451   3.830   0.597   1.063  0.5980 -0.8596 -0.2331
 8664SOL    HW237452   3.756   0.600   0.931 -0.7259  0.7456  1.2093
 8665SOL     OW37453   0.673   3.637  13.227  0.5439 -0.2673 -0.1431
 8665SOL    HW137454   0.667   3.552  13.183 -0.0410  1.3576 -3.2368
 8665SOL    HW237455   0.753   3.626  13.277  0.7073 -1.6824 -0.7092
 8666SOL     OW37456   2.775   0.557   9.379  0.4456  0.3139  0.6591
 8666SOL    HW137457   2.787   0.651   9.366 -0.3660  0.3284  0.0631
 8666SOL    HW237458   2.843   0.523   9.321 -1.2216  1.9480 -2.2122
 8667SOL     OW37459   0.492   3.661  15.619  0.0343  0.0654  0.0128
 8667SOL    HW137460   0.571   3.715  15.629  0.1730 -0.0454 -0.5154
 8667SOL    HW237461   0.438   3.726  15.575 -0.4517 -1.3191 -1.4221
 8668SOL     OW37462   0.195   4.497   5.588 -0.3383 -0.3472 -0.2644
 8668SOL    HW137463   0.113   4.513   5.541  0.3494 -0.1324 -1.4034
 8668SOL    HW237464   0.190   4.402   5.581  0.5040 -0.3426 -0.8641
 8669SOL     OW37465   1.286   0.959   9.251  0.2124 -0.2556  0.0852
 8669SOL    HW137466   1.322   1.047   9.267  2.1200 -0.5614 -2.5902
 8669SOL    HW237467   1.192   0.971   9.262  0.0390 -1.1545 -0.5192
 8670SOL     OW37468   0.883   0.959  16.506 -0.1271 -0.1079  0.0988
 8670SOL    HW137469   0.920   0.982  16.591 -0.5743  1.3060 -0.0914
 8670SOL    HW237470   0.796   0.998  16.499 -0.2161 -0.2555  0.3801
 8671SOL     OW37471   4.160   3.330   4.180 -0.1621  0.7318 -0.3750
 8671SOL    HW137472   4.245   3.320   4.138  0.1095  2.6593 -0.2918
 8671SOL    HW237473   4.122   3.404   4.133 -1.4482 -0.3444 -1.0246
 8672SOL     OW37474   1.945   3.434   5.144  0.3630 -0.1484 -0.0300
 8672SOL    HW137475   2.039   3.434   5.126 -0.0139  1.6379 -2.0561
 8672SOL    HW237476   1.924   3.520   5.180 -1.0615 -1.1811  1.5914
 8673SOL     OW37477   2.038   2.692   4.279 -0.0554  0.0431  0.4670
 8673SOL    HW137478   2.133   2.680   4.286 -0.0998 -0.1407  0.7389
 8673SOL    HW237479   2.022   2.743   4.200  1.0986  1.3688  1.0946
 8674SOL     OW37480   1.346   2.657   7.818 -0.2991 -0.1548 -0.0634
 8674SOL    HW137481   1.374   2.623   7.903  0.4260  0.4384 -0.0620
 8674SOL    HW237482   1.273   2.717   7.831 -0.6405 -0.1991 -1.7079
 8675SOL     OW37483   2.005   2.234   6.195  0.8024  0.1110 -0.1758
 8675SOL    HW137484   2.099   2.217   6.203  0.9489  1.2949  0.5726
 8675SOL    HW237485   1.975   2.160   6.142  0.3193  1.4828 -1.8403
 8676SOL     OW37486   4.601   3.803   4.583  0.7084 -0.1287  0.3354
 8676SOL    HW137487   4.631   3.764   4.666  0.6786 -0.5931  0.1254
 8676SOL    HW237488   4.533   3.737   4.571  0.1441  1.0363 -2.9458
 8677SOL     OW37489   3.488   1.829  13.057  0.0529  0.2158 -0.3667
 8677SOL    HW137490   3.477   1.916  13.019  1.5223  0.8988  0.8076
 8677SOL    HW237491   3.538   1.792  12.985 -0.2504 -1.9404  0.5164
 8678SOL     OW37492   1.107   3.649   6.153  0.3827  0.1701 -0.4331
 8678SOL    HW137493   1.104   3.740   6.126 -1.8415 -0.1149 -1.1258
 8678SOL    HW237494   1.201   3.647   6.138  0.5129 -1.4981  0.5585
 8679SOL     OW37495   0.290   1.107   8.564  0.8274  0.0930  0.3844
 8679SOL    HW137496   0.383   1.128   8.562  0.7033  0.6143  0.0800
 8679SOL    HW237497   0.250   1.194   8.552  1.5929  0.1188 -2.0037
 8680SOL     OW37498   2.457   2.317   0.191  0.3275  0.2054 -0.1877
 8680SOL    HW137499   2.471   2.224   0.174  0.9273  0.5660 -1.7113
 8680SOL    HW237500   2.444   2.316   0.285  1.4698 -0.9279 -0.0508
 8681SOL     OW37501   4.095   3.892   1.169  0.6075 -0.2940 -0.1556
 8681SOL    HW137502   4.186   3.895   1.201 -0.6305 -0.4121  3.4226
 8681SOL    HW237503   4.067   3.979   1.199 -0.7296  0.0384 -2.3715
 8682SOL     OW37504   2.314   1.944   1.305 -0.2249 -0.0514 -0.0650
 8682SOL    HW137505   2.311   2.008   1.234 -0.8224  0.0417  0.0497
 8682SOL    HW237506   2.227   1.956   1.344 -0.7470  2.7146 -2.0961
 8683SOL     OW37507   1.551   4.052   8.235  0.1770 -0.7228 -0.6819
 8683SOL    HW137508   1.582   4.122   8.292 -1.4841  1.1686 -2.1396
 8683SOL    HW237509   1.598   4.069   8.153 -0.1588 -1.0013 -0.9337
 8684SOL     OW37510   3.388   2.553   9.371  0.3415  0.5408  0.5515
 8684SOL    HW137511   3.398   2.466   9.410  1.7433 -0.1425 -1.3057
 8684SOL    HW237512   3.320   2.583   9.431 -1.1996  1.2994 -1.6067
 8685SOL     OW37513   1.702   0.751   8.537  0.1171  0.2164  0.1554
 8685SOL    HW137514   1.686   0.816   8.606 -0.0601  1.8355 -1.3960
 8685SOL    HW237515   1.614   0.719   8.517  0.1967  0.2010 -0.1672
 8686SOL     OW37516   3.792   2.908   3.703 -0.5905  0.4478  0.2904
 8686SOL    HW137517   3.869   2.952   3.739  0.4931 -1.4983  0.3374
 8686SOL    HW237518   3.812   2.822   3.740  1.8363  0.8668 -0.0081
 8687SOL     OW37519   3.791   1.167  12.918  0.4906 -0.4064  0.3100
 8687SOL    HW137520   3.778   1.239  12.856 -0.7110 -2.9230 -2.3472
 8687SOL    HW237521   3.747   1.101  12.865 -0.4256  0.2292  0.2678
 8688SOL     OW37522   2.870   2.093  16.740 -0.1884  0.4846 -0.1219
 8688SOL    HW137523   2.882   2.188  16.748 -1.7092  0.6488  0.2926
 8688SOL    HW237524   2.941   2.058  16.793 -0.9952 -1.1945 -0.1414
 8689SOL     OW37525   3.605   1.805   5.775  0.4458  0.2799  0.4523
 8689SOL    HW137526   3.683   1.799   5.720 -0.1634  1.7713 -0.5561
 8689SOL    HW237527   3.580   1.713   5.788 -0.1685  0.6817  2.0962
 8690SOL     OW37528   3.670   2.406   2.621  0.5960 -0.2273  0.5405
 8690SOL    HW137529   3.700   2.315   2.626 -0.8976 -0.7892 -0.8617
 8690SOL    HW237530   3.580   2.380   2.637 -0.2954  1.1302 -2.3102
 8691SOL     OW37531   1.027   1.059  16.703  0.6322 -0.3354 -0.6735
 8691SOL    HW137532   1.098   1.112  16.667  0.4747  0.0841 -0.3681
 8691SOL    HW237533   1.078   0.981  16.721  0.7415 -0.4183 -1.3193
 8692SOL     OW37534   0.067   2.875   2.900  0.0490 -0.0870 -0.9726
 8692SOL    HW137535   0.015   2.800   2.872  2.1950 -1.5765 -0.9058
 8692SOL    HW237536   0.083   2.904   2.810 -0.9966  0.7304 -0.9044
 8693SOL     OW37537   3.226   3.362   3.461 -0.2958  0.6548  0.6812
 8693SOL    HW137538   3.163   3.343   3.530  0.5268 -0.5385  1.1104
 8693SOL    HW237539   3.301   3.316   3.499 -0.2813 -0.0914 -0.2441
 8694SOL     OW37540   1.127   2.291   9.823  0.1059 -0.2188 -0.7216
 8694SOL    HW137541   1.135   2.376   9.867 -0.4070 -0.4704 -0.1303
 8694SOL    HW237542   1.109   2.242   9.903 -0.8922 -0.4932 -1.1100
 8695SOL     OW37543   2.028   2.404  15.875  0.7169 -0.3717 -0.0441
 8695SOL    HW137544   1.962   2.434  15.812  0.6198  0.7307  0.5847
 8695SOL    HW237545   2.098   2.458  15.839  0.7567 -0.0696  0.4964
 8696SOL     OW37546   0.927   4.465   2.286 -0.0516  0.0397 -0.5765
 8696SOL    HW137547   0.947   4.478   2.378  0.1280 -1.4169 -0.4059
 8696SOL    HW237548   0.831   4.462   2.280  0.0213  1.3241 -2.3363
 8697SOL     OW37549   0.405   3.716   7.728  0.5053 -0.3728  0.3575
 8697SOL    HW137550   0.361   3.678   7.652 -2.0364 -1.6012  2.4535
 8697SOL    HW237551   0.352   3.794   7.744  2.0112  0.3867  1.6645
 8698SOL     OW37552   0.609   1.134  12.925 -0.3407  0.1690 -0.1431
 8698SOL    HW137553   0.690   1.091  12.900 -0.3393  0.2517 -0.2839
 8698SOL    HW237554   0.586   1.088  13.006 -0.3102  0.9134  0.2847
 8699SOL     OW37555   0.672   4.686   8.384  0.4745 -0.1287 -0.2553
 8699SOL    HW137556   0.744   4.705   8.323 -0.8480 -1.0403 -2.1203
 8699SOL    HW237557   0.694   4.598   8.414  0.5106 -0.4851 -1.3306
 8700SOL     OW37558   3.546   0.943   0.777 -0.3814  0.0878  0.0350
 8700SOL    HW137559   3.511   1.002   0.711 -0.7695  2.5868  2.4872
 8700SOL    HW237560   3.559   1.003   0.851  2.1874  0.5972 -0.8467
 8701SOL     OW37561   0.306   3.522  11.684 -0.2212  0.1681  0.2681
 8701SOL    HW137562   0.358   3.492  11.758 -1.0302  1.3043  1.3123
 8701SOL    HW237563   0.292   3.442  11.634  1.5153  1.1728 -1.8433
 8702SOL     OW37564   0.922   4.394   5.542  0.5536  0.5111  0.1397
 8702SOL    HW137565   0.947   4.429   5.627  0.0917 -1.7261  1.1957
 8702SOL    HW237566   0.982   4.320   5.533  4.2625  3.4144  0.7727
 8703SOL     OW37567   2.779   2.902   3.238 -0.1136  0.9450  0.4025
 8703SOL    HW137568   2.785   2.989   3.199  0.2294  2.1145  3.1063
 8703SOL    HW237569   2.734   2.847   3.174 -1.9855  0.5178  2.0531
 8704SOL     OW37570   3.264   0.090   7.007 -0.5076 -0.0189  0.8130
 8704SOL    HW137571   3.284   0.002   6.975  1.3180  0.2818  1.0974
 8704SOL    HW237572   3.185   0.072   7.058  1.9440  0.7156  4.8606
 8705SOL     OW37573   4.074   4.365   9.335 -0.5156  0.6501  0.2082
 8705SOL    HW137574   4.106   4.442   9.287  2.5748 -0.4160  0.5464
 8705SOL    HW237575   4.054   4.389   9.425  0.5591  1.6124  0.1948
 8706SOL     OW37576   3.479   0.581  14.990 -0.4811 -0.6569 -0.3647
 8706SOL    HW137577   3.532   0.584  14.911  0.4081 -0.5122  0.2411
 8706SOL    HW237578   3.546   0.540  15.044  1.3356  1.2891 -1.1566
 8707SOL     OW37579   0.571   1.789   4.305  0.0137 -0.0478  0.2328
 8707SOL    HW137580   0.598   1.773   4.214  1.4655 -2.3961  1.0900
 8707SOL    HW237581   0.655   1.773   4.349 -1.9563 -0.8845  3.6430
 8708SOL     OW37582   3.155   3.875  15.438  0.2335  0.3007 -0.6240
 8708SOL    HW137583   3.242   3.872  15.477 -1.0273 -0.1991  2.1135
 8708SOL    HW237584   3.105   3.892  15.517 -2.3217 -2.0847 -1.7149
 8709SOL     OW37585   3.909   2.775   6.144 -0.7948 -0.3761 -0.1558
 8709SOL    HW137586   3.936   2.815   6.061  0.7143  3.3354  2.1161
 8709SOL    HW237587   3.873   2.695   6.106  0.6168 -2.1343  2.1963
 8710SOL     OW37588   0.933   3.374  12.417  0.7551  0.3117 -0.2324
 8710SOL    HW137589   0.988   3.448  12.443  1.5800 -1.8100  4.0236
 8710SOL    HW237590   0.878   3.379  12.496  1.4871  1.8847  0.1682
 8711SOL     OW37591   3.931   1.561   7.374  0.0108  0.3770 -0.2897
 8711SOL    HW137592   4.014   1.513   7.374  0.0526  0.4459 -0.6477
 8711SOL    HW237593   3.929   1.595   7.463  0.2284  2.9700 -1.2699
 8712SOL     OW37594   3.458   2.986   7.779  0.2130 -0.2793 -0.3197
 8712SOL    HW137595   3.515   2.949   7.712  0.0240 -2.0890  0.4976
 8712SOL    HW237596   3.453   3.075   7.746  2.4703 -0.4389 -1.1059
 8713SOL     OW37597   0.884   2.877   7.822  0.3528 -0.2363  0.3070
 8713SOL    HW137598   0.844   2.848   7.740 -1.3465 -2.6125  1.9452
 8713SOL    HW237599   0.842   2.958   7.851  1.5752  0.4864  0.0362
 8714SOL     OW37600   0.463   0.719   9.972 -0.2687 -0.2114  0.3942
 8714SOL    HW137601   0.480   0.773  10.048  2.2754 -1.4345  0.7095
 8714SOL    HW237602   0.401   0.770   9.920  0.0316 -2.6502 -2.3925
 8715SOL     OW37603   4.205   1.964   9.450 -0.3451 -0.4007 -0.0007
 8715SOL    HW137604   4.228   1.951   9.542  1.2357 -0.6118 -0.4264
 8715SOL    HW237605   4.123   2.006   9.473 -0.0383 -1.7612  3.5128
 8716SOL     OW37606   0.129   0.938   7.032  0.5306  0.3677 -0.1084
 8716SOL    HW137607   0.049   0.923   6.981  1.3239 -0.2251 -1.1743
 8716SOL    HW237608   0.159   1.012   6.979  1.8077  1.0592  1.5771
 8717SOL     OW37609   0.695   1.097   4.328 -0.0969 -0.0745  0.1013
 8717SOL    HW137610   0.730   1.137   4.408 -2.4826  0.1458  1.0318
 8717SOL    HW237611   0.681   1.173   4.272  0.8754  2.2194  2.9471
 8718SOL     OW37612   0.136   3.726   7.236  0.0046 -0.2024  0.2216
 8718SOL    HW137613   0.072   3.668   7.276  0.7167 -0.6721  0.6779
 8718SOL    HW237614   0.087   3.737   7.155 -1.9001  1.5086  1.5779
 8719SOL     OW37615   2.640   4.506   9.527  0.3505  0.4948 -0.0277
 8719SOL    HW137616   2.593   4.511   9.610  0.4018  0.8513 -0.0187
 8719SOL    HW237617   2.558   4.489   9.481 -0.3315  0.7717  1.0964
 8720SOL     OW37618   4.175   4.493  15.427  0.1276  0.0212  0.6373
 8720SOL    HW137619   4.232   4.518  15.355 -1.5166 -0.5262 -0.8392
 8720SOL    HW237620   4.170   4.398  15.417 -0.3255  0.5715 -4.0314
 8721SOL     OW37621   2.289   0.160   2.840 -0.4421  0.2723 -0.0876
 8721SOL    HW137622   2.266   0.077   2.797  1.2558 -0.3697  0.2498
 8721SOL    HW237623   2.259   0.148   2.930 -1.5188 -2.1311 -0.7476
 8722SOL     OW37624   0.188   0.438   3.463 -0.0019  0.6054 -0.0861
 8722SOL    HW137625   0.134   0.490   3.522  2.8735 -0.2121  3.2474
 8722SOL    HW237626   0.138   0.359   3.442  1.5930 -0.7313  1.1579
 8723SOL     OW37627   2.069   2.667  11.882  0.8099 -0.4889  0.3560
 8723SOL    HW137628   1.998   2.725  11.854  1.4642  0.3196  0.3532
 8723SOL    HW237629   2.141   2.716  11.842  0.6596  0.2232  0.9456
 8724SOL     OW37630   0.513   4.100  13.014  0.0436  0.5838 -0.6056
 8724SOL    HW137631   0.445   4.048  13.059  0.6371  0.4074  0.0994
 8724SOL    HW237632   0.584   4.051  13.056  0.0229  0.5314 -0.6307
 8725SOL     OW37633   2.884   0.886   7.962  1.2662 -0.0715 -0.5531
 8725SOL    HW137634   2.958   0.833   7.990 -1.6295 -4.7532 -1.8386
 8725SOL    HW237635   2.884   0.966   8.015  1.3093  1.1332 -2.3652
 8726SOL     OW37636   2.116   2.230   6.524 -0.9881 -0.2583  0.2682
 8726SOL    HW137637   2.163   2.255   6.444 -0.8640 -2.1812 -0.2573
 8726SOL    HW237638   2.102   2.311   6.573  1.3229  0.1527  0.2729
 8727SOL     OW37639   3.346   0.690   2.946  0.2982 -0.0989 -0.2405
 8727SOL    HW137640   3.284   0.733   3.004  0.5834  0.7125 -0.5261
 8727SOL    HW237641   3.289   0.615   2.930 -0.9745  0.5414  1.2553
 8728SOL     OW37642   0.959   2.244   6.668  0.6105  0.2810 -0.1718
 8728SOL    HW137643   0.996   2.308   6.607  0.1822 -0.1574 -0.8896
 8728SOL    HW237644   0.939   2.302   6.742 -0.0477 -0.2778  0.0828
 8729SOL     OW37645   3.581   1.048   2.637  0.1964 -0.2175  0.4436
 8729SOL    HW137646   3.551   0.959   2.653  1.0535 -0.7057 -0.6954
 8729SOL    HW237647   3.519   1.074   2.569  0.5169  0.4579  0.4142
 8730SOL     OW37648   0.367   2.594   5.388  0.0001  0.1540  0.1905
 8730SOL    HW137649   0.432   2.654   5.351 -0.0594  0.0037 -0.1590
 8730SOL    HW237650   0.302   2.584   5.319 -1.2828 -1.6297  1.6662
 8731SOL     OW37651   1.306   4.667  14.391 -0.7722  0.3713  0.1319
 8731SOL    HW137652   1.319   4.586  14.342  0.6116  0.6335  0.0617
 8731SOL    HW237653   1.343   4.633  14.473  0.5706 -1.2473 -1.1521
 8732SOL     OW37654   1.458   0.754   9.264 -1.0425 -0.3749  0.3988
 8732SOL    HW137655   1.376   0.801   9.249 -0.2054  0.8602 -0.3044
 8732SOL    HW237656   1.485   0.777   9.353  1.1894  0.4424 -0.4930
 8733SOL     OW37657   3.528   1.201   4.436 -0.5812  0.1465 -0.7114
 8733SOL    HW137658   3.571   1.284   4.456 -0.4013  0.0882 -0.8562
 8733SOL    HW237659   3.503   1.167   4.522  2.0888 -1.5862 -0.6416
 8734SOL     OW37660   1.637   1.089   9.405  0.8179 -0.2517 -0.3878
 8734SOL    HW137661   1.625   1.140   9.484  0.6114 -2.5315  1.0380
 8734SOL    HW237662   1.594   1.151   9.345 -0.8881 -0.6927  0.4074
 8735SOL     OW37663   4.044   4.212   8.643 -0.4661  0.2387  0.0441
 8735SOL    HW137664   3.994   4.188   8.566  2.7517 -0.0111 -1.9636
 8735SOL    HW237665   4.124   4.160   8.634 -0.6192 -0.1779  1.0285
 8736SOL     OW37666   3.118   3.045  11.032  0.3067 -0.1903  0.0874
 8736SOL    HW137667   3.157   2.961  11.010  1.9885 -0.0253  2.4746
 8736SOL    HW237668   3.140   3.048  11.125 -2.4909  1.4513  0.6896
 8737SOL     OW37669   1.450   0.056   6.756  0.2587 -0.2284  0.2334
 8737SOL    HW137670   1.387   0.114   6.714 -0.0809 -1.2712 -0.6962
 8737SOL    HW237671   1.439   0.057   6.852 -0.4272 -3.3507  0.1948
 8738SOL     OW37672   3.872   0.012   5.326 -0.0626  0.0413  0.1151
 8738SOL    HW137673   3.924   4.672   5.276  1.3007 -0.4497  2.1044
 8738SOL    HW237674   3.915   0.095   5.307 -0.4212  0.4313  1.0121
 8739SOL     OW37675   1.602   2.908   6.334 -0.1513  0.5118 -0.4358
 8739SOL    HW137676   1.528   2.901   6.274  1.4583  3.1878 -2.6967
 8739SOL    HW237677   1.672   2.936   6.275 -1.4694  0.6573 -1.9002
 8740SOL     OW37678   0.263   4.638   9.015 -0.1615  0.3795  0.4979
 8740SOL    HW137679   0.234   4.708   9.074 -0.3552  1.1389 -0.4841
 8740SOL    HW237680   0.339   4.604   9.061  1.2683  1.8511 -0.7722
 8741SOL     OW37681   2.732   3.651   7.148 -0.5767 -0.6211 -0.0903
 8741SOL    HW137682   2.705   3.702   7.224 -0.6567 -1.2430  0.3008
 8741SOL    HW237683   2.651   3.605   7.128 -0.2966 -1.1560  0.0148
 8742SOL     OW37684   1.731   2.098   4.624  0.3733 -0.0571  0.2281
 8742SOL    HW137685   1.750   2.103   4.718  1.1482 -0.6219  0.1016
 8742SOL    HW237686   1.646   2.056   4.614 -0.9026  2.4161  0.6912
 8743SOL     OW37687   3.305   0.723  11.488 -1.2623  0.6540 -0.0662
 8743SOL    HW137688   3.348   0.763  11.412 -2.4815  0.5391 -0.8274
 8743SOL    HW237689   3.323   0.793  11.550  1.7634  0.9104 -1.2430
 8744SOL     OW37690   1.142   1.378  10.155 -0.1885  0.1355  0.1519
 8744SOL    HW137691   1.133   1.292  10.114 -0.5170 -0.2266  0.9803
 8744SOL    HW237692   1.075   1.428  10.110  1.3802  3.0316  0.9991
 8745SOL     OW37693   2.740   2.813   7.492 -0.1435  0.0962 -0.7578
 8745SOL    HW137694   2.734   2.731   7.443 -2.3543 -1.8835  2.8357
 8745SOL    HW237695   2.717   2.883   7.430 -1.2771  1.7425  1.4842
 8746SOL     OW37696   0.948   3.065   5.664 -0.4777  0.5583 -0.3786
 8746SOL    HW137697   0.868   3.088   5.711 -1.3595  1.7771 -2.4841
 8746SOL    HW237698   0.983   2.995   5.719 -0.8959  0.1762 -0.6092
 8747SOL     OW37699   2.873   4.626   1.344  0.6826 -0.4990 -0.1832
 8747SOL    HW137700   2.949   4.682   1.327  0.6789 -0.9830 -1.7730
 8747SOL    HW237701   2.918   4.541   1.337  1.8180 -0.0512  1.7200
 8748SOL     OW37702   1.384   2.798   2.941 -0.4506  0.4269  0.3197
 8748SOL    HW137703   1.378   2.717   2.991 -1.2315 -1.7346 -3.2784
 8748SOL    HW237704   1.309   2.777   2.885 -2.2398 -0.1915  2.9140
 8749SOL     OW37705   3.712   0.952  16.156  0.8084 -0.9430  0.0902
 8749SOL    HW137706   3.774   0.923  16.089  0.4920 -1.2840 -0.0541
 8749SOL    HW237707   3.729   0.892  16.228  0.8395 -0.1937  0.7175
 8750SOL     OW37708   1.709   1.135   1.663 -0.0575 -0.2227  0.5711
 8750SOL    HW137709   1.648   1.065   1.685  0.7706 -1.5993 -1.4989
 8750SOL    HW237710   1.735   1.114   1.573 -0.7488 -2.3427  0.8698
 8751SOL     OW37711   2.085   3.169   5.231 -0.8805 -0.2483 -0.2745
 8751SOL    HW137712   2.148   3.107   5.195 -0.4871 -0.3983  0.6512
 8751SOL    HW237713   2.041   3.208   5.156  0.5902  1.0401 -0.4774
 8752SOL     OW37714   0.444   0.638   3.966  0.1074 -0.1036 -0.1104
 8752SOL    HW137715   0.467   0.571   3.903  0.0956  0.3922 -0.6395
 8752SOL    HW237716   0.400   0.587   4.034 -0.7505 -1.6861 -1.8509
 8753SOL     OW37717   2.539   3.349   5.433  0.2446  0.9459  0.1031
 8753SOL    HW137718   2.622   3.395   5.451  0.7973  0.2049 -0.5523
 8753SOL    HW237719   2.534   3.293   5.510  0.0978  0.8932  0.0537
 8754SOL     OW37720   2.375   2.158   1.499  0.6413 -0.5139  0.3956
 8754SOL    HW137721   2.444   2.216   1.468  1.4221 -2.7195 -1.9985
 8754SOL    HW237722   2.358   2.099   1.426 -1.0226 -3.1998  2.9262
 8755SOL     OW37723   0.311   2.393   0.799 -0.2441  0.2378  0.0226
 8755SOL    HW137724   0.296   2.364   0.889 -2.8381  0.6739 -0.2686
 8755SOL    HW237725   0.405   2.378   0.788 -0.0305  0.1494  2.0644
 8756SOL     OW37726   2.483   2.663   3.501 -0.0082  0.1629 -0.0535
 8756SOL    HW137727   2.548   2.733   3.496  0.8209 -0.4349  2.1574
 8756SOL    HW237728   2.440   2.685   3.418 -0.8006  0.6742  0.4882
 8757SOL     OW37729   4.210   0.980   7.222  0.2942  0.6201 -0.0409
 8757SOL    HW137730   4.275   0.936   7.277 -0.0028  0.4008  0.1334
 8757SOL    HW237731   4.161   0.907   7.183  0.1787  0.4393  0.4448
 8758SOL     OW37732   0.886   2.589   4.791 -0.5715 -0.2771  0.3429
 8758SOL    HW137733   0.863   2.678   4.815  1.0899 -0.3452  2.1686
 8758SOL    HW237734   0.959   2.567   4.848  0.6327 -0.5085 -1.3137
 8759SOL     OW37735   1.682   2.393  11.691 -0.1246  0.2125  0.1920
 8759SOL    HW137736   1.645   2.408  11.778 -1.2503 -0.7285 -0.1281
 8759SOL    HW237737   1.685   2.299  11.674  1.2378  0.2233  0.4126
 8760SOL     OW37738   1.192   1.512   3.379  0.6133  0.6422  0.4200
 8760SOL    HW137739   1.183   1.455   3.456  0.5589  3.3314  2.3877
 8760SOL    HW237740   1.133   1.476   3.313  0.8914 -0.2899  0.6765
 8761SOL     OW37741   0.611   4.145   9.696 -0.5220 -0.0732  0.3303
 8761SOL    HW137742   0.671   4.136   9.770  1.0357  4.0356 -0.4949
 8761SOL    HW237743   0.621   4.055   9.663  1.3906 -0.3331  1.6081
 8762SOL     OW37744   0.344   2.410   4.049 -0.0516  0.3054  0.4960
 8762SOL    HW137745   0.306   2.323   4.044  0.7546 -0.1346  2.2325
 8762SOL    HW237746   0.293   2.457   3.983  0.0189 -0.6146 -0.2033
 8763SOL     OW37747   0.543   1.430   4.367 -0.5400  0.2108  0.5379
 8763SOL    HW137748   0.483   1.455   4.296 -0.4591  0.7477  0.6611
 8763SOL    HW237749   0.592   1.360   4.324 -0.7921  0.8888 -0.8677
 8764SOL     OW37750   3.905   3.577   7.518 -0.2994 -0.1666 -0.0423
 8764SOL    HW137751   3.898   3.483   7.504  2.7872 -0.8732  3.2040
 8764SOL    HW237752   3.853   3.619   7.449 -1.8641  1.3292  2.0709
 8765SOL     OW37753   1.332   4.368   3.683  0.4378 -0.1713  0.1745
 8765SOL    HW137754   1.392   4.299   3.652  1.4915  0.5993  0.4939
 8765SOL    HW237755   1.392   4.416   3.740  2.4674 -1.7167 -0.6342
 8766SOL     OW37756   1.238   3.208   1.836 -0.2582 -0.2549 -0.5944
 8766SOL    HW137757   1.272   3.162   1.913 -1.1595 -2.0795 -1.2941
 8766SOL    HW237758   1.153   3.243   1.862  1.0665  2.1814  0.4808
 8767SOL     OW37759   1.724   1.905  15.147 -0.7364  0.0798  0.4200
 8767SOL    HW137760   1.689   1.871  15.229 -1.6937  2.4443  1.0134
 8767SOL    HW237761   1.698   1.832  15.091  0.2714 -1.0653  1.4398
 8768SOL     OW37762   3.340   4.584   4.978  0.3044  0.0196  0.1394
 8768SOL    HW137763   3.263   4.591   4.922 -0.1856 -0.3894  0.7678
 8768SOL    HW237764   3.398   4.583   4.901 -0.9411  2.5811 -0.8004
 8769SOL     OW37765   1.513   2.085   8.466 -0.4201  0.1578  0.1339
 8769SOL    HW137766   1.510   2.085   8.371 -1.2415  0.5465  0.1623
 8769SOL    HW237767   1.440   2.026   8.485  0.7937 -0.5173  2.7438
 8770SOL     OW37768   1.385   2.800   4.552 -0.0985 -0.6072  0.2185
 8770SOL    HW137769   1.320   2.840   4.611  2.0182  1.6430  1.0107
 8770SOL    HW237770   1.330   2.725   4.529 -0.6725 -0.2601  0.4666
 8771SOL     OW37771   1.397   2.051   2.227 -0.0267  0.2522 -0.7578
 8771SOL    HW137772   1.351   2.003   2.158 -0.4658 -0.7387  0.2191
 8771SOL    HW237773   1.360   2.005   2.303 -0.4085 -1.7372 -2.1605
 8772SOL     OW37774   1.041   0.248   5.480  0.3133  0.1831  0.2894
 8772SOL    HW137775   0.989   0.316   5.438 -2.0323 -1.3269  0.7446
 8772SOL    HW237776   1.064   0.307   5.552 -1.6924  0.1661  0.9542
 8773SOL     OW37777   2.587   0.933   6.996  0.3986  0.3903 -0.1322
 8773SOL    HW137778   2.631   0.898   7.073 -1.1751 -1.4831 -0.0873
 8773SOL    HW237779   2.529   0.987   7.049  0.9461  2.4489 -1.6369
 8774SOL     OW37780   3.009   3.336   5.893 -0.9420  0.3890 -0.4438
 8774SOL    HW137781   3.049   3.420   5.914  1.7179 -0.2152 -3.0589
 8774SOL    HW237782   2.986   3.300   5.979  3.1130  0.2811  0.5911
 8775SOL     OW37783   4.229   0.051   5.561  0.1241 -0.6153  0.1070
 8775SOL    HW137784   4.177   0.080   5.636 -0.0523 -1.1388  0.1888
 8775SOL    HW237785   4.158   0.005   5.516  1.4616 -2.3113 -0.2730
 8776SOL     OW37786   0.340   4.363   3.114  0.3457 -0.0849 -0.5885
 8776SOL    HW137787   0.310   4.386   3.202 -1.2288  0.4455 -1.2615
 8776SOL    HW237788   0.267   4.389   3.058 -0.5878 -0.3539  0.4959
 8777SOL     OW37789   1.393   2.035   4.816 -0.5725 -0.3281  0.2690
 8777SOL    HW137790   1.439   2.015   4.734  2.4222  1.9266  1.3657
 8777SOL    HW237791   1.330   1.964   4.826 -0.4153 -0.4769  0.2045
 8778SOL     OW37792   2.028   4.630   3.380 -0.0430  0.2138 -0.1805
 8778SOL    HW137793   2.013   4.606   3.289  0.0794 -0.0044 -0.1438
 8778SOL    HW237794   2.104   4.574   3.397 -0.4881 -0.7428 -1.3263
 8779SOL     OW37795   4.051   3.933   4.834  0.3462 -0.0734  0.1496
 8779SOL    HW137796   3.988   4.002   4.856 -1.3270 -1.7137  0.4869
 8779SOL    HW237797   3.990   3.875   4.789  1.5100 -0.6331 -0.7071
 8780SOL     OW37798   0.771   0.768   5.927 -0.1026  0.0811  0.0037
 8780SOL    HW137799   0.807   0.772   6.015  0.6457  0.5071 -0.3152
 8780SOL    HW237800   0.778   0.862   5.906 -0.7284  0.5094  1.7729
 8781SOL     OW37801   1.953   0.347   5.721  0.2278 -0.1154 -0.6291
 8781SOL    HW137802   1.996   0.288   5.659  2.4287  0.0955  0.7333
 8781SOL    HW237803   1.897   0.400   5.663  0.8373 -0.1960 -1.2977
 8782SOL     OW37804   3.202   0.443  11.660  0.0635 -0.4922 -0.2911
 8782SOL    HW137805   3.110   0.454  11.686 -0.7364  0.2367 -3.4516
 8782SOL    HW237806   3.251   0.453  11.742  3.6958 -0.2872 -2.5206
 8783SOL     OW37807   0.953   1.047   1.051  0.0743  0.3503  0.2069
 8783SOL    HW137808   0.984   1.134   1.026  2.1814 -0.5370 -0.2781
 8783SOL    HW237809   0.912   1.076   1.133  0.0986  1.0401 -0.0184
 8784SOL     OW37810   0.195   1.799  14.567 -0.0713 -0.3203 -0.5530
 8784SOL    HW137811   0.170   1.887  14.594  0.9730 -0.9466  2.4320
 8784SOL    HW237812   0.130   1.774  14.501 -1.2381  2.0530 -0.2800
 8785SOL     OW37813   3.613   1.688   7.002  0.0706  0.3607  0.3248
 8785SOL    HW137814   3.582   1.599   6.990 -2.1330  1.0919  0.5480
 8785SOL    HW237815   3.580   1.714   6.915  0.2858 -0.1171  0.1057
 8786SOL     OW37816   3.866   3.023   7.009 -0.4853 -1.0102 -0.0830
 8786SOL    HW137817   3.863   3.043   7.102 -0.3813 -0.6195 -0.1628
 8786SOL    HW237818   3.881   3.110   6.971  1.1234 -1.4598 -0.4852
 8787SOL     OW37819   3.818   3.614  10.609 -0.5602 -0.0581  0.3972
 8787SOL    HW137820   3.741   3.599  10.664  0.4421 -0.7024  1.6265
 8787SOL    HW237821   3.800   3.700  10.570 -0.9500 -0.4493 -0.2902
 8788SOL     OW37822   4.044   0.821   7.449 -0.5306  0.5871 -0.2881
 8788SOL    HW137823   3.992   0.759   7.398  3.2422 -2.0393 -0.9643
 8788SOL    HW237824   4.055   0.762   7.523 -0.4408  1.2529  0.2318
 8789SOL     OW37825   3.575   0.884   3.630  0.3764  0.3168 -0.1360
 8789SOL    HW137826   3.595   0.971   3.597  1.6627  0.6787  1.5994
 8789SOL    HW237827   3.649   0.875   3.690 -2.3362 -1.8348  2.9138
 8790SOL     OW37828   4.403   2.736   3.627 -0.3747 -0.7304  0.2960
 8790SOL    HW137829   4.316   2.765   3.600  0.8060  0.3404 -2.3640
 8790SOL    HW237830   4.462   2.770   3.559  0.2562 -2.6121 -0.0897
 8791SOL     OW37831   2.225   2.088   4.219 -0.2121 -0.8384  0.5689
 8791SOL    HW137832   2.142   2.055   4.253 -0.6356 -1.4443 -1.0628
 8791SOL    HW237833   2.226   2.164   4.277 -0.0483 -1.0909  0.8967
 8792SOL     OW37834   3.544   1.949   4.029  0.3499 -0.4147  0.0493
 8792SOL    HW137835   3.491   1.904   3.963  0.7376 -0.5089 -0.1968
 8792SOL    HW237836   3.527   2.042   4.016  0.0196 -0.9265 -3.2209
 8793SOL     OW37837   3.249   3.892   6.079  0.5684 -0.6519 -0.3586
 8793SOL    HW137838   3.158   3.919   6.091  0.7679 -0.0212 -0.2833
 8793SOL    HW237839   3.260   3.901   5.984  2.2375  0.7614 -0.0403
 8794SOL     OW37840   1.971   0.996   6.586 -0.0354  0.0610  0.0203
 8794SOL    HW137841   2.062   0.965   6.585 -0.1016 -0.0248 -2.5256
 8794SOL    HW237842   1.946   0.966   6.674 -0.3393 -0.9371 -0.4031
 8795SOL     OW37843   1.396   2.860   6.739 -0.1444  0.1055  0.4315
 8795SOL    HW137844   1.459   2.837   6.671  1.6305  0.3670  1.9843
 8795SOL    HW237845   1.349   2.776   6.744  0.4618 -0.3260 -0.9957
 8796SOL     OW37846   4.231   3.230   7.297 -0.3724  0.1232 -0.0873
 8796SOL    HW137847   4.254   3.148   7.253 -1.3081  0.5023 -1.2605
 8796SOL    HW237848   4.273   3.216   7.382 -0.8512 -0.4368  0.0547
 8797SOL     OW37849   2.839   2.440   7.051  0.2632 -0.5548  0.1632
 8797SOL    HW137850   2.854   2.506   7.118  0.4796 -0.1046 -0.3289
 8797SOL    HW237851   2.905   2.374   7.074  0.8969  0.0643  0.1080
 8798SOL     OW37852   4.659   2.832   8.738 -0.3616 -0.1994 -0.0335
 8798SOL    HW137853   4.607   2.867   8.666 -0.2046 -2.6747 -1.3608
 8798SOL    HW237854   4.654   2.904   8.801  0.4429  0.9454 -1.2761
 8799SOL     OW37855   2.122   3.634  13.877  0.0705 -0.5408  0.2832
 8799SOL    HW137856   2.038   3.596  13.903 -0.0228 -1.3353 -1.2009
 8799SOL    HW237857   2.184   3.561  13.886 -0.0736 -1.0668 -3.0051
 8800SOL     OW37858   0.322   3.462  13.271  0.3601 -0.3638 -0.3077
 8800SOL    HW137859   0.372   3.390  13.309  2.5557  1.1463 -0.3259
 8800SOL    HW237860   0.306   3.437  13.179  0.6676 -0.8303 -0.2365
 8801SOL     OW37861   4.071   4.506  16.391 -0.5802 -0.2325 -0.1045
 8801SOL    HW137862   3.983   4.544  16.392 -1.2417 -1.8030  0.5575
 8801SOL    HW237863   4.077   4.479  16.299  0.9163  3.4101 -1.1288
 8802SOL     OW37864   0.232   1.793  11.322  0.2535  0.0760  0.2298
 8802SOL    HW137865   0.207   1.867  11.377  0.5300 -1.6137  2.6501
 8802SOL    HW237866   0.207   1.824  11.235 -0.5203  0.0699  0.4500
 8803SOL     OW37867   3.381   1.480  13.588 -0.5068  0.6728 -0.6781
 8803SOL    HW137868   3.321   1.516  13.653 -0.9414  1.1106 -1.3233
 8803SOL    HW237869   3.333   1.403  13.558  1.4321 -0.5136 -0.7561
 8804SOL     OW37870   3.644   2.336  15.316 -0.1658 -0.4741 -0.4781
 8804SOL    HW137871   3.683   2.420  15.293 -0.2323 -0.3809 -0.2486
 8804SOL    HW237872   3.614   2.359  15.404 -0.6656  2.7016 -1.4873
 8805SOL     OW37873   3.660   4.326   1.571 -0.0107 -0.4366  0.1452
 8805SOL    HW137874   3.749   4.349   1.596 -0.4428  0.0707  1.2208
 8805SOL    HW237875   3.665   4.238   1.609  4.0377 -0.0837  0.4152
 8806SOL     OW37876   1.386   4.353  15.861 -0.2080  0.3259  0.0018
 8806SOL    HW137877   1.416   4.417  15.798  0.8737 -1.7226 -1.5697
 8806SOL    HW237878   1.468   4.351  15.911  0.0075 -1.8709 -0.4248
 8807SOL     OW37879   0.093   2.748   6.261  0.3885 -0.0177  0.0527
 8807SOL    HW137880   0.176   2.700   6.255  1.0732  0.9309  2.1215
 8807SOL    HW237881   0.096   2.756   6.356 -0.1506  0.6627  0.0129
 8808SOL     OW37882   0.318   1.394  12.708 -0.1215  0.5447 -0.4775
 8808SOL    HW137883   0.296   1.344  12.787  1.1223  1.1227  0.2297
 8808SOL    HW237884   0.280   1.343  12.636 -0.2244 -0.9337  0.6310
 8809SOL     OW37885   0.452   0.647  11.491  0.0667 -0.1562 -0.0338
 8809SOL    HW137886   0.432   0.735  11.459  3.1317 -0.3648 -2.5305
 8809SOL    HW237887   0.547   0.656  11.481  0.0122 -0.8895 -1.2884
 8810SOL     OW37888   2.262   2.503   6.823  0.1231 -0.5824 -0.6064
 8810SOL    HW137889   2.339   2.502   6.765  0.3827  0.9698 -0.2877
 8810SOL    HW237890   2.277   2.426   6.878  0.6426  0.5622  0.8488
 8811SOL     OW37891   4.388   1.607   4.458 -0.1484  0.7017 -0.9513
 8811SOL    HW137892   4.293   1.619   4.457 -0.1375  0.9794  0.3848
 8811SOL    HW237893   4.410   1.627   4.367  1.8674 -1.7463 -0.9944
 8812SOL     OW37894   4.023   3.510   3.989 -0.3453 -0.0016  0.1166
 8812SOL    HW137895   4.032   3.480   3.899  2.8628  0.2723  0.3718
 8812SOL    HW237896   3.975   3.591   3.969  0.7622  0.3321 -1.1193
 8813SOL     OW37897   0.729   0.621  15.789 -0.0031 -0.2250 -0.3759
 8813SOL    HW137898   0.806   0.651  15.741 -1.4646  3.0164 -0.7319
 8813SOL    HW237899   0.710   0.536  15.749 -0.8499  0.1896 -0.8532
 8814SOL     OW37900   4.003   3.616  16.206  0.2483  0.9439 -0.7317
 8814SOL    HW137901   3.972   3.528  16.183 -2.1569  1.4709  0.4715
 8814SOL    HW237902   4.087   3.589  16.244  0.0983  1.0878 -0.3006
 8815SOL     OW37903   2.455   1.470  11.291 -0.0092 -0.2654 -0.2556
 8815SOL    HW137904   2.455   1.374  11.293 -0.1378 -0.2596  0.0413
 8815SOL    HW237905   2.538   1.485  11.335 -0.3400  0.2584  0.1833
 8816SOL     OW37906   0.499   2.182   3.701 -0.2243 -0.2476  0.7713
 8816SOL    HW137907   0.480   2.105   3.754  0.1111 -2.2701 -2.0515
 8816SOL    HW237908   0.586   2.209   3.732  1.1636 -0.9163 -2.4691
 8817SOL     OW37909   2.403   3.024   5.778 -0.9330  0.4066  0.1802
 8817SOL    HW137910   2.378   2.935   5.751 -0.8687  0.7057 -0.8790
 8817SOL    HW237911   2.454   2.998   5.854 -0.4940 -0.7307 -0.5034
 8818SOL     OW37912   3.023   2.014  16.498 -0.4340 -0.2009 -0.2084
 8818SOL    HW137913   3.038   2.103  16.467 -2.0839  0.4475  0.8505
 8818SOL    HW237914   2.948   2.026  16.557  0.4433  1.7328  0.4932
 8819SOL     OW37915   2.203   0.150   6.290  0.2448 -0.1535 -0.0464
 8819SOL    HW137916   2.159   0.068   6.309  0.7259 -0.4054 -0.0048
 8819SOL    HW237917   2.173   0.169   6.201 -0.4770 -0.1266  0.2018
 8820SOL     OW37918   3.601   0.588  11.511  0.1366 -0.1029 -0.1975
 8820SOL    HW137919   3.528   0.581  11.573  0.6630 -0.2779  0.4035
 8820SOL    HW237920   3.611   0.683  11.516  3.6855 -0.4836 -0.0413
 8821SOL     OW37921   4.106   0.906   3.490  0.9406  0.1026  0.0447
 8821SOL    HW137922   4.186   0.861   3.461  0.2144 -0.4382 -1.1349
 8821SOL    HW237923   4.091   0.857   3.571  3.6739  0.7320  0.9514
 8822SOL     OW37924   0.723   0.444   7.870  0.5726  0.8018 -0.0551
 8822SOL    HW137925   0.734   0.414   7.779 -2.0664  0.7942 -0.3836
 8822SOL    HW237926   0.758   0.533   7.871  1.8445  0.3910 -4.6636
 8823SOL     OW37927   3.454   0.652   1.563  0.2268 -0.1007 -0.3556
 8823SOL    HW137928   3.373   0.702   1.575 -0.8345 -1.6655 -0.9431
 8823SOL    HW237929   3.436   0.615   1.477  0.3469  0.1427 -0.4850
 8824SOL     OW37930   1.865   4.501   6.078 -0.0712  0.4700 -0.1934
 8824SOL    HW137931   1.862   4.419   6.127 -0.1073 -0.1049 -1.1474
 8824SOL    HW237932   1.949   4.533   6.108 -0.3220 -0.1889  1.2078
 8825SOL     OW37933   0.591   4.296   3.484 -0.0671  0.4369  0.8131
 8825SOL    HW137934   0.651   4.224   3.466 -0.1834  0.5048  0.1600
 8825SOL    HW237935   0.612   4.352   3.409  0.9702 -0.3972  0.4725
 8826SOL     OW37936   2.921   0.406   5.503 -0.0950  0.0253  0.0242
 8826SOL    HW137937   2.909   0.491   5.547  0.9530  0.5290 -0.6870
 8826SOL    HW237938   2.938   0.443   5.416 -1.2180  1.9359  0.5995
 8827SOL     OW37939   2.751   4.431   5.590  0.1647  0.1454  0.4079
 8827SOL    HW137940   2.725   4.428   5.498 -2.3943  1.3417  1.1116
 8827SOL    HW237941   2.670   4.470   5.623 -0.1468 -0.9782  0.9592
 8828SOL     OW37942   2.084   2.448   2.791 -0.7630 -0.0238 -0.3197
 8828SOL    HW137943   2.018   2.448   2.722 -0.2168  1.9284 -0.8490
 8828SOL    HW237944   2.139   2.521   2.762  1.0602 -1.4847 -0.4876
 8829SOL     OW37945   3.006   3.928   1.591 -0.1752  0.1252 -0.1387
 8829SOL    HW137946   2.992   3.918   1.497 -0.4989 -0.6709 -0.0009
 8829SOL    HW237947   3.092   3.890   1.607  0.5379  0.9579 -1.9522
 8830SOL     OW37948   3.135   2.491  17.590  0.4580  0.7149 -0.6353
 8830SOL    HW137949   3.108   2.572  17.546 -0.8830  1.6895  1.9804
 8830SOL    HW237950   3.065   2.438  17.552 -0.0233 -1.3528  3.1668
 8831SOL     OW37951   3.952   1.645  10.725 -0.2411  0.0993 -0.0959
 8831SOL    HW137952   4.004   1.678  10.652  1.5789  1.3859  1.7936
 8831SOL    HW237953   3.888   1.716  10.734  0.3443  0.6386 -0.1895
 8832SOL     OW37954   2.778   3.926   6.273  0.0491 -0.2389 -0.0969
 8832SOL    HW137955   2.749   3.995   6.333  0.5267  0.2152 -0.3920
 8832SOL    HW237956   2.700   3.871   6.280  1.3934 -1.7969  2.6010
 8833SOL     OW37957   0.648   3.400   4.959 -0.5394  0.7873 -0.5019
 8833SOL    HW137958   0.652   3.462   4.886  0.4053  0.1592 -0.9860
 8833SOL    HW237959   0.645   3.467   5.027 -0.7143  0.8340 -0.5558
 8834SOL     OW37960   4.134   0.736  15.302  0.0624 -0.2496 -0.4928
 8834SOL    HW137961   4.150   0.647  15.271 -0.4671  0.1188 -1.7905
 8834SOL    HW237962   4.106   0.707  15.389  3.2942 -0.0647  0.6057
 8835SOL     OW37963   0.629   2.479   3.584  0.0607 -0.2727  0.2937
 8835SOL    HW137964   0.572   2.552   3.608 -1.5068 -1.0199 -1.2393
 8835SOL    HW237965   0.673   2.443   3.662 -0.6604 -1.8723 -0.0365
 8836SOL     OW37966   3.248   1.434  12.609  0.1183 -0.0789  0.5709
 8836SOL    HW137967   3.240   1.338  12.604  2.3822 -0.2133 -0.7346
 8836SOL    HW237968   3.231   1.459  12.700  2.3228 -0.0029  0.9515
 8837SOL     OW37969   1.536   4.497   3.820  1.0468  0.4087 -0.1972
 8837SOL    HW137970   1.577   4.581   3.800 -1.4449  1.7905  0.5424
 8837SOL    HW237971   1.588   4.470   3.895  0.1439  0.0432  0.2962
 8838SOL     OW37972   2.497   1.690  17.095 -0.2812 -0.1664 -0.1824
 8838SOL    HW137973   2.457   1.735  17.021  0.2863  0.2474 -0.2458
 8838SOL    HW237974   2.454   1.606  17.081 -1.6216  0.4430  0.3242
 8839SOL     OW37975   0.601   4.230   4.498  0.4705 -0.4668  0.7727
 8839SOL    HW137976   0.685   4.269   4.472 -0.4240  0.2039 -1.1087
 8839SOL    HW237977   0.579   4.300   4.560  0.6933 -1.4252  1.9317
 8840SOL     OW37978   1.134   1.011  11.231 -0.2953  0.5743  0.3899
 8840SOL    HW137979   1.211   1.032  11.178 -2.6135  2.4971 -2.2278
 8840SOL    HW237980   1.154   0.920  11.252  2.8532  0.9679 -0.8527
 8841SOL     OW37981   3.987   3.958   3.669 -0.0255 -0.0557 -0.3603
 8841SOL    HW137982   3.912   3.998   3.713 -0.9718 -0.7496 -1.3353
 8841SOL    HW237983   4.026   3.918   3.747  0.6041 -0.2158 -0.7527
 8842SOL     OW37984   4.661   4.245   9.109 -0.0457 -0.0834 -0.2895
 8842SOL    HW137985   4.671   4.340   9.103 -1.5482 -0.0284 -2.1510
 8842SOL    HW237986   4.610   4.255   9.189 -0.3651 -0.2725 -0.4661
 8843SOL     OW37987   3.600   0.560  12.043  0.6370 -0.5844  0.2480
 8843SOL    HW137988   3.512   0.572  12.079 -0.1316 -4.0721 -0.4940
 8843SOL    HW237989   3.640   0.632  12.092  2.2184 -0.1930 -1.6065
 8844SOL     OW37990   2.539   1.121  14.151 -0.3553 -0.0224  0.0313
 8844SOL    HW137991   2.476   1.117  14.079  0.7051 -1.8777 -0.7977
 8844SOL    HW237992   2.490   1.174  14.214  0.3689  1.3963 -0.5787
 8845SOL     OW37993   1.763   2.675   8.177  0.4186 -0.5257  0.3943
 8845SOL    HW137994   1.838   2.643   8.127 -0.6051 -2.9616  0.4225
 8845SOL    HW237995   1.787   2.765   8.199  0.4087 -0.9682  2.2226
 8846SOL     OW37996   1.019   3.042   8.255  1.0202  0.2893 -0.1921
 8846SOL    HW137997   0.951   3.060   8.190  2.9972 -1.9306 -2.9106
 8846SOL    HW237998   1.097   3.067   8.205 -0.2019  1.2112 -1.6614
 8847SOL     OW37999   2.905   2.468   2.098  0.1473 -0.3039  0.0228
 8847SOL    HW138000   2.997   2.446   2.114  0.5992  1.0315 -0.6906
 8847SOL    HW238001   2.871   2.508   2.178 -0.9068 -0.1076 -0.5245
 8848SOL     OW38002   4.195   0.425   4.928 -0.3032 -0.1023 -0.4858
 8848SOL    HW138003   4.226   0.359   4.865  2.1249  0.0304  0.5740
 8848SOL    HW238004   4.175   0.502   4.875  0.3275  0.7190  0.4690
 8849SOL     OW38005   0.594   1.220   6.395 -0.3382  0.8202 -0.0592
 8849SOL    HW138006   0.652   1.264   6.333 -0.6029 -1.9622 -2.3122
 8849SOL    HW238007   0.640   1.221   6.479 -2.6351 -0.8400  1.2160
 8850SOL     OW38008   2.766   0.363   4.546 -0.7403  0.0850  0.1862
 8850SOL    HW138009   2.808   0.396   4.467  0.1316  1.1247  1.0765
 8850SOL    HW238010   2.729   0.292   4.495 -1.3546  0.0278  0.7131
 8851SOL     OW38011   0.811   3.454  11.804  0.8703 -0.2275 -0.0864
 8851SOL    HW138012   0.758   3.513  11.858  1.2015 -0.5075  0.5406
 8851SOL    HW238013   0.754   3.442  11.728  0.7510  0.1039 -0.0505
 8852SOL     OW38014   3.112   3.073   3.514  0.4577  0.2313  0.2698
 8852SOL    HW138015   3.173   3.034   3.577  0.7425  0.5142  0.1737
 8852SOL    HW238016   3.058   2.998   3.490  2.2014 -0.4090 -1.6784
 8853SOL     OW38017   0.389   2.748  13.951  0.2610 -0.4173 -0.2913
 8853SOL    HW138018   0.388   2.819  13.887 -1.5108 -1.2288 -1.1557
 8853SOL    HW238019   0.409   2.677  13.890 -0.7053 -0.3413 -0.7048
 8854SOL     OW38020   2.732   0.693   8.862  0.1883  0.1281 -0.2413
 8854SOL    HW138021   2.705   0.611   8.820  0.3436  0.8498 -1.7412
 8854SOL    HW238022   2.820   0.698   8.824 -0.3686 -2.2806 -1.8838
 8855SOL     OW38023   0.988   2.268   4.380  0.3507  0.6359 -0.0562
 8855SOL    HW138024   1.054   2.252   4.312 -0.6803  1.9630 -1.3846
 8855SOL    HW238025   1.001   2.360   4.404  2.0232  0.0915  1.0701
 8856SOL     OW38026   4.029   1.111   7.767 -0.0532  0.0248  0.1004
 8856SOL    HW138027   4.089   1.068   7.706  0.1944  1.3029 -0.5496
 8856SOL    HW238028   4.082   1.119   7.847  0.9393 -0.2266 -0.5240
 8857SOL     OW38029   3.398   1.027   3.295 -0.1190 -0.1299 -0.0132
 8857SOL    HW138030   3.359   1.103   3.339  0.4862  0.3675 -0.3464
 8857SOL    HW238031   3.351   1.032   3.212 -0.5477 -2.1263  0.0964
 8858SOL     OW38032   4.152   3.976   5.339  0.1277 -0.4600 -0.1562
 8858SOL    HW138033   4.115   4.062   5.318 -1.9857 -0.3578  3.8021
 8858SOL    HW238034   4.215   3.970   5.268 -1.1707 -1.0990 -1.2548
 8859SOL     OW38035   4.489   1.331   5.615  0.5300 -0.3037 -0.4073
 8859SOL    HW138036   4.540   1.391   5.560 -1.4859 -0.1678 -2.1494
 8859SOL    HW238037   4.529   1.353   5.699 -3.6273 -0.2502  1.5640
 8860SOL     OW38038   1.651   1.720   8.162  0.0911  0.1407 -0.5850
 8860SOL    HW138039   1.573   1.773   8.142  0.4706  0.3970 -1.4094
 8860SOL    HW238040   1.717   1.752   8.100  0.2825 -0.8982 -0.9267
 8861SOL     OW38041   2.412   0.073   4.340 -0.2365 -0.5830 -0.3338
 8861SOL    HW138042   2.356   0.016   4.287  2.8624 -2.7472 -1.2510
 8861SOL    HW238043   2.400   0.019   4.417 -5.2838  1.8369  0.5774
 8862SOL     OW38044   4.435   3.674   5.574  0.1059 -0.3491  0.2079
 8862SOL    HW138045   4.471   3.753   5.532 -3.8676  1.9373  1.1194
 8862SOL    HW238046   4.343   3.690   5.594  0.1141  1.4226 -1.1369
 8863SOL     OW38047   4.710   3.508   2.665 -0.2549 -0.4953 -0.2133
 8863SOL    HW138048   0.004   3.511   2.759 -0.6423  0.9717 -0.1988
 8863SOL    HW238049   0.013   3.594   2.634  0.3673 -0.4200  0.5304
 8864SOL     OW38050   4.400   2.978   7.271 -0.5970 -0.0621 -0.1412
 8864SOL    HW138051   4.388   2.891   7.310  3.5128  0.1225  1.6006
 8864SOL    HW238052   4.495   2.985   7.280 -0.3637 -0.2248 -2.4848
 8865SOL     OW38053   1.300   4.083   2.747 -0.1451  0.8563  0.5140
 8865SOL    HW138054   1.372   4.087   2.810  0.5961  0.2166 -0.2882
 8865SOL    HW238055   1.237   4.128   2.803  0.6887  2.7879 -0.1159
 8866SOL     OW38056   1.035   0.489   7.411  0.3501 -0.1032 -0.2792
 8866SOL    HW138057   0.962   0.450   7.457 -0.0861 -0.3443 -1.1663
 8866SOL    HW238058   1.092   0.415   7.389 -0.9586 -1.0076 -0.6128
 8867SOL     OW38059   1.824   2.437   6.012  0.3525 -0.3611 -0.2595
 8867SOL    HW138060   1.892   2.417   5.947  0.7734 -0.7751  0.3123
 8867SOL    HW238061   1.781   2.352   6.014  1.7124 -1.0413  0.0347
 8868SOL     OW38062   2.632   1.068   8.511 -0.1009 -0.7899  0.2451
 8868SOL    HW138063   2.618   1.050   8.418 -0.7194  0.3789  0.1165
 8868SOL    HW238064   2.575   1.009   8.561 -0.4837 -0.7681 -0.1623
 8869SOL     OW38065   2.693   1.928   8.186  0.6068 -0.2017  0.1502
 8869SOL    HW138066   2.787   1.911   8.193  0.5120 -0.6199  0.4151
 8869SOL    HW238067   2.662   1.839   8.173  0.6362 -0.4405  1.6946
 8870SOL     OW38068   0.988   1.104  14.607  0.1803  0.0020 -0.1824
 8870SOL    HW138069   0.989   1.159  14.684  0.9348  2.2910 -1.8278
 8870SOL    HW238070   1.035   1.028  14.642 -2.0532 -0.7163  1.2283
 8871SOL     OW38071   1.453   0.418   3.114  0.3696 -0.0633 -0.0386
 8871SOL    HW138072   1.428   0.348   3.053 -0.4951  0.5812 -0.4308
 8871SOL    HW238073   1.546   0.435   3.101  0.8635 -1.8299  1.1619
 8872SOL     OW38074   4.201   0.489   7.497 -0.0442  0.3707 -0.5283
 8872SOL    HW138075   4.281   0.530   7.530 -2.3881  3.8042  0.8286
 8872SOL    HW238076   4.183   0.437   7.575  1.3246  3.4449  1.8141
 8873SOL     OW38077   0.259   0.867   6.665  0.4162  0.0126  0.4761
 8873SOL    HW138078   0.204   0.936   6.703  3.9800  2.7075  0.7610
 8873SOL    HW238079   0.322   0.916   6.612  0.1978  0.8030  0.9290
 8874SOL     OW38080   0.048   1.771   2.699 -0.3718 -0.8520  0.2595
 8874SOL    HW138081   0.007   1.827   2.765 -1.6475 -0.5331 -0.8163
 8874SOL    HW238082   0.074   1.692   2.746 -0.7705 -0.4919  1.0769
 8875SOL     OW38083   2.147   1.688   0.560 -0.4359 -0.7654  0.6954
 8875SOL    HW138084   2.190   1.718   0.640  0.0596  1.3938 -0.3965
 8875SOL    HW238085   2.056   1.708   0.583 -0.3217  0.7501 -0.1691
 8876SOL     OW38086   0.727   0.636  13.459  0.0818  0.3151 -0.9153
 8876SOL    HW138087   0.682   0.679  13.386 -1.0989  1.8531  0.6860
 8876SOL    HW238088   0.814   0.634  13.421  0.7766  0.8864  0.6426
 8877SOL     OW38089   0.030   2.604   0.347  0.2434  0.1786 -0.3331
 8877SOL    HW138090   0.052   2.511   0.343 -2.7192 -0.4078 -3.7344
 8877SOL    HW238091   4.668   2.587   0.386  0.5462  0.2239  0.3519
 8878SOL     OW38092   0.518   1.676   8.958 -0.2996  0.0872 -0.0406
 8878SOL    HW138093   0.446   1.619   8.984 -0.6727  0.0269 -1.1970
 8878SOL    HW238094   0.586   1.610   8.946 -0.1462  0.2679 -0.1688
 8879SOL     OW38095   3.024   4.393  12.723  0.0831  0.2649 -0.2435
 8879SOL    HW138096   3.099   4.453  12.717 -0.4271  1.1171  1.9879
 8879SOL    HW238097   3.003   4.378  12.631 -2.2237 -1.0726  0.5160
 8880SOL     OW38098   4.338   4.224  10.449 -0.0242 -0.2176  0.4840
 8880SOL    HW138099   4.303   4.240  10.362  3.5153  0.5947 -0.7916
 8880SOL    HW238100   4.421   4.270  10.465 -0.0686 -0.0530  0.2448
 8881SOL     OW38101   1.379   0.679  15.805 -0.9561  0.2143 -0.2107
 8881SOL    HW138102   1.463   0.699  15.763 -0.7424  0.9833  0.5876
 8881SOL    HW238103   1.314   0.688  15.735  1.3517 -0.4624 -2.4422
 8882SOL     OW38104   1.125   3.027   6.924  0.1079  0.5439 -0.4677
 8882SOL    HW138105   1.081   3.077   6.993  1.8632  1.1772  0.1931
 8882SOL    HW238106   1.180   2.963   6.968  1.7799  1.7552 -0.8021
 8883SOL     OW38107   4.481   3.860   7.915  0.2178 -0.0979  0.0550
 8883SOL    HW138108   4.542   3.809   7.862 -0.4642 -1.3557  0.4776
 8883SOL    HW238109   4.426   3.787   7.944 -1.1555  1.8631  2.4084
 8884SOL     OW38110   1.332   0.381   5.589 -0.1423  0.1990  0.2852
 8884SOL    HW138111   1.312   0.401   5.497  2.1956 -0.0528 -0.2826
 8884SOL    HW238112   1.285   0.448   5.638 -0.9749 -2.0936  2.5978
 8885SOL     OW38113   0.030   2.503   0.806 -0.0438  0.1698 -0.3948
 8885SOL    HW138114   0.064   2.530   0.891  2.1173 -1.8190 -0.6401
 8885SOL    HW238115   0.111   2.478   0.761 -0.6877  0.0285 -1.4794
 8886SOL     OW38116   2.583   2.863  13.271 -0.2555  0.1314 -0.2108
 8886SOL    HW138117   2.579   2.957  13.255  4.2631  0.3691 -0.0017
 8886SOL    HW238118   2.637   2.865  13.349 -1.1803 -2.3806  0.5111
 8887SOL     OW38119   2.103   1.248  16.208  0.6238 -0.3683 -0.1824
 8887SOL    HW138120   2.177   1.267  16.150 -0.2275 -0.1044 -1.1693
 8887SOL    HW238121   2.072   1.170  16.163  1.6098 -0.2891 -0.9985
 8888SOL     OW38122   2.127   1.111  12.399  0.6981 -0.2355  0.1396
 8888SOL    HW138123   2.176   1.096  12.318 -1.9608 -1.0320 -1.3031
 8888SOL    HW238124   2.085   1.026  12.413 -1.7308  0.9452  0.0000
 8889SOL     OW38125   3.582   3.542   2.645  0.2669 -0.5956 -0.1241
 8889SOL    HW138126   3.567   3.628   2.605  1.8086  0.3689  1.3383
 8889SOL    HW238127   3.498   3.519   2.686  0.4888 -0.9328  0.1423
 8890SOL     OW38128   4.661   4.163   6.070  0.2551 -0.3513  0.5370
 8890SOL    HW138129   0.014   4.196   6.117 -0.0494  0.6657  0.3144
 8890SOL    HW238130   4.696   4.080   6.037 -0.9380 -0.1714 -1.1612
 8891SOL     OW38131   4.122   0.096  11.574 -0.3477  0.1165 -0.7639
 8891SOL    HW138132   4.060   0.167  11.557 -0.0556  0.7212  0.7063
 8891SOL    HW238133   4.154   0.083  11.485 -1.1176  1.7245 -1.2736
 8892SOL     OW38134   0.054   2.601   8.684 -0.0099 -0.5166  0.0108
 8892SOL    HW138135   0.022   2.679   8.730 -1.7206  0.4208 -2.7891
 8892SOL    HW238136   0.092   2.555   8.759  1.2727  3.4306  1.7981
 8893SOL     OW38137   4.048   3.609   3.239  0.3197 -0.4662 -0.4187
 8893SOL    HW138138   4.094   3.531   3.208  0.0250 -0.9046  0.2629
 8893SOL    HW238139   4.112   3.676   3.215  1.1626 -0.7975  0.8882
 8894SOL     OW38140   0.761   3.090   3.025 -0.3422  0.2138  0.4700
 8894SOL    HW138141   0.815   3.169   3.024 -0.0839  0.0448  0.9454
 8894SOL    HW238142   0.710   3.098   2.945  1.7698 -1.4761 -1.0400
 8895SOL     OW38143   3.356   0.675   7.066 -0.1171 -0.4144  0.0894
 8895SOL    HW138144   3.351   0.657   6.972  2.7899  0.3919 -0.1960
 8895SOL    HW238145   3.425   0.613   7.088  3.0330  2.3537 -2.0092
 8896SOL     OW38146   0.643   1.843   5.635  0.1004  0.1000 -0.3812
 8896SOL    HW138147   0.689   1.846   5.551  1.8573  1.8741  0.6422
 8896SOL    HW238148   0.701   1.891   5.695 -0.3144 -1.1517  1.0205
 8897SOL     OW38149   1.011   3.537   5.890 -0.1417 -0.1627  0.2019
 8897SOL    HW138150   0.961   3.584   5.957  0.0156  1.8600 -1.1044
 8897SOL    HW238151   1.077   3.493   5.944 -1.1003 -0.1791  1.3735
 8898SOL     OW38152   1.948   0.952   7.974  0.1721 -0.5762  0.2156
 8898SOL    HW138153   1.863   0.968   7.932  1.2929  1.6779 -1.1669
 8898SOL    HW238154   2.006   0.955   7.899  0.5812 -1.2982  0.5100
 8899SOL     OW38155   1.365   2.087   4.280  0.2904  0.5408  0.4329
 8899SOL    HW138156   1.323   2.162   4.238  0.9400 -0.4006 -1.9269
 8899SOL    HW238157   1.450   2.094   4.237 -0.0512  1.3172 -0.1407
 8900SOL     OW38158   4.618   2.991   5.576  0.0685 -0.9501 -0.0236
 8900SOL    HW138159   4.611   2.938   5.496 -1.1626  0.0975 -0.6191
 8900SOL    HW238160   4.683   2.939   5.622  0.1698 -0.1174  0.7886
 8901SOL     OW38161   0.667   4.079   5.464 -0.4453  0.0665 -0.3509
 8901SOL    HW138162   0.685   4.172   5.479  3.3372 -0.6345 -0.6397
 8901SOL    HW238163   0.572   4.093   5.464 -0.4289  0.1793 -0.3638
 8902SOL     OW38164   0.190   2.029   6.784 -0.0709  0.4381 -0.0044
 8902SOL    HW138165   0.157   1.974   6.714 -2.2965  0.1262  1.2884
 8902SOL    HW238166   0.169   1.969   6.856  1.3622 -0.4460 -0.3170
 8903SOL     OW38167   0.434   0.473  12.544 -0.3112 -0.2102 -0.3793
 8903SOL    HW138168   0.361   0.492  12.486  1.4813 -0.1517 -2.6217
 8903SOL    HW238169   0.493   0.546  12.526 -0.2197  0.5422  2.8815
 8904SOL     OW38170   2.499   0.461   7.768 -0.8989 -0.3970 -0.7113
 8904SOL    HW138171   2.518   0.450   7.862 -0.2637  1.2499 -0.6545
 8904SOL    HW238172   2.407   0.435   7.774 -0.6668 -1.4002 -1.4896
 8905SOL     OW38173   2.618   2.608   4.467 -0.0778  0.4397 -0.4508
 8905SOL    HW138174   2.627   2.514   4.479  0.6918  0.7106  1.2145
 8905SOL    HW238175   2.709   2.628   4.447  0.2886 -0.0966  0.6924
 8906SOL     OW38176   0.241   1.453   3.938  0.2553 -0.3985  0.1876
 8906SOL    HW138177   0.203   1.451   4.026 -0.4498  0.8710 -0.0873
 8906SOL    HW238178   0.265   1.544   3.925  0.1494 -0.4195 -0.1422
 8907SOL     OW38179   1.492   0.209   7.018  0.4349  0.1115  0.3664
 8907SOL    HW138180   1.519   0.265   7.091  1.4933 -0.1968  0.2132
 8907SOL    HW238181   1.575   0.183   6.979  0.6686  2.7507 -0.9440
 8908SOL     OW38182   1.676   0.283   8.823  0.6200 -0.2777 -0.6470
 8908SOL    HW138183   1.767   0.256   8.811  0.6285 -0.6799  0.2663
 8908SOL    HW238184   1.662   0.327   8.739 -0.3334 -3.1037 -1.9764
 8909SOL     OW38185   3.924   1.521   5.271  0.2587  0.4594 -0.6391
 8909SOL    HW138186   3.842   1.565   5.294  0.7901  0.9895  0.2261
 8909SOL    HW238187   3.915   1.514   5.176 -0.1836  0.6313 -0.6085
 8910SOL     OW38188   4.108   0.248  13.805 -0.0626 -0.5426 -0.4852
 8910SOL    HW138189   4.187   0.256  13.751  0.2450 -0.4818 -0.0322
 8910SOL    HW238190   4.066   0.334  13.801  0.1421 -0.3833  0.7241
 8911SOL     OW38191   3.050   1.851   0.664 -0.3802  0.4052 -0.3603
 8911SOL    HW138192   3.085   1.860   0.753  0.4786  1.5014 -0.8100
 8911SOL    HW238193   3.002   1.770   0.684 -1.3962  0.8720 -0.9047
 8912SOL     OW38194   4.492   4.051   6.499  0.3566 -0.0824  0.6130
 8912SOL    HW138195   4.398   4.037   6.487  0.2995 -0.4710  1.4817
 8912SOL    HW238196   4.522   3.963   6.477 -2.3574 -0.6128 -1.0636
 8913SOL     OW38197   3.226   1.671  15.220 -0.3248  0.7538 -0.5412
 8913SOL    HW138198   3.228   1.597  15.159 -0.3474  0.9737 -0.8076
 8913SOL    HW238199   3.283   1.731  15.172  0.5155  1.2114  1.0331
 8914SOL     OW38200   3.597   3.067   1.377  0.1028 -0.5681  0.7144
 8914SOL    HW138201   3.669   3.062   1.440 -0.1298 -0.5956  0.9771
 8914SOL    HW238202   3.571   3.159   1.383  1.9733  0.0232 -0.1536
 8915SOL     OW38203   3.689   3.265   7.829  0.3534  0.5015 -0.1373
 8915SOL    HW138204   3.637   3.184   7.836  0.4345  0.4270 -0.3768
 8915SOL    HW238205   3.640   3.325   7.885  0.0501 -0.3675  0.5252
 8916SOL     OW38206   0.498   4.432  14.018  0.5042  0.1378  0.4043
 8916SOL    HW138207   0.450   4.393  13.945 -0.6808 -0.9502  1.7715
 8916SOL    HW238208   0.468   4.522  14.008 -0.3332 -0.2097 -0.2278
 8917SOL     OW38209   2.314   4.661   0.540 -0.7625 -0.0393 -0.3856
 8917SOL    HW138210   2.357   4.634   0.621 -2.1690 -0.9177  0.0755
 8917SOL    HW238211   2.332   4.582   0.488  1.1830 -1.5137  2.5115
 8918SOL     OW38212   3.773   3.298   7.302 -0.4482  0.0134  0.2662
 8918SOL    HW138213   3.859   3.326   7.270 -1.5883  2.2854 -0.8638
 8918SOL    HW238214   3.781   3.308   7.397  1.5288 -2.0417  0.2985
 8919SOL     OW38215   3.305   3.339   5.656  0.0523  0.0850 -0.1575
 8919SOL    HW138216   3.263   3.424   5.668 -1.6811 -0.7959 -0.0667
 8919SOL    HW238217   3.323   3.328   5.750  1.0683 -0.5103 -0.4263
 8920SOL     OW38218   0.770   2.355   3.775 -0.4732 -0.3297  0.7611
 8920SOL    HW138219   0.760   2.421   3.844  2.7053  1.1951 -0.2122
 8920SOL    HW238220   0.841   2.309   3.819 -0.8566 -1.3832  0.2660
 8921SOL     OW38221   2.711   0.961  11.613  0.2501 -0.7767  0.2309
 8921SOL    HW138222   2.648   0.998  11.674 -0.6905  0.9893 -1.7952
 8921SOL    HW238223   2.660   0.893  11.569 -0.0008 -0.4768  0.0599
 8922SOL     OW38224   0.584   0.900   3.561  0.7872  0.4407  0.6443
 8922SOL    HW138225   0.519   0.852   3.509 -1.1968  2.5871  1.1542
 8922SOL    HW238226   0.662   0.870   3.515 -0.9156 -1.8472 -0.7464
 8923SOL     OW38227   1.653   2.126   9.187  0.8035  0.3250  0.0514
 8923SOL    HW138228   1.559   2.113   9.192  0.8536 -0.3345 -0.5941
 8923SOL    HW238229   1.645   2.221   9.186  0.2102  0.2626 -1.9926
 8924SOL     OW38230   0.514   0.639   1.214 -0.3147  0.3505  0.4447
 8924SOL    HW138231   0.519   0.641   1.118  2.8316 -3.4815  0.5670
 8924SOL    HW238232   0.437   0.693   1.234  1.1929  1.8948  2.1907
 8925SOL     OW38233   1.834   3.207   7.444 -0.5231  0.3179 -0.1306
 8925SOL    HW138234   1.873   3.181   7.361  0.9347 -2.1025  1.3306
 8925SOL    HW238235   1.826   3.120   7.483 -0.2887  1.0681  1.5694
 8926SOL     OW38236   3.760   1.631   9.398 -0.3387 -0.9124  0.1900
 8926SOL    HW138237   3.795   1.681   9.472 -3.5084 -0.0276  1.0825
 8926SOL    HW238238   3.668   1.656   9.408 -0.0341  0.1164  0.3673
 8927SOL     OW38239   1.228   1.343   8.606  0.3196 -0.7380  0.1541
 8927SOL    HW138240   1.230   1.251   8.578 -1.4732 -0.6840 -0.1464
 8927SOL    HW238241   1.317   1.370   8.582 -0.0906  0.6427  0.1700
 8928SOL     OW38242   0.456   3.027   9.955  0.6166 -0.3321  0.3098
 8928SOL    HW138243   0.502   3.106   9.927  1.0152 -0.9658 -0.8262
 8928SOL    HW238244   0.367   3.058   9.939 -0.4267 -1.8333  3.2196
 8929SOL     OW38245   1.207   0.425   4.344  0.9169 -0.2402  0.3872
 8929SOL    HW138246   1.244   0.430   4.256 -0.0783 -2.7133 -0.1501
 8929SOL    HW238247   1.276   0.384   4.396  0.5009  1.1546  2.0432
 8930SOL     OW38248   0.958   2.747   8.303 -0.0805 -0.1377  0.1113
 8930SOL    HW138249   1.016   2.822   8.316  1.1930 -1.3419  1.3222
 8930SOL    HW238250   0.973   2.694   8.381 -0.2204 -1.4474 -0.7422
 8931SOL     OW38251   1.904   2.661   0.150  0.0134  0.1627 -0.3603
 8931SOL    HW138252   1.922   2.704   0.234  0.5087  1.3978 -1.1099
 8931SOL    HW238253   1.888   2.574   0.187 -0.0549 -0.1408 -1.0966
 8932SOL     OW38254   1.368   3.859   3.263 -0.3184  0.1316  0.1298
 8932SOL    HW138255   1.346   3.806   3.339 -0.3258 -1.3631 -0.9299
 8932SOL    HW238256   1.298   3.848   3.199 -0.7298 -0.1514  0.6217
 8933SOL     OW38257   0.298   1.850   4.141  0.0775 -0.2936 -0.2543
 8933SOL    HW138258   0.220   1.906   4.143 -0.0081 -0.3738 -1.4654
 8933SOL    HW238259   0.350   1.880   4.216 -1.9390  1.0418  0.6090
 8934SOL     OW38260   1.956   2.115   8.758 -0.5244 -0.1836  0.0453
 8934SOL    HW138261   2.015   2.113   8.834  1.8843  2.9338 -1.7304
 8934SOL    HW238262   1.874   2.136   8.802 -0.0003 -1.4134  1.5980
 8935SOL     OW38263   4.294   0.068   4.557  0.2296 -0.1183 -0.8042
 8935SOL    HW138264   4.345   0.147   4.571  1.6399 -0.3444 -4.6208
 8935SOL    HW238265   4.361   4.723   4.567  0.7125  0.3833 -0.6404
 8936SOL     OW38266   2.229   3.674   0.797  0.3359  0.8757  0.2882
 8936SOL    HW138267   2.313   3.649   0.836 -0.2771 -1.3838  0.1439
 8936SOL    HW238268   2.181   3.696   0.877  0.0653  0.2473  0.2956
 8937SOL     OW38269   2.322   0.074  10.431 -0.0165 -0.4952 -0.4690
 8937SOL    HW138270   2.371   0.007  10.383  0.7765 -0.4272  0.2335
 8937SOL    HW238271   2.231   0.046  10.423 -0.6168  0.8442  1.6230
 8938SOL     OW38272   3.361   2.059   4.598 -0.2785  0.0304  0.0623
 8938SOL    HW138273   3.318   2.141   4.621  0.8036  1.2997 -2.4898
 8938SOL    HW238274   3.348   2.008   4.678 -1.3344  0.9899  0.5016
 8939SOL     OW38275   0.623   1.051  16.563  0.1146 -0.2260  0.2281
 8939SOL    HW138276   0.593   1.087  16.647 -2.0661  1.9961 -1.4989
 8939SOL    HW238277   0.548   1.004  16.528 -1.3695  1.7360  0.7742
 8940SOL     OW38278   3.431   4.564   6.337  0.2021  0.4994 -0.7627
 8940SOL    HW138279   3.373   4.587   6.410  1.6068  1.6590 -0.0130
 8940SOL    HW238280   3.510   4.532   6.380  0.2716  1.0191 -0.4946
 8941SOL     OW38281   3.188   1.156  16.557  0.3940  0.7141  0.2639
 8941SOL    HW138282   3.275   1.155  16.517 -0.1060  1.4705 -0.8368
 8941SOL    HW238283   3.203   1.097  16.632 -0.5582 -0.1008 -0.1784
 8942SOL     OW38284   4.377   0.599   2.539 -0.8019  0.2346  0.3135
 8942SOL    HW138285   4.350   0.690   2.556 -0.6853 -0.0044  1.7543
 8942SOL    HW238286   4.368   0.555   2.623  1.1275  0.5924  0.7132
 8943SOL     OW38287   4.083   0.413   0.914 -0.2316  0.2153  0.3407
 8943SOL    HW138288   3.999   0.453   0.939  0.6696  2.0412  0.4293
 8943SOL    HW238289   4.090   0.329   0.959  2.4923 -0.5049 -1.4828
 8944SOL     OW38290   3.620   1.939   8.030 -0.5639 -0.3129  0.3528
 8944SOL    HW138291   3.671   1.858   8.026  1.7442  1.2907 -2.6945
 8944SOL    HW238292   3.659   2.006   7.974  1.1020 -1.1895  0.4793
 8945SOL     OW38293   3.889   1.260   5.403 -0.4128  0.2093  0.7008
 8945SOL    HW138294   3.804   1.215   5.410 -2.4083  3.9100  0.2768
 8945SOL    HW238295   3.874   1.338   5.350 -0.5726 -0.4470 -0.2154
 8946SOL     OW38296   1.140   1.359  13.900  0.0901  0.1795 -0.2157
 8946SOL    HW138297   1.079   1.429  13.922 -0.0863 -0.0261 -0.0605
 8946SOL    HW238298   1.203   1.403  13.842 -0.2631  1.4162  0.3465
 8947SOL     OW38299   1.990   0.612   4.651  0.1002 -0.1203  0.4228
 8947SOL    HW138300   2.084   0.622   4.635 -0.3036  2.1399 -0.4517
 8947SOL    HW238301   1.962   0.644   4.565 -1.6810 -2.8472 -0.0151
 8948SOL     OW38302   0.252   4.210   7.461 -0.3449  0.6404  0.3025
 8948SOL    HW138303   0.236   4.288   7.408  2.5134  1.5834  0.8312
 8948SOL    HW238304   0.344   4.224   7.485 -1.0718  3.1497  1.6534
 8949SOL     OW38305   2.718   2.808  12.477 -0.4564  0.3801 -0.3565
 8949SOL    HW138306   2.688   2.810  12.568  0.8864 -0.2084  0.1012
 8949SOL    HW238307   2.767   2.727  12.488  2.3294  1.5618 -4.0476
 8950SOL     OW38308   1.081   0.494   0.273  0.0109  0.3035  0.7529
 8950SOL    HW138309   1.129   0.545   0.207 -1.1152  0.8558  0.3691
 8950SOL    HW238310   1.079   0.558   0.343 -1.9149 -0.6025  1.5168
 8951SOL     OW38311   4.691   2.843   6.785  0.2691 -0.4503 -0.0957
 8951SOL    HW138312   4.654   2.755   6.770 -2.6671  0.6946  0.3307
 8951SOL    HW238313   4.644   2.886   6.714 -0.9677  2.3708  2.4542
 8952SOL     OW38314   4.296   4.639  15.758 -0.1975 -0.6254  0.5659
 8952SOL    HW138315   4.284   4.701  15.829  0.3988  2.3357 -1.9228
 8952SOL    HW238316   4.326   4.560  15.803 -2.2222 -1.8906 -0.2872
 8953SOL     OW38317   4.398   1.926   2.545 -0.2793  0.7433 -0.5154
 8953SOL    HW138318   4.462   1.871   2.501  0.7295 -0.0683  1.9616
 8953SOL    HW238319   4.392   1.882   2.629  1.0947 -1.5963 -1.6754
 8954SOL     OW38320   0.933   2.473   3.174  0.5605 -0.1540 -0.2305
 8954SOL    HW138321   0.907   2.465   3.266  1.0347  0.2413 -0.0646
 8954SOL    HW238322   0.953   2.567   3.170  0.0035  0.0610  2.0294
 8955SOL     OW38323   0.164   1.660   5.185 -0.2339  0.3188  0.2514
 8955SOL    HW138324   0.136   1.622   5.268 -1.8982 -0.7686 -0.7995
 8955SOL    HW238325   0.151   1.751   5.211 -0.8149 -0.0416  1.2319
 8956SOL     OW38326   3.365   1.021   6.012 -0.5024 -0.1436 -0.0283
 8956SOL    HW138327   3.423   0.958   5.968  1.6593  0.6911  1.6513
 8956SOL    HW238328   3.405   1.106   5.995  1.7821 -1.4339 -1.2569
 8957SOL     OW38329   0.127   0.832   2.723  0.4975  0.2657 -0.8582
 8957SOL    HW138330   0.167   0.793   2.646  1.2184  0.3197 -0.5061
 8957SOL    HW238331   0.175   0.774   2.781 -1.8357  0.7043  1.5106
 8958SOL     OW38332   2.995   2.038   5.893  0.5421 -0.2838 -0.3587
 8958SOL    HW138333   3.010   2.109   5.831 -0.8097  0.4656  0.1655
 8958SOL    HW238334   3.088   2.029   5.913  0.4724 -0.9801 -0.3339
 8959SOL     OW38335   4.640   1.727  13.394 -0.1336 -0.1982 -0.0554
 8959SOL    HW138336   4.656   1.657  13.330 -0.4469 -1.1347  0.8813
 8959SOL    HW238337   4.630   1.808  13.345  0.7013  0.7253  1.2739
 8960SOL     OW38338   3.898   2.393   7.858  0.3349 -0.2251 -0.4702
 8960SOL    HW138339   3.841   2.471   7.855 -0.2115 -0.6200 -0.4088
 8960SOL    HW238340   3.927   2.395   7.949 -1.6884  0.1382  0.1803
 8961SOL     OW38341   2.705   4.693   3.176 -0.1275  0.0500 -0.6821
 8961SOL    HW138342   2.631   4.712   3.234 -0.1694 -0.9258 -0.4253
 8961SOL    HW238343   2.671   4.613   3.136 -0.5091  1.0975 -2.4891
 8962SOL     OW38344   0.916   1.011   9.012 -0.4342 -0.0025 -0.1959
 8962SOL    HW138345   0.855   0.938   9.004 -0.1220 -0.4201  1.2322
 8962SOL    HW238346   0.856   1.065   9.064 -0.5050 -0.7941  0.5308
 8963SOL     OW38347   3.690   2.811   6.312 -0.0745  1.2253  0.1759
 8963SOL    HW138348   3.774   2.824   6.268 -1.1415  1.5281 -1.7299
 8963SOL    HW238349   3.725   2.816   6.402 -1.0561 -2.7070  0.7797
 8964SOL     OW38350   4.632   1.430   3.906  0.3908 -0.3006  0.2303
 8964SOL    HW138351   4.723   1.400   3.912  0.3862 -0.7480 -1.8053
 8964SOL    HW238352   4.642   1.520   3.874  0.6108 -0.2658  0.3981
 8965SOL     OW38353   0.869   1.729   1.587 -0.7147  0.1195 -0.2574
 8965SOL    HW138354   0.956   1.770   1.590  0.1595 -1.7955  0.2176
 8965SOL    HW238355   0.818   1.776   1.654 -1.4050 -0.0270 -0.6850
 8966SOL     OW38356   2.664   3.139   4.958 -0.0127 -0.2942  0.5098
 8966SOL    HW138357   2.623   3.132   5.044 -3.1112 -2.2662 -1.1032
 8966SOL    HW238358   2.691   3.231   4.952 -0.5272 -0.2005 -0.5247
 8967SOL     OW38359   0.436   2.018   3.955 -0.4450  0.3014  0.2382
 8967SOL    HW138360   0.518   2.052   3.991  0.1179 -1.2083  0.3967
 8967SOL    HW238361   0.398   1.972   4.030  1.6193  0.9855  1.6820
 8968SOL     OW38362   0.850   0.988  10.513 -0.1608  0.5347  0.0254
 8968SOL    HW138363   0.877   1.047  10.584 -1.2467  1.2225 -0.1372
 8968SOL    HW238364   0.923   0.927  10.501  0.0341  0.7629  0.0468
 8969SOL     OW38365   3.785   0.975   2.860  0.1199 -0.3667 -0.2776
 8969SOL    HW138366   3.728   1.008   2.790 -0.2818  0.5597  0.4802
 8969SOL    HW238367   3.865   0.944   2.818  0.7478 -1.5887  1.8520
 8970SOL     OW38368   0.079   0.719   9.429 -0.3565  0.1748 -0.3464
 8970SOL    HW138369   0.164   0.710   9.473  0.2899  1.3729 -1.3156
 8970SOL    HW238370   0.028   0.754   9.501  2.6846 -0.6794  2.2205
 8971SOL     OW38371   0.336   4.100   5.935  0.0133  0.2596  0.4637
 8971SOL    HW138372   0.299   4.189   5.933  2.5166  1.3305  1.1266
 8971SOL    HW238373   0.267   4.047   5.976  1.0672 -0.8141  0.8391
 8972SOL     OW38374   2.728   3.624   2.462  0.4262  0.8222  0.0613
 8972SOL    HW138375   2.678   3.702   2.438  1.2215  1.6209  0.9777
 8972SOL    HW238376   2.664   3.566   2.503  0.5342 -0.8214 -2.0448
 8973SOL     OW38377   4.328   1.057  17.213  0.1482  0.2423  0.1226
 8973SOL    HW138378   4.420   1.060  17.186 -0.5655 -1.9388 -2.5691
 8973SOL    HW238379   4.317   1.145  17.250  1.2785  0.6513 -0.5131
 8974SOL     OW38380   2.493   2.610   2.774 -0.0454  0.2093  0.2387
 8974SOL    HW138381   2.404   2.645   2.773  0.4819  1.5606  1.0331
 8974SOL    HW238382   2.486   2.539   2.709 -2.0323  0.4881  0.1576
 8975SOL     OW38383   3.592   2.723   6.693 -0.2764 -0.0588 -0.3505
 8975SOL    HW138384   3.628   2.644   6.733 -1.2837 -0.3320  0.0167
 8975SOL    HW238385   3.619   2.791   6.754 -1.6797 -0.4857  0.7356
 8976SOL     OW38386   0.439   0.346   3.491  0.0442 -1.0438 -0.0692
 8976SOL    HW138387   0.357   0.394   3.477  0.1472 -0.7209  0.4393
 8976SOL    HW238388   0.511   0.408   3.493 -0.4397 -0.5178  0.9902
 8977SOL     OW38389   4.445   3.928   0.051 -0.0882  0.0338 -0.2343
 8977SOL    HW138390   4.370   3.876   0.021 -1.8321  1.7200  1.1357
 8977SOL    HW238391   4.405   3.976   0.123  1.7339  2.0373 -0.5696
 8978SOL     OW38392   3.788   1.903   5.369 -0.3129  0.7174  0.3903
 8978SOL    HW138393   3.808   1.924   5.460  1.6652  1.5236 -0.2214
 8978SOL    HW238394   3.827   1.979   5.326  2.2160 -0.4435  0.6362
 8979SOL     OW38395   4.169   2.726   0.227  0.3981 -0.0328 -0.0023
 8979SOL    HW138396   4.255   2.726   0.185  1.3289  2.8488  1.8439
 8979SOL    HW238397   4.179   2.708   0.320 -0.7722  3.5022  0.8099
 8980SOL     OW38398   1.428   1.607   4.864 -0.7043 -0.1916  0.0230
 8980SOL    HW138399   1.414   1.536   4.927 -0.1024 -1.7475 -1.5798
 8980SOL    HW238400   1.449   1.684   4.916  2.4810  0.1247 -1.7437
 8981SOL     OW38401   1.529   1.834   9.137  0.3924 -0.2214 -0.5493
 8981SOL    HW138402   1.582   1.777   9.193  0.4117  0.1008 -0.2357
 8981SOL    HW238403   1.569   1.919   9.152 -1.7193  0.8234 -0.7981
 8982SOL     OW38404   2.135   3.397   6.783  0.8227 -0.1779  0.0249
 8982SOL    HW138405   2.077   3.373   6.711 -0.2331 -0.6985  1.0453
 8982SOL    HW238406   2.117   3.332   6.850 -0.4644  1.3353  1.1553
 8983SOL     OW38407   0.395   2.516   8.987 -0.5534  0.1456 -0.0724
 8983SOL    HW138408   0.367   2.595   9.033  0.3771 -0.0414  0.8240
 8983SOL    HW238409   0.324   2.506   8.924 -0.7236  3.8586 -0.4273
 8984SOL     OW38410   2.561   4.376  15.169  0.0721 -0.6944  0.1110
 8984SOL    HW138411   2.555   4.317  15.244 -0.0016  0.4787  1.0271
 8984SOL    HW238412   2.576   4.311  15.100 -2.3699 -0.6471 -0.4682
 8985SOL     OW38413   2.006   2.027   5.812 -0.5099 -0.3795  0.0279
 8985SOL    HW138414   2.085   1.983   5.782  0.8735  1.6045  0.6991
 8985SOL    HW238415   2.027   2.017   5.905  2.0957  1.2965 -0.3887
 8986SOL     OW38416   0.450   0.618   9.051  0.0716  0.2196 -0.0458
 8986SOL    HW138417   0.381   0.554   9.035 -1.1065  0.8212  2.5542
 8986SOL    HW238418   0.517   0.567   9.099 -0.8861 -0.8589  0.1576
 8987SOL     OW38419   4.709   1.038  12.289 -0.3293  0.0566  0.1092
 8987SOL    HW138420   4.695   1.009  12.379 -1.6269 -0.1313 -0.1639
 8987SOL    HW238421   4.643   1.106  12.276 -1.6449 -1.1274  0.6893
 8988SOL     OW38422   0.707   1.918   0.984  0.0003  1.1097 -0.0835
 8988SOL    HW138423   0.613   1.901   0.992  0.1778  0.0947 -0.0760
 8988SOL    HW238424   0.717   1.946   0.893 -1.8932 -0.5429 -0.8044
 8989SOL     OW38425   4.499   0.319   8.592 -0.4840 -0.2123 -0.6185
 8989SOL    HW138426   4.479   0.267   8.515  1.5956  2.9732 -3.3334
 8989SOL    HW238427   4.436   0.303   8.662 -0.3582 -0.2059 -0.5037
 8990SOL     OW38428   2.159   1.868   1.639  0.0133  0.0769  0.5726
 8990SOL    HW138429   2.141   1.945   1.585  2.5866  0.6782  0.6109
 8990SOL    HW238430   2.213   1.909   1.706 -0.6246 -1.5229  2.0481
 8991SOL     OW38431   0.496   4.384   4.689  0.1874 -0.6646 -0.1874
 8991SOL    HW138432   0.417   4.340   4.722 -0.0218  0.5820  0.9852
 8991SOL    HW238433   0.497   4.456   4.753  1.5897 -0.0526 -0.9151
 8992SOL     OW38434   1.300   4.179  17.038  0.0888  0.1347 -0.1632
 8992SOL    HW138435   1.278   4.270  17.057 -0.7167  0.0743 -0.7704
 8992SOL    HW238436   1.395   4.180  17.042  0.1792 -0.4686 -2.0970
 8993SOL     OW38437   3.539   2.557   6.280 -0.8564 -0.5155  0.7884
 8993SOL    HW138438   3.571   2.644   6.306  0.3354 -0.0181 -2.3885
 8993SOL    HW238439   3.520   2.564   6.187 -0.9150 -0.5426  0.7987
 8994SOL     OW38440   3.726   3.899   5.404  0.1784  0.1755  0.3463
 8994SOL    HW138441   3.796   3.842   5.372  0.1757 -0.0907  0.8206
 8994SOL    HW238442   3.694   3.861   5.486  2.2134  1.0499  1.5410
 8995SOL     OW38443   1.145   1.515   0.420 -0.1278 -0.2155 -0.0654
 8995SOL    HW138444   1.192   1.534   0.339 -2.1418  0.1829 -1.1643
 8995SOL    HW238445   1.185   1.432   0.445  2.7352  0.7600 -1.5267
 8996SOL     OW38446   2.139   3.312   7.112  0.3728  0.4351  0.0619
 8996SOL    HW138447   2.055   3.359   7.111  0.2289  0.1376 -1.7916
 8996SOL    HW238448   2.196   3.369   7.162  0.4759  1.4309 -1.1841
 8997SOL     OW38449   0.442   3.546  14.866 -0.1959 -0.0041  0.2330
 8997SOL    HW138450   0.498   3.494  14.809 -0.3628 -0.1934  0.2423
 8997SOL    HW238451   0.439   3.631  14.823 -0.0156 -0.3668 -0.4924
 8998SOL     OW38452   0.558   1.629   1.315  0.5859 -0.2347  0.4100
 8998SOL    HW138453   0.608   1.707   1.342  0.6172 -0.4643  1.0220
 8998SOL    HW238454   0.485   1.639   1.376 -0.6017 -1.1146 -0.8715
 8999SOL     OW38455   3.749   3.941   3.789 -0.4248 -0.4309  0.2978
 8999SOL    HW138456   3.744   3.855   3.746  1.5462 -0.8716  0.9633
 8999SOL    HW238457   3.704   3.935   3.873  0.9638 -0.8095  0.9967
 9000SOL     OW38458   0.089   1.338  15.069  0.2099  0.0573  0.3301
 9000SOL    HW138459   0.170   1.368  15.029 -0.7431  0.6477 -1.1603
 9000SOL    HW238460   0.114   1.252  15.103  1.5809 -0.1639 -1.2748
 9001SOL     OW38461   2.055   2.526   3.425 -0.0252 -0.1254  0.0137
 9001SOL    HW138462   2.111   2.590   3.381  0.9671 -1.9380 -1.3550
 9001SOL    HW238463   2.018   2.484   3.347 -0.7772  0.0919  0.2588
 9002SOL     OW38464   0.583   0.299   6.751 -0.6110  0.1237 -0.0846
 9002SOL    HW138465   0.551   0.345   6.674 -2.1086 -0.0765  0.4136
 9002SOL    HW238466   0.503   0.262   6.788 -0.8648  1.6297  0.8406
 9003SOL     OW38467   1.131   0.871  12.992  0.1148  0.5213  0.1486
 9003SOL    HW138468   1.195   0.938  13.015  0.2514  1.5829 -3.2871
 9003SOL    HW238469   1.081   0.920  12.926  0.7731 -0.2092 -0.8839
 9004SOL     OW38470   4.024   2.619   7.377  0.0886  0.0349 -0.0271
 9004SOL    HW138471   4.117   2.596   7.371  0.4005  1.3603 -0.2054
 9004SOL    HW238472   4.021   2.609   7.472 -2.6249 -1.5039 -0.2649
 9005SOL     OW38473   2.733   3.600   0.407  0.4217  0.1722  0.0093
 9005SOL    HW138474   2.780   3.517   0.403  0.0440 -0.0858  0.9124
 9005SOL    HW238475   2.808   3.659   0.397  0.0105  0.6967  0.0302
 9006SOL     OW38476   0.096   1.294   0.182  0.2650 -0.5150  0.4792
 9006SOL    HW138477   0.181   1.291   0.226  0.1960  0.6877  0.6914
 9006SOL    HW238478   0.094   1.204   0.149 -0.8907  0.4777 -2.1972
 9007SOL     OW38479   0.877   0.105   8.603  0.1912 -0.2360  0.0476
 9007SOL    HW138480   0.884   0.200   8.596  0.5319 -0.3099 -0.6258
 9007SOL    HW238481   0.795   0.082   8.559  0.4424 -1.5416  0.2603
 9008SOL     OW38482   0.357   0.279   4.379  0.0244 -0.5368  0.5127
 9008SOL    HW138483   0.397   0.192   4.370 -1.6027 -1.2192 -0.1384
 9008SOL    HW238484   0.416   0.339   4.333 -0.9073  1.4710  1.9573
 9009SOL     OW38485   3.555   4.596   5.712 -0.4589  0.0741  0.2452
 9009SOL    HW138486   3.586   4.659   5.647  1.9478  0.4342  1.7176
 9009SOL    HW238487   3.464   4.585   5.686 -0.3163 -1.6740  0.4370
 9010SOL     OW38488   4.499   4.655   8.571  0.0059  0.3939  0.6514
 9010SOL    HW138489   4.428   4.654   8.634 -0.5662 -0.2808 -0.0097
 9010SOL    HW238490   4.567   4.600   8.611 -0.0525 -0.4306 -0.3937
 9011SOL     OW38491   1.724   0.971   7.252  0.2599 -0.1273  0.8104
 9011SOL    HW138492   1.691   1.021   7.326 -2.0027 -0.5540  0.0756
 9011SOL    HW238493   1.818   0.982   7.269  0.2305 -0.5905  1.2986
 9012SOL     OW38494   2.046   2.521  11.640  0.3963  0.2110  0.0806
 9012SOL    HW138495   2.009   2.571  11.712  0.6628  0.7382 -0.1449
 9012SOL    HW238496   1.976   2.539  11.577 -1.0473 -0.8501  1.3707
 9013SOL     OW38497   1.901   2.118   2.723 -0.1612  0.5435  0.8387
 9013SOL    HW138498   1.894   2.048   2.788  1.0004 -0.3354  0.0151
 9013SOL    HW238499   1.981   2.094   2.676 -0.2166  1.9807  0.0112
 9014SOL     OW38500   3.888   0.271  14.427 -0.0517  0.3519  0.1181
 9014SOL    HW138501   3.952   0.203  14.448  0.4168  0.0655 -2.3009
 9014SOL    HW238502   3.931   0.293  14.345 -1.8252 -0.6516 -1.0720
 9015SOL     OW38503   0.019   4.647   9.368  0.0775 -0.2772 -0.2922
 9015SOL    HW138504   0.065   4.641   9.452 -0.9766 -1.1083  0.2286
 9015SOL    HW238505   0.046   0.005   9.326  2.3782  0.3294  2.3159
 9016SOL     OW38506   1.575   1.804  12.423  0.1501  0.1662 -0.0011
 9016SOL    HW138507   1.527   1.887  12.419  0.5085  0.3694 -0.1605
 9016SOL    HW238508   1.659   1.835  12.390  0.6328 -0.0676  1.0128
 9017SOL     OW38509   0.768   1.278  15.473  0.1471  0.1338 -0.1223
 9017SOL    HW138510   0.726   1.279  15.387  1.3071 -1.9431 -0.7261
 9017SOL    HW238511   0.810   1.363  15.482  0.6853 -0.3938  2.2601
 9018SOL     OW38512   1.972   3.724   4.640  0.1578 -0.2928 -1.0893
 9018SOL    HW138513   1.982   3.695   4.730 -3.1614 -2.1421 -1.3228
 9018SOL    HW238514   2.047   3.676   4.607  0.7061 -0.1277 -0.0739
 9019SOL     OW38515   1.025   2.626   5.174 -0.9805  0.3724 -0.2358
 9019SOL    HW138516   1.018   2.623   5.269  1.8724 -3.8254 -0.2116
 9019SOL    HW238517   1.023   2.533   5.152  1.3411 -0.0421  1.3755
 9020SOL     OW38518   1.011   0.741   6.831  0.1349  0.2448  0.3931
 9020SOL    HW138519   0.970   0.661   6.864 -0.6909  0.6647  0.4017
 9020SOL    HW238520   1.101   0.742   6.861  0.4437 -1.8272 -0.4260
 9021SOL     OW38521   4.131   4.451   2.679 -0.0615 -0.0382  0.8519
 9021SOL    HW138522   4.076   4.499   2.741 -0.8123 -0.2038  0.3237
 9021SOL    HW238523   4.174   4.519   2.628 -0.3609 -0.5697 -0.1277
 9022SOL     OW38524   2.013   4.352   4.713 -0.8113  0.8901 -0.4280
 9022SOL    HW138525   1.989   4.445   4.710  0.7909  1.3399  0.2712
 9022SOL    HW238526   2.104   4.358   4.743 -0.1970  1.0225 -2.2538
 9023SOL     OW38527   1.791   4.502   6.479  0.1264 -0.0302  0.1503
 9023SOL    HW138528   1.738   4.567   6.432  2.2833  1.3951 -0.3463
 9023SOL    HW238529   1.721   4.464   6.532  1.1702 -1.0870  0.7564
 9024SOL     OW38530   2.390   4.105   7.750  0.0026 -0.2854 -0.2230
 9024SOL    HW138531   2.409   4.077   7.840  2.8588  3.3730  0.2904
 9024SOL    HW238532   2.460   4.168   7.738 -0.9357  0.7155 -0.4470
 9025SOL     OW38533   4.087   2.972   7.808 -0.2974  0.1834  0.3384
 9025SOL    HW138534   4.016   2.950   7.868 -0.3768  0.1291  0.2238
 9025SOL    HW238535   4.158   2.998   7.866 -1.0987 -2.1331  2.3902
 9026SOL     OW38536   4.200   3.661  11.148  0.5417  0.3432 -0.2861
 9026SOL    HW138537   4.171   3.747  11.121  0.1804  0.2255 -0.2710
 9026SOL    HW238538   4.216   3.627  11.060 -1.1503 -0.7043 -0.1861
 9027SOL     OW38539   4.362   0.317   5.552  0.5457  0.1363  0.5969
 9027SOL    HW138540   4.448   0.307   5.510 -0.1495 -0.9982 -0.5463
 9027SOL    HW238541   4.338   0.224   5.548 -0.1285  0.2760  1.3863
 9028SOL     OW38542   0.163   0.642   2.253 -0.3398  0.1361 -0.5148
 9028SOL    HW138543   0.200   0.553   2.256  2.1615  1.2017 -0.2670
 9028SOL    HW238544   0.150   0.648   2.158 -0.2686  0.1838 -0.5216
 9029SOL     OW38545   0.903   1.761   7.301 -0.2913  0.4755  0.1989
 9029SOL    HW138546   0.915   1.744   7.208 -0.6712 -1.4802  0.5148
 9029SOL    HW238547   0.865   1.681   7.338  0.9474  0.1587  0.8150
 9030SOL     OW38548   0.527   3.577   0.151 -0.6553  1.0681 -0.0773
 9030SOL    HW138549   0.602   3.556   0.206  0.4926  1.0852 -1.6163
 9030SOL    HW238550   0.472   3.626   0.213 -3.6344 -0.2997 -1.5986
 9031SOL     OW38551   0.163   2.743   7.974  0.2360 -0.0955  0.7490
 9031SOL    HW138552   0.114   2.675   8.020 -0.7975  0.4368  0.4461
 9031SOL    HW238553   0.246   2.739   8.022  0.5302 -0.0900  0.2377
 9032SOL     OW38554   1.403   1.929   6.987 -0.4316  0.5470  0.1731
 9032SOL    HW138555   1.495   1.949   7.005  0.2073 -0.3442 -2.1028
 9032SOL    HW238556   1.360   1.946   7.070  1.0855 -1.0960  1.3059
 9033SOL     OW38557   0.730   0.350   6.140 -0.5633  0.6462  0.0464
 9033SOL    HW138558   0.687   0.420   6.189 -0.4887  0.6295  0.1369
 9033SOL    HW238559   0.676   0.342   6.062  1.2593  0.2508 -1.1600
 9034SOL     OW38560   1.276   4.671  10.844 -0.1197 -0.3742 -0.1297
 9034SOL    HW138561   1.210   4.719  10.894  3.9877  0.0657  4.9278
 9034SOL    HW238562   1.262   4.695  10.753 -0.3952  2.4935  0.6771
 9035SOL     OW38563   0.873   2.091  16.458  0.5899  0.1051  0.5118
 9035SOL    HW138564   0.955   2.052  16.490 -0.2029 -2.1198 -0.1509
 9035SOL    HW238565   0.854   2.026  16.391  0.2085  0.3359  0.3976
 9036SOL     OW38566   0.664   2.392  15.050  0.3884  0.0229 -0.3144
 9036SOL    HW138567   0.723   2.359  15.118  0.4323 -0.0955 -0.4093
 9036SOL    HW238568   0.594   2.327  15.058  0.5216  0.1015  1.3501
 9037SOL     OW38569   2.856   0.000  11.332  0.1212  0.2956 -0.0322
 9037SOL    HW138570   2.944   4.699  11.305 -1.4824 -3.1148 -2.0838
 9037SOL    HW238571   2.857   0.086  11.290 -0.3256 -0.1669 -0.9911
 9038SOL     OW38572   0.525   3.358   3.133 -0.7171 -0.1629  0.0559
 9038SOL    HW138573   0.572   3.402   3.062 -0.3280  1.1365  1.1393
 9038SOL    HW238574   0.541   3.264   3.125 -2.1471 -0.3211 -0.8329
 9039SOL     OW38575   4.481   0.193   8.367 -0.0265  0.5713  0.8718
 9039SOL    HW138576   4.499   0.119   8.309 -1.2139  1.9524 -1.2529
 9039SOL    HW238577   4.568   0.233   8.363 -0.0073  0.6041  1.6353
 9040SOL     OW38578   3.127   1.762   7.002  0.3697  0.2461  0.2233
 9040SOL    HW138579   3.182   1.711   6.942  3.4875  2.6151  1.0386
 9040SOL    HW238580   3.072   1.815   6.944  0.9499  1.8138  1.1011
 9041SOL     OW38581   3.472   3.351  13.113 -0.1731  0.4048  0.1018
 9041SOL    HW138582   3.468   3.395  13.028 -0.2314  2.3877  1.1303
 9041SOL    HW238583   3.377   3.341  13.123 -0.7889  3.6049 -2.6019
 9042SOL     OW38584   4.637   1.853   0.483  0.1196  0.1946  0.2780
 9042SOL    HW138585   4.623   1.775   0.537  2.3666 -0.9861 -0.8358
 9042SOL    HW238586   4.707   1.823   0.425 -0.6434  0.7732 -0.9368
 9043SOL     OW38587   4.046   1.174   9.938  0.4778 -0.0400  0.0786
 9043SOL    HW138588   4.110   1.139   9.876  1.6183  1.6117  0.3225
 9043SOL    HW238589   4.023   1.246   9.878  0.6123  0.4135  0.5751
 9044SOL     OW38590   3.220   1.212   7.961 -0.1324  0.4673 -0.1786
 9044SOL    HW138591   3.204   1.169   7.877 -3.4770  2.3761 -0.5225
 9044SOL    HW238592   3.258   1.299   7.952  1.2004 -0.0783  0.0905
 9045SOL     OW38593   3.819   1.269   2.969 -0.5332 -0.8755 -0.3613
 9045SOL    HW138594   3.807   1.266   2.874 -2.6660 -3.0580 -0.0349
 9045SOL    HW238595   3.777   1.188   2.998  0.6304 -1.0485  0.7964
 9046SOL     OW38596   2.357   0.119   8.114  0.2495  0.0647  0.1411
 9046SOL    HW138597   2.292   0.086   8.053  1.3719  1.3025 -1.7503
 9046SOL    HW238598   2.433   0.097   8.060 -0.4106 -1.1189 -0.3017
 9047SOL     OW38599   0.163   2.088  10.901  0.3507  0.0939 -0.0832
 9047SOL    HW138600   0.157   2.181  10.880 -0.6163  0.0642  0.0542
 9047SOL    HW238601   0.255   2.078  10.923 -0.0073  0.7563  1.6945
 9048SOL     OW38602   1.509   4.099   3.257 -0.1414  0.1016 -0.3491
 9048SOL    HW138603   1.459   4.022   3.285  2.7537 -2.0077 -0.9107
 9048SOL    HW238604   1.447   4.171   3.262  0.2746  0.3624  0.8386
 9049SOL     OW38605   4.197   1.565  17.565  0.0822 -0.1138  0.6316
 9049SOL    HW138606   4.108   1.591  17.543  1.3221  1.4499 -2.5003
 9049SOL    HW238607   4.242   1.650  17.558  0.3326 -0.2795  0.2017
 9050SOL     OW38608   2.580   1.702  15.980 -0.3192  0.2178  0.2712
 9050SOL    HW138609   2.487   1.703  15.956 -0.4852 -3.4128  0.7814
 9050SOL    HW238610   2.613   1.716  15.891 -1.7923 -0.6131 -0.4139
 9051SOL     OW38611   3.725   0.423   6.556 -0.1163  0.3600 -0.6489
 9051SOL    HW138612   3.740   0.516   6.576  1.4127 -0.0303 -0.0172
 9051SOL    HW238613   3.630   0.418   6.545 -0.1444 -0.6373  0.0742
 9052SOL     OW38614   2.126   1.718   2.926  0.4083  0.1003 -0.3615
 9052SOL    HW138615   2.069   1.647   2.956  3.1273 -2.1281 -0.5198
 9052SOL    HW238616   2.101   1.721   2.834  0.1770  0.0149 -0.3019
 9053SOL     OW38617   3.662   0.809  12.152 -0.0450 -0.3391 -0.1044
 9053SOL    HW138618   3.638   0.885  12.205 -0.4740 -1.2045  0.9278
 9053SOL    HW238619   3.748   0.794  12.192  0.4356 -1.4573 -1.5826
 9054SOL     OW38620   0.454   1.650   0.788 -0.1790 -0.6663  0.1433
 9054SOL    HW138621   0.464   1.744   0.772 -1.3173 -0.7576 -1.0741
 9054SOL    HW238622   0.385   1.666   0.853  0.0249 -0.4269  0.2997
 9055SOL     OW38623   3.142   1.624  16.140 -0.5378 -0.2798  0.1713
 9055SOL    HW138624   3.085   1.697  16.163 -1.3798 -0.7871 -0.3174
 9055SOL    HW238625   3.189   1.663  16.066  0.2169  0.7786  1.2143
 9056SOL     OW38626   2.691   0.524  11.459 -0.0535  0.0821  0.5193
 9056SOL    HW138627   2.782   0.544  11.437  0.4653 -1.3862  1.3354
 9056SOL    HW238628   2.707   0.439  11.498  0.8051  0.6066  1.2917
 9057SOL     OW38629   2.153   4.150  13.530  0.0485  0.0828  0.7579
 9057SOL    HW138630   2.104   4.178  13.607 -0.2889 -1.6110  1.1735
 9057SOL    HW238631   2.218   4.219  13.524 -0.0779  0.2319  1.1270
 9058SOL     OW38632   2.243   3.147   7.353  0.5741  0.6112  0.4199
 9058SOL    HW138633   2.283   3.221   7.398 -2.6871  2.1140  0.8540
 9058SOL    HW238634   2.180   3.179   7.288  0.8885  0.5321  0.0738
 9059SOL     OW38635   3.257   3.433   8.035  0.0264  0.0224  0.5060
 9059SOL    HW138636   3.348   3.425   8.062 -0.0785  0.5873  1.0546
 9059SOL    HW238637   3.268   3.462   7.945  2.0679  1.4666  1.2101
 9060SOL     OW38638   4.076   0.152   3.138 -0.2071  0.3742  0.1889
 9060SOL    HW138639   4.116   0.234   3.107 -0.0642 -0.2738 -1.3074
 9060SOL    HW238640   4.005   0.192   3.188 -1.0137 -2.2944  1.1359
 9061SOL     OW38641   0.389   3.149   8.848  0.1631 -0.2883 -0.5052
 9061SOL    HW138642   0.310   3.095   8.857  0.0355 -0.1863 -1.0510
 9061SOL    HW238643   0.455   3.085   8.875 -0.5142 -0.5802  0.4606
 9062SOL     OW38644   3.053   1.037   6.048  0.6903  0.2313  0.3619
 9062SOL    HW138645   3.035   1.106   5.985 -0.9002 -2.0842 -1.7218
 9062SOL    HW238646   3.148   1.026   6.043  0.8124  2.3688 -1.7560
 9063SOL     OW38647   3.825   3.357   6.351  0.4527 -0.4749 -0.4417
 9063SOL    HW138648   3.761   3.287   6.365 -0.1772  0.2370  0.2339
 9063SOL    HW238649   3.790   3.396   6.271  0.4147 -1.2363 -0.7881
 9064SOL     OW38650   2.689   1.297   4.610  0.4443  0.2107 -0.0306
 9064SOL    HW138651   2.596   1.314   4.606  0.4320  0.8623  3.3951
 9064SOL    HW238652   2.716   1.311   4.519 -2.4111  0.1803 -0.8602
 9065SOL     OW38653   0.085   1.370   6.580 -0.7843 -0.1795 -0.0798
 9065SOL    HW138654   0.057   1.279   6.589 -2.4915  0.3893  0.4125
 9065SOL    HW238655   0.040   1.416   6.652 -0.1873  1.9776 -1.0903
 9066SOL     OW38656   3.696   2.115  10.255 -0.8059  0.0718  0.1424
 9066SOL    HW138657   3.695   2.106  10.159 -2.5196 -1.4259  0.2941
 9066SOL    HW238658   3.705   2.210  10.255  1.0546 -0.1014 -3.3806
 9067SOL     OW38659   1.455   4.357  10.475  0.3318  0.5380 -0.1402
 9067SOL    HW138660   1.425   4.388  10.560 -0.2762  2.2154 -0.9707
 9067SOL    HW238661   1.371   4.330  10.436  0.0255 -0.1031  0.9818
 9068SOL     OW38662   3.413   1.642   3.397  0.2273 -0.3383 -0.7986
 9068SOL    HW138663   3.463   1.581   3.451 -1.0123  0.2823  1.0581
 9068SOL    HW238664   3.378   1.579   3.334  2.0295 -0.9918 -1.1523
 9069SOL     OW38665   2.609   3.113   1.421  0.1194  0.0539 -0.1626
 9069SOL    HW138666   2.629   3.054   1.348 -1.8024 -0.6244 -0.1544
 9069SOL    HW238667   2.567   3.055   1.485  0.5940 -0.6908 -0.5312
 9070SOL     OW38668   4.234   1.763  13.367  0.4015 -0.0866 -0.1827
 9070SOL    HW138669   4.282   1.720  13.438 -0.9661 -1.9015 -0.3670
 9070SOL    HW238670   4.300   1.750  13.299  1.1537  0.3814  0.4584
 9071SOL     OW38671   1.018   0.571  14.584  0.0183  0.0530 -0.1681
 9071SOL    HW138672   1.107   0.601  14.563  0.3259 -0.4374  0.4464
 9071SOL    HW238673   0.973   0.572  14.499 -0.7576 -0.2525  0.2473
 9072SOL     OW38674   4.603   0.887   7.874 -0.3323 -0.3263  0.1257
 9072SOL    HW138675   4.644   0.822   7.818 -1.1286  0.4441 -1.3531
 9072SOL    HW238676   4.681   0.895   7.930  0.5465 -0.2074 -1.1213
 9073SOL     OW38677   0.298   1.281   3.712  0.6038 -0.0959 -0.1363
 9073SOL    HW138678   0.280   1.326   3.795  0.0500 -0.7077  0.0706
 9073SOL    HW238679   0.210   1.248   3.692 -0.0496  1.0784  0.7757
 9074SOL     OW38680   0.442   2.123   0.236 -0.5201  0.0775  0.1763
 9074SOL    HW138681   0.437   2.066   0.159 -0.0734  0.4132 -0.0989
 9074SOL    HW238682   0.411   2.208   0.205 -0.7456 -0.3460 -0.7617
 9075SOL     OW38683   0.440   1.964   0.982  0.4973 -0.1709 -0.5733
 9075SOL    HW138684   0.466   1.988   0.893 -0.1633  0.6355 -0.5544
 9075SOL    HW238685   0.369   1.902   0.965  1.2626 -0.7679 -1.6092
 9076SOL     OW38686   3.228   0.935   4.471  0.2316  0.3320  0.4639
 9076SOL    HW138687   3.264   1.022   4.486 -0.6261  0.7430  0.1342
 9076SOL    HW238688   3.219   0.928   4.376 -2.1174 -0.5414  0.7565
 9077SOL     OW38689   4.105   3.687   4.972 -0.0390  0.1443  0.1448
 9077SOL    HW138690   4.190   3.689   5.017 -0.0325 -0.3884  0.1558
 9077SOL    HW238691   4.111   3.754   4.904 -1.0549 -0.3965 -0.4713
 9078SOL     OW38692   4.118   1.651   4.472 -0.0425 -0.0034 -0.0987
 9078SOL    HW138693   4.063   1.670   4.548  1.1366 -2.0725  1.2610
 9078SOL    HW238694   4.119   1.742   4.442  0.3592 -0.6506 -2.0339
 9079SOL     OW38695   3.637   3.819   8.881  0.2173 -0.6415  0.5483
 9079SOL    HW138696   3.560   3.791   8.832  0.0423 -0.4631  0.7221
 9079SOL    HW238697   3.683   3.736   8.891 -0.1154 -0.8860  0.0330
 9080SOL     OW38698   1.988   2.443  13.227 -0.8489  0.0831  0.4819
 9080SOL    HW138699   1.977   2.483  13.313  2.3828  1.4991  0.2579
 9080SOL    HW238700   2.082   2.457  13.214 -0.8047 -0.1484  0.5498
 9081SOL     OW38701   4.390   3.677   7.183 -0.1292 -0.6012 -0.3667
 9081SOL    HW138702   4.359   3.681   7.093  0.4208  2.5650 -0.4338
 9081SOL    HW238703   4.434   3.762   7.185  0.7475 -1.1941  4.3745
 9082SOL     OW38704   1.671   3.774   2.493  0.2579 -0.4275  0.1689
 9082SOL    HW138705   1.621   3.693   2.481 -1.2468  0.7955 -1.8815
 9082SOL    HW238706   1.761   3.744   2.486  0.9236  1.9121 -1.3250
 9083SOL     OW38707   1.632   2.136  11.626 -0.0489  0.4017 -0.0678
 9083SOL    HW138708   1.553   2.141  11.571 -0.6342  1.6848  0.8754
 9083SOL    HW238709   1.692   2.088  11.570  0.0831 -1.3586  1.6015
 9084SOL     OW38710   3.176   0.861   5.465  0.0695 -0.2230 -0.1795
 9084SOL    HW138711   3.163   0.826   5.377  3.5233  0.2355 -0.8541
 9084SOL    HW238712   3.271   0.872   5.462  0.0080  0.1274 -0.9005
 9085SOL     OW38713   1.806   2.871   4.840  0.2915 -0.4979 -0.0934
 9085SOL    HW138714   1.799   2.839   4.750  1.0986  0.0242 -0.3431
 9085SOL    HW238715   1.725   2.921   4.846  0.5274 -0.6201  3.9756
 9086SOL     OW38716   0.428   3.484  16.350 -0.4059 -0.5180  0.0621
 9086SOL    HW138717   0.451   3.511  16.261 -0.9415  2.0064  0.6984
 9086SOL    HW238718   0.388   3.398  16.334 -0.2103 -0.6684  0.3790
 9087SOL     OW38719   4.127   1.855   1.997 -0.2825 -0.2568  0.3187
 9087SOL    HW138720   4.065   1.819   2.061 -0.1899  0.0572  0.5810
 9087SOL    HW238721   4.078   1.935   1.980  0.5605 -0.0349 -1.1149
 9088SOL     OW38722   4.152   1.160   3.595 -0.3181 -0.2111 -0.2897
 9088SOL    HW138723   4.163   1.073   3.555 -2.6253 -0.7771  0.3188
 9088SOL    HW238724   4.111   1.207   3.522 -1.3758  0.3908  0.7016
 9089SOL     OW38725   0.634   4.416   9.189 -0.4957 -0.3400 -0.2061
 9089SOL    HW138726   0.552   4.366   9.188 -1.0105  0.5767 -2.9714
 9089SOL    HW238727   0.675   4.398   9.104  0.5650 -0.7238  0.3812
 9090SOL     OW38728   3.538   3.822  14.291  0.2671 -0.1199  0.0367
 9090SOL    HW138729   3.453   3.861  14.271  0.7659 -0.0807 -2.0745
 9090SOL    HW238730   3.573   3.793  14.206 -2.5220 -0.5216 -0.9518
 9091SOL     OW38731   3.038   1.243   0.223 -0.1189 -0.3570  0.1849
 9091SOL    HW138732   2.974   1.292   0.276  0.6143 -1.8229  2.4315
 9091SOL    HW238733   3.099   1.315   0.205 -0.5534 -0.0035  0.1179
 9092SOL     OW38734   3.323   0.662  16.591  0.8381 -0.0418 -0.4791
 9092SOL    HW138735   3.364   0.599  16.651 -0.2248  0.0439  0.3468
 9092SOL    HW238736   3.340   0.746  16.635  0.7057 -1.2917  2.0003
 9093SOL     OW38737   2.450   4.679   5.883  0.2905  0.0743  0.4325
 9093SOL    HW138738   2.539   4.699   5.854  0.3010 -2.2763 -1.0959
 9093SOL    HW238739   2.434   0.035   5.935 -1.8702  0.4227 -0.7464
 9094SOL     OW38740   4.153   3.651   5.680 -0.1438  0.2339 -0.6805
 9094SOL    HW138741   4.094   3.721   5.652 -0.7144 -0.1051 -0.3306
 9094SOL    HW238742   4.086   3.583   5.674 -0.7342  0.5905  2.1136
 9095SOL     OW38743   2.935   2.283  14.236 -0.6255 -0.2850 -0.0528
 9095SOL    HW138744   2.903   2.273  14.326 -1.0031  0.2480 -0.1239
 9095SOL    HW238745   2.987   2.204  14.225 -1.4859 -0.8157 -0.3062
 9096SOL     OW38746   0.482   4.383   7.420  0.2500 -0.5084  0.0928
 9096SOL    HW138747   0.415   4.397   7.353 -0.6889  1.5311  1.4776
 9096SOL    HW238748   0.461   4.449   7.486  1.8722 -0.2011  0.3104
 9097SOL     OW38749   4.499   0.061   2.598  0.0807 -0.0543  0.2704
 9097SOL    HW138750   4.593   0.041   2.593  0.0554  0.5279 -3.0311
 9097SOL    HW238751   4.505   0.154   2.574  1.7685  0.2358  1.8781
 9098SOL     OW38752   2.071   1.718   5.157  0.1440 -0.5565 -0.5003
 9098SOL    HW138753   2.163   1.694   5.170  0.4437  1.4747  1.2230
 9098SOL    HW238754   2.023   1.636   5.169 -0.1420 -0.3633 -0.3353
 9099SOL     OW38755   0.191   0.728   8.756 -0.1716 -0.4384 -0.2433
 9099SOL    HW138756   0.133   0.768   8.820 -1.1677 -3.0330  0.5007
 9099SOL    HW238757   0.151   0.641   8.759  1.1210 -0.9807  0.8813
 9100SOL     OW38758   0.678   1.052  16.205  0.6532  0.1869  0.3176
 9100SOL    HW138759   0.620   0.976  16.200 -1.7148  1.7459  3.3123
 9100SOL    HW238760   0.760   1.016  16.171  0.5750  0.8330 -0.5382
 9101SOL     OW38761   1.531   2.890  16.896  0.2256  0.0810 -0.2391
 9101SOL    HW138762   1.590   2.964  16.882 -0.9708  0.8048 -1.4242
 9101SOL    HW238763   1.521   2.852  16.809 -1.3904 -1.2568  0.5280
 9102SOL     OW38764   3.087   3.788   2.331 -0.3572  0.0793 -0.0906
 9102SOL    HW138765   3.065   3.755   2.243  4.5088  0.5829 -1.4561
 9102SOL    HW238766   3.019   3.744   2.382 -1.2732 -1.2042 -2.4040
 9103SOL     OW38767   4.277   2.491   5.165  0.2279 -0.6375 -0.2536
 9103SOL    HW138768   4.354   2.478   5.220  0.3088  0.8341 -0.0223
 9103SOL    HW238769   4.315   2.489   5.077 -2.1087  1.6486 -1.3277
 9104SOL     OW38770   3.512   3.050   5.184 -0.0434 -0.0902  0.5389
 9104SOL    HW138771   3.447   3.106   5.141  0.0384  1.5897  2.6379
 9104SOL    HW238772   3.454   3.032   5.257  0.2762 -0.1610  0.7734
 9105SOL     OW38773   0.496   2.297  10.653 -0.2221 -0.2041 -0.5085
 9105SOL    HW138774   0.470   2.285  10.562 -0.2445  1.1071 -0.6687
 9105SOL    HW238775   0.505   2.204  10.672  1.4281  0.1129  0.2298
 9106SOL     OW38776   3.839   0.224  12.293 -0.3195  0.4527  0.7291
 9106SOL    HW138777   3.851   0.157  12.225  1.8596  0.8967  0.6929
 9106SOL    HW238778   3.839   0.172  12.373 -1.6567  1.7076  1.5456
 9107SOL     OW38779   4.394   1.606   9.475 -0.0192 -0.5966  0.3783
 9107SOL    HW138780   4.380   1.672   9.542 -1.8978 -1.0066  0.3773
 9107SOL    HW238781   4.359   1.528   9.517 -1.2014 -1.0972 -1.5133
 9108SOL     OW38782   1.794   1.171   6.137  0.1762 -0.1553 -0.1146
 9108SOL    HW138783   1.724   1.106   6.141 -0.1167  0.0666 -1.5680
 9108SOL    HW238784   1.751   1.255   6.157  0.0920 -0.5018  1.1603
 9109SOL     OW38785   1.012   3.195  14.359  0.0570 -0.7063 -0.6425
 9109SOL    HW138786   1.032   3.194  14.452 -1.3215  0.1388 -0.3344
 9109SOL    HW238787   0.928   3.149  14.358 -0.2284 -0.2253  0.7782
 9110SOL     OW38788   2.009   2.137  13.001 -0.0710  0.1308 -0.1689
 9110SOL    HW138789   2.100   2.138  12.970 -0.8761  0.9118 -2.5187
 9110SOL    HW238790   1.990   2.051  12.963  0.2077  1.1368 -2.6319
 9111SOL     OW38791   3.277   1.744   8.577  0.1015  0.3557 -0.2417
 9111SOL    HW138792   3.250   1.659   8.611  1.0037  0.5535  0.9535
 9111SOL    HW238793   3.210   1.806   8.606  0.5425  0.6017  0.2458
 9112SOL     OW38794   2.191   0.992   4.058  0.7841 -0.2109 -0.4553
 9112SOL    HW138795   2.149   1.026   3.980 -1.3945  0.6816  1.1190
 9112SOL    HW238796   2.177   0.897   4.052  0.9501 -0.2431 -0.3313
 9113SOL     OW38797   0.149   2.839   5.990  0.3960 -0.2632  0.7240
 9113SOL    HW138798   0.142   2.823   6.084  0.8479 -1.2144  0.5920
 9113SOL    HW238799   0.220   2.776   5.976 -0.9468 -1.5529 -0.3091
 9114SOL     OW38800   0.900   1.003   5.171  0.4314  0.1676  0.1576
 9114SOL    HW138801   0.886   1.070   5.104 -0.6748 -2.4294 -2.2167
 9114SOL    HW238802   0.951   1.054   5.233 -0.4145 -0.6296  1.5084
 9115SOL     OW38803   1.970   2.646   8.387 -0.0452  0.3858 -1.0736
 9115SOL    HW138804   1.913   2.717   8.414  0.4864  0.4375 -0.1032
 9115SOL    HW238805   1.963   2.648   8.291 -0.2456 -2.2737 -1.1119
 9116SOL     OW38806   0.837   2.130   7.551 -0.2025  0.9782  0.0306
 9116SOL    HW138807   0.843   2.135   7.455 -0.1502 -1.9863 -0.1295
 9116SOL    HW238808   0.757   2.182   7.554 -1.7817 -1.4379 -0.2605
 9117SOL     OW38809   2.458   3.629   7.475 -0.0999 -0.3532  0.4972
 9117SOL    HW138810   2.392   3.560   7.485 -0.3884  0.3247  3.2199
 9117SOL    HW238811   2.522   3.600   7.539 -1.2847 -1.8636  0.9837
 9118SOL     OW38812   0.007   1.513  17.469 -0.3756 -0.3395  0.4325
 9118SOL    HW138813   0.003   1.541  17.561 -0.8411 -1.6851  0.8179
 9118SOL    HW238814   4.698   1.426  17.492  1.7220 -0.9791  0.9788
 9119SOL     OW38815   1.423   1.381  13.587 -0.6105  0.3176 -0.0617
 9119SOL    HW138816   1.481   1.453  13.565  0.5546 -1.1126 -1.6693
 9119SOL    HW238817   1.344   1.428  13.612 -1.3681 -0.5148 -0.8689
 9120SOL     OW38818   1.944   1.206  12.595 -0.2575  0.6045 -0.0773
 9120SOL    HW138819   1.980   1.168  12.515 -1.4358 -1.6347  0.4516
 9120SOL    HW238820   1.903   1.284  12.558 -1.8876  0.1971  0.8529
 9121SOL     OW38821   0.765   3.255  14.608  0.0327  0.2552 -0.1217
 9121SOL    HW138822   0.745   3.179  14.663 -0.4295  0.3329 -0.1792
 9121SOL    HW238823   0.860   3.252  14.608  0.0580  1.0213  0.2927
 9122SOL     OW38824   3.807   3.351   1.920  0.1151 -0.0900  0.0253
 9122SOL    HW138825   3.835   3.365   2.011 -0.7935  0.9079  0.1508
 9122SOL    HW238826   3.884   3.379   1.871  0.6473  0.5435  1.2181
 9123SOL     OW38827   2.058   2.093   3.053 -0.1480  0.0252  0.7055
 9123SOL    HW138828   2.139   2.045   3.036 -0.4878  0.2698 -1.6785
 9123SOL    HW238829   1.985   2.038   3.024  0.3528  0.0479 -0.6147
 9124SOL     OW38830   3.769   3.843   6.646 -0.0993 -0.4213 -0.2497
 9124SOL    HW138831   3.864   3.829   6.640 -0.1610 -0.9811  0.1013
 9124SOL    HW238832   3.783   3.904   6.718 -1.7017 -0.3495  0.0006
 9125SOL     OW38833   0.864   1.993   5.801  0.1635  0.3747  0.4806
 9125SOL    HW138834   0.895   2.081   5.782  0.4769 -0.1011 -1.2089
 9125SOL    HW238835   0.934   1.958   5.857  0.2193 -3.3289 -1.8978
 9126SOL     OW38836   0.852   3.850   0.882  0.3533 -0.0338  0.4680
 9126SOL    HW138837   0.792   3.861   0.956  0.8621  2.4119  0.5108
 9126SOL    HW238838   0.865   3.756   0.872 -0.6070 -0.2799  1.5618
 9127SOL     OW38839   2.732   1.233  11.771  0.4249  0.2971 -0.6556
 9127SOL    HW138840   2.793   1.196  11.835  0.7622  1.2563 -0.4204
 9127SOL    HW238841   2.662   1.263  11.830  2.1909 -0.2573  1.7161
 9128SOL     OW38842   3.317   1.506   5.129  0.3672  0.1206  0.1787
 9128SOL    HW138843   3.319   1.517   5.034  0.4140  0.1811  0.1869
 9128SOL    HW238844   3.321   1.598   5.156 -0.0206 -0.0217  0.7237
 9129SOL     OW38845   4.540   1.878   6.447 -0.2868 -0.2935 -0.1320
 9129SOL    HW138846   4.523   1.786   6.468  0.8860 -0.2539  0.9974
 9129SOL    HW238847   4.551   1.880   6.352  2.2690  2.2208  0.2221
 9130SOL     OW38848   2.100   2.798   3.560  0.3856 -0.3468  0.5268
 9130SOL    HW138849   2.157   2.760   3.494 -1.0823  1.1721 -1.5897
 9130SOL    HW238850   2.141   2.885   3.561 -4.9894  2.1477 -1.2286
 9131SOL     OW38851   3.794   0.553   3.874  0.2041  1.2996 -0.2499
 9131SOL    HW138852   3.862   0.487   3.886  0.2176  1.6950  1.8831
 9131SOL    HW238853   3.741   0.517   3.803 -0.8248 -0.0926  1.2196
 9132SOL     OW38854   0.340   4.508  11.187  0.1572 -0.2336 -0.8930
 9132SOL    HW138855   0.322   4.561  11.109  0.8293 -0.5248 -1.2463
 9132SOL    HW238856   0.412   4.557  11.226 -0.2319 -1.7500  1.7364
 9133SOL     OW38857   0.134   0.767   2.020  0.1064  0.0805 -0.3808
 9133SOL    HW138858   0.196   0.790   1.951 -0.6010  1.0050 -0.7082
 9133SOL    HW238859   0.048   0.781   1.979 -0.9236 -1.9281  1.1399
 9134SOL     OW38860   0.840   0.772   3.422 -0.3972  0.1412  0.2648
 9134SOL    HW138861   0.906   0.834   3.453  1.2506 -2.8175  2.6208
 9134SOL    HW238862   0.901   0.734   3.359  0.1061  0.5578  0.4971
 9135SOL     OW38863   1.484   0.374  15.395 -0.1037 -0.4940 -0.1628
 9135SOL    HW138864   1.423   0.443  15.371 -0.8564 -1.0861  0.0582
 9135SOL    HW238865   1.568   0.410  15.365 -1.1094  1.1813 -0.9806
 9136SOL     OW38866   0.502   0.584  14.469 -0.5106 -0.1318  0.4063
 9136SOL    HW138867   0.490   0.673  14.437  0.1724 -0.4622 -0.7767
 9136SOL    HW238868   0.596   0.575  14.453 -0.0130  2.0832  2.1734
 9137SOL     OW38869   4.083   2.398   3.849 -0.6291 -0.3067 -0.0890
 9137SOL    HW138870   4.062   2.401   3.756  2.3638  0.1184 -0.7330
 9137SOL    HW238871   4.132   2.480   3.861 -0.3588 -0.3826 -0.7032
 9138SOL     OW38872   2.385   0.768   4.305 -0.3626 -0.1587 -0.2021
 9138SOL    HW138873   2.421   0.735   4.223  1.8368  2.9755 -0.4762
 9138SOL    HW238874   2.314   0.707   4.329 -2.9182  3.3643  1.2428
 9139SOL     OW38875   3.588   3.261   3.897 -0.3271 -0.8365 -0.2241
 9139SOL    HW138876   3.632   3.200   3.955 -0.1253 -0.3878  0.0875
 9139SOL    HW238877   3.657   3.290   3.837  1.3190  0.8486  2.5041
 9140SOL     OW38878   2.965   1.624   4.373  0.0208 -0.1746  0.3563
 9140SOL    HW138879   3.002   1.700   4.330 -0.4388 -1.7553 -2.8363
 9140SOL    HW238880   2.982   1.554   4.311  0.6322  1.0513 -0.8374
 9141SOL     OW38881   3.615   2.179   8.550  0.1865  0.1240  0.5566
 9141SOL    HW138882   3.595   2.211   8.462  0.5978  2.6338  1.3514
 9141SOL    HW238883   3.570   2.095   8.542 -0.9553  0.9107 -1.4118
 9142SOL     OW38884   2.923   1.178   2.514  0.4803  0.5392  0.0743
 9142SOL    HW138885   2.836   1.148   2.543  0.6068 -1.4179 -1.5455
 9142SOL    HW238886   2.925   1.141   2.426 -0.5406  1.8683 -0.5060
 9143SOL     OW38887   4.171   4.654  17.051 -0.4280  0.1865 -0.2438
 9143SOL    HW138888   4.221   0.007  17.023 -1.1837  0.1707 -1.5874
 9143SOL    HW238889   4.210   4.644  17.139 -1.9168 -4.2451 -0.0741
 9144SOL     OW38890   1.902   3.790   6.204  0.4803  0.1074 -0.0195
 9144SOL    HW138891   1.896   3.742   6.122 -3.5482  1.8245 -0.7477
 9144SOL    HW238892   1.902   3.876   6.162 -2.0445  0.2757  0.3283
 9145SOL     OW38893   1.628   2.578   5.273 -0.3271 -0.6932  0.5246
 9145SOL    HW138894   1.557   2.515   5.259  1.0918 -2.0033 -0.7420
 9145SOL    HW238895   1.622   2.635   5.196  2.7336 -0.7504  0.2422
 9146SOL     OW38896   0.405   2.624   2.732  0.0330 -0.0518 -0.5565
 9146SOL    HW138897   0.398   2.709   2.689  1.7895 -0.2976 -1.3677
 9146SOL    HW238898   0.326   2.581   2.700 -0.5373  0.2586  0.4665
 9147SOL     OW38899   0.683   1.529   8.642  0.5378 -0.5779 -0.4655
 9147SOL    HW138900   0.718   1.531   8.731  0.6740  0.5118 -0.5393
 9147SOL    HW238901   0.759   1.566   8.598  0.7237  0.4995  0.7285
 9148SOL     OW38902   4.069   0.969   3.786  0.2542 -0.0987  0.4500
 9148SOL    HW138903   4.087   1.044   3.730 -2.1673 -0.8164 -1.3219
 9148SOL    HW238904   3.983   0.930   3.771 -0.1592  1.2970 -0.7604
 9149SOL     OW38905   0.879   3.951   5.598 -0.0636  0.6385  0.3046
 9149SOL    HW138906   0.846   3.924   5.684 -1.1655 -0.8858 -0.5862
 9149SOL    HW238907   0.793   3.964   5.558 -0.3753 -3.3727 -0.3597
 9150SOL     OW38908   3.728   3.230  17.016  0.0138  0.2217 -0.2269
 9150SOL    HW138909   3.824   3.228  17.020  0.0039  2.0770  0.7956
 9150SOL    HW238910   3.708   3.173  16.941  2.3405 -0.3167 -0.4416
 9151SOL     OW38911   0.128   2.369   2.186 -0.1328 -0.2963 -0.2933
 9151SOL    HW138912   0.035   2.380   2.201  0.1452  0.5754  0.8053
 9151SOL    HW238913   0.139   2.456   2.147  0.0097  0.0543  0.5091
 9152SOL     OW38914   0.458   0.595   7.566 -0.2344  0.5683  0.0132
 9152SOL    HW138915   0.536   0.648   7.550  0.8669 -1.5417 -1.6165
 9152SOL    HW238916   0.478   0.503   7.550 -1.6931  0.2235  0.1500
 9153SOL     OW38917   0.306   0.343   9.007 -0.0269 -0.5012 -0.3019
 9153SOL    HW138918   0.369   0.307   8.945  2.6457 -1.4151  2.9600
 9153SOL    HW238919   0.337   0.299   9.086  0.7092  0.5010 -0.0343
 9154SOL     OW38920   0.020   1.260   1.144 -0.3745 -0.0420  0.2363
 9154SOL    HW138921   0.099   1.286   1.096  1.0189 -0.1761  2.4575
 9154SOL    HW238922   0.056   1.224   1.225  2.7170  1.1999 -0.5814
 9155SOL     OW38923   1.454   3.020   9.852  0.2392 -0.6439  0.1410
 9155SOL    HW138924   1.532   3.073   9.833 -0.2728  0.7368  1.9453
 9155SOL    HW238925   1.388   3.085   9.830  0.2130 -0.5015  0.6362
 9156SOL     OW38926   1.023   2.895   5.136 -0.0954 -1.2591  0.4203
 9156SOL    HW138927   0.989   2.902   5.225 -1.9054  0.5525 -0.4288
 9156SOL    HW238928   1.024   2.799   5.130  0.7827 -1.1648 -1.1113
 9157SOL     OW38929   2.787   4.266   6.121 -0.1230 -0.2920 -0.2902
 9157SOL    HW138930   2.736   4.225   6.191 -2.0789  0.7344 -1.1055
 9157SOL    HW238931   2.829   4.341   6.165  0.2593 -0.0206 -1.1082
 9158SOL     OW38932   4.245   2.101   8.785 -0.1050  0.5271 -0.0002
 9158SOL    HW138933   4.154   2.074   8.790  0.0451 -0.6084 -2.9040
 9158SOL    HW238934   4.238   2.193   8.810 -2.0234 -0.1754  1.9723
 9159SOL     OW38935   4.104   2.346  14.136 -0.6072 -0.0269  0.3212
 9159SOL    HW138936   4.099   2.323  14.044  1.7726 -1.0711  0.4435
 9159SOL    HW238937   4.058   2.276  14.182 -0.9624 -0.4382 -0.6857
 9160SOL     OW38938   3.119   0.632   5.924  0.0720 -0.2187 -0.5580
 9160SOL    HW138939   3.199   0.646   5.873  0.9441 -1.1113  0.5568
 9160SOL    HW238940   3.156   0.597   6.005 -1.5380  0.1049  0.3254
 9161SOL     OW38941   3.009   2.821   8.989 -0.3812 -0.3555  0.5475
 9161SOL    HW138942   2.996   2.885   9.060 -1.1478  1.4836 -1.2662
 9161SOL    HW238943   3.009   2.737   9.034  0.6827  0.3507  1.8911
 9162SOL     OW38944   3.104   2.229   6.141  0.0076  0.6283 -0.0514
 9162SOL    HW138945   3.195   2.236   6.170 -0.7652 -1.8964  3.0181
 9162SOL    HW238946   3.116   2.212   6.047 -0.5006  0.4889 -0.0886
 9163SOL     OW38947   2.960   1.044   5.193 -0.1671  0.4136 -0.5495
 9163SOL    HW138948   2.968   1.108   5.263 -0.9845 -0.1388  0.0454
 9163SOL    HW238949   2.902   0.975   5.225 -0.8895  1.7232  0.9456
 9164SOL     OW38950   0.662   1.940   0.034  0.1749  0.1294  0.0441
 9164SOL    HW138951   0.692   1.861  17.683 -2.8182 -0.8693 -0.1910
 9164SOL    HW238952   0.581   1.908   0.073  1.3902 -1.9811  0.8758
 9165SOL     OW38953   4.616   1.908   8.911 -0.0647  0.4971 -0.2545
 9165SOL    HW138954   4.635   1.824   8.952  1.4041  0.9910  0.0827
 9165SOL    HW238955   4.591   1.965   8.984  2.3678 -1.6882  2.2692
 9166SOL     OW38956   3.828   2.334   3.575 -0.0994 -0.0111 -0.7436
 9166SOL    HW138957   3.752   2.317   3.631  1.2275 -1.3495  0.6799
 9166SOL    HW238958   3.773   2.375   3.509 -1.5388  0.8078  0.9890
 9167SOL     OW38959   1.588   1.975   1.434 -0.0588  0.7630 -0.1454
 9167SOL    HW138960   1.565   1.884   1.414  0.2144  0.5415  0.5380
 9167SOL    HW238961   1.596   2.012   1.346  1.8716  1.9760  0.5481
 9168SOL     OW38962   0.414   1.652   1.572 -0.3946  0.2235 -0.1658
 9168SOL    HW138963   0.477   1.680   1.639 -1.9146  1.2076  0.8435
 9168SOL    HW238964   0.337   1.696   1.608  0.4882  0.9153  0.8894
 9169SOL     OW38965   2.983   1.294  13.143  0.1050  0.0429 -0.0417
 9169SOL    HW138966   2.974   1.230  13.072 -1.6290  1.0688 -0.7413
 9169SOL    HW238967   2.970   1.376  13.096 -1.1010  0.0673  0.3382
 9170SOL     OW38968   0.648   2.364   6.364 -0.2439  0.0985  0.1094
 9170SOL    HW138969   0.559   2.386   6.337  0.2622 -1.0376 -2.4594
 9170SOL    HW238970   0.692   2.445   6.391  1.5061 -1.2202  1.2927
 9171SOL     OW38971   0.850   1.963   4.624  0.5755  0.0864  0.8945
 9171SOL    HW138972   0.878   1.910   4.549  2.1524  3.5022 -0.8800
 9171SOL    HW238973   0.916   2.032   4.617 -0.8604  1.1698 -1.7444
 9172SOL     OW38974   1.079   2.476  17.239 -0.3186  0.9725  0.2625
 9172SOL    HW138975   1.110   2.446  17.325 -0.0743  0.1073 -0.1293
 9172SOL    HW238976   1.011   2.411  17.220  0.1143  0.6731 -0.2442
 9173SOL     OW38977   1.516   1.843   5.381 -0.5171  0.2472  0.6677
 9173SOL    HW138978   1.441   1.793   5.347 -1.2665  2.1700 -0.5408
 9173SOL    HW238979   1.586   1.795   5.336 -0.7725 -1.1845  1.7776
 9174SOL     OW38980   0.928   4.283   0.578 -0.4159  0.0565  0.5458
 9174SOL    HW138981   0.856   4.247   0.629 -0.4147 -0.8563 -0.1033
 9174SOL    HW238982   0.966   4.204   0.540  0.3573  0.9673 -0.5980
 9175SOL     OW38983   4.041   1.734   9.741  0.5041  0.4116 -0.1142
 9175SOL    HW138984   3.969   1.682   9.778 -0.0169  0.4756 -1.0279
 9175SOL    HW238985   4.062   1.688   9.659 -0.2351  2.9588 -1.7325
 9176SOL     OW38986   4.408   3.799   3.532 -0.0228  0.6275  0.3885
 9176SOL    HW138987   4.344   3.859   3.493  0.8172  1.6319  0.5692
 9176SOL    HW238988   4.449   3.857   3.597  1.1519  1.2765 -0.9441
 9177SOL     OW38989   0.183   4.358  13.599 -0.6133  0.1791 -0.0919
 9177SOL    HW138990   0.159   4.269  13.573 -1.7615 -0.0979  1.9001
 9177SOL    HW238991   0.200   4.395  13.513  3.2509  0.3002  0.7179
 9178SOL     OW38992   2.252   1.942   6.703  0.0305  0.3021 -0.4227
 9178SOL    HW138993   2.268   1.959   6.796 -2.4092 -2.0160  0.4038
 9178SOL    HW238994   2.267   2.028   6.664  2.8517 -0.0730 -0.1441
 9179SOL     OW38995   4.031   4.130   0.500  0.6147 -0.6767 -0.0268
 9179SOL    HW138996   4.049   4.183   0.422 -0.8265 -0.4017 -0.1737
 9179SOL    HW238997   4.059   4.189   0.570  0.6731 -1.3326  0.4968
 9180SOL     OW38998   4.405   3.101  16.408  0.0517  0.1564  0.0308
 9180SOL    HW138999   4.336   3.166  16.398 -2.4376 -2.5441 -0.1493
 9180SOL    HW239000   4.479   3.151  16.371  0.5430 -0.7614 -0.2228
 9181SOL     OW39001   1.337   0.964   4.143 -0.3636 -0.4697 -0.5655
 9181SOL    HW139002   1.321   0.875   4.174 -1.7501 -0.8378 -2.3351
 9181SOL    HW239003   1.248   0.995   4.162 -0.5005 -1.2849  0.0979
 9182SOL     OW39004   0.991   1.756  11.442 -0.5549 -0.8868 -0.7311
 9182SOL    HW139005   1.050   1.683  11.421 -0.3483 -1.0877  0.5385
 9182SOL    HW239006   0.904   1.717  11.451 -1.5564  1.1948 -1.4504
 9183SOL     OW39007   2.996   0.239  14.273  0.0387 -1.0063  0.2184
 9183SOL    HW139008   2.911   0.209  14.304 -0.5819  0.6565  0.1597
 9183SOL    HW239009   3.009   0.327  14.308  0.4832 -0.1855 -2.0168
 9184SOL     OW39010   1.999   1.221   5.214  0.5955 -0.1118  0.7784
 9184SOL    HW139011   2.035   1.199   5.300  2.6092 -0.8592 -0.2551
 9184SOL    HW239012   2.079   1.257   5.175  0.5789 -2.0483 -1.0188
 9185SOL     OW39013   3.805   0.850   8.477 -0.3366 -0.6914  0.7751
 9185SOL    HW139014   3.770   0.764   8.498 -4.2742  0.7835  0.3558
 9185SOL    HW239015   3.755   0.905   8.537  2.1957  2.1398  0.2734
 9186SOL     OW39016   1.292   4.640  16.849  0.0044  0.3248  0.2768
 9186SOL    HW139017   1.284   0.012  16.840 -0.2285  0.0557 -2.4712
 9186SOL    HW239018   1.254   4.611  16.766  1.9298 -2.5431  0.4176
 9187SOL     OW39019   3.689   3.197  12.260  0.1656 -0.4908 -0.8288
 9187SOL    HW139020   3.707   3.127  12.197  1.2001 -0.6258 -0.3818
 9187SOL    HW239021   3.780   3.222  12.272  0.3332 -1.3437 -0.3087
 9188SOL     OW39022   2.920   1.165   4.175 -0.2302 -0.0911  0.1806
 9188SOL    HW139023   2.930   1.239   4.234 -2.1147  0.0070  0.3768
 9188SOL    HW239024   2.860   1.201   4.109  1.6722 -1.8212 -2.5295
 9189SOL     OW39025   0.381   1.825  16.658 -0.3845  0.5017 -0.0689
 9189SOL    HW139026   0.442   1.784  16.596 -0.1201  0.3901  0.2659
 9189SOL    HW239027   0.444   1.869  16.715 -0.4187  0.9155 -0.3535
 9190SOL     OW39028   4.454   1.270   7.601 -0.2182 -0.0110  0.5763
 9190SOL    HW139029   4.524   1.208   7.581  0.0000  0.4135  0.0220
 9190SOL    HW239030   4.421   1.227   7.679 -1.7033 -1.6727 -0.9689
 9191SOL     OW39031   1.310   0.111  15.201  0.2099 -0.2558  0.3757
 9191SOL    HW139032   1.400   0.139  15.186 -0.4321  1.3581 -0.4598
 9191SOL    HW239033   1.328   0.085  15.291 -0.0318  0.3933  0.6132
 9192SOL     OW39034   1.905   3.948   6.669 -0.5041  0.3171  0.5506
 9192SOL    HW139035   1.862   4.030   6.693 -0.3910  1.1651 -2.0906
 9192SOL    HW239036   1.886   3.964   6.577  0.0778 -0.3037  0.3182
 9193SOL     OW39037   0.268   4.706   8.719  0.2311  0.2490  0.3383
 9193SOL    HW139038   0.173   4.711   8.729  0.3761 -0.6032  2.1136
 9193SOL    HW239039   0.296   4.686   8.809  2.2795 -1.4344 -0.6705
 9194SOL     OW39040   0.101   0.013   5.331 -0.0726  0.1377  0.1450
 9194SOL    HW139041   0.064   4.655   5.364 -0.4587  0.3996  0.3505
 9194SOL    HW239042   0.195   4.717   5.325  0.4408  2.1447  1.9602
 9195SOL     OW39043   1.372   4.222   4.187 -0.2484  0.2320  0.1766
 9195SOL    HW139044   1.310   4.260   4.125 -0.4530  1.0667  0.9068
 9195SOL    HW239045   1.371   4.133   4.150  1.3204  0.3803 -0.2478
 9196SOL     OW39046   2.059   0.230   3.644 -0.5359  0.1420  0.7607
 9196SOL    HW139047   2.007   0.215   3.723 -3.8603  0.6935 -1.3031
 9196SOL    HW239048   2.017   0.313   3.620  1.5468  0.7795 -0.6803
 9197SOL     OW39049   2.018   1.967   4.400  0.5476 -0.1614 -0.3157
 9197SOL    HW139050   1.966   2.046   4.412  2.7332  1.0605  1.1383
 9197SOL    HW239051   1.981   1.908   4.465  3.0991 -0.3286  0.9962
 9198SOL     OW39052   2.709   1.415   4.858  0.0493  0.0736  0.0999
 9198SOL    HW139053   2.649   1.489   4.866  1.1569  0.8388  1.4953
 9198SOL    HW239054   2.704   1.384   4.768  1.1358  1.6186 -0.4892
 9199SOL     OW39055   3.743   3.812   1.931 -0.2499 -0.3692  0.4227
 9199SOL    HW139056   3.714   3.847   2.015  0.1258 -0.8137  0.7352
 9199SOL    HW239057   3.793   3.886   1.897  0.4730 -1.1667 -0.2462
 9200SOL     OW39058   1.432   2.297   2.324 -0.1768  0.0626 -0.2615
 9200SOL    HW139059   1.412   2.220   2.271 -2.5908  0.2484  0.3950
 9200SOL    HW239060   1.451   2.251   2.406 -1.5398  2.3848  1.3658
 9201SOL     OW39061   4.523   1.577   3.296 -0.6381  0.0856  0.4439
 9201SOL    HW139062   4.511   1.651   3.236  0.5447 -0.1354 -0.0596
 9201SOL    HW239063   4.510   1.503   3.237  1.3046 -1.0454  1.4337
 9202SOL     OW39064   4.522   1.243   3.744  0.2053  0.0382 -0.3101
 9202SOL    HW139065   4.547   1.281   3.660 -0.1981  1.3668  0.1711
 9202SOL    HW239066   4.554   1.310   3.805 -0.5871  2.0244 -2.0882
 9203SOL     OW39067   4.521   2.421   7.723 -0.0001  0.5953  0.2949
 9203SOL    HW139068   4.449   2.410   7.785  0.8057 -1.5866  0.8318
 9203SOL    HW239069   4.476   2.387   7.646 -0.8962  0.9923  0.6369
 9204SOL     OW39070   0.717   1.834   1.385  0.2520 -0.1251 -0.4794
 9204SOL    HW139071   0.656   1.893   1.431 -1.2924  0.0589 -2.7592
 9204SOL    HW239072   0.771   1.805   1.459 -2.0620 -1.9614  0.5012
 9205SOL     OW39073   3.418   0.828  11.006 -0.4943 -0.0674 -0.0005
 9205SOL    HW139074   3.475   0.767  10.959 -1.2348 -0.6368 -0.1552
 9205SOL    HW239075   3.377   0.888  10.944 -1.2605  0.3191  0.8700
 9206SOL     OW39076   3.033   4.656   4.522  0.5078 -0.5545 -0.3999
 9206SOL    HW139077   3.036   4.593   4.450  0.9381  2.3122 -2.8846
 9206SOL    HW239078   3.083   0.000   4.477 -0.4819  0.4555 -0.0068
 9207SOL     OW39079   2.216   2.792   8.714  0.6593 -0.3120  0.7226
 9207SOL    HW139080   2.234   2.880   8.747  2.3536 -1.4221  2.7678
 9207SOL    HW239081   2.254   2.735   8.781 -1.9783 -2.2449  0.5329
 9208SOL     OW39082   0.549   1.728   8.182 -0.0626  0.0652  0.6781
 9208SOL    HW139083   0.589   1.720   8.269  0.1617  0.4724  0.6120
 9208SOL    HW239084   0.622   1.777   8.146  1.4250 -3.1134 -0.5481
 9209SOL     OW39085   0.256   2.258  14.883 -0.4977  0.5039  0.0524
 9209SOL    HW139086   0.334   2.261  14.938 -0.1957 -0.5159 -0.3081
 9209SOL    HW239087   0.296   2.245  14.797  0.8772 -0.1707  0.7929
 9210SOL     OW39088   3.745   2.758   1.523  0.1150 -0.3136 -0.0231
 9210SOL    HW139089   3.663   2.708   1.523  0.3798 -0.7620  1.2860
 9210SOL    HW239090   3.819   2.698   1.510  0.8856  0.6383  0.0251
 9211SOL     OW39091   3.841   1.691   2.184  0.3565  0.2936 -0.4446
 9211SOL    HW139092   3.860   1.757   2.251  1.4682 -0.1536 -0.3144
 9211SOL    HW239093   3.920   1.637   2.178 -0.7831 -1.3931 -0.0155
 9212SOL     OW39094   0.540   1.666   7.354  0.1618  0.1654 -0.1023
 9212SOL    HW139095   0.526   1.611   7.431  2.2627  2.7164  2.0798
 9212SOL    HW239096   0.583   1.604   7.295 -2.2041 -0.0330 -1.5977
 9213SOL     OW39097   1.008   2.116  15.947  0.4668 -0.5027 -0.0995
 9213SOL    HW139098   1.093   2.085  15.915  0.1663 -1.5522  0.1390
 9213SOL    HW239099   0.956   2.102  15.868  0.6474  0.1167 -0.3320
 9214SOL     OW39100   1.164   2.949   1.282  0.3557  0.4949 -0.0594
 9214SOL    HW139101   1.202   2.959   1.195  2.2969  0.5335  0.8021
 9214SOL    HW239102   1.129   2.860   1.273  0.3346  0.4158  0.7369
 9215SOL     OW39103   1.868   2.900   5.831  0.0055 -0.0695  0.8341
 9215SOL    HW139104   1.810   2.966   5.794  0.4822  0.8497  1.7100
 9215SOL    HW239105   1.922   2.858   5.763  1.0565 -0.7894  2.1014
 9216SOL     OW39106   2.578   0.755  10.471  0.4170  0.5758  0.1339
 9216SOL    HW139107   2.542   0.790  10.390 -0.0244  1.1088  0.5617
 9216SOL    HW239108   2.534   0.670  10.475 -2.0622  1.8098 -0.4101
 9217SOL     OW39109   1.208   3.047  14.779 -0.4231  0.2185  1.1329
 9217SOL    HW139110   1.266   3.123  14.771 -1.4723  1.0411  1.3994
 9217SOL    HW239111   1.177   3.055  14.869  0.2458  1.0661  1.2825
 9218SOL     OW39112   2.873   2.604  17.687  0.0020 -0.0334  0.8442
 9218SOL    HW139113   2.904   2.668  17.623 -1.0567  1.5417  1.9214
 9218SOL    HW239114   2.922   2.631   0.069  0.8687 -0.1005  0.3292
 9219SOL     OW39115   1.034   1.511   3.786 -0.5663  0.2711 -0.0568
 9219SOL    HW139116   1.020   1.465   3.703  1.0743  0.4070 -0.4052
 9219SOL    HW239117   1.067   1.445   3.848 -1.6162  0.0613  0.2763
 9220SOL     OW39118   0.863   2.415   1.333  0.5920  0.2364 -0.2693
 9220SOL    HW139119   0.924   2.354   1.292  0.0663 -1.1136  0.9652
 9220SOL    HW239120   0.848   2.469   1.256  2.7264  0.4457 -0.5376
 9221SOL     OW39121   2.717   2.337   4.049  0.5116  0.0065  0.0042
 9221SOL    HW139122   2.630   2.357   4.013  1.2935 -1.9921 -3.0065
 9221SOL    HW239123   2.742   2.420   4.089 -0.2648  0.2519 -0.0150
 9222SOL     OW39124   4.101   0.110  14.368 -0.0882  0.2270  0.3924
 9222SOL    HW139125   4.123   0.060  14.447  1.1571 -0.1026 -0.1562
 9222SOL    HW239126   4.149   0.064  14.300 -0.7608 -0.6557  0.5293
 9223SOL     OW39127   0.508   0.049   0.185  0.0681  0.2750  0.0899
 9223SOL    HW139128   0.558   0.056   0.104 -0.6079 -0.9464 -0.4301
 9223SOL    HW239129   0.548   4.701   0.234 -0.0496  0.4455  0.4431
 9224SOL     OW39130   4.517   1.259   8.771  0.0556  0.0216  0.0372
 9224SOL    HW139131   4.573   1.187   8.798 -0.0559 -0.2116 -0.3549
 9224SOL    HW239132   4.430   1.225   8.792 -0.3205  1.3082  0.5673
 9225SOL     OW39133   2.875   1.106   8.835 -0.4008  0.3703 -0.3726
 9225SOL    HW139134   2.803   1.165   8.853 -0.6910 -0.6033  1.6980
 9225SOL    HW239135   2.828   1.025   8.815 -0.3240  1.2503 -4.0026
 9226SOL     OW39136   4.509   4.375   8.383 -0.3955 -0.4218  0.2104
 9226SOL    HW139137   4.425   4.419   8.370 -1.4038 -1.9745  1.4191
 9226SOL    HW239138   4.497   4.362   8.477 -0.1518  0.6434  0.3883
 9227SOL     OW39139   1.382   0.493   8.947  0.2586 -0.4368  0.1565
 9227SOL    HW139140   1.320   0.566   8.958  0.2292 -0.1688 -1.7710
 9227SOL    HW239141   1.377   0.484   8.852  0.6034  0.7022  0.0281
 9228SOL     OW39142   0.071   3.538   2.106 -0.7658  0.5849  0.0568
 9228SOL    HW139143   0.067   3.471   2.174 -1.4606 -1.8395 -2.3800
 9228SOL    HW239144   0.011   3.503   2.040  0.0897 -2.4675  0.9033
 9229SOL     OW39145   3.256   4.423   9.478  0.3895  0.1359  0.4494
 9229SOL    HW139146   3.183   4.428   9.416 -0.5706  0.5064  1.6043
 9229SOL    HW239147   3.218   4.379   9.553 -0.1388 -0.3487 -0.0994
 9230SOL     OW39148   0.333   3.757   5.897  0.0145 -0.3269 -0.0651
 9230SOL    HW139149   0.282   3.696   5.845  2.2519 -1.6465 -0.7195
 9230SOL    HW239150   0.279   3.744   5.975  1.7033 -0.6245  1.0575
 9231SOL     OW39151   4.243   1.194  14.730 -0.3391  0.0559 -0.5559
 9231SOL    HW139152   4.177   1.209  14.798 -0.7831 -0.3880 -0.8893
 9231SOL    HW239153   4.199   1.128  14.677 -1.7986 -0.3382  1.1369
 9232SOL     OW39154   1.063   0.466   1.809  0.0344 -0.2672 -0.1996
 9232SOL    HW139155   1.129   0.511   1.861  1.4665 -1.3045 -1.1443
 9232SOL    HW239156   1.117   0.399   1.767  0.9418  0.7770 -0.7010
 9233SOL     OW39157   3.217   3.737   4.239  0.2173  0.6730 -0.6174
 9233SOL    HW139158   3.178   3.712   4.323  0.1925 -0.9913 -1.1181
 9233SOL    HW239159   3.142   3.772   4.192 -0.7440  2.1405  2.0181
 9234SOL     OW39160   0.559   0.164   8.487 -0.2538 -0.3123 -0.8617
 9234SOL    HW139161   0.599   0.090   8.442 -1.0596 -1.5848  0.5194
 9234SOL    HW239162   0.468   0.138   8.501 -0.6444  0.9268 -1.0545
 9235SOL     OW39163   0.792   1.909   5.390 -0.7534  0.2544  0.2916
 9235SOL    HW139164   0.884   1.934   5.374 -0.7045 -1.4520 -2.2115
 9235SOL    HW239165   0.753   1.996   5.402 -1.9851 -0.1777 -0.6340
 9236SOL     OW39166   4.471   1.540   9.218  0.2628  0.1944 -0.1702
 9236SOL    HW139167   4.475   1.582   9.304  1.5848 -1.2031  0.4472
 9236SOL    HW239168   4.401   1.476   9.234 -0.7058  1.0842 -0.8147
 9237SOL     OW39169   1.662   2.037  13.992  0.0011  0.7627  0.1443
 9237SOL    HW139170   1.706   2.095  14.054 -0.2337 -0.4715  1.4679
 9237SOL    HW239171   1.687   2.075  13.907  0.3221  0.1253 -0.0417
 9238SOL     OW39172   3.955   4.299   7.243 -0.2059 -0.3421  0.1270
 9238SOL    HW139173   4.017   4.353   7.292  2.5983 -1.5861 -2.0085
 9238SOL    HW239174   3.897   4.367   7.208  1.2760  0.7397 -0.2699
 9239SOL     OW39175   2.288   3.811   6.130  0.2000 -0.6261  0.1549
 9239SOL    HW139176   2.295   3.722   6.097  0.4220  1.1807 -4.6812
 9239SOL    HW239177   2.214   3.843   6.078 -0.1086 -1.5321  0.0357
 9240SOL     OW39178   3.194   4.360   7.114  0.4170 -0.6288  0.4729
 9240SOL    HW139179   3.126   4.347   7.181  0.5045  1.8909  1.0494
 9240SOL    HW239180   3.238   4.278   7.092  0.8058 -0.9224  2.3587
 9241SOL     OW39181   0.208   3.292   7.393 -0.2785 -0.0325 -0.3312
 9241SOL    HW139182   0.218   3.209   7.441 -1.2190 -0.7776 -1.4198
 9241SOL    HW239183   0.136   3.283   7.330 -1.6493  0.6753  1.1230
 9242SOL     OW39184   3.830   2.013   5.031 -0.3199 -0.0375 -0.0728
 9242SOL    HW139185   3.902   1.987   5.089  1.0843  3.0763 -0.4189
 9242SOL    HW239186   3.834   1.955   4.956 -0.4988  0.2594 -0.3128
 9243SOL     OW39187   4.221   3.032  12.498  0.1322  0.3679  0.3128
 9243SOL    HW139188   4.194   3.029  12.406 -0.9686  1.5427  0.6083
 9243SOL    HW239189   4.218   2.941  12.526 -0.2211  0.0509 -0.7757
 9244SOL     OW39190   0.317   1.901   2.420 -0.2057 -0.0590 -0.1886
 9244SOL    HW139191   0.313   1.885   2.514 -1.0540 -1.0766 -0.3931
 9244SOL    HW239192   0.403   1.942   2.413 -1.5656  2.7069 -0.6456
 9245SOL     OW39193   0.741   1.206   3.823  0.1595 -0.1385  0.3688
 9245SOL    HW139194   0.669   1.174   3.877 -0.3798 -1.5308 -1.1681
 9245SOL    HW239195   0.728   1.301   3.831  0.3630 -0.1089  0.3518
 9246SOL     OW39196   4.262   3.338   2.808 -0.5845 -0.7789 -0.7358
 9246SOL    HW139197   4.288   3.280   2.880  1.0359 -1.0593 -1.5435
 9246SOL    HW239198   4.271   3.426   2.845  0.2603 -1.4820  0.6999
 9247SOL     OW39199   3.493   3.847   6.733 -0.8847 -0.3413 -0.3689
 9247SOL    HW139200   3.488   3.767   6.785 -2.9235 -0.8932 -1.4416
 9247SOL    HW239201   3.580   3.842   6.692 -1.9897  0.7556 -2.8619
 9248SOL     OW39202   2.414   0.540   3.106 -0.3870  0.1804 -0.0100
 9248SOL    HW139203   2.497   0.492   3.113 -1.2216 -1.5743 -2.2413
 9248SOL    HW239204   2.373   0.516   3.023 -0.8249 -3.1377  1.1678
 9249SOL     OW39205   2.001   3.645   8.855 -1.0522  0.5901 -0.1295
 9249SOL    HW139206   1.919   3.670   8.812 -1.0675  0.4567 -0.1775
 9249SOL    HW239207   2.058   3.621   8.782 -0.3625  0.6106  0.4022
 9250SOL     OW39208   2.400   0.534   8.965  0.3374  0.4456  0.2379
 9250SOL    HW139209   2.448   0.598   9.018  0.8889 -0.9710  1.4603
 9250SOL    HW239210   2.415   0.453   9.014 -0.3277  0.6450  0.7663
 9251SOL     OW39211   3.273   2.043   3.103 -0.4667 -0.1253  0.3003
 9251SOL    HW139212   3.350   2.060   3.157  2.3000  0.6150 -3.9253
 9251SOL    HW239213   3.203   2.035   3.169  0.7309  0.8874  1.7028
 9252SOL     OW39214   3.074   4.070   9.165 -0.3299  0.1418  0.0528
 9252SOL    HW139215   3.123   4.002   9.211  0.0211  1.9943  2.4028
 9252SOL    HW239216   3.027   4.019   9.100  0.4557 -0.5364  0.0187
 9253SOL     OW39217   2.426   0.927   9.701  0.0431  0.0028  0.2911
 9253SOL    HW139218   2.436   0.875   9.781 -2.6629  0.4502  0.9176
 9253SOL    HW239219   2.421   1.017   9.733 -0.1079  0.1951 -0.2783
 9254SOL     OW39220   3.754   4.100   7.557 -0.0300  0.0585 -0.1491
 9254SOL    HW139221   3.750   4.039   7.631  0.1480  1.1051  0.7349
 9254SOL    HW239222   3.792   4.043   7.491 -1.6265 -1.5712  0.3231
 9255SOL     OW39223   0.018   0.205   9.480 -0.0322  0.5636 -0.2692
 9255SOL    HW139224   4.649   0.202   9.503 -0.4199  1.0094 -1.7742
 9255SOL    HW239225   0.054   0.141   9.540  0.8657  0.2931 -1.1032
 9256SOL     OW39226   1.274   3.311   7.222  0.4561  0.1087  0.3755
 9256SOL    HW139227   1.306   3.223   7.201  2.1724  1.2387 -1.7461
 9256SOL    HW239228   1.353   3.363   7.205 -0.3401  1.1277 -0.2410
 9257SOL     OW39229   3.046   2.135   7.655  0.2547 -0.8539 -0.1312
 9257SOL    HW139230   3.128   2.101   7.692  0.8981  1.1867  0.3020
 9257SOL    HW239231   3.072   2.186   7.578  2.1841  0.2222  1.2333
 9258SOL     OW39232   0.494   4.118  13.848  0.7372  0.3429 -1.0053
 9258SOL    HW139233   0.407   4.149  13.824  0.3948 -0.8630 -1.3355
 9258SOL    HW239234   0.486   4.023  13.851  1.4105  0.2891 -0.7971
 9259SOL     OW39235   1.463   4.657   0.724 -0.7172 -0.0892 -0.6600
 9259SOL    HW139236   1.533   4.665   0.658  0.0882  0.9572  0.3114
 9259SOL    HW239237   1.504   4.587   0.774 -2.5114  0.3691  1.4203
 9260SOL     OW39238   3.718   4.586   3.359 -0.0640  0.0405 -0.3984
 9260SOL    HW139239   3.809   4.616   3.354  0.1566 -0.6723 -0.7029
 9260SOL    HW239240   3.727   4.494   3.385 -0.1309 -0.3628 -1.7703
 9261SOL     OW39241   3.917   0.653   7.865  0.0822  0.1958  0.4394
 9261SOL    HW139242   3.852   0.712   7.904 -0.9004  0.1021 -1.0786
 9261SOL    HW239243   3.986   0.711   7.832  2.7701 -1.1544  3.6473
 9262SOL     OW39244   2.164   4.251   6.565  0.2629  0.0369  0.2711
 9262SOL    HW139245   2.101   4.258   6.493  0.5284 -0.6215 -0.0249
 9262SOL    HW239246   2.113   4.294   6.633 -1.2579  0.5017 -1.1659
 9263SOL     OW39247   1.971   1.020   2.767 -0.1322  0.1890 -0.4761
 9263SOL    HW139248   2.047   0.968   2.742 -0.5088 -0.7885  0.3968
 9263SOL    HW239249   1.928   1.015   2.681 -0.6437  1.1482 -0.2700
 9264SOL     OW39250   1.911   0.336  10.641 -0.1404  0.1342  0.6297
 9264SOL    HW139251   1.999   0.297  10.645 -0.4186 -0.7869 -2.6989
 9264SOL    HW239252   1.932   0.428  10.626 -0.3054 -0.1042 -0.9864
 9265SOL     OW39253   3.381   3.581   9.279 -0.0568 -0.0667 -0.3991
 9265SOL    HW139254   3.447   3.535   9.331 -1.8770 -0.5643  1.4546
 9265SOL    HW239255   3.336   3.516   9.225  1.2477 -2.7592  1.7735
 9266SOL     OW39256   4.038   0.798   0.984  0.6642  0.3823  0.1574
 9266SOL    HW139257   4.086   0.787   0.902  1.0549  1.0670  0.2946
 9266SOL    HW239258   3.957   0.749   0.974  1.3157 -0.3772 -1.4703
 9267SOL     OW39259   1.452   2.990   1.796  0.3997  0.2265  0.1964
 9267SOL    HW139260   1.418   3.047   1.728 -0.6048 -0.9375 -0.2734
 9267SOL    HW239261   1.544   3.015   1.790  0.3951  0.6841  2.0035
 9268SOL     OW39262   0.233   1.663   0.944 -0.0208 -0.3895  0.1941
 9268SOL    HW139263   0.281   1.598   0.996  1.1721 -0.5096 -1.0769
 9268SOL    HW239264   0.201   1.723   1.012 -2.3266 -2.6671  1.1120
 9269SOL     OW39265   0.925   0.351   4.847 -0.6323  0.1743  0.4738
 9269SOL    HW139266   0.861   0.280   4.840  1.0117 -1.1383 -1.3820
 9269SOL    HW239267   0.960   0.342   4.936 -0.1401  0.8942  0.3449
 9270SOL     OW39268   2.177   2.901  12.901 -0.1178  0.0248  0.0168
 9270SOL    HW139269   2.263   2.881  12.938 -0.7783 -0.0991  1.4914
 9270SOL    HW239270   2.145   2.945  12.980  0.3995 -0.9888  0.7904
 9271SOL     OW39271   2.061   3.588   6.309  0.4963 -0.2029  0.9156
 9271SOL    HW139272   2.035   3.524   6.242  4.5039  2.2776 -3.0458
 9271SOL    HW239273   2.018   3.670   6.284  0.9098  0.1170  1.2802
 9272SOL     OW39274   3.007   1.935   6.820  0.0668  0.2183  0.0478
 9272SOL    HW139275   3.099   1.939   6.793 -0.1128 -1.2987 -0.7261
 9272SOL    HW239276   2.970   1.936   6.732  0.6130  2.4353 -0.1784
 9273SOL     OW39277   2.737   4.195   3.168  0.3372  0.1080  1.0024
 9273SOL    HW139278   2.787   4.199   3.250  2.6303  1.0568 -0.4301
 9273SOL    HW239279   2.755   4.276   3.120  0.4853 -0.4047  0.1940
 9274SOL     OW39280   3.561   1.663   0.884 -0.1998 -0.1605 -0.3409
 9274SOL    HW139281   3.640   1.644   0.935 -0.8407  0.1943  0.8081
 9274SOL    HW239282   3.488   1.628   0.935  0.1650 -0.2142  0.1541
 9275SOL     OW39283   1.044   4.577   2.074 -0.3552 -0.3655  0.3323
 9275SOL    HW139284   0.965   4.559   2.024  0.0842  2.1175 -1.2255
 9275SOL    HW239285   1.010   4.547   2.159  0.5462  0.5266  1.0068
 9276SOL     OW39286   0.838   0.578   1.681 -0.5851 -0.5879 -0.7205
 9276SOL    HW139287   0.817   0.543   1.594 -2.6886 -2.8196  0.6674
 9276SOL    HW239288   0.919   0.527   1.689 -0.9952 -1.1188 -0.0564
 9277SOL     OW39289   3.567   3.522   3.425 -0.1608 -0.2116  0.0526
 9277SOL    HW139290   3.546   3.534   3.517 -0.8291  0.4363 -0.1925
 9277SOL    HW239291   3.610   3.437   3.429  0.2171  0.0016  0.5508
 9278SOL     OW39292   3.859   3.968   3.042 -0.6114 -0.2957  0.1540
 9278SOL    HW139293   3.784   4.001   2.993  0.9105  2.3406 -0.4248
 9278SOL    HW239294   3.919   4.042   3.049  2.5464 -2.8571  0.0435
 9279SOL     OW39295   0.732   2.057   8.983  0.0834 -0.4539  0.3754
 9279SOL    HW139296   0.706   2.004   8.908 -2.6992  0.9505  0.3669
 9279SOL    HW239297   0.731   2.147   8.948  0.4326 -0.5659  0.0780
 9280SOL     OW39298   2.002   1.935   3.680  0.3492 -0.1680 -0.4612
 9280SOL    HW139299   1.911   1.947   3.710 -0.2378 -1.3444 -1.7583
 9280SOL    HW239300   1.980   1.923   3.587 -4.4620 -0.2227  0.6714
 9281SOL     OW39301   2.150   1.132   7.024 -0.0011 -0.7649 -0.4839
 9281SOL    HW139302   2.091   1.199   7.058 -0.3544 -0.8398 -0.9669
 9281SOL    HW239303   2.236   1.173   7.012 -1.0378  1.4359 -0.5350
 9282SOL     OW39304   1.968   2.345  17.564  0.5523  0.3518 -0.1948
 9282SOL    HW139305   2.041   2.328  17.624 -0.0968 -1.0881  0.1923
 9282SOL    HW239306   2.015   2.352  17.481  0.5594 -0.3970 -0.2558
 9283SOL     OW39307   2.809   3.719  10.791 -0.0912  0.3967 -0.2925
 9283SOL    HW139308   2.883   3.689  10.845  0.1882 -0.1170 -0.9543
 9283SOL    HW239309   2.781   3.797  10.839  0.5630  0.2527  0.3246
 9284SOL     OW39310   2.387   0.450   5.928 -0.4775 -0.0630  0.1792
 9284SOL    HW139311   2.300   0.488   5.943 -0.4674  0.4078 -0.9807
 9284SOL    HW239312   2.408   0.448   5.835  1.3583 -2.8718  0.6618
 9285SOL     OW39313   0.687   3.501   4.377  0.0967  0.1127 -0.0901
 9285SOL    HW139314   0.600   3.462   4.383 -0.2174  0.6625 -1.0513
 9285SOL    HW239315   0.666   3.583   4.422 -0.6742 -0.4795  0.6362
 9286SOL     OW39316   2.369   0.429  14.445 -0.1425  0.2964 -0.3884
 9286SOL    HW139317   2.446   0.388  14.484 -0.1020  0.3592 -0.4018
 9286SOL    HW239318   2.409   0.495  14.389 -0.0986 -1.4303 -2.4150
 9287SOL     OW39319   0.853   0.064   3.904 -0.4475  0.1282 -0.2762
 9287SOL    HW139320   0.772   0.029   3.939 -0.6138  2.9609  2.1471
 9287SOL    HW239321   0.896   4.703   3.892 -1.8705 -0.4269 -1.4152
 9288SOL     OW39322   1.162   3.869  12.875  0.7027 -0.5657  0.1371
 9288SOL    HW139323   1.092   3.918  12.918  1.2757 -1.7080  2.4384
 9288SOL    HW239324   1.134   3.875  12.784  0.5716  0.7013  0.2612
 9289SOL     OW39325   3.772   0.575   8.870  0.4748 -0.0818 -0.0818
 9289SOL    HW139326   3.719   0.605   8.796 -1.2208 -0.5702  0.9550
 9289SOL    HW239327   3.850   0.552   8.819 -0.3219 -1.2041 -0.8115
 9290SOL     OW39328   3.834   4.357   3.673 -0.5366 -0.2155 -0.2860
 9290SOL    HW139329   3.797   4.330   3.589 -0.7785  2.6703 -1.0788
 9290SOL    HW239330   3.844   4.452   3.671  1.2449 -0.3907  0.3978
 9291SOL     OW39331   1.306   0.337   7.314 -0.5400  0.4762  0.4730
 9291SOL    HW139332   1.355   0.258   7.337  0.6912  1.5320  1.4546
 9291SOL    HW239333   1.220   0.295   7.323  0.3478 -0.4360  4.3410
 9292SOL     OW39334   0.951   0.668  13.085 -0.1167 -0.4050  0.2308
 9292SOL    HW139335   0.957   0.761  13.104  2.1649 -0.3140 -0.9195
 9292SOL    HW239336   0.964   0.635  13.174 -1.9218  0.2808  0.7424
 9293SOL     OW39337   3.361   4.244   1.981  0.3136 -0.0191 -0.0837
 9293SOL    HW139338   3.450   4.222   1.956  0.0086 -0.1208 -1.1137
 9293SOL    HW239339   3.311   4.199   1.913  0.0740 -0.4646  0.3869
 9294SOL     OW39340   0.362   0.162   0.576  0.1813 -0.0947  0.2364
 9294SOL    HW139341   0.384   0.072   0.551  1.9824  0.7955 -1.3442
 9294SOL    HW239342   0.268   0.168   0.594  0.6924  0.7606  2.6818
 9295SOL     OW39343   4.480   0.007   4.867  0.7665 -0.5266  0.0834
 9295SOL    HW139344   4.464   4.646   4.908  2.2422 -0.9695 -0.2474
 9295SOL    HW239345   4.575   0.011   4.852  0.5924  1.0775 -0.6709
 9296SOL     OW39346   3.792   0.287   7.231  0.0913  0.1741 -0.0629
 9296SOL    HW139347   3.777   0.196   7.203  0.9719  0.0377 -0.0940
 9296SOL    HW239348   3.808   0.290   7.325 -0.2486 -1.6592  0.0672
 9297SOL     OW39349   2.407   3.206   7.060 -0.0644 -0.0075  0.1289
 9297SOL    HW139350   2.318   3.207   7.096 -0.5562 -0.2018 -1.0926
 9297SOL    HW239351   2.455   3.272   7.111 -0.7907  2.3454 -2.2324
 9298SOL     OW39352   0.224   2.374  10.644  0.0644 -0.0111  0.4092
 9298SOL    HW139353   0.246   2.460  10.609 -0.7159  0.5132  1.2344
 9298SOL    HW239354   0.299   2.356  10.701  2.9382  0.3428 -3.2635
 9299SOL     OW39355   3.882   4.473   6.510 -0.5779  0.1299 -0.5224
 9299SOL    HW139356   3.888   4.568   6.518  1.4472 -0.0867  0.6091
 9299SOL    HW239357   3.915   4.464   6.420 -1.8545 -1.3762 -0.8461
 9300SOL     OW39358   0.944   0.941  14.927 -0.1210 -0.7193 -0.6007
 9300SOL    HW139359   0.972   1.032  14.912 -2.1270 -0.5110 -3.0990
 9300SOL    HW239360   0.862   0.937  14.877 -0.6983 -1.1770  0.3991
 9301SOL     OW39361   3.556   1.401   9.887 -0.1712 -0.5198  0.3317
 9301SOL    HW139362   3.604   1.381   9.967 -2.7715 -0.8194  1.8310
 9301SOL    HW239363   3.478   1.442   9.925  1.0433  3.1219 -1.0313
 9302SOL     OW39364   3.398   3.622   6.823 -0.1927  0.4360  0.7368
 9302SOL    HW139365   3.373   3.586   6.738 -2.0288 -0.7349  1.7745
 9302SOL    HW239366   3.378   3.550   6.883 -4.2684  0.6627 -0.3533
 9303SOL     OW39367   4.663   1.510  13.635 -0.2774 -0.1847 -0.6589
 9303SOL    HW139368   4.575   1.519  13.671  0.7294  1.6720  1.3326
 9303SOL    HW239369   4.665   1.427  13.587 -1.3303 -1.5086  1.6045
 9304SOL     OW39370   3.109   0.816  10.527  0.2331 -0.3495 -0.1403
 9304SOL    HW139371   3.119   0.911  10.532  0.9944 -0.5575  2.3651
 9304SOL    HW239372   3.182   0.798  10.467  0.0401  0.6787 -0.6742
 9305SOL     OW39373   1.251   1.426  14.563 -0.1708 -0.1982 -0.1102
 9305SOL    HW139374   1.252   1.365  14.489 -0.4190  2.6809 -2.5223
 9305SOL    HW239375   1.302   1.381  14.630  1.4003  0.8256 -0.6213
 9306SOL     OW39376   1.429   1.591  14.185  0.5994 -0.3097 -0.6658
 9306SOL    HW139377   1.334   1.595  14.193  0.6870  0.7137 -0.1409
 9306SOL    HW239378   1.449   1.661  14.124 -1.0031  0.7376  0.0221
 9307SOL     OW39379   0.553   1.059   8.895 -0.4365  0.3630 -0.3519
 9307SOL    HW139380   0.468   1.065   8.851 -0.7299 -0.2308  0.1201
 9307SOL    HW239381   0.534   1.069   8.989  0.6891 -1.3179  0.0663
 9308SOL     OW39382   2.267   4.581   5.508  0.5048 -0.3454 -0.0010
 9308SOL    HW139383   2.302   4.664   5.475  0.1727  0.0819  0.7239
 9308SOL    HW239384   2.243   4.534   5.429 -0.0933 -2.1136  1.2428
 9309SOL     OW39385   3.649   2.993   2.045  0.4247 -0.1389  0.3017
 9309SOL    HW139386   3.604   2.964   2.125  0.9430  0.3390  0.7628
 9309SOL    HW239387   3.707   3.061   2.079 -0.2956  1.3437 -1.4491
 9310SOL     OW39388   4.684   0.954   6.369 -0.3465  0.0603  0.4227
 9310SOL    HW139389   4.596   0.945   6.333 -0.1391  0.2063 -0.1160
 9310SOL    HW239390   0.011   0.997   6.301  0.4424  0.5476  1.3066
 9311SOL     OW39391   3.931   3.252   4.581 -0.0805 -0.1737 -0.2222
 9311SOL    HW139392   3.854   3.211   4.541 -1.3597  1.1382  0.9169
 9311SOL    HW239393   3.903   3.294   4.662 -0.5933 -2.9691  1.0692
 9312SOL     OW39394   4.339   0.623   3.611  0.2698 -0.1596 -0.1737
 9312SOL    HW139395   4.382   0.702   3.577  2.0221 -0.4109  1.4650
 9312SOL    HW239396   4.380   0.607   3.696 -0.9749  1.0329  0.6528
 9313SOL     OW39397   2.103   3.374  11.997  0.1918 -0.2714 -0.3647
 9313SOL    HW139398   2.047   3.305  11.963 -0.4162 -0.0366  0.1433
 9313SOL    HW239399   2.183   3.323  12.006  1.6978  2.2493  0.5009
 9314SOL     OW39400   1.205   3.057   5.452  0.6933 -0.1650 -0.6864
 9314SOL    HW139401   1.216   2.979   5.507 -0.7868 -0.3102 -0.5854
 9314SOL    HW239402   1.278   3.052   5.391 -1.1178 -0.9998 -2.7950
 9315SOL     OW39403   0.346   1.076   6.202  0.3864  0.1017 -0.2322
 9315SOL    HW139404   0.337   1.171   6.213  0.2531 -0.3719  3.6031
 9315SOL    HW239405   0.283   1.067   6.130 -0.2155 -1.1398  0.4602
 9316SOL     OW39406   4.054   0.193  14.743  0.1325 -0.3159 -0.1267
 9316SOL    HW139407   4.029   0.283  14.720  1.6922 -0.3816 -2.1297
 9316SOL    HW239408   4.004   0.190  14.824 -0.0513 -1.0589 -0.2687
 9317SOL     OW39409   0.039   0.280   8.606 -0.2524  0.0882 -0.3871
 9317SOL    HW139410   0.055   0.282   8.700  0.9826  0.1591 -0.5865
 9317SOL    HW239411   4.671   0.308   8.605 -0.7686 -1.5930  0.8566
 9318SOL     OW39412   1.114   4.501  12.483 -0.4330 -0.0094 -0.3532
 9318SOL    HW139413   1.061   4.581  12.489  0.5192  0.6362 -0.3756
 9318SOL    HW239414   1.131   4.501  12.389  0.1868  2.4480 -0.2604
 9319SOL     OW39415   1.123   3.168   8.714  0.1842 -0.4541 -0.3573
 9319SOL    HW139416   1.212   3.174   8.748  0.1815  0.3857 -0.5033
 9319SOL    HW239417   1.091   3.087   8.754  2.1019 -0.9834  0.1263
 9320SOL     OW39418   2.401   2.713   5.766  0.1666 -0.5087 -0.5790
 9320SOL    HW139419   2.357   2.630   5.781  1.8102 -1.0570  1.2106
 9320SOL    HW239420   2.475   2.705   5.826 -1.1239 -0.1488  1.0545
 9321SOL     OW39421   4.427   3.756   8.420 -0.6612 -0.5861  0.1802
 9321SOL    HW139422   4.472   3.789   8.342 -0.9898 -1.8468 -0.5410
 9321SOL    HW239423   4.482   3.798   8.486 -1.4896  1.9137 -0.7485
 9322SOL     OW39424   4.552   1.958   4.234  0.4534 -0.4565 -0.2242
 9322SOL    HW139425   4.496   2.007   4.174  2.1623 -0.3088 -1.7132
 9322SOL    HW239426   4.493   1.948   4.309  1.7464  1.3682  1.0568
 9323SOL     OW39427   3.417   3.146   8.764 -0.0057 -0.7130  0.5208
 9323SOL    HW139428   3.509   3.172   8.760 -0.3033 -0.0907 -2.2742
 9323SOL    HW239429   3.400   3.140   8.858  1.5445 -0.3439  0.8292
 9324SOL     OW39430   0.065   1.015   9.333 -0.5898 -0.1852 -0.0190
 9324SOL    HW139431   0.079   1.099   9.376 -0.4392 -1.7594  3.0111
 9324SOL    HW239432   0.078   0.954   9.406  0.6364 -0.5080 -0.5165
 9325SOL     OW39433   1.356   2.297   6.434  0.5081  0.4810 -0.1592
 9325SOL    HW139434   1.294   2.225   6.441  1.2186 -0.0337  0.8240
 9325SOL    HW239435   1.349   2.327   6.343  1.5101 -1.0054 -0.7252
 9326SOL     OW39436   2.605   3.065  10.272  0.1111 -0.0039 -0.2688
 9326SOL    HW139437   2.620   2.982  10.318 -1.6920  1.1682  2.4695
 9326SOL    HW239438   2.651   3.129  10.327 -1.0584  1.2575 -0.7828
 9327SOL     OW39439   3.910   2.902   8.710  0.2241  0.5286 -0.0110
 9327SOL    HW139440   3.963   2.834   8.669 -1.5658  0.1448 -1.6960
 9327SOL    HW239441   3.819   2.873   8.697  0.1244  1.1823 -0.7613
 9328SOL     OW39442   3.278   4.677  16.276 -0.0099  0.1977 -0.1664
 9328SOL    HW139443   3.201   4.715  16.233  0.0003  0.0518 -0.3115
 9328SOL    HW239444   3.239   4.651  16.360  1.4134  1.6878  0.9701
 9329SOL     OW39445   1.138   4.072   5.235  0.5709  0.0310  0.0439
 9329SOL    HW139446   1.139   3.978   5.218  0.4765 -0.5923  3.5612
 9329SOL    HW239447   1.085   4.091   5.158  3.7026 -0.5590 -2.2660
 9330SOL     OW39448   1.830   1.083   8.485  0.0132 -0.3433  1.2101
 9330SOL    HW139449   1.879   1.039   8.555  1.2474 -1.5780 -0.4389
 9330SOL    HW239450   1.796   1.154   8.540 -1.0107 -0.2078  0.3861
 9331SOL     OW39451   3.825   4.155   5.742 -0.3200 -0.1151  0.2799
 9331SOL    HW139452   3.804   4.245   5.716 -0.8314 -1.0224 -2.4397
 9331SOL    HW239453   3.919   4.167   5.745 -0.3182 -0.1278  0.2735
 9332SOL     OW39454   1.127   0.617   8.125 -0.3391  0.4625 -0.4411
 9332SOL    HW139455   1.072   0.540   8.135  0.1493  0.2032  0.2490
 9332SOL    HW239456   1.189   0.597   8.055 -1.8759 -2.3741 -0.9721
 9333SOL     OW39457   3.142   1.643   2.794 -0.4344  0.1367 -0.6537
 9333SOL    HW139458   3.054   1.619   2.822 -0.1345 -1.7319 -1.3264
 9333SOL    HW239459   3.136   1.738   2.803  1.8920 -0.1624  4.1452
 9334SOL     OW39460   2.124   0.670   8.927  0.0061  0.7162  0.4755
 9334SOL    HW139461   2.137   0.707   9.015 -0.0995  0.0844  0.7640
 9334SOL    HW239462   2.050   0.716   8.887  1.2924  1.4983 -0.9815
 9335SOL     OW39463   3.720   4.579  12.524  0.0724  0.3780  0.9112
 9335SOL    HW139464   3.757   4.667  12.525 -1.1054  0.8734 -1.1842
 9335SOL    HW239465   3.769   4.531  12.457 -0.0449  1.2247  0.2227
 9336SOL     OW39466   1.442   1.136   1.197  0.0375  0.0566  0.5983
 9336SOL    HW139467   1.366   1.167   1.247 -1.5188 -0.9143 -1.1985
 9336SOL    HW239468   1.416   1.049   1.167 -1.5493  0.1331  1.7384
 9337SOL     OW39469   1.879   4.494  10.829 -0.0747 -0.0850  0.8450
 9337SOL    HW139470   1.911   4.583  10.843  0.1388  0.1275 -1.0576
 9337SOL    HW239471   1.954   4.453  10.786 -2.5874 -0.9663 -2.7252
 9338SOL     OW39472   0.459   1.117   6.901 -0.5060 -0.0708  0.3624
 9338SOL    HW139473   0.368   1.119   6.871 -0.1562 -0.1579 -0.6831
 9338SOL    HW239474   0.440   1.175   6.974 -1.3638 -0.0296  0.1031
 9339SOL     OW39475   2.834   1.535   7.028  0.7965 -0.2667  0.3000
 9339SOL    HW139476   2.757   1.591   7.021  1.6011  0.6905 -0.8634
 9339SOL    HW239477   2.790   1.454   7.055  0.2362 -0.4915 -1.3035
 9340SOL     OW39478   4.337   2.939   5.420  0.3089 -0.2832  0.0364
 9340SOL    HW139479   4.346   3.019   5.369 -0.0689 -0.9337 -1.0457
 9340SOL    HW239480   4.392   2.883   5.365 -1.3103 -1.0073 -0.8473
 9341SOL     OW39481   4.348   0.370   7.119  0.0831 -1.3282  0.4425
 9341SOL    HW139482   4.280   0.436   7.132  1.6371 -0.0325  2.0354
 9341SOL    HW239483   4.412   0.407   7.180 -0.1554 -1.6411  0.8867
 9342SOL     OW39484   1.954   0.090   4.556 -0.0434  0.4747 -0.4331
 9342SOL    HW139485   2.041   0.122   4.577 -0.1432  1.4471 -1.5088
 9342SOL    HW239486   1.904   0.163   4.520  0.4199  1.6108  1.2376
 9343SOL     OW39487   0.382   2.471   7.286 -0.4063  0.0688  0.1111
 9343SOL    HW139488   0.290   2.466   7.310 -0.6817  1.4139 -0.6799
 9343SOL    HW239489   0.419   2.384   7.302  1.2257  0.2108 -2.7721
 9344SOL     OW39490   1.821   0.135  11.250  0.0333  0.5980  0.4075
 9344SOL    HW139491   1.838   0.223  11.218 -1.6634 -0.0440 -2.3226
 9344SOL    HW239492   1.908   0.096  11.240  0.1946  0.4854  2.2694
 9345SOL     OW39493   4.214   3.714   4.657  0.1087  0.2655 -0.0660
 9345SOL    HW139494   4.147   3.653   4.630  1.9375 -0.4543 -2.9058
 9345SOL    HW239495   4.180   3.798   4.626 -0.0346  0.4486  0.5869
 9346SOL     OW39496   1.960   3.181   3.249  0.3439  0.1122 -0.0238
 9346SOL    HW139497   1.927   3.153   3.164  1.2260  0.9182 -0.6352
 9346SOL    HW239498   1.929   3.113   3.308 -1.4094  0.8290 -0.1404
 9347SOL     OW39499   2.528   4.086   4.488 -0.0525  0.4460 -0.0004
 9347SOL    HW139500   2.463   4.063   4.422  0.5414  0.0755 -0.4604
 9347SOL    HW239501   2.518   4.009   4.545 -2.8762  1.2287  0.5381
 9348SOL     OW39502   3.386   4.414   1.042 -0.0990 -0.2021  0.3660
 9348SOL    HW139503   3.311   4.377   1.088  0.0550 -0.7806  0.1472
 9348SOL    HW239504   3.427   4.439   1.125  1.2326  0.2372 -0.4161
 9349SOL     OW39505   0.615   1.218  16.773 -0.1845 -0.1266 -0.4744
 9349SOL    HW139506   0.552   1.179  16.834  0.2688  0.7062  0.5334
 9349SOL    HW239507   0.685   1.238  16.836  0.1088 -0.5022 -0.6843
 9350SOL     OW39508   1.291   4.533   6.572  0.4469  0.1532 -0.2375
 9350SOL    HW139509   1.323   4.451   6.609  0.9060 -1.4948 -4.3011
 9350SOL    HW239510   1.267   4.593   6.644  1.7516  0.0379  0.2912
 9351SOL     OW39511   2.352   3.714   2.594  0.1846  0.6477  0.6679
 9351SOL    HW139512   2.351   3.619   2.581  1.0339  0.7263 -0.0000
 9351SOL    HW239513   2.409   3.745   2.523  1.4723  0.2954  1.5410
 9352SOL     OW39514   1.405   1.628  15.911  0.4345 -0.1781 -0.4921
 9352SOL    HW139515   1.484   1.667  15.948 -0.0408  2.2864 -2.0522
 9352SOL    HW239516   1.384   1.572  15.986 -1.3088 -0.4469 -1.1762
 9353SOL     OW39517   3.668   2.834   9.092 -0.1442  0.0450  0.1431
 9353SOL    HW139518   3.583   2.812   9.055 -0.3960  1.9662 -0.4298
 9353SOL    HW239519   3.667   2.796   9.180 -0.0474 -1.2025 -0.3901
 9354SOL     OW39520   4.593   0.419   1.393 -0.1961 -0.4583 -0.2698
 9354SOL    HW139521   4.637   0.404   1.476  0.7196  1.5943 -0.3722
 9354SOL    HW239522   4.662   0.457   1.339 -1.9484  0.6321 -1.7475
 9355SOL     OW39523   2.971   2.433   8.785  0.1605  0.0644 -0.1747
 9355SOL    HW139524   3.014   2.477   8.712  1.5094  2.0521  1.8231
 9355SOL    HW239525   2.891   2.486   8.789  1.5780  2.2192 -0.8907
 9356SOL     OW39526   1.572   3.153  14.983  0.2540  0.2297  0.2745
 9356SOL    HW139527   1.639   3.102  14.937 -2.7879 -1.1817 -2.6383
 9356SOL    HW239528   1.494   3.099  14.996  0.6182 -0.3057  0.2254
 9357SOL     OW39529   4.026   0.145   2.482  0.0438  0.6756 -0.2799
 9357SOL    HW139530   4.083   0.190   2.544 -0.4230  1.9978 -0.8083
 9357SOL    HW239531   3.969   0.222   2.482  0.4749  0.9994 -0.2564
 9358SOL     OW39532   1.871   3.517   3.000 -0.5726  0.1055 -0.5120
 9358SOL    HW139533   1.899   3.520   2.909 -0.4278  1.9813 -0.3971
 9358SOL    HW239534   1.952   3.512   3.051  0.4435 -0.2717 -2.1423
 9359SOL     OW39535   3.754   1.121   5.784  0.0011 -0.3556  0.2708
 9359SOL    HW139536   3.825   1.058   5.791 -0.6343 -1.2583 -1.2024
 9359SOL    HW239537   3.710   1.131   5.869 -0.1215 -1.5247  0.3476
 9360SOL     OW39538   4.693   3.378   2.304 -0.1654 -0.0367 -0.7180
 9360SOL    HW139539   4.647   3.387   2.387  2.2335 -0.6896  0.6528
 9360SOL    HW239540   0.031   3.310   2.329  1.1000  1.2171 -0.4211
 9361SOL     OW39541   4.520   2.047   9.136 -0.0772  0.2554 -0.0682
 9361SOL    HW139542   4.428   2.018   9.137  0.5791 -1.8328 -0.8927
 9361SOL    HW239543   4.544   2.045   9.229  2.6963  0.8828 -0.7828
 9362SOL     OW39544   4.137   0.955  10.141  0.4291  0.2498 -0.5889
 9362SOL    HW139545   4.096   1.008  10.073  0.4175  1.3374  0.2593
 9362SOL    HW239546   4.231   0.965  10.125  0.5664 -0.3641 -0.1333
 9363SOL     OW39547   1.810   1.360   1.314  0.0992 -0.2777 -0.4272
 9363SOL    HW139548   1.864   1.369   1.236 -0.3977 -0.7347 -0.8215
 9363SOL    HW239549   1.748   1.428   1.287 -0.2124 -1.9927 -4.0880
 9364SOL     OW39550   4.349   2.263   1.372  0.0351  0.2602 -0.2677
 9364SOL    HW139551   4.444   2.254   1.376 -0.1400 -0.5287  2.5507
 9364SOL    HW239552   4.352   2.270   1.277 -2.9853  1.0131 -0.2935
 9365SOL     OW39553   0.548   2.457  11.753 -0.2028  0.0101  0.0214
 9365SOL    HW139554   0.627   2.499  11.788 -1.0285  1.1951  0.4591
 9365SOL    HW239555   0.573   2.367  11.732 -1.3486 -0.5584  1.1055
 9366SOL     OW39556   2.897   2.303   2.836  0.3081  0.7809 -0.2110
 9366SOL    HW139557   2.865   2.278   2.923  0.1464  2.4702  0.2068
 9366SOL    HW239558   2.986   2.270   2.846 -0.8116 -1.6960  1.6466
 9367SOL     OW39559   1.289   2.370   5.368 -0.0893  0.2059 -0.1155
 9367SOL    HW139560   1.362   2.364   5.429 -1.7513 -0.9867  1.7417
 9367SOL    HW239561   1.288   2.282   5.329 -1.6829  0.3635 -0.4512
 9368SOL     OW39562   3.471   4.607   8.522 -0.3152  0.0094 -0.0879
 9368SOL    HW139563   3.518   4.648   8.595 -3.4616  1.5654  1.0474
 9368SOL    HW239564   3.411   4.573   8.588  0.9399  0.1094  1.1161
 9369SOL     OW39565   1.537   0.355  12.216 -0.3872 -0.0298  0.3904
 9369SOL    HW139566   1.510   0.424  12.277  2.4820  0.9339  0.5812
 9369SOL    HW239567   1.509   0.387  12.130 -0.1280  1.4611  0.8708
 9370SOL     OW39568   4.721   4.110   7.390  0.5223  0.7902 -0.5367
 9370SOL    HW139569   4.682   4.187   7.432  0.6762 -0.5735  2.1275
 9370SOL    HW239570   0.088   4.136   7.405 -0.0677  1.4905  1.9512
 9371SOL     OW39571   4.086   2.401   6.226 -0.0755  0.4274 -0.4501
 9371SOL    HW139572   4.045   2.420   6.142  0.2259 -0.4048 -0.7927
 9371SOL    HW239573   4.177   2.400   6.196  0.6601 -0.1767  1.7284
 9372SOL     OW39574   3.373   4.463   8.947 -0.1461  0.3143 -0.2410
 9372SOL    HW139575   3.374   4.388   9.007  2.0710 -0.4989 -1.2589
 9372SOL    HW239576   3.362   4.527   9.017  1.3980  0.9663 -0.6072
 9373SOL     OW39577   3.701   3.028  16.832 -1.0447  0.3439  0.1466
 9373SOL    HW139578   3.662   2.967  16.895  0.9432 -0.4677  0.5897
 9373SOL    HW239579   3.651   3.029  16.751  0.9219  0.8938 -1.0556
 9374SOL     OW39580   0.344   1.234  11.241 -0.4582  0.6513 -0.1587
 9374SOL    HW139581   0.359   1.177  11.317 -1.1035  0.7409  0.0314
 9374SOL    HW239582   0.257   1.208  11.211 -0.1283  0.8529 -1.3042
 9375SOL     OW39583   4.477   1.846   5.672 -0.7363 -0.0017  0.3211
 9375SOL    HW139584   4.565   1.817   5.697  0.0903  1.3213 -1.0317
 9375SOL    HW239585   4.443   1.786   5.606 -0.6778 -2.2314  2.3359
 9376SOL     OW39586   1.500   4.026   5.234  0.1690  0.3842  0.0963
 9376SOL    HW139587   1.555   4.103   5.249  1.8289 -0.6668 -0.5685
 9376SOL    HW239588   1.453   4.011   5.315 -1.5720 -1.2025 -1.2071
 9377SOL     OW39589   1.166   0.230   2.777 -0.2192  0.1956 -0.4126
 9377SOL    HW139590   1.173   0.294   2.706  2.4254  1.3118  0.8676
 9377SOL    HW239591   1.076   0.224   2.811  0.1162 -0.9631  0.2830
 9378SOL     OW39592   2.078   0.444  13.256  0.2492 -0.1425  0.0603
 9378SOL    HW139593   2.123   0.411  13.334  0.6011 -0.8052 -0.4201
 9378SOL    HW239594   2.121   0.530  13.248  0.1944 -0.3923 -2.9453
 9379SOL     OW39595   3.534   4.026   7.978  0.6938  0.1397  0.7617
 9379SOL    HW139596   3.455   4.037   8.031  0.5355  0.2060  0.5093
 9379SOL    HW239597   3.513   3.945   7.931  2.5908  0.5575 -0.8024
 9380SOL     OW39598   4.253   1.272   6.018 -0.2395  0.6135  0.4104
 9380SOL    HW139599   4.232   1.196   5.965 -0.5570  0.0490  1.3317
 9380SOL    HW239600   4.190   1.326   5.970 -1.1181  1.6663  2.7369
 9381SOL     OW39601   4.203   1.430   2.804 -0.7872  0.0454  0.0104
 9381SOL    HW139602   4.250   1.506   2.769  0.9121 -0.7985  0.4837
 9381SOL    HW239603   4.154   1.421   2.723  0.8304 -1.0827 -0.8385
 9382SOL     OW39604   3.834   3.391   3.210  0.5692  0.1029  0.3431
 9382SOL    HW139605   3.771   3.440   3.157 -1.0245 -1.3437  0.8549
 9382SOL    HW239606   3.920   3.413   3.175  0.2831  1.1111  0.2728
 9383SOL     OW39607   2.348   2.084   2.600 -0.2657 -0.3377 -0.2632
 9383SOL    HW139608   2.390   2.040   2.526 -0.9084 -1.3848 -0.0179
 9383SOL    HW239609   2.363   2.010   2.660  0.1361  0.8349  1.0855
 9384SOL     OW39610   0.205   3.754   8.776  0.3733  0.5790 -0.3036
 9384SOL    HW139611   0.215   3.846   8.752  1.2594  0.2785 -1.1002
 9384SOL    HW239612   0.267   3.710   8.717  1.1586 -0.9022  1.6294
 9385SOL     OW39613   3.524   0.046   3.301 -0.2436 -0.1659 -0.1879
 9385SOL    HW139614   3.545   0.125   3.350  2.6183 -1.4816  0.6705
 9385SOL    HW239615   3.584   4.701   3.331 -0.6250 -0.0752  0.7679
 9386SOL     OW39616   3.535   0.775   2.388  0.0422 -0.5097 -0.5136
 9386SOL    HW139617   3.454   0.789   2.438  0.3196 -1.5561  0.2390
 9386SOL    HW239618   3.498   0.771   2.300  1.3779 -0.1662 -1.0847
 9387SOL     OW39619   0.566   3.603   8.421  0.0466 -0.1914 -0.4694
 9387SOL    HW139620   0.644   3.550   8.407 -1.1063 -1.4765 -2.0912
 9387SOL    HW239621   0.565   3.655   8.341 -0.6016 -0.5739 -0.7109
 9388SOL     OW39622   1.593   1.972   3.391  0.0745  0.0762  0.4524
 9388SOL    HW139623   1.651   1.979   3.467 -0.6857 -1.3062  1.1620
 9388SOL    HW239624   1.562   2.062   3.387 -0.1514  0.0547  1.7021
 9389SOL     OW39625   2.121   3.570   3.418  0.0795  0.3368  0.1635
 9389SOL    HW139626   2.194   3.619   3.380  0.7908  1.7980  3.3819
 9389SOL    HW239627   2.171   3.498   3.457 -1.0928 -0.9016 -0.6310
 9390SOL     OW39628   4.692   3.127   4.137  0.0279 -0.4803  0.1644
 9390SOL    HW139629   4.639   3.172   4.203  0.2227 -0.4560  0.3034
 9390SOL    HW239630   4.702   3.195   4.071 -1.1701  1.2357  1.7624
 9391SOL     OW39631   1.892   3.803   7.898  0.0173  0.2521  0.2599
 9391SOL    HW139632   1.844   3.738   7.950 -0.0754 -0.6982 -1.0097
 9391SOL    HW239633   1.890   3.748   7.820  2.9607 -2.4460  2.0973
 9392SOL     OW39634   4.070   1.202   6.246 -0.0094 -0.0026 -0.4167
 9392SOL    HW139635   4.006   1.269   6.222 -0.4206 -0.9972 -2.1108
 9392SOL    HW239636   4.148   1.226   6.197 -0.7948 -0.3485 -1.8346
 9393SOL     OW39637   2.412   1.596  16.492 -0.3832  0.8791 -0.3316
 9393SOL    HW139638   2.396   1.638  16.408  0.1609 -0.6591 -1.2238
 9393SOL    HW239639   2.340   1.533  16.489  0.9889 -0.7421  0.3894
 9394SOL     OW39640   1.596   0.501  13.452 -0.3074 -0.0604  0.5658
 9394SOL    HW139641   1.658   0.524  13.383  0.2885 -1.4809  0.6219
 9394SOL    HW239642   1.642   0.423  13.484 -0.1320  0.8587  2.5534
 9395SOL     OW39643   3.420   2.206   7.439 -0.1055 -0.5758  0.2157
 9395SOL    HW139644   3.346   2.252   7.478 -0.9650 -0.2402 -1.8257
 9395SOL    HW239645   3.464   2.287   7.416  1.2315 -0.6368  2.5747
 9396SOL     OW39646   3.104   2.287   4.837  0.7407  0.3456 -0.2776
 9396SOL    HW139647   3.145   2.343   4.903  0.9556  1.0835 -1.0247
 9396SOL    HW239648   3.063   2.354   4.782 -0.1427 -0.2009 -0.2804
 9397SOL     OW39649   0.430   2.026  10.939 -0.5585 -0.1250 -0.0659
 9397SOL    HW139650   0.499   1.984  10.990 -1.2090 -0.1145  0.8110
 9397SOL    HW239651   0.420   1.963  10.868  0.3502  0.9641 -1.1654
 9398SOL     OW39652   1.732   4.388   8.152 -0.0657  0.1869  0.2262
 9398SOL    HW139653   1.757   4.380   8.244  1.4240  1.4060 -0.0544
 9398SOL    HW239654   1.737   4.484   8.149  1.8018  0.1091  0.7646
 9399SOL     OW39655   0.336   3.306   5.676 -0.4091  0.8383  0.2168
 9399SOL    HW139656   0.419   3.349   5.700  1.0497 -2.8442  1.8219
 9399SOL    HW239657   0.311   3.354   5.598 -1.1518 -2.4170 -1.5518
 9400SOL     OW39658   4.547   1.838   3.177  0.6749 -0.4678 -0.3339
 9400SOL    HW139659   4.640   1.856   3.164  0.2881  1.6183 -0.1967
 9400SOL    HW239660   4.511   1.909   3.123  0.1735 -1.3613 -1.1761
 9401SOL     OW39661   4.194   0.761   6.091  0.3929  0.2595  0.3456
 9401SOL    HW139662   4.254   0.780   6.019 -0.3350  0.9145 -0.0886
 9401SOL    HW239663   4.132   0.700   6.050 -0.9225  0.4344  2.0621
 9402SOL     OW39664   0.761   1.153   3.494  0.5791  0.2574 -0.4050
 9402SOL    HW139665   0.667   1.156   3.476  0.9066  2.2692 -1.7604
 9402SOL    HW239666   0.758   1.121   3.584 -0.4801  1.6330  0.0522
 9403SOL     OW39667   1.688   3.034   0.731  0.0480 -0.0950  0.0411
 9403SOL    HW139668   1.631   3.109   0.746  2.9608  1.7729  1.5735
 9403SOL    HW239669   1.618   2.968   0.727 -1.6966  1.6072  2.5473
 9404SOL     OW39670   3.809   0.662  10.163 -0.0925  0.6161 -0.7144
 9404SOL    HW139671   3.895   0.634  10.133  0.3904 -1.0780  2.2204
 9404SOL    HW239672   3.821   0.745  10.210 -1.0900 -0.4003  1.3192
 9405SOL     OW39673   0.237   2.711   4.147 -0.2109 -0.5414  0.2187
 9405SOL    HW139674   0.221   2.642   4.084 -0.9661  0.4872 -0.7177
 9405SOL    HW239675   0.173   2.773   4.111  0.6740  1.4946  2.1353
 9406SOL     OW39676   3.046   4.618   9.279 -0.3823 -0.0806  0.1188
 9406SOL    HW139677   3.037   4.525   9.297  0.2525  0.5433  3.6605
 9406SOL    HW239678   3.029   4.643   9.370 -0.9556 -0.3023  0.0696
 9407SOL     OW39679   3.875   2.859   4.801  0.3034  0.1419 -0.5353
 9407SOL    HW139680   3.845   2.856   4.710  1.3996 -0.3720 -0.8825
 9407SOL    HW239681   3.806   2.912   4.840  0.3777  0.0888 -0.3310
 9408SOL     OW39682   0.346   3.327   7.147 -0.3203  0.6822 -0.2706
 9408SOL    HW139683   0.407   3.386   7.192  0.8684 -0.6902 -0.0779
 9408SOL    HW239684   0.319   3.295   7.234  1.0977  0.6317  0.1562
 9409SOL     OW39685   0.598   2.702   7.827 -0.0189  0.0713 -0.3690
 9409SOL    HW139686   0.660   2.638   7.862  0.0298  1.2063  1.5911
 9409SOL    HW239687   0.647   2.751   7.760  2.6314 -1.5988  0.3570
 9410SOL     OW39688   1.168   2.445   5.968  0.1013  0.3042  0.2047
 9410SOL    HW139689   1.076   2.424   5.948  0.2148  0.6296 -0.6757
 9410SOL    HW239690   1.160   2.537   5.992  3.5607  0.8048 -0.6172
 9411SOL     OW39691   1.885   2.395   0.207 -0.3900 -0.2430 -0.6644
 9411SOL    HW139692   1.928   2.319   0.166  0.2966 -0.7294  0.9430
 9411SOL    HW239693   1.801   2.385   0.163 -0.8854  1.1370 -0.0386
 9412SOL     OW39694   4.228   4.307   3.362  0.1908  0.0423  0.1500
 9412SOL    HW139695   4.200   4.373   3.425  0.3569 -1.6430  1.9906
 9412SOL    HW239696   4.321   4.303   3.386 -0.0288  0.4515  1.0809
 9413SOL     OW39697   0.451   2.710   0.629 -0.1829  0.2050 -0.1135
 9413SOL    HW139698   0.391   2.782   0.609  2.0452  1.5561 -1.9337
 9413SOL    HW239699   0.435   2.659   0.549  0.5628  1.2080 -0.8926
 9414SOL     OW39700   1.177   3.463   0.762  0.3664 -0.0692  0.5855
 9414SOL    HW139701   1.238   3.512   0.817  2.6982 -0.2042 -1.8683
 9414SOL    HW239702   1.136   3.404   0.825  1.1048  1.2630  2.3143
 9415SOL     OW39703   1.911   1.476   5.152 -0.1297  0.1049 -0.2210
 9415SOL    HW139704   1.924   1.385   5.180  1.5487  0.3781 -0.1421
 9415SOL    HW239705   1.825   1.470   5.111 -0.9941 -0.0119  1.6153
 9416SOL     OW39706   0.837   2.547   3.409 -0.1537  0.2979 -0.4619
 9416SOL    HW139707   0.802   2.557   3.498  0.8506 -0.5600  0.0290
 9416SOL    HW239708   0.830   2.640   3.387 -0.8573  0.1691 -0.7683
 9417SOL     OW39709   3.615   1.060  12.265 -0.1025  0.1106  0.6513
 9417SOL    HW139710   3.624   1.131  12.329  2.4215  1.2334 -0.9672
 9417SOL    HW239711   3.569   1.109  12.197  1.0298 -0.4949 -0.5477
 9418SOL     OW39712   2.614   4.002   3.819  0.0425 -0.1373  1.0498
 9418SOL    HW139713   2.682   4.019   3.753 -2.2807 -2.7031 -2.0318
 9418SOL    HW239714   2.623   3.907   3.827 -1.7709 -0.4708 -0.7355
 9419SOL     OW39715   3.797   0.140  11.580 -0.1059  0.1996 -0.1983
 9419SOL    HW139716   3.748   0.093  11.514  2.0993 -0.3937 -1.4156
 9419SOL    HW239717   3.750   0.223  11.582  0.2513  0.4166 -1.0482
 9420SOL     OW39718   0.558   1.590   9.598 -0.3398 -0.3087 -0.4730
 9420SOL    HW139719   0.524   1.663   9.649 -0.7913 -1.1775  0.4903
 9420SOL    HW239720   0.642   1.621   9.566  0.2670 -2.0754 -0.6215
 9421SOL     OW39721   0.446   0.858   8.183 -0.6142 -0.0437  0.0473
 9421SOL    HW139722   0.393   0.924   8.227 -0.1755  1.9819 -2.4445
 9421SOL    HW239723   0.526   0.878   8.230 -0.0609  1.4762 -1.5265
 9422SOL     OW39724   0.503   3.426   3.854 -0.1362  0.0073 -0.3451
 9422SOL    HW139725   0.534   3.461   3.771 -2.5061  0.6037 -0.9557
 9422SOL    HW239726   0.515   3.332   3.841  1.1282 -0.0224  0.9303
 9423SOL     OW39727   3.989   0.951   6.145 -0.3669  0.2873 -0.4875
 9423SOL    HW139728   4.024   1.037   6.169  1.1544 -0.3462 -0.4280
 9423SOL    HW239729   4.064   0.892   6.142 -1.3736 -1.1934  2.8833
 9424SOL     OW39730   3.508   2.879   2.254  0.3859  0.7286 -0.4448
 9424SOL    HW139731   3.548   2.919   2.331  0.9110  1.0667 -0.8899
 9424SOL    HW239732   3.560   2.799   2.249  0.4552  0.6508  1.3145
 9425SOL     OW39733   3.755   4.709   8.584  0.0550 -0.6815  0.2058
 9425SOL    HW139734   3.694   4.635   8.589 -0.9931  0.1780 -0.0428
 9425SOL    HW239735   3.770   4.715   8.490  0.1748 -0.3368  0.2479
 9426SOL     OW39736   1.733   1.999   3.777 -0.1756 -0.0479  0.3369
 9426SOL    HW139737   1.710   1.981   3.868  2.5230 -1.0116  0.8322
 9426SOL    HW239738   1.736   2.095   3.783  2.2179 -0.1155  0.2729
 9427SOL     OW39739   0.110   2.949   8.153 -0.3092 -0.4652 -0.2283
 9427SOL    HW139740   0.133   2.876   8.095  0.4624  0.6110 -1.3052
 9427SOL    HW239741   0.189   2.958   8.206  0.4613  1.2365 -1.6188
 9428SOL     OW39742   4.713   0.828   1.258  0.2518  0.0045 -0.0143
 9428SOL    HW139743   4.670   0.900   1.213 -1.0598 -0.7294  0.0370
 9428SOL    HW239744   4.695   0.766   1.187 -1.1133 -1.4391  1.5689
 9429SOL     OW39745   3.406   4.111   1.156  0.0648  0.6172  0.4100
 9429SOL    HW139746   3.311   4.109   1.159  0.0786 -1.2514 -0.7247
 9429SOL    HW239747   3.414   4.155   1.241  0.0706  0.9103  0.2593
 9430SOL     OW39748   4.318   0.559  17.352  0.5001 -0.0531  0.5656
 9430SOL    HW139749   4.254   0.513  17.298 -1.1659  0.0952  2.4229
 9430SOL    HW239750   4.289   0.650  17.339  1.4437 -0.0986 -1.7712
 9431SOL     OW39751   2.668   0.298   5.865 -0.2999 -0.1970 -0.2174
 9431SOL    HW139752   2.745   0.326   5.815 -0.6198  0.1875 -0.4942
 9431SOL    HW239753   2.601   0.341   5.813 -0.7041 -0.2716  0.2416
 9432SOL     OW39754   2.328   4.130  14.543 -0.2687 -0.9972  0.4580
 9432SOL    HW139755   2.396   4.071  14.510  1.4153  0.9128  0.5401
 9432SOL    HW239756   2.294   4.160  14.459  0.7371 -0.7422  0.1479
 9433SOL     OW39757   0.889   4.718   7.919  0.3188 -0.2759 -0.0102
 9433SOL    HW139758   0.834   0.036   7.852  1.3579 -0.5971 -1.0613
 9433SOL    HW239759   0.944   4.662   7.864 -1.0873 -2.1241  0.4844
 9434SOL     OW39760   2.213   2.471   1.212  0.0398  0.3963 -0.1450
 9434SOL    HW139761   2.166   2.550   1.185 -0.6238  0.2860  0.6696
 9434SOL    HW239762   2.285   2.513   1.259  0.4911 -0.3282 -0.1883
 9435SOL     OW39763   2.632   0.244   6.517 -0.3136 -0.4655 -0.1351
 9435SOL    HW139764   2.607   0.324   6.471  1.1098 -0.4121 -0.8105
 9435SOL    HW239765   2.686   0.201   6.450 -2.1755 -0.8589 -1.3664
 9436SOL     OW39766   0.904   0.321   0.445 -0.0996  0.0193  0.9242
 9436SOL    HW139767   0.867   0.409   0.441 -2.0027 -0.8223 -0.1067
 9436SOL    HW239768   0.975   0.336   0.383  3.2144 -0.1302  4.6904
 9437SOL     OW39769   0.400   3.164  14.677  0.5616  0.4417  0.3577
 9437SOL    HW139770   0.322   3.115  14.652 -0.0066  1.4981  0.0685
 9437SOL    HW239771   0.444   3.083  14.703  1.2906  0.5288 -0.6091
 9438SOL     OW39772   2.030   3.318   4.518  0.0323  0.1660 -0.0450
 9438SOL    HW139773   1.963   3.322   4.450  0.3271 -1.3544 -0.4261
 9438SOL    HW239774   1.985   3.270   4.588 -1.5375 -0.0219 -1.1803
 9439SOL     OW39775   1.574   2.250   6.955  0.0538 -0.4716 -0.0413
 9439SOL    HW139776   1.577   2.334   6.909  0.9325  0.5348  1.8526
 9439SOL    HW239777   1.664   2.225   6.934  0.2991  0.2704  0.1511
 9440SOL     OW39778   0.436   3.693  10.803  0.0908  0.1568 -0.1604
 9440SOL    HW139779   0.356   3.695  10.857 -0.6558  1.4473 -1.3131
 9440SOL    HW239780   0.444   3.598  10.789  1.6129  0.2559  0.0964
 9441SOL     OW39781   1.341   0.888  11.796  0.5896 -0.0240  0.0375
 9441SOL    HW139782   1.327   0.904  11.889  0.3662  0.6216 -0.1086
 9441SOL    HW239783   1.384   0.964  11.758 -1.2476  1.2860  0.5556
 9442SOL     OW39784   1.358   3.116   6.815  0.3125  0.8126 -0.0298
 9442SOL    HW139785   1.374   3.031   6.775  2.0998  0.5027  1.3555
 9442SOL    HW239786   1.268   3.103   6.843  1.5954 -1.8403  2.8374
 9443SOL     OW39787   4.219   4.233  10.162 -0.0220 -0.6247  0.2566
 9443SOL    HW139788   4.229   4.167  10.093 -2.0357 -0.7126  0.0519
 9443SOL    HW239789   4.244   4.312  10.113 -0.9459 -0.4797  0.0027
 9444SOL     OW39790   1.089   0.744   2.796  0.3103  0.0952  0.0219
 9444SOL    HW139791   1.154   0.805   2.831  0.4317 -0.4330  0.7182
 9444SOL    HW239792   1.005   0.783   2.822 -1.0601 -2.4320 -0.6571
 9445SOL     OW39793   1.213   2.093  13.262  0.1598  0.2982 -0.1379
 9445SOL    HW139794   1.273   2.060  13.196  0.5103 -1.7195  1.1943
 9445SOL    HW239795   1.156   2.147  13.207  0.8326  1.6344  0.4675
 9446SOL     OW39796   1.828   0.922   4.283 -0.4152  0.2053  0.4224
 9446SOL    HW139797   1.734   0.938   4.293 -0.2293  2.3291 -1.1285
 9446SOL    HW239798   1.838   0.936   4.189  0.6116 -2.2787  0.1800
 9447SOL     OW39799   2.168   4.022   7.624  0.4995 -0.1246 -0.3055
 9447SOL    HW139800   2.254   4.037   7.664  1.5128 -1.2357 -2.0850
 9447SOL    HW239801   2.185   3.973   7.544  1.6401 -0.3777  0.0826
 9448SOL     OW39802   1.476   4.512  10.227  0.6473 -0.0320  0.1394
 9448SOL    HW139803   1.533   4.580  10.263  2.2262 -0.8431 -0.8516
 9448SOL    HW239804   1.438   4.464  10.301  1.8103 -0.0448  0.7297
 9449SOL     OW39805   1.770   2.481  13.659 -0.3070  0.4441 -0.0631
 9449SOL    HW139806   1.750   2.468  13.567 -0.1901 -0.5007  0.0490
 9449SOL    HW239807   1.806   2.570  13.659  0.7187  0.0388  2.0213
 9450SOL     OW39808   1.230   1.983   8.928  0.3467  0.6489  0.2035
 9450SOL    HW139809   1.139   1.966   8.900  0.9118  0.7629 -1.6831
 9450SOL    HW239810   1.258   2.070   8.902 -0.2347  1.0822  1.0160
 9451SOL     OW39811   0.429   2.890   9.666  0.2667 -0.1596  0.6335
 9451SOL    HW139812   0.468   2.977   9.665  0.5127 -0.2711  0.5664
 9451SOL    HW239813   0.503   2.830   9.659 -0.6451 -1.0117 -1.7024
 9452SOL     OW39814   2.729   1.535   2.608  0.2927  0.2539 -0.5702
 9452SOL    HW139815   2.811   1.528   2.657 -0.8192 -4.3210  0.6028
 9452SOL    HW239816   2.663   1.482   2.651  2.4037 -0.6423  1.5032
 9453SOL     OW39817   1.988   3.196   5.908 -0.8369  0.2295  0.6096
 9453SOL    HW139818   2.001   3.266   5.844  0.6403  2.0184  2.8929
 9453SOL    HW239819   1.937   3.126   5.866 -1.5993  0.4118  1.2243
 9454SOL     OW39820   3.421   1.697   9.462 -0.3038  0.0097  0.1190
 9454SOL    HW139821   3.350   1.660   9.515 -1.5951 -0.7982 -2.2011
 9454SOL    HW239822   3.376   1.717   9.381 -0.2114  0.2336  0.1242
 9455SOL     OW39823   3.029   2.478  16.066 -0.1746  0.2009  0.2644
 9455SOL    HW139824   2.996   2.477  16.156  0.1482 -1.2684  0.3642
 9455SOL    HW239825   2.989   2.394  16.043  1.0271 -0.1777 -0.4735
 9456SOL     OW39826   3.438   4.045   8.405  0.5867 -0.3116  0.8746
 9456SOL    HW139827   3.408   4.129   8.370  1.1320 -0.7284 -0.6040
 9456SOL    HW239828   3.489   4.071   8.483  1.0284 -0.7056  0.7187
 9457SOL     OW39829   1.354   2.432   6.208 -0.2093 -0.4439 -0.3412
 9457SOL    HW139830   1.420   2.501   6.204 -0.3920 -0.1570  1.6453
 9457SOL    HW239831   1.299   2.454   6.133  0.6920  1.3616 -0.4652
 9458SOL     OW39832   4.088   1.085   0.781  0.0249 -0.4455  0.0050
 9458SOL    HW139833   3.997   1.090   0.753  0.4890  0.0054 -1.4588
 9458SOL    HW239834   4.131   1.044   0.705 -1.9445 -1.2416 -0.6757
 9459SOL     OW39835   3.924   2.238   7.111 -0.0637  0.8357 -0.2554
 9459SOL    HW139836   3.949   2.182   7.038 -1.7751 -2.4224  1.6398
 9459SOL    HW239837   3.852   2.190   7.152  1.3957 -1.0611  0.0796
 9460SOL     OW39838   0.365   4.655   2.876  0.3023 -0.5140  0.1204
 9460SOL    HW139839   0.432   4.604   2.921 -0.0785  0.7332  2.1198
 9460SOL    HW239840   0.401   4.672   2.789  1.7700  2.5780  1.3414
 9461SOL     OW39841   3.362   4.563   7.295 -0.5420 -0.1103  0.0195
 9461SOL    HW139842   3.340   4.590   7.384  2.0708 -1.2258  0.9980
 9461SOL    HW239843   3.276   4.559   7.253  0.4731  0.3651 -2.1457
 9462SOL     OW39844   3.815   1.936   6.357  0.6530 -0.4197  0.0781
 9462SOL    HW139845   3.895   1.977   6.324  1.2016 -2.5434 -1.2545
 9462SOL    HW239846   3.777   2.020   6.383  0.4443 -0.5902  0.3280
 9463SOL     OW39847   1.718   2.818   1.100 -0.5310 -0.1667 -0.0958
 9463SOL    HW139848   1.769   2.738   1.088  0.8951  0.8676 -1.0681
 9463SOL    HW239849   1.776   2.876   1.151  2.1576 -2.1524 -0.8959
 9464SOL     OW39850   1.735   4.228   5.237  0.4353  0.0424  0.2145
 9464SOL    HW139851   1.794   4.177   5.181 -0.1928 -1.1223  0.6168
 9464SOL    HW239852   1.765   4.188   5.319 -0.4258  3.5605  2.2463
 9465SOL     OW39853   2.522   2.126   7.395 -0.5878 -0.0043  0.1281
 9465SOL    HW139854   2.571   2.075   7.331 -1.1188 -0.9878  0.5057
 9465SOL    HW239855   2.573   2.206   7.379 -0.0484 -0.2591  0.5429
 9466SOL     OW39856   3.132   1.939  10.514 -0.9955 -0.8658  0.3001
 9466SOL    HW139857   3.104   1.931  10.605 -0.3619  0.5513  0.6126
 9466SOL    HW239858   3.139   1.847  10.489 -0.7562 -0.7219 -0.1572
 9467SOL     OW39859   3.039   2.867   6.492  0.4988  0.2043  0.6256
 9467SOL    HW139860   3.085   2.803   6.545  0.1370  0.0358  0.7320
 9467SOL    HW239861   3.059   2.940   6.550  1.0712  0.7552 -0.2596
 9468SOL     OW39862   4.145   4.069   8.243 -0.5081 -0.5384  0.3770
 9468SOL    HW139863   4.170   4.112   8.161  0.1869 -0.2260  0.7472
 9468SOL    HW239864   4.166   3.975   8.241  1.3137 -0.1837  2.5165
 9469SOL     OW39865   4.128   3.913   8.861  0.3769 -0.4259  0.4497
 9469SOL    HW139866   4.050   3.962   8.889  1.0441  0.5172  0.6498
 9469SOL    HW239867   4.138   3.858   8.939  1.4765 -0.0651  0.5636
 9470SOL     OW39868   4.490   3.153   6.418  0.3076 -0.2671  0.0430
 9470SOL    HW139869   4.395   3.145   6.427  0.1395  0.5278 -1.0920
 9470SOL    HW239870   4.507   3.205   6.339 -0.3248  2.1828  1.5074
 9471SOL     OW39871   1.764   0.795   2.975 -0.1279 -0.4556 -0.2611
 9471SOL    HW139872   1.749   0.883   2.941 -1.6764 -1.1227 -1.3314
 9471SOL    HW239873   1.672   0.770   2.987  0.0641 -0.4999  1.0700
 9472SOL     OW39874   4.066   0.566  10.102  0.3994  0.0770 -0.0162
 9472SOL    HW139875   4.157   0.585  10.122  0.7841 -0.2309 -1.5263
 9472SOL    HW239876   4.080   0.479  10.064 -0.0980 -1.3640  3.1039
 9473SOL     OW39877   1.569   0.551  11.730 -0.2662 -0.0460  0.5223
 9473SOL    HW139878   1.653   0.527  11.691  0.3610 -0.4418  2.0946
 9473SOL    HW239879   1.514   0.509  11.664 -0.6600 -0.3812  1.0568
 9474SOL     OW39880   2.373   4.645   4.558 -0.1305 -0.5985  0.0143
 9474SOL    HW139881   2.326   4.656   4.640  0.3992 -1.1635  0.3901
 9474SOL    HW239882   2.324   4.575   4.515  1.2683  0.0699 -2.7273
 9475SOL     OW39883   0.106   2.965   2.642 -0.6854 -0.7017  1.0320
 9475SOL    HW139884   0.039   2.939   2.579 -0.0975  2.1053 -0.7159
 9475SOL    HW239885   0.099   3.060   2.635 -0.3762 -0.8012 -0.5819
 9476SOL     OW39886   4.149   1.647   0.235  0.0464  0.7570  0.0412
 9476SOL    HW139887   4.130   1.700   0.158 -0.1554  1.5853  0.6579
 9476SOL    HW239888   4.079   1.689   0.286 -0.3465 -0.2587  0.3368
 9477SOL     OW39889   2.963   0.812   6.895 -0.5834  0.1631 -0.3095
 9477SOL    HW139890   2.996   0.857   6.818  0.2953 -0.9101 -0.5569
 9477SOL    HW239891   2.940   0.727   6.859  0.2954  0.7191 -2.1593
 9478SOL     OW39892   3.662   4.635   5.948 -0.0955 -0.0158  0.0409
 9478SOL    HW139893   3.599   4.655   6.017 -3.5053  0.1643 -3.0622
 9478SOL    HW239894   3.605   4.631   5.871  0.3766 -1.5718 -0.2132
 9479SOL     OW39895   3.566   3.853  16.959  0.1686 -0.1391  0.2133
 9479SOL    HW139896   3.565   3.848  16.864 -0.5645 -1.0213  0.2745
 9479SOL    HW239897   3.471   3.844  16.966  0.1203 -0.7569 -1.3190
 9480SOL     OW39898   2.405   0.784   1.521  0.0579 -0.0720 -0.0091
 9480SOL    HW139899   2.324   0.833   1.539  0.8017  0.6668  1.3438
 9480SOL    HW239900   2.391   0.700   1.565  0.7598  0.8285  1.9402
 9481SOL     OW39901   2.698   1.125  13.143 -0.3626 -0.2777 -0.6448
 9481SOL    HW139902   2.692   1.176  13.063 -1.5007  1.3764  0.4939
 9481SOL    HW239903   2.711   1.034  13.117  0.1371 -0.2825 -0.3810
 9482SOL     OW39904   3.426   0.599   6.779  0.5864  0.3896  0.4074
 9482SOL    HW139905   3.378   0.665   6.728 -0.4341  0.5147  1.5301
 9482SOL    HW239906   3.426   0.521   6.723 -1.6004  0.7636 -0.1460
 9483SOL     OW39907   0.219   0.478   6.434  0.2208  0.0827 -0.5976
 9483SOL    HW139908   0.221   0.574   6.431  2.4298  0.0007 -1.5770
 9483SOL    HW239909   0.135   0.464   6.391  0.2893  0.1224 -0.7430
 9484SOL     OW39910   0.158   3.259   3.921  0.3221 -0.0435  0.9499
 9484SOL    HW139911   0.135   3.351   3.913 -0.6606 -0.6075 -2.5799
 9484SOL    HW239912   0.119   3.218   3.844 -2.6203  0.1822  2.3124
 9485SOL     OW39913   4.112   2.258   9.553 -0.0280  0.2232 -0.3102
 9485SOL    HW139914   4.023   2.274   9.583  0.0872  2.0138 -0.9123
 9485SOL    HW239915   4.161   2.241   9.634 -0.7460 -1.1228 -0.1671
 9486SOL     OW39916   0.967   0.329  15.862 -0.2622  0.0275 -0.1638
 9486SOL    HW139917   1.046   0.369  15.898 -0.8678  0.8819  0.1923
 9486SOL    HW239918   0.973   0.334  15.766 -0.0800  2.9102  0.0130
 9487SOL     OW39919   0.408   1.228   1.836 -0.2375 -0.7182  0.6158
 9487SOL    HW139920   0.338   1.186   1.886  0.5002 -0.4126  1.9279
 9487SOL    HW239921   0.461   1.156   1.802 -1.6923 -1.7506  0.5512
 9488SOL     OW39922   3.277   2.168   9.330  0.4868  0.5463 -0.7251
 9488SOL    HW139923   3.339   2.155   9.258 -0.6893  1.8693 -1.9584
 9488SOL    HW239924   3.311   2.241   9.381 -1.1468 -0.2045  1.4305
 9489SOL     OW39925   3.936   2.908   5.604  0.5524  0.1561 -0.0285
 9489SOL    HW139926   4.001   2.854   5.558 -0.3940 -0.6234 -0.4414
 9489SOL    HW239927   3.878   2.948   5.539 -0.3806  0.0150  0.7335
 9490SOL     OW39928   0.230   0.804   3.623 -0.4402 -0.6286  0.0611
 9490SOL    HW139929   0.186   0.889   3.633  1.0641  0.2600 -0.8567
 9490SOL    HW239930   0.251   0.795   3.717  2.6103  1.4142 -0.4194
 9491SOL     OW39931   0.522   2.913   8.854 -0.4396 -0.6399 -0.0517
 9491SOL    HW139932   0.468   2.842   8.889  1.1358 -1.5256  0.6095
 9491SOL    HW239933   0.577   2.880   8.783  0.8980  1.1666  0.1200
 9492SOL     OW39934   0.887   2.925   5.371 -0.4273 -0.2992 -0.7693
 9492SOL    HW139935   0.901   2.967   5.456 -1.0483  0.0545 -0.8434
 9492SOL    HW239936   0.868   2.833   5.389 -0.2774 -0.3544 -0.9004
 9493SOL     OW39937   0.548   4.251  14.868  0.1239 -0.2404 -0.3345
 9493SOL    HW139938   0.578   4.171  14.826 -0.5274 -0.3500 -0.5854
 9493SOL    HW239939   0.453   4.249  14.857 -0.3058 -0.0642  3.4920
 9494SOL     OW39940   1.745   1.050   9.100  0.5380 -0.0547 -1.0000
 9494SOL    HW139941   1.756   0.955   9.108  0.0575 -0.2644 -2.9415
 9494SOL    HW239942   1.733   1.083   9.190 -2.1813 -1.6429 -0.7713
 9495SOL     OW39943   3.788   3.016   1.552  0.5412  0.2591 -0.4246
 9495SOL    HW139944   3.812   3.006   1.644 -2.9884 -1.9939  0.2559
 9495SOL    HW239945   3.768   2.925   1.530  0.9431 -0.3435  1.7331
 9496SOL     OW39946   2.434   3.975   1.225 -0.0417 -0.3305 -0.0606
 9496SOL    HW139947   2.357   4.032   1.221  1.1178  1.2573  0.5587
 9496SOL    HW239948   2.479   3.984   1.140  2.4124  0.0891  1.2861
 9497SOL     OW39949   2.705   4.006   1.605  0.0389 -0.8415  0.3446
 9497SOL    HW139950   2.705   4.052   1.689  1.3034 -0.6991  0.2696
 9497SOL    HW239951   2.800   3.998   1.596 -0.0973 -2.7349  0.6821
 9498SOL     OW39952   2.950   1.828   8.244  0.6156  0.5589  0.1931
 9498SOL    HW139953   2.960   1.736   8.219 -0.3734  0.2799  0.8827
 9498SOL    HW239954   3.040   1.851   8.267  1.0560  2.0271 -2.9996
 9499SOL     OW39955   3.189   1.663   5.703 -0.6548  0.3826  0.1518
 9499SOL    HW139956   3.217   1.606   5.631  1.2862  2.4494 -0.7415
 9499SOL    HW239957   3.133   1.732   5.668 -2.1904 -1.4756 -1.0597
 9500SOL     OW39958   2.721   1.445  16.805  0.6194  0.4050 -0.2734
 9500SOL    HW139959   2.723   1.502  16.882  1.2122  2.3755 -1.7491
 9500SOL    HW239960   2.640   1.482  16.770  0.1758 -0.1136  0.2112
 9501SOL     OW39961   2.147   1.899   8.341 -0.0163 -0.4384 -0.0471
 9501SOL    HW139962   2.185   1.848   8.412  1.1803 -0.7258 -0.8959
 9501SOL    HW239963   2.201   1.874   8.266  0.0161 -2.2786  0.6001
 9502SOL     OW39964   3.456   2.040   6.272  0.0296 -0.0304 -0.3621
 9502SOL    HW139965   3.527   2.049   6.208  0.9516 -0.2299  0.6472
 9502SOL    HW239966   3.392   2.107   6.246  1.1236  1.6344  1.2506
 9503SOL     OW39967   1.482   4.637   4.619 -0.3587  0.3158 -0.2711
 9503SOL    HW139968   1.450   4.585   4.546  0.4801  0.8154 -0.9992
 9503SOL    HW239969   1.539   4.584   4.675  1.3684  2.6099  0.1536
 9504SOL     OW39970   2.244   2.724  15.018 -0.0942 -0.4864  0.3915
 9504SOL    HW139971   2.198   2.731  15.101  0.2204  0.1524  0.5157
 9504SOL    HW239972   2.317   2.663  15.027  1.0451  0.3871 -2.9947
 9505SOL     OW39973   3.559   1.388   2.767 -0.0689  0.0913  0.6004
 9505SOL    HW139974   3.609   1.466   2.791  0.0894  0.8516 -2.1393
 9505SOL    HW239975   3.474   1.428   2.747 -0.2001  0.1949  1.3770
 9506SOL     OW39976   0.474   0.890  16.069  0.3306  0.3255 -0.2676
 9506SOL    HW139977   0.523   0.810  16.050  0.6212  0.7347 -1.2309
 9506SOL    HW239978   0.424   0.857  16.144 -2.0226  1.4448 -1.3355
 9507SOL     OW39979   1.832   1.686   2.005 -0.1835  0.6481 -0.2097
 9507SOL    HW139980   1.807   1.687   2.097 -2.0159  1.6158 -0.7290
 9507SOL    HW239981   1.923   1.655   2.003 -0.4467 -0.0942 -0.7299
 9508SOL     OW39982   1.026   4.647   8.794 -0.2955 -0.0425 -0.2847
 9508SOL    HW139983   1.103   4.703   8.807 -0.6568  0.3442  0.1446
 9508SOL    HW239984   0.964   4.708   8.835  1.3125  0.4342  1.4408
 9509SOL     OW39985   0.169   1.031   0.181  0.1050 -0.4697  0.4314
 9509SOL    HW139986   0.137   0.966   0.244 -0.9264  0.7293  1.1461
 9509SOL    HW239987   0.258   1.037   0.217 -0.5821  4.0135  1.4361
 9510SOL     OW39988   4.643   2.933  14.203 -0.1941 -0.4807  0.0161
 9510SOL    HW139989   4.668   2.937  14.111  0.9497 -3.5985  0.1776
 9510SOL    HW239990   4.548   2.945  14.197 -0.0570  0.9177  0.6475
 9511SOL     OW39991   2.427   1.821  16.876  0.0701  0.0723  0.0501
 9511SOL    HW139992   2.496   1.884  16.856  0.1272  0.4685  1.5513
 9511SOL    HW239993   2.382   1.829  16.792 -1.7920  0.9945  1.1418
 9512SOL     OW39994   0.050   1.865   7.649  0.1988 -0.7211  0.4035
 9512SOL    HW139995   4.692   1.905   7.679  0.2041  0.9187 -1.7500
 9512SOL    HW239996   0.116   1.935   7.648  1.8551 -2.2708  1.1203
 9513SOL     OW39997   3.438   0.923  16.388  0.1601  0.7741 -0.4362
 9513SOL    HW139998   3.484   0.908  16.471  1.6402 -2.0591 -1.7938
 9513SOL    HW239999   3.361   0.877  16.422 -0.1795  0.8287 -1.1375
 9514SOL     OW40000   2.091   2.246   7.491  0.3781  0.1053 -0.6352
 9514SOL    HW140001   2.050   2.177   7.439 -1.8881 -1.0260  2.6598
 9514SOL    HW240002   2.030   2.318   7.478  1.0411  0.9868  1.0888
 9515SOL     OW40003   0.326   3.563   5.542 -0.1808 -0.3787 -0.1095
 9515SOL    HW140004   0.269   3.522   5.476 -0.9445  0.7524 -0.1426
 9515SOL    HW240005   0.265   3.602   5.605 -0.1884  1.3430 -1.1813
 9516SOL     OW40006   2.495   4.324   4.630  0.5533  0.4683  0.4809
 9516SOL    HW140007   2.500   4.235   4.597 -0.1983  0.8708 -0.7433
 9516SOL    HW240008   2.463   4.370   4.552 -0.9027 -0.7806  0.3453
 9517SOL     OW40009   0.717   3.766   8.615  0.1103 -0.0001 -0.1412
 9517SOL    HW140010   0.792   3.806   8.572 -0.8094  1.0848 -0.7368
 9517SOL    HW240011   0.678   3.709   8.549 -0.2928 -1.4353  1.3161
 9518SOL     OW40012   1.336   1.545   6.148 -0.3660 -0.1872 -0.0040
 9518SOL    HW140013   1.323   1.526   6.055  1.4999  0.8708 -0.4685
 9518SOL    HW240014   1.354   1.638   6.136  0.1420 -0.2137  0.5580
 9519SOL     OW40015   4.394   1.618   7.443  0.2391 -0.0058 -0.5755
 9519SOL    HW140016   4.307   1.577   7.448 -0.9286  2.5515  0.1008
 9519SOL    HW240017   4.444   1.590   7.520  1.4342  0.8381 -1.0533
 9520SOL     OW40018   3.539   2.260  17.379 -0.1931  0.2338  0.0481
 9520SOL    HW140019   3.487   2.332  17.414  0.8988  0.7371  0.6162
 9520SOL    HW240020   3.619   2.306  17.357  0.7386 -0.9684  0.8936
 9521SOL     OW40021   0.798   1.239   4.532  0.4878  0.4563  0.2438
 9521SOL    HW140022   0.863   1.178   4.567  0.0567 -1.5246 -2.4504
 9521SOL    HW240023   0.755   1.257   4.616 -1.2022  1.3174 -0.8118
 9522SOL     OW40024   0.738   4.177  16.487 -0.1783  0.2274 -0.0828
 9522SOL    HW140025   0.655   4.129  16.479  0.9437 -1.9413  1.2941
 9522SOL    HW240026   0.778   4.141  16.407 -0.1649  0.2209 -0.0733
 9523SOL     OW40027   2.190   1.358  14.997 -0.4484 -0.1095  0.3106
 9523SOL    HW140028   2.113   1.390  14.950 -0.4054  0.0836  0.3697
 9523SOL    HW240029   2.194   1.273  14.954 -0.4906  1.2280 -2.3257
 9524SOL     OW40030   1.915   2.753   6.264 -0.4896  0.4660 -0.7960
 9524SOL    HW140031   1.964   2.797   6.333 -0.4541 -2.2730  0.9432
 9524SOL    HW240032   1.945   2.662   6.261  0.2392  0.7442 -2.1040
 9525SOL     OW40033   3.540   3.831  12.509 -0.5455  0.1217  0.1692
 9525SOL    HW140034   3.581   3.820  12.594  0.4608 -1.3581 -0.4945
 9525SOL    HW240035   3.445   3.825  12.522 -0.3794  0.5800  1.4790
 9526SOL     OW40036   0.717   1.983  13.905 -0.2106  0.4207 -0.5473
 9526SOL    HW140037   0.757   2.018  13.984 -1.9534  0.4240  0.3225
 9526SOL    HW240038   0.762   1.900  13.890  0.0773  0.0002  2.6557
 9527SOL     OW40039   3.609   0.998   9.104  0.5538 -0.5172 -0.1172
 9527SOL    HW140040   3.689   1.050   9.104 -0.2045  0.6886  1.9959
 9527SOL    HW240041   3.561   1.079   9.122  1.2015  0.1089 -1.2680
 9528SOL     OW40042   4.627   3.783   2.379  0.4097 -0.3926 -0.3721
 9528SOL    HW140043   4.583   3.723   2.439  1.1339 -2.4060 -1.8755
 9528SOL    HW240044   4.551   3.832   2.346  0.6014 -0.3045 -0.6781
 9529SOL     OW40045   3.102   1.259   2.685 -0.5833  0.1553 -0.1180
 9529SOL    HW140046   3.032   1.239   2.622 -0.9117  1.9878 -0.3350
 9529SOL    HW240047   3.150   1.323   2.633  0.1269  0.2611  0.6828
 9530SOL     OW40048   4.498   3.868   2.741 -0.5909 -0.2235 -0.4794
 9530SOL    HW140049   4.521   3.960   2.722 -0.9904 -0.0112  0.0837
 9530SOL    HW240050   4.579   3.818   2.732 -0.3828 -0.1611  1.0345
 9531SOL     OW40051   4.016   2.533   3.640 -0.3311 -0.2864 -0.0698
 9531SOL    HW140052   3.973   2.597   3.697  0.2567  1.5731 -1.7323
 9531SOL    HW240053   3.940   2.477   3.624 -1.3758  1.2168 -0.4212
 9532SOL     OW40054   1.265   0.240   5.271  0.0463  0.4059  0.1983
 9532SOL    HW140055   1.265   0.329   5.306 -2.0935  0.0494  1.0930
 9532SOL    HW240056   1.202   0.196   5.329 -0.2329  1.7527  0.9264
 9533SOL     OW40057   2.823   2.136   4.623  0.5066 -0.8091 -0.0051
 9533SOL    HW140058   2.730   2.158   4.614  0.4983 -0.2900  1.3401
 9533SOL    HW240059   2.821   2.052   4.577  1.2108  0.3398 -2.1487
 9534SOL     OW40060   2.764   0.851   3.545 -0.6522 -0.3029 -0.3640
 9534SOL    HW140061   2.822   0.797   3.491 -0.1980  2.4111 -2.5957
 9534SOL    HW240062   2.693   0.790   3.567 -1.0771  0.1149 -0.5813
 9535SOL     OW40063   0.291   1.433   2.481  0.3586  0.1202 -0.2168
 9535SOL    HW140064   0.215   1.477   2.444  1.1563  0.8659 -0.9885
 9535SOL    HW240065   0.251   1.347   2.484 -0.0963  0.4004  1.6531
 9536SOL     OW40066   3.507   4.513  16.248 -0.0349  0.1602  0.2678
 9536SOL    HW140067   3.421   4.471  16.254 -0.3619  0.5045 -1.7658
 9536SOL    HW240068   3.486   4.599  16.283  0.2217  0.4601 -0.3105
 9537SOL     OW40069   3.095   2.039   4.709  0.1967 -0.2117  0.2871
 9537SOL    HW140070   3.118   2.125   4.745 -0.5458 -0.0223  0.3023
 9537SOL    HW240071   3.011   2.064   4.670  0.2743 -1.2253 -0.5281
 9538SOL     OW40072   1.118   4.583   3.712  0.4590  0.0132 -0.0829
 9538SOL    HW140073   1.172   4.602   3.789 -0.5259 -0.2826  0.6777
 9538SOL    HW240074   1.032   4.564   3.749  1.1316 -3.1781 -0.1895
 9539SOL     OW40075   2.376   4.138   7.415  0.7465 -0.4069  0.0449
 9539SOL    HW140076   2.332   4.168   7.336  1.0495  2.0904  0.8488
 9539SOL    HW240077   2.328   4.057   7.433  0.7177 -0.3741  0.1159
 9540SOL     OW40078   1.534   4.147  17.149  0.0768  0.2432 -0.1205
 9540SOL    HW140079   1.575   4.110  17.071 -1.2106 -0.4944 -0.4579
 9540SOL    HW240080   1.591   4.130  17.224 -0.5310 -1.9896 -0.1772
 9541SOL     OW40081   0.210   3.678   3.169 -0.0841  0.0381 -0.1439
 9541SOL    HW140082   0.282   3.627   3.132  1.5806  0.4815  2.4674
 9541SOL    HW240083   0.249   3.766   3.162 -0.9301  0.2596 -2.1168
 9542SOL     OW40084   2.412   1.243  13.697 -0.0256 -0.6275  0.0105
 9542SOL    HW140085   2.473   1.317  13.700  0.2289 -0.8107 -0.5257
 9542SOL    HW240086   2.333   1.294  13.678 -1.3138 -3.2497 -1.7846
 9543SOL     OW40087   2.358   3.240   1.866 -0.5149  0.5813  0.4873
 9543SOL    HW140088   2.443   3.244   1.822 -0.7279 -0.9515 -0.0526
 9543SOL    HW240089   2.371   3.156   1.910 -0.8505 -0.3989 -1.2614
 9544SOL     OW40090   4.355   1.505   0.761 -0.5922  0.0327 -0.0256
 9544SOL    HW140091   4.339   1.493   0.668  2.1184  1.6815 -0.6988
 9544SOL    HW240092   4.360   1.415   0.793  1.6779 -0.5458 -2.0509
 9545SOL     OW40093   3.681   1.594   0.599  0.2358  0.0015 -0.5082
 9545SOL    HW140094   3.729   1.640   0.668 -0.1827  0.7344 -0.7188
 9545SOL    HW240095   3.707   1.507   0.630 -1.7767  0.3348  2.1535
 9546SOL     OW40096   1.113   1.101  13.983 -0.1551 -0.6659 -0.3454
 9546SOL    HW140097   1.133   1.189  13.952  1.5415 -0.4770  1.2514
 9546SOL    HW240098   1.151   1.047  13.915  0.3405 -0.2680 -0.3760
 9547SOL     OW40099   0.679   4.706   3.243 -0.5007  0.8089  0.0252
 9547SOL    HW140100   0.766   4.677   3.214 -0.4183  0.7216  0.3596
 9547SOL    HW240101   0.631   4.625   3.227 -1.1091  1.1208  0.2985
 9548SOL     OW40102   3.320   3.076   1.185 -0.2519 -0.4063 -0.0619
 9548SOL    HW140103   3.391   3.065   1.249 -0.6104  1.0249  0.5951
 9548SOL    HW240104   3.268   3.147   1.222 -0.6933 -1.3762  1.1675
 9549SOL     OW40105   3.102   4.401  12.991 -0.4757 -0.2988 -0.1160
 9549SOL    HW140106   3.053   4.412  12.909  0.1271 -1.1682 -0.6038
 9549SOL    HW240107   3.142   4.315  12.976 -0.6058 -0.3388 -0.2326
 9550SOL     OW40108   1.782   4.191   6.712 -0.6371  0.5475 -0.0442
 9550SOL    HW140109   1.716   4.231   6.769  0.6507 -0.6589  2.2863
 9550SOL    HW240110   1.858   4.249   6.722 -0.5273  0.6438 -1.4602
 9551SOL     OW40111   2.653   2.018   0.079 -0.1567 -0.1186 -0.5119
 9551SOL    HW140112   2.683   1.929   0.065 -0.3905 -0.2682 -0.0672
 9551SOL    HW240113   2.643   2.006   0.174  1.3987 -0.7977 -0.4494
 9552SOL     OW40114   3.373   4.164   5.333 -0.0423 -0.1528  0.9196
 9552SOL    HW140115   3.291   4.129   5.298  0.7169  1.4964 -2.5857
 9552SOL    HW240116   3.432   4.098   5.297  0.7532  0.1710  1.6159
 9553SOL     OW40117   2.017   1.511   7.738  0.5206  0.0378 -0.3644
 9553SOL    HW140118   2.007   1.595   7.692  1.8213 -0.0827 -0.8653
 9553SOL    HW240119   1.970   1.525   7.821  0.1959 -0.5894 -0.4482
 9554SOL     OW40120   1.632   1.463   3.297  0.1191 -0.2377  0.0931
 9554SOL    HW140121   1.705   1.504   3.343 -1.6964  1.0763  1.7835
 9554SOL    HW240122   1.616   1.386   3.353 -0.0706  0.9502  1.6688
 9555SOL     OW40123   4.228   4.681   2.526  0.1062 -0.4956 -0.4125
 9555SOL    HW140124   4.147   4.714   2.487 -1.3907 -0.8177  2.4487
 9555SOL    HW240125   4.296   0.014   2.489 -1.6583  1.4128 -0.7180
 9556SOL     OW40126   0.129   0.965   7.982 -0.3290 -0.2283  0.1494
 9556SOL    HW140127   0.143   0.884   8.031 -1.3307  0.3467  1.3791
 9556SOL    HW240128   0.218   0.994   8.004 -0.1680 -0.8966  0.3824
 9557SOL     OW40129   1.372   1.389   6.535  0.4345 -0.2772 -0.0054
 9557SOL    HW140130   1.311   1.379   6.461  1.0082  0.8644 -0.6168
 9557SOL    HW240131   1.431   1.451   6.494  0.0717  0.6568  0.8917
 9558SOL     OW40132   3.638   1.424   7.379  0.2250  0.3042 -0.2897
 9558SOL    HW140133   3.722   1.445   7.338  1.0764 -0.4233  1.0994
 9558SOL    HW240134   3.613   1.345   7.332  0.3547  0.5902 -0.8482
 9559SOL     OW40135   3.204   1.406   4.499  0.4668  0.0255 -0.1691
 9559SOL    HW140136   3.284   1.448   4.468  0.9478 -0.9536 -0.2575
 9559SOL    HW240137   3.146   1.430   4.426 -1.7576 -0.6183  1.3690
 9560SOL     OW40138   0.089   0.095   5.643  0.1083 -0.3011  0.1590
 9560SOL    HW140139   0.029   0.036   5.686  1.9196 -2.0224  0.3233
 9560SOL    HW240140   0.054   0.182   5.663  0.3376 -0.0791 -0.3920
 9561SOL     OW40141   2.537   0.775   5.287  0.1497 -0.1185  0.0620
 9561SOL    HW140142   2.505   0.850   5.237 -0.9032 -0.5378  0.1035
 9561SOL    HW240143   2.518   0.792   5.379  0.8917  1.1371 -0.0172
 9562SOL     OW40144   0.158   0.848   4.141  0.1451  0.1091 -0.1020
 9562SOL    HW140145   0.195   0.809   4.219  1.0115 -0.2800 -0.7060
 9562SOL    HW240146   0.071   0.869   4.175  1.3056  1.5628  1.9545
 9563SOL     OW40147   3.989   0.460   9.292 -0.1390 -0.5120 -0.3351
 9563SOL    HW140148   3.932   0.469   9.215 -0.2982  0.2303 -0.1312
 9563SOL    HW240149   4.054   0.528   9.272 -0.6642  0.7267  2.1406
 9564SOL     OW40150   1.927   1.764   0.287 -0.6125  0.2974  0.2554
 9564SOL    HW140151   1.889   1.815   0.216 -0.8844 -0.1675  0.0708
 9564SOL    HW240152   1.853   1.708   0.308  0.3808 -0.5726  1.4749
 9565SOL     OW40153   0.627   2.499   3.035 -0.1530  0.3387  0.1158
 9565SOL    HW140154   0.653   2.585   3.068 -0.0886  0.3221  0.1087
 9565SOL    HW240155   0.714   2.468   3.009 -0.0186 -0.2010  1.2274
   4.72351   4.72351  17.69583
